<event>
 7    1  0.5504027E-010  0.4778727E+02  0.7816164E-02  0.1312668E+00
        -11   -1    0    0    0    0  0.00000000000E+00  0.00000000000E+00  0.45593999997E+02  0.45594000000E+02  0.51100000000E-03 0.  1.
         11   -1    0    0    0    0 -0.00000000000E+00 -0.00000000000E+00 -0.45593999997E+02  0.45594000000E+02  0.51100000000E-03 0. -1.
    9900012    2    1    2    0    0  0.39076541920E+02  0.12436282551E+02  0.14212173034E+02  0.47787272881E+02  0.20000008373E+02 0.  0.
         12    1    1    2    0    0 -0.39076541920E+02 -0.12436282551E+02 -0.14212173034E+02  0.43400727119E+02  0.00000000000E+00 0. -1.
         11    1    3    3    0    0 -0.39928332936E+00  0.20170822107E+01 -0.23042413088E+01  0.30882966328E+01  0.51100000000E-03 0. -1.
        -11    1    3    3    0    0  0.26701733912E+02  0.48361554777E+01  0.77124221154E+01  0.28210856933E+02  0.51100000000E-03 0.  1.
        -12    1    3    3    0    0  0.12774091337E+02  0.55830448622E+01  0.88039922269E+01  0.16488119315E+02  0.00000000000E+00 0.  1.
</event>
<event>
 7    1  0.5504027E-010  0.4778729E+02  0.7816164E-02  0.1312668E+00
        -11   -1    0    0    0    0  0.00000000000E+00  0.00000000000E+00  0.45593999997E+02  0.45594000000E+02  0.51100000000E-03 0. -1.
         11   -1    0    0    0    0 -0.00000000000E+00 -0.00000000000E+00 -0.45593999997E+02  0.45594000000E+02  0.51100000000E-03 0.  1.
    9900012    2    1    2    0    0 -0.21359761031E+01  0.33307390669E+02 -0.27743060132E+02  0.47787285114E+02  0.20000064150E+02 0.  0.
         12    1    1    2    0    0  0.21359761031E+01 -0.33307390669E+02  0.27743060132E+02  0.43400714886E+02  0.00000000000E+00 0. -1.
         11    1    3    3    0    0 -0.62737249789E+01  0.23052586201E+02 -0.27284284969E+02  0.36265873244E+02  0.51100000000E-03 0. -1.
        -11    1    3    3    0    0  0.23577023587E+01  0.88512389565E+01 -0.92721169451E+00  0.92066776453E+01  0.51100000000E-03 0.  1.
         12    1    3    3    0    0  0.17800465171E+01  0.14035655111E+01  0.46843653083E+00  0.23147342246E+01  0.00000000000E+00 0. -1.
</event>
<event>
 7    1  0.5504027E-010  0.4778727E+02  0.7816164E-02  0.1312668E+00
        -11   -1    0    0    0    0  0.00000000000E+00  0.00000000000E+00  0.45593999997E+02  0.45594000000E+02  0.51100000000E-03 0.  1.
         11   -1    0    0    0    0 -0.00000000000E+00 -0.00000000000E+00 -0.45593999997E+02  0.45594000000E+02  0.51100000000E-03 0. -1.
    9900012    2    1    2    0    0 -0.34329515336E+02 -0.25229587915E+01  0.26433734189E+02  0.47787271349E+02  0.20000001386E+02 0.  0.
         12    1    1    2    0    0  0.34329515336E+02  0.25229587915E+01 -0.26433734189E+02  0.43400728651E+02  0.00000000000E+00 0. -1.
         11    1    3    3    0    0 -0.25112654616E+02  0.29115315360E+01  0.14469424787E+02  0.29128794889E+02  0.51100000000E-03 0. -1.
        -11    1    3    3    0    0 -0.67868100750E+01  0.14406687007E+01  0.68652758538E+01  0.97605496827E+01  0.51100000000E-03 0.  1.
         12    1    3    3    0    0 -0.24300506455E+01 -0.68751590282E+01  0.50990335479E+01  0.88979267768E+01  0.00000000000E+00 0. -1.
</event>
<event>
 7    1  0.5504027E-010  0.4778729E+02  0.7816164E-02  0.1312668E+00
        -11   -1    0    0    0    0  0.00000000000E+00  0.00000000000E+00  0.45593999997E+02  0.45594000000E+02  0.51100000000E-03 0. -1.
         11   -1    0    0    0    0 -0.00000000000E+00 -0.00000000000E+00 -0.45593999997E+02  0.45594000000E+02  0.51100000000E-03 0.  1.
    9900012    2    1    2    0    0 -0.41615787070E+02  0.11998486653E+02  0.27900312716E+01  0.47787289293E+02  0.20000083201E+02 0.  0.
         12    1    1    2    0    0  0.41615787070E+02 -0.11998486653E+02 -0.27900312716E+01  0.43400710707E+02  0.00000000000E+00 0. -1.
         11    1    3    3    0    0 -0.94621220599E+01  0.11829398342E+02  0.31585815030E+01  0.15473947666E+02  0.51100000000E-03 0. -1.
        -11    1    3    3    0    0 -0.22850178827E+01 -0.81237525926E+00 -0.10524939854E+00  0.24274138467E+01  0.51100000000E-03 0.  1.
         12    1    3    3    0    0 -0.29868647127E+02  0.98146357085E+00 -0.26330083289E+00  0.29885927780E+02  0.00000000000E+00 0. -1.
</event>
<event>
 7    1  0.5504027E-010  0.4778727E+02  0.7816164E-02  0.1312668E+00
        -11   -1    0    0    0    0  0.00000000000E+00  0.00000000000E+00  0.45593999997E+02  0.45594000000E+02  0.51100000000E-03 0.  1.
         11   -1    0    0    0    0 -0.00000000000E+00 -0.00000000000E+00 -0.45593999997E+02  0.45594000000E+02  0.51100000000E-03 0. -1.
    9900012    2    1    2    0    0 -0.14919876888E+02  0.11358916881E+02  0.39140713676E+02  0.47787272055E+02  0.20000004608E+02 0.  0.
         12    1    1    2    0    0  0.14919876888E+02 -0.11358916881E+02 -0.39140713676E+02  0.43400727945E+02  0.00000000000E+00 0. -1.
         11    1    3    3    0    0 -0.66855819001E+01 -0.31049140927E+01  0.14549209972E+02  0.16310027834E+02  0.51100000000E-03 0. -1.
        -11    1    3    3    0    0 -0.44161139249E+01  0.15082466462E+02  0.18663782881E+02  0.24399173110E+02  0.51100000000E-03 0.  1.
        -12    1    3    3    0    0 -0.38181810633E+01 -0.61863548808E+00  0.59277208225E+01  0.70780711108E+01  0.00000000000E+00 0.  1.
</event>
<event>
 7    1  0.5504027E-010  0.4778727E+02  0.7816164E-02  0.1312668E+00
        -11   -1    0    0    0    0  0.00000000000E+00  0.00000000000E+00  0.45593999997E+02  0.45594000000E+02  0.51100000000E-03 0.  1.
         11   -1    0    0    0    0 -0.00000000000E+00 -0.00000000000E+00 -0.45593999997E+02  0.45594000000E+02  0.51100000000E-03 0. -1.
    9900012    2    1    2    0    0 -0.41293969267E+01  0.75114959526E+01  0.42545846063E+02  0.47787268351E+02  0.19999987719E+02 0.  0.
         12    1    1    2    0    0  0.41293969267E+01 -0.75114959526E+01 -0.42545846063E+02  0.43400731649E+02  0.00000000000E+00 0. -1.
         11    1    3    3    0    0  0.27628223838E+00 -0.22914632406E+00  0.21606822818E+00  0.41895781820E+00  0.51100000000E-03 0. -1.
        -11    1    3    3    0    0  0.46360671939E+01 -0.35836692776E+01  0.19197565259E+02  0.20071928574E+02  0.51100000000E-03 0.  1.
        -12    1    3    3    0    0 -0.90417463590E+01  0.11324311554E+02  0.23132212576E+02  0.27296381959E+02  0.00000000000E+00 0.  1.
</event>
<event>
 7    1  0.5504027E-010  0.4778727E+02  0.7816164E-02  0.1312668E+00
        -11   -1    0    0    0    0  0.00000000000E+00  0.00000000000E+00  0.45593999997E+02  0.45594000000E+02  0.51100000000E-03 0. -1.
         11   -1    0    0    0    0 -0.00000000000E+00 -0.00000000000E+00 -0.45593999997E+02  0.45594000000E+02  0.51100000000E-03 0.  1.
    9900012    2    1    2    0    0 -0.27140162048E+02 -0.11701647265E+01 -0.33847686488E+02  0.47787267724E+02  0.19999984862E+02 0.  0.
         12    1    1    2    0    0  0.27140162048E+02  0.11701647265E+01  0.33847686488E+02  0.43400732276E+02  0.00000000000E+00 0. -1.
         11    1    3    3    0    0 -0.98118990603E+01 -0.64030603640E+01 -0.62478833538E+01  0.13278124561E+02  0.51100000000E-03 0. -1.
        -11    1    3    3    0    0 -0.14679894918E+02  0.19635453336E+01 -0.26161030378E+02  0.30062507144E+02  0.51100000000E-03 0.  1.
         12    1    3    3    0    0 -0.26483680698E+01  0.32693503039E+01 -0.14387727561E+01  0.44466360191E+01  0.00000000000E+00 0. -1.
</event>
<event>
 7    1  0.5504027E-010  0.4778727E+02  0.7816164E-02  0.1312668E+00
        -11   -1    0    0    0    0  0.00000000000E+00  0.00000000000E+00  0.45593999997E+02  0.45594000000E+02  0.51100000000E-03 0. -1.
         11   -1    0    0    0    0 -0.00000000000E+00 -0.00000000000E+00 -0.45593999997E+02  0.45594000000E+02  0.51100000000E-03 0.  1.
    9900012    2    1    2    0    0 -0.38302344608E+02  0.41658014183E+01 -0.19979982009E+02  0.47787272069E+02  0.20000004669E+02 0.  0.
         12    1    1    2    0    0  0.38302344608E+02 -0.41658014183E+01  0.19979982009E+02  0.43400727931E+02  0.00000000000E+00 0. -1.
         11    1    3    3    0    0 -0.18738658042E+02  0.62259711046E+01 -0.67405346050E+01  0.20864678968E+02  0.51100000000E-03 0. -1.
        -11    1    3    3    0    0 -0.12241015535E+02 -0.60652941524E+01 -0.35125527896E+01  0.14105611714E+02  0.51100000000E-03 0.  1.
        -12    1    3    3    0    0 -0.73226710311E+01  0.40051244661E+01 -0.97268946144E+01  0.12816981386E+02  0.00000000000E+00 0.  1.
</event>
<event>
 7    1  0.5504027E-010  0.4778727E+02  0.7816164E-02  0.1312668E+00
        -11   -1    0    0    0    0  0.00000000000E+00  0.00000000000E+00  0.45593999997E+02  0.45594000000E+02  0.51100000000E-03 0. -1.
         11   -1    0    0    0    0 -0.00000000000E+00 -0.00000000000E+00 -0.45593999997E+02  0.45594000000E+02  0.51100000000E-03 0.  1.
    9900012    2    1    2    0    0 -0.21064369804E+02  0.29725812071E+02 -0.23585838135E+02  0.47787270294E+02  0.19999996578E+02 0.  0.
         12    1    1    2    0    0  0.21064369804E+02 -0.29725812071E+02  0.23585838135E+02  0.43400729706E+02  0.00000000000E+00 0. -1.
         11    1    3    3    0    0 -0.14297969614E+02  0.78855275044E+01 -0.57945823316E+01  0.17326011191E+02  0.51100000000E-03 0. -1.
        -11    1    3    3    0    0 -0.89493915907E+01  0.18261728218E+02 -0.13204090983E+02  0.24247275029E+02  0.51100000000E-03 0.  1.
         12    1    3    3    0    0  0.21829914011E+01  0.35785563479E+01 -0.45871648202E+01  0.62139840747E+01  0.00000000000E+00 0. -1.
</event>
<event>
 7    1  0.5504027E-010  0.4778727E+02  0.7816164E-02  0.1312668E+00
        -11   -1    0    0    0    0  0.00000000000E+00  0.00000000000E+00  0.45593999997E+02  0.45594000000E+02  0.51100000000E-03 0. -1.
         11   -1    0    0    0    0 -0.00000000000E+00 -0.00000000000E+00 -0.45593999997E+02  0.45594000000E+02  0.51100000000E-03 0.  1.
    9900012    2    1    2    0    0 -0.14573442913E+02 -0.36179004793E+02 -0.19034641032E+02  0.47787272064E+02  0.20000004650E+02 0.  0.
         12    1    1    2    0    0  0.14573442913E+02  0.36179004793E+02  0.19034641032E+02  0.43400727936E+02  0.00000000000E+00 0. -1.
         11    1    3    3    0    0 -0.59718341007E+01 -0.18603477988E+02  0.11525232510E+01  0.19572442512E+02  0.51100000000E-03 0. -1.
        -11    1    3    3    0    0 -0.60229163622E+01 -0.13390931510E+02 -0.13753992564E+02  0.20118769344E+02  0.51100000000E-03 0.  1.
         12    1    3    3    0    0 -0.25786924506E+01 -0.41845952952E+01 -0.64331717186E+01  0.80960602086E+01  0.00000000000E+00 0. -1.
</event>
<event>
 7    1  0.5504027E-010  0.4778727E+02  0.7816164E-02  0.1312668E+00
        -11   -1    0    0    0    0  0.00000000000E+00  0.00000000000E+00  0.45593999997E+02  0.45594000000E+02  0.51100000000E-03 0. -1.
         11   -1    0    0    0    0 -0.00000000000E+00 -0.00000000000E+00 -0.45593999997E+02  0.45594000000E+02  0.51100000000E-03 0.  1.
    9900012    2    1    2    0    0 -0.10215709258E+02 -0.22020341228E+02 -0.35977310613E+02  0.47787273941E+02  0.20000013208E+02 0.  0.
         12    1    1    2    0    0  0.10215709258E+02  0.22020341228E+02  0.35977310613E+02  0.43400726059E+02  0.00000000000E+00 0. -1.
         11    1    3    3    0    0  0.11081395322E+01 -0.98440057913E+01 -0.87532985340E+01  0.13219404628E+02  0.51100000000E-03 0. -1.
        -11    1    3    3    0    0 -0.10899940068E+02 -0.14770303371E+02 -0.25516836915E+02  0.31433732224E+02  0.51100000000E-03 0.  1.
        -12    1    3    3    0    0 -0.42390872255E+00  0.25939679339E+01 -0.17071751644E+01  0.31341370884E+01  0.00000000000E+00 0.  1.
</event>
<event>
 7    1  0.5504027E-010  0.4778728E+02  0.7816164E-02  0.1312668E+00
        -11   -1    0    0    0    0  0.00000000000E+00  0.00000000000E+00  0.45593999997E+02  0.45594000000E+02  0.51100000000E-03 0.  1.
         11   -1    0    0    0    0 -0.00000000000E+00 -0.00000000000E+00 -0.45593999997E+02  0.45594000000E+02  0.51100000000E-03 0. -1.
    9900012    2    1    2    0    0 -0.25921879255E+02 -0.25793598525E+02  0.23374534364E+02  0.47787281045E+02  0.20000045598E+02 0.  0.
         12    1    1    2    0    0  0.25921879255E+02  0.25793598525E+02 -0.23374534364E+02  0.43400718955E+02  0.00000000000E+00 0. -1.
         11    1    3    3    0    0  0.19764096360E+01 -0.23069942729E+01  0.21910246140E+01  0.37455315703E+01  0.51100000000E-03 0. -1.
        -11    1    3    3    0    0 -0.26688039229E+02 -0.24267423964E+02  0.17511801224E+02  0.40097661853E+02  0.51100000000E-03 0.  1.
         12    1    3    3    0    0 -0.12102496622E+01  0.78081971111E+00  0.36717085261E+01  0.39440876216E+01  0.00000000000E+00 0. -1.
</event>
<event>
 7    1  0.5504027E-010  0.4778727E+02  0.7816164E-02  0.1312668E+00
        -11   -1    0    0    0    0  0.00000000000E+00  0.00000000000E+00  0.45593999997E+02  0.45594000000E+02  0.51100000000E-03 0.  1.
         11   -1    0    0    0    0 -0.00000000000E+00 -0.00000000000E+00 -0.45593999997E+02  0.45594000000E+02  0.51100000000E-03 0. -1.
    9900012    2    1    2    0    0 -0.66815521191E+01  0.42716096141E+02 -0.37835613977E+01  0.47787270224E+02  0.19999996261E+02 0.  0.
         12    1    1    2    0    0  0.66815521191E+01 -0.42716096141E+02  0.37835613977E+01  0.43400729776E+02  0.00000000000E+00 0. -1.
         11    1    3    3    0    0  0.30463605175E+01  0.20363015758E+02 -0.75908853194E+01  0.21944344678E+02  0.51100000000E-03 0.  1.
        -11    1    3    3    0    0 -0.57199844548E+01  0.18020994843E+02  0.55224865999E+01  0.19697013372E+02  0.51100000000E-03 0. -1.
         12    1    3    3    0    0 -0.40079281818E+01  0.43320855402E+01 -0.17151626782E+01  0.61459121740E+01  0.00000000000E+00 0. -1.
</event>
<event>
 7    1  0.5504027E-010  0.4778727E+02  0.7816164E-02  0.1312668E+00
        -11   -1    0    0    0    0  0.00000000000E+00  0.00000000000E+00  0.45593999997E+02  0.45594000000E+02  0.51100000000E-03 0. -1.
         11   -1    0    0    0    0 -0.00000000000E+00 -0.00000000000E+00 -0.45593999997E+02  0.45594000000E+02  0.51100000000E-03 0.  1.
    9900012    2    1    2    0    0 -0.36363279737E+01 -0.22776976072E+02 -0.36764244517E+02  0.47787271953E+02  0.20000004143E+02 0.  0.
         12    1    1    2    0    0  0.36363279737E+01  0.22776976072E+02  0.36764244517E+02  0.43400728047E+02  0.00000000000E+00 0. -1.
         11    1    3    3    0    0  0.55551733082E+01 -0.49669580626E+01 -0.10462547563E+02  0.12845058375E+02  0.51100000000E-03 0.  1.
        -11    1    3    3    0    0 -0.59825813886E+01 -0.97829198292E+01 -0.61449018984E+01  0.13009866258E+02  0.51100000000E-03 0. -1.
        -12    1    3    3    0    0 -0.32089198933E+01 -0.80270981800E+01 -0.20156795055E+02  0.21932347320E+02  0.00000000000E+00 0.  1.
</event>
<event>
 7    1  0.5504027E-010  0.4778729E+02  0.7816164E-02  0.1312668E+00
        -11   -1    0    0    0    0  0.00000000000E+00  0.00000000000E+00  0.45593999997E+02  0.45594000000E+02  0.51100000000E-03 0.  1.
         11   -1    0    0    0    0 -0.00000000000E+00 -0.00000000000E+00 -0.45593999997E+02  0.45594000000E+02  0.51100000000E-03 0. -1.
    9900012    2    1    2    0    0 -0.19203737064E+02  0.97691689575E+01  0.37674949790E+02  0.47787285478E+02  0.20000065810E+02 0.  0.
         12    1    1    2    0    0  0.19203737064E+02 -0.97691689575E+01 -0.37674949790E+02  0.43400714522E+02  0.00000000000E+00 0. -1.
         11    1    3    3    0    0 -0.67186543362E+01  0.14201177053E+02  0.16937043561E+02  0.23101454297E+02  0.51100000000E-03 0. -1.
        -11    1    3    3    0    0 -0.10126095387E+02 -0.29016915584E+01  0.17161383952E+02  0.20136303561E+02  0.51100000000E-03 0.  1.
         12    1    3    3    0    0 -0.23589873409E+01 -0.15303165370E+01  0.35765222766E+01  0.45495276209E+01  0.00000000000E+00 0. -1.
</event>
<event>
 7    1  0.5504027E-010  0.4778727E+02  0.7816164E-02  0.1312668E+00
        -11   -1    0    0    0    0  0.00000000000E+00  0.00000000000E+00  0.45593999997E+02  0.45594000000E+02  0.51100000000E-03 0. -1.
         11   -1    0    0    0    0 -0.00000000000E+00 -0.00000000000E+00 -0.45593999997E+02  0.45594000000E+02  0.51100000000E-03 0.  1.
    9900012    2    1    2    0    0  0.41876366153E+02  0.11361272531E+02  0.95642580075E+00  0.47787270674E+02  0.19999998310E+02 0.  0.
         12    1    1    2    0    0 -0.41876366153E+02 -0.11361272531E+02 -0.95642580075E+00  0.43400729326E+02  0.00000000000E+00 0. -1.
         11    1    3    3    0    0  0.39179790529E+02  0.48971431646E+01 -0.20772746076E+01  0.39539259821E+02  0.51100000000E-03 0.  1.
        -11    1    3    3    0    0  0.12002736562E+01  0.39597566470E+01  0.33360851212E+01  0.53150535040E+01  0.51100000000E-03 0. -1.
        -12    1    3    3    0    0  0.14963019679E+01  0.25043727195E+01 -0.30238471291E+00  0.29329573492E+01  0.00000000000E+00 0.  1.
</event>
<event>
 7    1  0.5504027E-010  0.4778727E+02  0.7816164E-02  0.1312668E+00
        -11   -1    0    0    0    0  0.00000000000E+00  0.00000000000E+00  0.45593999997E+02  0.45594000000E+02  0.51100000000E-03 0.  1.
         11   -1    0    0    0    0 -0.00000000000E+00 -0.00000000000E+00 -0.45593999997E+02  0.45594000000E+02  0.51100000000E-03 0. -1.
    9900012    2    1    2    0    0  0.39048425752E+02  0.49813846979E+01  0.18276471278E+02  0.47787272477E+02  0.20000006530E+02 0.  0.
         12    1    1    2    0    0 -0.39048425752E+02 -0.49813846979E+01 -0.18276471278E+02  0.43400727523E+02  0.00000000000E+00 0. -1.
         11    1    3    3    0    0  0.50450532717E+01 -0.28765231568E+01 -0.10126037446E+01  0.58951093791E+01  0.51100000000E-03 0. -1.
        -11    1    3    3    0    0  0.20484530595E+02  0.38425022090E+01  0.18332498447E+02  0.27757184952E+02  0.51100000000E-03 0.  1.
        -12    1    3    3    0    0  0.13518841885E+02  0.40154056457E+01  0.95657657541E+00  0.14134978145E+02  0.00000000000E+00 0.  1.
</event>
<event>
 7    1  0.5504027E-010  0.4778727E+02  0.7816164E-02  0.1312668E+00
        -11   -1    0    0    0    0  0.00000000000E+00  0.00000000000E+00  0.45593999997E+02  0.45594000000E+02  0.51100000000E-03 0.  1.
         11   -1    0    0    0    0 -0.00000000000E+00 -0.00000000000E+00 -0.45593999997E+02  0.45594000000E+02  0.51100000000E-03 0. -1.
    9900012    2    1    2    0    0 -0.39872555794E+02 -0.17136757731E+02  0.36603128904E+00  0.47787272472E+02  0.20000006507E+02 0.  0.
         12    1    1    2    0    0  0.39872555794E+02  0.17136757731E+02 -0.36603128904E+00  0.43400727528E+02  0.00000000000E+00 0. -1.
         11    1    3    3    0    0 -0.89394038509E+01  0.21574041916E+01 -0.18612174570E+01  0.93825084459E+01  0.51100000000E-03 0. -1.
        -11    1    3    3    0    0 -0.25912080701E+02 -0.20218508311E+02  0.37426374393E+01  0.33079167763E+02  0.51100000000E-03 0.  1.
        -12    1    3    3    0    0 -0.50210712422E+01  0.92434638891E+00 -0.15153886933E+01  0.53255962631E+01  0.00000000000E+00 0.  1.
</event>
<event>
 7    1  0.5504027E-010  0.4778727E+02  0.7816164E-02  0.1312668E+00
        -11   -1    0    0    0    0  0.00000000000E+00  0.00000000000E+00  0.45593999997E+02  0.45594000000E+02  0.51100000000E-03 0.  1.
         11   -1    0    0    0    0 -0.00000000000E+00 -0.00000000000E+00 -0.45593999997E+02  0.45594000000E+02  0.51100000000E-03 0. -1.
    9900012    2    1    2    0    0  0.22648533071E+02  0.36985086168E+02  0.16645086491E+01  0.47787271455E+02  0.20000001874E+02 0.  0.
         12    1    1    2    0    0 -0.22648533071E+02 -0.36985086168E+02 -0.16645086491E+01  0.43400728545E+02  0.00000000000E+00 0. -1.
         11    1    3    3    0    0  0.43033074771E+01  0.75275266793E+01 -0.47293511800E+01  0.98766834511E+01  0.51100000000E-03 0. -1.
        -11    1    3    3    0    0  0.20437226472E+02  0.24115954173E+02  0.49643238783E+01  0.31998499705E+02  0.51100000000E-03 0.  1.
        -12    1    3    3    0    0 -0.20920008777E+01  0.53416053159E+01  0.14295359508E+01  0.59120882992E+01  0.00000000000E+00 0.  1.
</event>
<event>
 7    1  0.5504027E-010  0.4778725E+02  0.7816164E-02  0.1312668E+00
        -11   -1    0    0    0    0  0.00000000000E+00  0.00000000000E+00  0.45593999997E+02  0.45594000000E+02  0.51100000000E-03 0.  1.
         11   -1    0    0    0    0 -0.00000000000E+00 -0.00000000000E+00 -0.45593999997E+02  0.45594000000E+02  0.51100000000E-03 0. -1.
    9900012    2    1    2    0    0  0.30530138720E+02 -0.30581600125E+02  0.40374888975E+01  0.47787251700E+02  0.19999911799E+02 0.  0.
         12    1    1    2    0    0 -0.30530138720E+02  0.30581600125E+02 -0.40374888975E+01  0.43400748300E+02  0.00000000000E+00 0. -1.
         11    1    3    3    0    0  0.27178279987E+01 -0.11119393483E+02 -0.18907103098E+01  0.11601822538E+02  0.51100000000E-03 0. -1.
        -11    1    3    3    0    0  0.30485540641E+01 -0.60046136634E+01  0.42249282708E+01  0.79497852979E+01  0.51100000000E-03 0.  1.
         12    1    3    3    0    0  0.24763756657E+02 -0.13457592978E+02  0.17032709365E+01  0.28235643864E+02  0.00000000000E+00 0. -1.
</event>
<event>
 7    1  0.5504027E-010  0.4778728E+02  0.7816164E-02  0.1312668E+00
        -11   -1    0    0    0    0  0.00000000000E+00  0.00000000000E+00  0.45593999997E+02  0.45594000000E+02  0.51100000000E-03 0.  1.
         11   -1    0    0    0    0 -0.00000000000E+00 -0.00000000000E+00 -0.45593999997E+02  0.45594000000E+02  0.51100000000E-03 0. -1.
    9900012    2    1    2    0    0  0.22752965863E+02  0.35983182033E+02  0.84342142432E+01  0.47787276334E+02  0.20000024119E+02 0.  0.
         12    1    1    2    0    0 -0.22752965863E+02 -0.35983182033E+02 -0.84342142432E+01  0.43400723666E+02  0.00000000000E+00 0. -1.
         11    1    3    3    0    0 -0.29288244567E+01  0.56620534407E+01 -0.14204939151E+01  0.65310539033E+01  0.51100000000E-03 0. -1.
        -11    1    3    3    0    0  0.18524026600E+02  0.25079258684E+02  0.72615796272E+01  0.32013111635E+02  0.51100000000E-03 0.  1.
        -12    1    3    3    0    0  0.71577637200E+01  0.52418699081E+01  0.25931285311E+01  0.92431107958E+01  0.00000000000E+00 0.  1.
</event>
<event>
 7    1  0.5504027E-010  0.4778726E+02  0.7816164E-02  0.1312668E+00
        -11   -1    0    0    0    0  0.00000000000E+00  0.00000000000E+00  0.45593999997E+02  0.45594000000E+02  0.51100000000E-03 0.  1.
         11   -1    0    0    0    0 -0.00000000000E+00 -0.00000000000E+00 -0.45593999997E+02  0.45594000000E+02  0.51100000000E-03 0. -1.
    9900012    2    1    2    0    0  0.36526055986E+01  0.34040470418E+02  0.26674494786E+02  0.47787264683E+02  0.19999970996E+02 0.  0.
         12    1    1    2    0    0 -0.36526055986E+01 -0.34040470418E+02 -0.26674494786E+02  0.43400735317E+02  0.00000000000E+00 0. -1.
         11    1    3    3    0    0  0.53129533540E+01  0.35108231395E+01  0.14801856733E+01  0.65379126904E+01  0.51100000000E-03 0. -1.
        -11    1    3    3    0    0 -0.63901688024E+01  0.18369401523E+02  0.17080214186E+02  0.25884413969E+02  0.51100000000E-03 0.  1.
        -12    1    3    3    0    0  0.47298210470E+01  0.12160245756E+02  0.81140949270E+01  0.15364938023E+02  0.00000000000E+00 0.  1.
</event>
<event>
 7    1  0.5504027E-010  0.4778727E+02  0.7816164E-02  0.1312668E+00
        -11   -1    0    0    0    0  0.00000000000E+00  0.00000000000E+00  0.45593999997E+02  0.45594000000E+02  0.51100000000E-03 0. -1.
         11   -1    0    0    0    0 -0.00000000000E+00 -0.00000000000E+00 -0.45593999997E+02  0.45594000000E+02  0.51100000000E-03 0.  1.
    9900012    2    1    2    0    0 -0.29710066964E+02 -0.17587250801E+02 -0.26298737064E+02  0.47787273729E+02  0.20000012239E+02 0.  0.
         12    1    1    2    0    0  0.29710066964E+02  0.17587250801E+02  0.26298737064E+02  0.43400726271E+02  0.00000000000E+00 0. -1.
         11    1    3    3    0    0 -0.30072885676E+01 -0.60899067857E+01 -0.82746386544E+01  0.10705157370E+02  0.51100000000E-03 0. -1.
        -11    1    3    3    0    0 -0.22064302745E+02 -0.78434363719E+01 -0.67747914668E+01  0.24377258858E+02  0.51100000000E-03 0.  1.
        -12    1    3    3    0    0 -0.46384756510E+01 -0.36539076430E+01 -0.11249306943E+02  0.12704857501E+02  0.00000000000E+00 0.  1.
</event>
<event>
 7    1  0.5504027E-010  0.4778727E+02  0.7816164E-02  0.1312668E+00
        -11   -1    0    0    0    0  0.00000000000E+00  0.00000000000E+00  0.45593999997E+02  0.45594000000E+02  0.51100000000E-03 0. -1.
         11   -1    0    0    0    0 -0.00000000000E+00 -0.00000000000E+00 -0.45593999997E+02  0.45594000000E+02  0.51100000000E-03 0.  1.
    9900012    2    1    2    0    0 -0.40062889851E+02 -0.85102650094E+01 -0.14358400575E+02  0.47787269352E+02  0.19999992284E+02 0.  0.
         12    1    1    2    0    0  0.40062889851E+02  0.85102650094E+01  0.14358400575E+02  0.43400730648E+02  0.00000000000E+00 0. -1.
         11    1    3    3    0    0 -0.14692190598E+02 -0.57753900810E+00 -0.13449011147E+01  0.14764917038E+02  0.51100000000E-03 0. -1.
        -11    1    3    3    0    0 -0.32242310312E+01 -0.13791597410E+01  0.32449757645E+01  0.47778253743E+01  0.51100000000E-03 0.  1.
        -12    1    3    3    0    0 -0.22146468221E+02 -0.65535662604E+01 -0.16258475225E+02  0.28244526939E+02  0.00000000000E+00 0.  1.
</event>
<event>
 7    1  0.5504027E-010  0.4778727E+02  0.7816164E-02  0.1312668E+00
        -11   -1    0    0    0    0  0.00000000000E+00  0.00000000000E+00  0.45593999997E+02  0.45594000000E+02  0.51100000000E-03 0. -1.
         11   -1    0    0    0    0 -0.00000000000E+00 -0.00000000000E+00 -0.45593999997E+02  0.45594000000E+02  0.51100000000E-03 0.  1.
    9900012    2    1    2    0    0 -0.42057194703E+02  0.81227518312E+01  0.69883300899E+01  0.47787268657E+02  0.19999989116E+02 0.  0.
         12    1    1    2    0    0  0.42057194703E+02 -0.81227518312E+01 -0.69883300899E+01  0.43400731343E+02  0.00000000000E+00 0. -1.
         11    1    3    3    0    0  0.78838451807E+00 -0.34772545699E+00 -0.14886416880E+01  0.17200341503E+01  0.51100000000E-03 0. -1.
        -11    1    3    3    0    0 -0.30163711485E+02  0.29898133821E+01  0.10554318447E+02  0.32096450158E+02  0.51100000000E-03 0.  1.
        -12    1    3    3    0    0 -0.12681867736E+02  0.54806639061E+01 -0.20773466692E+01  0.13970784349E+02  0.00000000000E+00 0.  1.
</event>
<event>
 7    1  0.5504027E-010  0.4778727E+02  0.7816164E-02  0.1312668E+00
        -11   -1    0    0    0    0  0.00000000000E+00  0.00000000000E+00  0.45593999997E+02  0.45594000000E+02  0.51100000000E-03 0.  1.
         11   -1    0    0    0    0 -0.00000000000E+00 -0.00000000000E+00 -0.45593999997E+02  0.45594000000E+02  0.51100000000E-03 0. -1.
    9900012    2    1    2    0    0 -0.27196967547E+02  0.22400688711E+02  0.25340819045E+02  0.47787274104E+02  0.20000013949E+02 0.  0.
         12    1    1    2    0    0  0.27196967547E+02 -0.22400688711E+02 -0.25340819045E+02  0.43400725896E+02  0.00000000000E+00 0. -1.
         11    1    3    3    0    0 -0.25822158677E+01  0.27690045934E+01 -0.24337207282E+01  0.45009134706E+01  0.51100000000E-03 0. -1.
        -11    1    3    3    0    0 -0.21017430784E+02  0.19073069930E+02  0.27680099481E+02  0.39644700792E+02  0.51100000000E-03 0.  1.
        -12    1    3    3    0    0 -0.35973208952E+01  0.55861418772E+00  0.94440291802E-01  0.36416598416E+01  0.00000000000E+00 0.  1.
</event>
<event>
 7    1  0.5504027E-010  0.4778727E+02  0.7816164E-02  0.1312668E+00
        -11   -1    0    0    0    0  0.00000000000E+00  0.00000000000E+00  0.45593999997E+02  0.45594000000E+02  0.51100000000E-03 0. -1.
         11   -1    0    0    0    0 -0.00000000000E+00 -0.00000000000E+00 -0.45593999997E+02  0.45594000000E+02  0.51100000000E-03 0.  1.
    9900012    2    1    2    0    0 -0.15087386163E+02  0.29623291514E+02 -0.27900797251E+02  0.47787272948E+02  0.20000008681E+02 0.  0.
         12    1    1    2    0    0  0.15087386163E+02 -0.29623291514E+02  0.27900797251E+02  0.43400727052E+02  0.00000000000E+00 0. -1.
         11    1    3    3    0    0  0.86472087556E+00  0.27528214444E+00  0.46860315240E+00  0.10213283641E+01  0.51100000000E-03 0. -1.
        -11    1    3    3    0    0  0.52376307255E+00 -0.41291174739E+00 -0.60357169453E+01  0.60724544603E+01  0.51100000000E-03 0.  1.
        -12    1    3    3    0    0 -0.16475870112E+02  0.29760921117E+02 -0.22333683458E+02  0.40693490124E+02  0.00000000000E+00 0.  1.
</event>
<event>
 7    1  0.5504027E-010  0.4778727E+02  0.7816164E-02  0.1312668E+00
        -11   -1    0    0    0    0  0.00000000000E+00  0.00000000000E+00  0.45593999997E+02  0.45594000000E+02  0.51100000000E-03 0.  1.
         11   -1    0    0    0    0 -0.00000000000E+00 -0.00000000000E+00 -0.45593999997E+02  0.45594000000E+02  0.51100000000E-03 0. -1.
    9900012    2    1    2    0    0  0.28371263978E+02 -0.17169955665E+01  0.32798574834E+02  0.47787271842E+02  0.20000003637E+02 0.  0.
         12    1    1    2    0    0 -0.28371263978E+02  0.17169955665E+01 -0.32798574834E+02  0.43400728158E+02  0.00000000000E+00 0. -1.
         11    1    3    3    0    0  0.97220577278E+01 -0.73800314796E+01  0.16696113631E+02  0.20681960297E+02  0.51100000000E-03 0. -1.
        -11    1    3    3    0    0  0.78650172279E+01 -0.13028717308E+01  0.10278309683E+02  0.13007675463E+02  0.51100000000E-03 0.  1.
         12    1    3    3    0    0  0.10784189022E+02  0.69659076439E+01  0.58241515202E+01  0.14097636082E+02  0.00000000000E+00 0. -1.
</event>
<event>
 7    1  0.5504027E-010  0.4778727E+02  0.7816164E-02  0.1312668E+00
        -11   -1    0    0    0    0  0.00000000000E+00  0.00000000000E+00  0.45593999997E+02  0.45594000000E+02  0.51100000000E-03 0. -1.
         11   -1    0    0    0    0 -0.00000000000E+00 -0.00000000000E+00 -0.45593999997E+02  0.45594000000E+02  0.51100000000E-03 0.  1.
    9900012    2    1    2    0    0  0.41734271645E+02  0.45157245055E+01 -0.11021895435E+02  0.47787269862E+02  0.19999994608E+02 0.  0.
         12    1    1    2    0    0 -0.41734271645E+02 -0.45157245055E+01  0.11021895435E+02  0.43400730138E+02  0.00000000000E+00 0. -1.
         11    1    3    3    0    0  0.33602943911E+01 -0.25976325963E+01 -0.72147256957E+01  0.83720690767E+01  0.51100000000E-03 0. -1.
        -11    1    3    3    0    0  0.27207774557E+02  0.62268051023E+01 -0.40958393814E+01  0.28210139997E+02  0.51100000000E-03 0.  1.
         12    1    3    3    0    0  0.11166202697E+02  0.88655199954E+00  0.28866964183E+00  0.11205060788E+02  0.00000000000E+00 0. -1.
</event>
<event>
 7    1  0.5504027E-010  0.4778728E+02  0.7816164E-02  0.1312668E+00
        -11   -1    0    0    0    0  0.00000000000E+00  0.00000000000E+00  0.45593999997E+02  0.45594000000E+02  0.51100000000E-03 0.  1.
         11   -1    0    0    0    0 -0.00000000000E+00 -0.00000000000E+00 -0.45593999997E+02  0.45594000000E+02  0.51100000000E-03 0. -1.
    9900012    2    1    2    0    0 -0.39341406224E+02 -0.12953382374E+00  0.18326480121E+02  0.47787275394E+02  0.20000019830E+02 0.  0.
         12    1    1    2    0    0  0.39341406224E+02  0.12953382374E+00 -0.18326480121E+02  0.43400724606E+02  0.00000000000E+00 0. -1.
         11    1    3    3    0    0 -0.18356411489E+02 -0.58112123839E+01  0.13719862364E+02  0.23642391073E+02  0.51100000000E-03 0. -1.
        -11    1    3    3    0    0 -0.44958452031E+01  0.56064031897E+01  0.88391551140E+00  0.72405585218E+01  0.51100000000E-03 0.  1.
         12    1    3    3    0    0 -0.16489149533E+02  0.75275370485E-01  0.37227022454E+01  0.16904325798E+02  0.00000000000E+00 0. -1.
</event>
<event>
 7    1  0.5504027E-010  0.4778727E+02  0.7816164E-02  0.1312668E+00
        -11   -1    0    0    0    0  0.00000000000E+00  0.00000000000E+00  0.45593999997E+02  0.45594000000E+02  0.51100000000E-03 0.  1.
         11   -1    0    0    0    0 -0.00000000000E+00 -0.00000000000E+00 -0.45593999997E+02  0.45594000000E+02  0.51100000000E-03 0. -1.
    9900012    2    1    2    0    0  0.38727630731E+02  0.14062803022E+02 -0.13639333399E+02  0.47787271591E+02  0.20000002494E+02 0.  0.
         12    1    1    2    0    0 -0.38727630731E+02 -0.14062803022E+02  0.13639333399E+02  0.43400728409E+02  0.00000000000E+00 0. -1.
         11    1    3    3    0    0 -0.32806010517E+00  0.20610398698E+01 -0.64651792568E+00  0.21848328235E+01  0.51100000000E-03 0. -1.
        -11    1    3    3    0    0  0.69127016334E+01  0.41108258138E+01 -0.93067458425E+01  0.12300400448E+02  0.51100000000E-03 0.  1.
        -12    1    3    3    0    0  0.32142989202E+02  0.78909373380E+01 -0.36860696305E+01  0.33302038320E+02  0.00000000000E+00 0.  1.
</event>
<event>
 7    1  0.5504027E-010  0.4778727E+02  0.7816164E-02  0.1312668E+00
        -11   -1    0    0    0    0  0.00000000000E+00  0.00000000000E+00  0.45593999997E+02  0.45594000000E+02  0.51100000000E-03 0.  1.
         11   -1    0    0    0    0 -0.00000000000E+00 -0.00000000000E+00 -0.45593999997E+02  0.45594000000E+02  0.51100000000E-03 0. -1.
    9900012    2    1    2    0    0  0.30136760650E+02  0.22503469425E+02  0.21656234913E+02  0.47787274324E+02  0.20000014951E+02 0.  0.
         12    1    1    2    0    0 -0.30136760650E+02 -0.22503469425E+02 -0.21656234913E+02  0.43400725676E+02  0.00000000000E+00 0. -1.
         11    1    3    3    0    0  0.40909495683E+00  0.64823515718E+01  0.68901619528E+01  0.94690322938E+01  0.51100000000E-03 0. -1.
        -11    1    3    3    0    0  0.14268299164E+01  0.43324209674E+01  0.67190562872E+00  0.46105501282E+01  0.51100000000E-03 0.  1.
         12    1    3    3    0    0  0.28300835777E+02  0.11688696886E+02  0.14094167331E+02  0.33707691902E+02  0.00000000000E+00 0. -1.
</event>
<event>
 7    1  0.5504027E-010  0.4778727E+02  0.7816164E-02  0.1312668E+00
        -11   -1    0    0    0    0  0.00000000000E+00  0.00000000000E+00  0.45593999997E+02  0.45594000000E+02  0.51100000000E-03 0.  1.
         11   -1    0    0    0    0 -0.00000000000E+00 -0.00000000000E+00 -0.45593999997E+02  0.45594000000E+02  0.51100000000E-03 0. -1.
    9900012    2    1    2    0    0 -0.22706455882E+02 -0.22245598818E+01  0.36920067485E+02  0.47787272028E+02  0.20000004486E+02 0.  0.
         12    1    1    2    0    0  0.22706455882E+02  0.22245598818E+01 -0.36920067485E+02  0.43400727972E+02  0.00000000000E+00 0. -1.
         11    1    3    3    0    0 -0.11470071898E+02 -0.34598630867E+01  0.29125449406E+02  0.31493253330E+02  0.51100000000E-03 0. -1.
        -11    1    3    3    0    0 -0.48079235604E+01 -0.27194786057E+01  0.66745907343E+01  0.86638244777E+01  0.51100000000E-03 0.  1.
         12    1    3    3    0    0 -0.64284604244E+01  0.39547818107E+01  0.11200273444E+01  0.76301942210E+01  0.00000000000E+00 0. -1.
</event>
<event>
 7    1  0.5504027E-010  0.4778726E+02  0.7816164E-02  0.1312668E+00
        -11   -1    0    0    0    0  0.00000000000E+00  0.00000000000E+00  0.45593999997E+02  0.45594000000E+02  0.51100000000E-03 0. -1.
         11   -1    0    0    0    0 -0.00000000000E+00 -0.00000000000E+00 -0.45593999997E+02  0.45594000000E+02  0.51100000000E-03 0.  1.
    9900012    2    1    2    0    0 -0.24247746768E+02 -0.35502818985E+02  0.59347302380E+01  0.47787258045E+02  0.19999940731E+02 0.  0.
         12    1    1    2    0    0  0.24247746768E+02  0.35502818985E+02 -0.59347302380E+01  0.43400741955E+02  0.00000000000E+00 0. -1.
         11    1    3    3    0    0 -0.68198881985E+01  0.57535096952E+00  0.16365625181E-01  0.68441341215E+01  0.51100000000E-03 0. -1.
        -11    1    3    3    0    0 -0.14617935310E+02 -0.33165013355E+02  0.39989924631E+01  0.36463599446E+02  0.51100000000E-03 0.  1.
         12    1    3    3    0    0 -0.28099232595E+01 -0.29131565997E+01  0.19193721497E+01  0.44795244779E+01  0.00000000000E+00 0. -1.
</event>
<event>
 7    1  0.5504027E-010  0.4778727E+02  0.7816164E-02  0.1312668E+00
        -11   -1    0    0    0    0  0.00000000000E+00  0.00000000000E+00  0.45593999997E+02  0.45594000000E+02  0.51100000000E-03 0.  1.
         11   -1    0    0    0    0 -0.00000000000E+00 -0.00000000000E+00 -0.45593999997E+02  0.45594000000E+02  0.51100000000E-03 0. -1.
    9900012    2    1    2    0    0 -0.24037672774E+02  0.29158493447E+02 -0.21344688425E+02  0.47787272166E+02  0.20000005115E+02 0.  0.
         12    1    1    2    0    0  0.24037672774E+02 -0.29158493447E+02  0.21344688425E+02  0.43400727834E+02  0.00000000000E+00 0. -1.
         11    1    3    3    0    0 -0.44486874704E+01  0.11103507762E+02 -0.69916615286E+01  0.13855036485E+02  0.51100000000E-03 0. -1.
        -11    1    3    3    0    0 -0.65805351807E+01  0.74662579265E+01  0.23872334897E+01  0.10234614535E+02  0.51100000000E-03 0.  1.
        -12    1    3    3    0    0 -0.13008450123E+02  0.10588727759E+02 -0.16740260386E+02  0.23697621146E+02  0.00000000000E+00 0.  1.
</event>
<event>
 7    1  0.5504027E-010  0.4778727E+02  0.7816164E-02  0.1312668E+00
        -11   -1    0    0    0    0  0.00000000000E+00  0.00000000000E+00  0.45593999997E+02  0.45594000000E+02  0.51100000000E-03 0.  1.
         11   -1    0    0    0    0 -0.00000000000E+00 -0.00000000000E+00 -0.45593999997E+02  0.45594000000E+02  0.51100000000E-03 0. -1.
    9900012    2    1    2    0    0 -0.11889709278E+02 -0.54982615045E+01  0.41376653988E+02  0.47787267731E+02  0.19999984891E+02 0.  0.
         12    1    1    2    0    0  0.11889709278E+02  0.54982615045E+01 -0.41376653988E+02  0.43400732269E+02  0.00000000000E+00 0. -1.
         11    1    3    3    0    0 -0.13518498506E+02 -0.33148043102E+01  0.19786588668E+02  0.24191875100E+02  0.51100000000E-03 0. -1.
        -11    1    3    3    0    0 -0.15507524876E+01  0.30348356023E+01  0.78162595362E+01  0.85269557176E+01  0.51100000000E-03 0.  1.
         12    1    3    3    0    0  0.31795417158E+01 -0.52182927965E+01  0.13773805784E+02  0.15068436913E+02  0.00000000000E+00 0. -1.
</event>
<event>
 7    1  0.5504027E-010  0.4778726E+02  0.7816164E-02  0.1312668E+00
        -11   -1    0    0    0    0  0.00000000000E+00  0.00000000000E+00  0.45593999997E+02  0.45594000000E+02  0.51100000000E-03 0.  1.
         11   -1    0    0    0    0 -0.00000000000E+00 -0.00000000000E+00 -0.45593999997E+02  0.45594000000E+02  0.51100000000E-03 0. -1.
    9900012    2    1    2    0    0 -0.65288813677E+01  0.41748659022E+02  0.99018846840E+01  0.47787261039E+02  0.19999954381E+02 0.  0.
         12    1    1    2    0    0  0.65288813677E+01 -0.41748659022E+02 -0.99018846840E+01  0.43400738961E+02  0.00000000000E+00 0. -1.
         11    1    3    3    0    0 -0.12914625463E+02  0.25592204585E+02  0.79875576144E+01  0.29758184812E+02  0.51100000000E-03 0. -1.
        -11    1    3    3    0    0  0.46815378945E+01  0.88441863669E+01 -0.81548570800E+00  0.10039992368E+02  0.51100000000E-03 0.  1.
        -12    1    3    3    0    0  0.17042062013E+01  0.73122680701E+01  0.27298127776E+01  0.79890838590E+01  0.00000000000E+00 0.  1.
</event>
<event>
 7    1  0.5504027E-010  0.4778727E+02  0.7816164E-02  0.1312668E+00
        -11   -1    0    0    0    0  0.00000000000E+00  0.00000000000E+00  0.45593999997E+02  0.45594000000E+02  0.51100000000E-03 0. -1.
         11   -1    0    0    0    0 -0.00000000000E+00 -0.00000000000E+00 -0.45593999997E+02  0.45594000000E+02  0.51100000000E-03 0.  1.
    9900012    2    1    2    0    0 -0.23428386110E+02  0.17948553213E+02 -0.31821124099E+02  0.47787265247E+02  0.19999973567E+02 0.  0.
         12    1    1    2    0    0  0.23428386110E+02 -0.17948553213E+02  0.31821124099E+02  0.43400734753E+02  0.00000000000E+00 0. -1.
         11    1    3    3    0    0 -0.77580822500E+01  0.76003539362E+01 -0.49717330808E+01  0.11944511302E+02  0.51100000000E-03 0. -1.
        -11    1    3    3    0    0 -0.13859962076E+02  0.67600229832E+01 -0.96751518921E+01  0.18204533058E+02  0.51100000000E-03 0.  1.
        -12    1    3    3    0    0 -0.18103417841E+01  0.35881762941E+01 -0.17174239126E+02  0.17638220887E+02  0.00000000000E+00 0.  1.
</event>
<event>
 7    1  0.5504027E-010  0.4778727E+02  0.7816164E-02  0.1312668E+00
        -11   -1    0    0    0    0  0.00000000000E+00  0.00000000000E+00  0.45593999997E+02  0.45594000000E+02  0.51100000000E-03 0.  1.
         11   -1    0    0    0    0 -0.00000000000E+00 -0.00000000000E+00 -0.45593999997E+02  0.45594000000E+02  0.51100000000E-03 0. -1.
    9900012    2    1    2    0    0 -0.21640603723E+02  0.33694663477E+02  0.16732519503E+02  0.47787270914E+02  0.19999999404E+02 0.  0.
         12    1    1    2    0    0  0.21640603723E+02 -0.33694663477E+02 -0.16732519503E+02  0.43400729086E+02  0.00000000000E+00 0. -1.
         11    1    3    3    0    0 -0.10953956687E+02  0.11062358911E+02 -0.18070270144E+01  0.15672597062E+02  0.51100000000E-03 0. -1.
        -11    1    3    3    0    0 -0.98549481875E+01  0.12031785653E+02  0.11845401895E+02  0.19549869976E+02  0.51100000000E-03 0.  1.
         12    1    3    3    0    0 -0.83169884788E+00  0.10600518913E+02  0.66941446220E+01  0.12564803875E+02  0.00000000000E+00 0. -1.
</event>
<event>
 7    1  0.5504027E-010  0.4778731E+02  0.7816164E-02  0.1312668E+00
        -11   -1    0    0    0    0  0.00000000000E+00  0.00000000000E+00  0.45593999997E+02  0.45594000000E+02  0.51100000000E-03 0.  1.
         11   -1    0    0    0    0 -0.00000000000E+00 -0.00000000000E+00 -0.45593999997E+02  0.45594000000E+02  0.51100000000E-03 0. -1.
    9900012    2    1    2    0    0 -0.11752979428E+02 -0.19408660444E+02  0.36997176783E+02  0.47787312038E+02  0.20000186904E+02 0.  0.
         12    1    1    2    0    0  0.11752979428E+02  0.19408660444E+02 -0.36997176783E+02  0.43400687962E+02  0.00000000000E+00 0. -1.
         11    1    3    3    0    0  0.35883652156E+00 -0.61987403412E+00 -0.17518321967E+01  0.18925970976E+01  0.51100000000E-03 0. -1.
        -11    1    3    3    0    0 -0.12316415740E+02 -0.18996241147E+02  0.39252227280E+02  0.45313227882E+02  0.51100000000E-03 0.  1.
        -12    1    3    3    0    0  0.20459979067E+00  0.20745473636E+00 -0.50321829971E+00  0.58148705845E+00  0.00000000000E+00 0.  1.
</event>
<event>
 7    1  0.5504027E-010  0.4778727E+02  0.7816164E-02  0.1312668E+00
        -11   -1    0    0    0    0  0.00000000000E+00  0.00000000000E+00  0.45593999997E+02  0.45594000000E+02  0.51100000000E-03 0.  1.
         11   -1    0    0    0    0 -0.00000000000E+00 -0.00000000000E+00 -0.45593999997E+02  0.45594000000E+02  0.51100000000E-03 0. -1.
    9900012    2    1    2    0    0  0.14177427228E+02  0.23418547479E+02  0.33677816036E+02  0.47787273027E+02  0.20000009039E+02 0.  0.
         12    1    1    2    0    0 -0.14177427228E+02 -0.23418547479E+02 -0.33677816036E+02  0.43400726973E+02  0.00000000000E+00 0. -1.
         11    1    3    3    0    0  0.42678377695E+01  0.16573400717E+02  0.73887683678E+01  0.18640974996E+02  0.51100000000E-03 0. -1.
        -11    1    3    3    0    0 -0.19710894417E+00  0.51881911328E+00  0.21855390139E+01  0.22549071490E+01  0.51100000000E-03 0.  1.
         12    1    3    3    0    0  0.10106698403E+02  0.63263276491E+01  0.24103508654E+02  0.26891390882E+02  0.00000000000E+00 0. -1.
</event>
<event>
 7    1  0.5504027E-010  0.4778727E+02  0.7816164E-02  0.1312668E+00
        -11   -1    0    0    0    0  0.00000000000E+00  0.00000000000E+00  0.45593999997E+02  0.45594000000E+02  0.51100000000E-03 0.  1.
         11   -1    0    0    0    0 -0.00000000000E+00 -0.00000000000E+00 -0.45593999997E+02  0.45594000000E+02  0.51100000000E-03 0. -1.
    9900012    2    1    2    0    0  0.21422165604E+02 -0.25201544908E+02  0.28099753052E+02  0.47787272281E+02  0.20000005640E+02 0.  0.
         12    1    1    2    0    0 -0.21422165604E+02  0.25201544908E+02 -0.28099753052E+02  0.43400727719E+02  0.00000000000E+00 0. -1.
         11    1    3    3    0    0 -0.61066095014E-01 -0.25097856634E+01 -0.24280406454E+01  0.34925828238E+01  0.51100000000E-03 0. -1.
        -11    1    3    3    0    0  0.85535491098E+01 -0.14043482482E+02  0.13973204618E+02  0.21578532159E+02  0.51100000000E-03 0.  1.
         12    1    3    3    0    0  0.12929682589E+02 -0.86482767633E+01  0.16554589079E+02  0.22716157298E+02  0.00000000000E+00 0. -1.
</event>
<event>
 7    1  0.5504027E-010  0.4778727E+02  0.7816164E-02  0.1312668E+00
        -11   -1    0    0    0    0  0.00000000000E+00  0.00000000000E+00  0.45593999997E+02  0.45594000000E+02  0.51100000000E-03 0.  1.
         11   -1    0    0    0    0 -0.00000000000E+00 -0.00000000000E+00 -0.45593999997E+02  0.45594000000E+02  0.51100000000E-03 0. -1.
    9900012    2    1    2    0    0  0.59627536931E+01 -0.17776492930E+02  0.39141604224E+02  0.47787270585E+02  0.19999997906E+02 0.  0.
         12    1    1    2    0    0 -0.59627536931E+01  0.17776492930E+02 -0.39141604224E+02  0.43400729415E+02  0.00000000000E+00 0. -1.
         11    1    3    3    0    0 -0.55626396364E+01 -0.10467965232E+01  0.41043526177E+01  0.69917417971E+01  0.51100000000E-03 0. -1.
        -11    1    3    3    0    0  0.11494394022E+00 -0.25920888986E+01  0.30083215455E+01  0.39726736274E+01  0.51100000000E-03 0.  1.
         12    1    3    3    0    0  0.11410449389E+02 -0.14137607508E+02  0.32028930061E+02  0.36822855161E+02  0.00000000000E+00 0. -1.
</event>
<event>
 7    1  0.5504027E-010  0.4778727E+02  0.7816164E-02  0.1312668E+00
        -11   -1    0    0    0    0  0.00000000000E+00  0.00000000000E+00  0.45593999997E+02  0.45594000000E+02  0.51100000000E-03 0.  1.
         11   -1    0    0    0    0 -0.00000000000E+00 -0.00000000000E+00 -0.45593999997E+02  0.45594000000E+02  0.51100000000E-03 0. -1.
    9900012    2    1    2    0    0  0.28597505179E+02 -0.50357418947E+01  0.32255961009E+02  0.47787273975E+02  0.20000013361E+02 0.  0.
         12    1    1    2    0    0 -0.28597505179E+02  0.50357418947E+01 -0.32255961009E+02  0.43400726025E+02  0.00000000000E+00 0. -1.
         11    1    3    3    0    0  0.75403405569E+00 -0.32269622648E+01  0.95933479037E+01  0.10149589996E+02  0.51100000000E-03 0. -1.
        -11    1    3    3    0    0  0.25707458863E+02 -0.35880793363E+01  0.16186355982E+02  0.30589963628E+02  0.51100000000E-03 0.  1.
        -12    1    3    3    0    0  0.21360122603E+01  0.17792997065E+01  0.64762571228E+01  0.70477203508E+01  0.00000000000E+00 0.  1.
</event>
<event>
 7    1  0.5504027E-010  0.4778727E+02  0.7816164E-02  0.1312668E+00
        -11   -1    0    0    0    0  0.00000000000E+00  0.00000000000E+00  0.45593999997E+02  0.45594000000E+02  0.51100000000E-03 0.  1.
         11   -1    0    0    0    0 -0.00000000000E+00 -0.00000000000E+00 -0.45593999997E+02  0.45594000000E+02  0.51100000000E-03 0. -1.
    9900012    2    1    2    0    0  0.37639967769E+02 -0.15306369489E+02 -0.15250280211E+02  0.47787272274E+02  0.20000005606E+02 0.  0.
         12    1    1    2    0    0 -0.37639967769E+02  0.15306369489E+02  0.15250280211E+02  0.43400727726E+02  0.00000000000E+00 0. -1.
         11    1    3    3    0    0  0.19202791771E+02  0.22340203915E+01 -0.78946689132E+01  0.20882142045E+02  0.51100000000E-03 0. -1.
        -11    1    3    3    0    0  0.17633663900E+02 -0.16783350410E+02 -0.58479219845E+01  0.25036476296E+02  0.51100000000E-03 0.  1.
         12    1    3    3    0    0  0.80351209845E+00 -0.75703947085E+00 -0.15076893136E+01  0.18686539324E+01  0.00000000000E+00 0. -1.
</event>
<event>
 7    1  0.5504027E-010  0.4778726E+02  0.7816164E-02  0.1312668E+00
        -11   -1    0    0    0    0  0.00000000000E+00  0.00000000000E+00  0.45593999997E+02  0.45594000000E+02  0.51100000000E-03 0.  1.
         11   -1    0    0    0    0 -0.00000000000E+00 -0.00000000000E+00 -0.45593999997E+02  0.45594000000E+02  0.51100000000E-03 0. -1.
    9900012    2    1    2    0    0  0.21136802482E+01 -0.85035943322E+01  0.42507003252E+02  0.47787261686E+02  0.19999957330E+02 0.  0.
         12    1    1    2    0    0 -0.21136802482E+01  0.85035943322E+01 -0.42507003252E+02  0.43400738314E+02  0.00000000000E+00 0. -1.
         11    1    3    3    0    0 -0.13687564028E+01 -0.74083270751E+01  0.44437632170E+01  0.87466471251E+01  0.51100000000E-03 0. -1.
        -11    1    3    3    0    0  0.47161485835E+01 -0.32761762589E+01  0.20125542898E+02  0.20928756904E+02  0.51100000000E-03 0.  1.
         12    1    3    3    0    0 -0.12337119325E+01  0.21809090017E+01  0.17937697137E+02  0.18111857657E+02  0.00000000000E+00 0. -1.
</event>
<event>
 7    1  0.5504027E-010  0.4778727E+02  0.7816164E-02  0.1312668E+00
        -11   -1    0    0    0    0  0.00000000000E+00  0.00000000000E+00  0.45593999997E+02  0.45594000000E+02  0.51100000000E-03 0.  1.
         11   -1    0    0    0    0 -0.00000000000E+00 -0.00000000000E+00 -0.45593999997E+02  0.45594000000E+02  0.51100000000E-03 0. -1.
    9900012    2    1    2    0    0  0.19778998469E+01 -0.14259619139E+02  0.40943551670E+02  0.47787271329E+02  0.20000001297E+02 0.  0.
         12    1    1    2    0    0 -0.19778998469E+01  0.14259619139E+02 -0.40943551670E+02  0.43400728671E+02  0.00000000000E+00 0. -1.
         11    1    3    3    0    0  0.60920142629E+01 -0.31141453957E+01  0.28030616132E+01  0.73937604771E+01  0.51100000000E-03 0. -1.
        -11    1    3    3    0    0 -0.55787899442E+00 -0.23311111133E+01  0.17576772068E+02  0.17739453898E+02  0.51100000000E-03 0.  1.
         12    1    3    3    0    0 -0.35562354216E+01 -0.88143626298E+01  0.20563717989E+02  0.22654056954E+02  0.00000000000E+00 0. -1.
</event>
<event>
 7    1  0.5504027E-010  0.4778728E+02  0.7816164E-02  0.1312668E+00
        -11   -1    0    0    0    0  0.00000000000E+00  0.00000000000E+00  0.45593999997E+02  0.45594000000E+02  0.51100000000E-03 0.  1.
         11   -1    0    0    0    0 -0.00000000000E+00 -0.00000000000E+00 -0.45593999997E+02  0.45594000000E+02  0.51100000000E-03 0. -1.
    9900012    2    1    2    0    0 -0.36264934091E+02  0.23008451427E+02 -0.62520743102E+01  0.47787277484E+02  0.20000029362E+02 0.  0.
         12    1    1    2    0    0  0.36264934091E+02 -0.23008451427E+02  0.62520743102E+01  0.43400722516E+02  0.00000000000E+00 0. -1.
         11    1    3    3    0    0 -0.18103913878E+02  0.20119568874E+02 -0.49530027101E+01  0.27515104678E+02  0.51100000000E-03 0. -1.
        -11    1    3    3    0    0 -0.11940228094E+02  0.58351721204E+01 -0.13031321704E+00  0.13290419948E+02  0.51100000000E-03 0.  1.
         12    1    3    3    0    0 -0.62207921193E+01 -0.29462895671E+01 -0.11687583830E+01  0.69817528575E+01  0.00000000000E+00 0. -1.
</event>
<event>
 7    1  0.5504027E-010  0.4778730E+02  0.7816164E-02  0.1312668E+00
        -11   -1    0    0    0    0  0.00000000000E+00  0.00000000000E+00  0.45593999997E+02  0.45594000000E+02  0.51100000000E-03 0.  1.
         11   -1    0    0    0    0 -0.00000000000E+00 -0.00000000000E+00 -0.45593999997E+02  0.45594000000E+02  0.51100000000E-03 0. -1.
    9900012    2    1    2    0    0 -0.13489189910E+01 -0.71419338158E+00  0.43373856698E+02  0.47787296095E+02  0.20000114213E+02 0.  0.
         12    1    1    2    0    0  0.13489189910E+01  0.71419338158E+00 -0.43373856698E+02  0.43400703905E+02  0.00000000000E+00 0. -1.
         11    1    3    3    0    0  0.64670000545E+01 -0.21361163803E+01  0.16586572821E+02  0.17930406607E+02  0.51100000000E-03 0. -1.
        -11    1    3    3    0    0  0.17986439266E+01 -0.36510669593E+00  0.64497479315E+00  0.19453574528E+01  0.51100000000E-03 0.  1.
         12    1    3    3    0    0 -0.96145629721E+01  0.17870296947E+01  0.26142309084E+02  0.27911532034E+02  0.00000000000E+00 0. -1.
</event>
<event>
 7    1  0.5504027E-010  0.4778727E+02  0.7816164E-02  0.1312668E+00
        -11   -1    0    0    0    0  0.00000000000E+00  0.00000000000E+00  0.45593999997E+02  0.45594000000E+02  0.51100000000E-03 0. -1.
         11   -1    0    0    0    0 -0.00000000000E+00 -0.00000000000E+00 -0.45593999997E+02  0.45594000000E+02  0.51100000000E-03 0.  1.
    9900012    2    1    2    0    0  0.14103490595E+02 -0.16052243397E+02 -0.37776185558E+02  0.47787272352E+02  0.20000005963E+02 0.  0.
         12    1    1    2    0    0 -0.14103490595E+02  0.16052243397E+02  0.37776185558E+02  0.43400727648E+02  0.00000000000E+00 0. -1.
         11    1    3    3    0    0 -0.19527900451E+01  0.11820099091E+01 -0.21863106728E+01  0.31607737984E+01  0.51100000000E-03 0. -1.
        -11    1    3    3    0    0  0.11854533073E+02 -0.79634413729E+01 -0.29474897314E+02  0.32752342280E+02  0.51100000000E-03 0.  1.
        -12    1    3    3    0    0  0.42017475669E+01 -0.92708119335E+01 -0.61149775709E+01  0.11874156274E+02  0.00000000000E+00 0.  1.
</event>
<event>
 7    1  0.5504027E-010  0.4778727E+02  0.7816164E-02  0.1312668E+00
        -11   -1    0    0    0    0  0.00000000000E+00  0.00000000000E+00  0.45593999997E+02  0.45594000000E+02  0.51100000000E-03 0. -1.
         11   -1    0    0    0    0 -0.00000000000E+00 -0.00000000000E+00 -0.45593999997E+02  0.45594000000E+02  0.51100000000E-03 0.  1.
    9900012    2    1    2    0    0 -0.34148086552E+02 -0.25401851493E+02 -0.85016132989E+01  0.47787270707E+02  0.19999998462E+02 0.  0.
         12    1    1    2    0    0  0.34148086552E+02  0.25401851493E+02  0.85016132989E+01  0.43400729293E+02  0.00000000000E+00 0. -1.
         11    1    3    3    0    0 -0.16953355116E+02 -0.66181636169E+01 -0.25377379004E+01  0.18375430696E+02  0.51100000000E-03 0. -1.
        -11    1    3    3    0    0 -0.12210675268E+02 -0.18531295856E+02 -0.85603777173E+01  0.23786331864E+02  0.51100000000E-03 0.  1.
        -12    1    3    3    0    0 -0.49840561689E+01 -0.25239202008E+00  0.25965023188E+01  0.56255081475E+01  0.00000000000E+00 0.  1.
</event>
<event>
 7    1  0.5504027E-010  0.4778728E+02  0.7816164E-02  0.1312668E+00
        -11   -1    0    0    0    0  0.00000000000E+00  0.00000000000E+00  0.45593999997E+02  0.45594000000E+02  0.51100000000E-03 0. -1.
         11   -1    0    0    0    0 -0.00000000000E+00 -0.00000000000E+00 -0.45593999997E+02  0.45594000000E+02  0.51100000000E-03 0.  1.
    9900012    2    1    2    0    0  0.23296869162E+02 -0.32342773901E+02 -0.17170428774E+02  0.47787276957E+02  0.20000026956E+02 0.  0.
         12    1    1    2    0    0 -0.23296869162E+02  0.32342773901E+02  0.17170428774E+02  0.43400723043E+02  0.00000000000E+00 0. -1.
         11    1    3    3    0    0  0.16636618609E+01 -0.11273458190E+02 -0.85495120899E+00  0.11427579454E+02  0.51100000000E-03 0. -1.
        -11    1    3    3    0    0  0.11132458001E+02 -0.35399098996E+01 -0.33235067889E+01  0.12145298715E+02  0.51100000000E-03 0.  1.
        -12    1    3    3    0    0  0.10500749301E+02 -0.17529405812E+02 -0.12991970777E+02  0.24214398788E+02  0.00000000000E+00 0.  1.
</event>
<event>
 7    1  0.5504027E-010  0.4778727E+02  0.7816164E-02  0.1312668E+00
        -11   -1    0    0    0    0  0.00000000000E+00  0.00000000000E+00  0.45593999997E+02  0.45594000000E+02  0.51100000000E-03 0.  1.
         11   -1    0    0    0    0 -0.00000000000E+00 -0.00000000000E+00 -0.45593999997E+02  0.45594000000E+02  0.51100000000E-03 0. -1.
    9900012    2    1    2    0    0  0.20484475331E+02 -0.34712955924E+02  0.16094101823E+02  0.47787272447E+02  0.20000006395E+02 0.  0.
         12    1    1    2    0    0 -0.20484475331E+02  0.34712955924E+02 -0.16094101823E+02  0.43400727553E+02  0.00000000000E+00 0. -1.
         11    1    3    3    0    0  0.12928699805E+02 -0.24486074333E+02  0.19674118376E+01  0.27759499716E+02  0.51100000000E-03 0. -1.
        -11    1    3    3    0    0  0.13845912058E+01 -0.44848522899E+01  0.90308935429E+01  0.10177820558E+02  0.51100000000E-03 0.  1.
         12    1    3    3    0    0  0.61711843207E+01 -0.57420293014E+01  0.50957964430E+01  0.98499521728E+01  0.00000000000E+00 0. -1.
</event>
<event>
 7    1  0.5504027E-010  0.4778725E+02  0.7816164E-02  0.1312668E+00
        -11   -1    0    0    0    0  0.00000000000E+00  0.00000000000E+00  0.45593999997E+02  0.45594000000E+02  0.51100000000E-03 0.  1.
         11   -1    0    0    0    0 -0.00000000000E+00 -0.00000000000E+00 -0.45593999997E+02  0.45594000000E+02  0.51100000000E-03 0. -1.
    9900012    2    1    2    0    0  0.67418854267E+01 -0.31631397793E+02  0.28941778640E+02  0.47787252354E+02  0.19999914781E+02 0.  0.
         12    1    1    2    0    0 -0.67418854267E+01  0.31631397793E+02 -0.28941778640E+02  0.43400747646E+02  0.00000000000E+00 0. -1.
         11    1    3    3    0    0 -0.22007438098E+01 -0.23378842801E+02  0.17104448991E+02  0.29051260551E+02  0.51100000000E-03 0.  1.
        -11    1    3    3    0    0  0.10234870943E+02 -0.58472040444E+01  0.98012739596E+01  0.15329949440E+02  0.51100000000E-03 0. -1.
         12    1    3    3    0    0 -0.12922417063E+01 -0.24053509468E+01  0.20360556896E+01  0.34060423626E+01  0.00000000000E+00 0. -1.
</event>
<event>
 7    1  0.5504027E-010  0.4778728E+02  0.7816164E-02  0.1312668E+00
        -11   -1    0    0    0    0  0.00000000000E+00  0.00000000000E+00  0.45593999997E+02  0.45594000000E+02  0.51100000000E-03 0.  1.
         11   -1    0    0    0    0 -0.00000000000E+00 -0.00000000000E+00 -0.45593999997E+02  0.45594000000E+02  0.51100000000E-03 0. -1.
    9900012    2    1    2    0    0  0.16300830864E+02 -0.86739944124E+01  0.39276806673E+02  0.47787276407E+02  0.20000024452E+02 0.  0.
         12    1    1    2    0    0 -0.16300830864E+02  0.86739944124E+01 -0.39276806673E+02  0.43400723593E+02  0.00000000000E+00 0. -1.
         11    1    3    3    0    0  0.64796651278E+01  0.22774433407E+01  0.11963226697E+02  0.13794622199E+02  0.51100000000E-03 0. -1.
        -11    1    3    3    0    0  0.78177659564E+01 -0.14192191913E+02  0.19942397407E+02  0.25695038246E+02  0.51100000000E-03 0.  1.
        -12    1    3    3    0    0  0.20033997797E+01  0.32407541599E+01  0.73711825688E+01  0.82976159627E+01  0.00000000000E+00 0.  1.
</event>
<event>
 7    1  0.5504027E-010  0.4778728E+02  0.7816164E-02  0.1312668E+00
        -11   -1    0    0    0    0  0.00000000000E+00  0.00000000000E+00  0.45593999997E+02  0.45594000000E+02  0.51100000000E-03 0.  1.
         11   -1    0    0    0    0 -0.00000000000E+00 -0.00000000000E+00 -0.45593999997E+02  0.45594000000E+02  0.51100000000E-03 0. -1.
    9900012    2    1    2    0    0 -0.25658981912E+01 -0.35919901152E+02  0.24223947528E+02  0.47787276894E+02  0.20000026670E+02 0.  0.
         12    1    1    2    0    0  0.25658981912E+01  0.35919901152E+02 -0.24223947528E+02  0.43400723106E+02  0.00000000000E+00 0. -1.
         11    1    3    3    0    0 -0.32579480145E+01 -0.26105757585E+02  0.17204996508E+02  0.31434641870E+02  0.51100000000E-03 0. -1.
        -11    1    3    3    0    0  0.30555982043E+01 -0.36835257817E+01  0.83728410921E+01  0.96441438597E+01  0.51100000000E-03 0.  1.
         12    1    3    3    0    0 -0.23635483810E+01 -0.61306177850E+01 -0.13538900727E+01  0.67084911645E+01  0.00000000000E+00 0. -1.
</event>
<event>
 7    1  0.5504027E-010  0.4778727E+02  0.7816164E-02  0.1312668E+00
        -11   -1    0    0    0    0  0.00000000000E+00  0.00000000000E+00  0.45593999997E+02  0.45594000000E+02  0.51100000000E-03 0.  1.
         11   -1    0    0    0    0 -0.00000000000E+00 -0.00000000000E+00 -0.45593999997E+02  0.45594000000E+02  0.51100000000E-03 0. -1.
    9900012    2    1    2    0    0 -0.29264960514E+02 -0.24885827104E+02  0.20196067122E+02  0.47787269226E+02  0.19999991710E+02 0.  0.
         12    1    1    2    0    0  0.29264960514E+02  0.24885827104E+02 -0.20196067122E+02  0.43400730774E+02  0.00000000000E+00 0. -1.
         11    1    3    3    0    0 -0.30481655218E+01  0.21283076700E+01  0.14828586430E+01  0.40024838042E+01  0.51100000000E-03 0. -1.
        -11    1    3    3    0    0 -0.23116013854E+02 -0.24411620663E+02  0.11534359154E+02  0.35543195710E+02  0.51100000000E-03 0.  1.
         12    1    3    3    0    0 -0.31007811378E+01 -0.26025141109E+01  0.71788493247E+01  0.82415897125E+01  0.00000000000E+00 0. -1.
</event>
<event>
 7    1  0.5504027E-010  0.4778727E+02  0.7816164E-02  0.1312668E+00
        -11   -1    0    0    0    0  0.00000000000E+00  0.00000000000E+00  0.45593999997E+02  0.45594000000E+02  0.51100000000E-03 0.  1.
         11   -1    0    0    0    0 -0.00000000000E+00 -0.00000000000E+00 -0.45593999997E+02  0.45594000000E+02  0.51100000000E-03 0. -1.
    9900012    2    1    2    0    0 -0.53597568621E+01  0.83259334617E+01  0.42256066650E+02  0.47787270394E+02  0.19999997033E+02 0.  0.
         12    1    1    2    0    0  0.53597568621E+01 -0.83259334617E+01 -0.42256066650E+02  0.43400729606E+02  0.00000000000E+00 0. -1.
         11    1    3    3    0    0 -0.18722605849E+01  0.11297426025E+02  0.18349129904E+02  0.21629326457E+02  0.51100000000E-03 0. -1.
        -11    1    3    3    0    0 -0.62623884179E+01 -0.32966175871E-01  0.17457275069E+02  0.18546564333E+02  0.51100000000E-03 0.  1.
         12    1    3    3    0    0  0.27748921407E+01 -0.29385263877E+01  0.64496616775E+01  0.76113796041E+01  0.00000000000E+00 0. -1.
</event>
<event>
 7    1  0.5504027E-010  0.4778727E+02  0.7816164E-02  0.1312668E+00
        -11   -1    0    0    0    0  0.00000000000E+00  0.00000000000E+00  0.45593999997E+02  0.45594000000E+02  0.51100000000E-03 0. -1.
         11   -1    0    0    0    0 -0.00000000000E+00 -0.00000000000E+00 -0.45593999997E+02  0.45594000000E+02  0.51100000000E-03 0.  1.
    9900012    2    1    2    0    0 -0.40294411321E+02  0.14362936302E+02  0.73273139290E+01  0.47787273597E+02  0.20000011636E+02 0.  0.
         12    1    1    2    0    0  0.40294411321E+02 -0.14362936302E+02 -0.73273139290E+01  0.43400726403E+02  0.00000000000E+00 0. -1.
         11    1    3    3    0    0 -0.13277715443E+02  0.14297926493E+02  0.23440470555E+01  0.19652556735E+02  0.51100000000E-03 0. -1.
        -11    1    3    3    0    0 -0.19406486901E+02  0.16964288856E+01  0.12993159109E+01  0.19523775938E+02  0.51100000000E-03 0.  1.
         12    1    3    3    0    0 -0.76102089775E+01 -0.16314190761E+01  0.36839509626E+01  0.86109409229E+01  0.00000000000E+00 0. -1.
</event>
<event>
 7    1  0.5504027E-010  0.4778729E+02  0.7816164E-02  0.1312668E+00
        -11   -1    0    0    0    0  0.00000000000E+00  0.00000000000E+00  0.45593999997E+02  0.45594000000E+02  0.51100000000E-03 0.  1.
         11   -1    0    0    0    0 -0.00000000000E+00 -0.00000000000E+00 -0.45593999997E+02  0.45594000000E+02  0.51100000000E-03 0. -1.
    9900012    2    1    2    0    0  0.25291206817E+02 -0.29294264848E+02  0.19642371061E+02  0.47787287607E+02  0.20000075517E+02 0.  0.
         12    1    1    2    0    0 -0.25291206817E+02  0.29294264848E+02 -0.19642371061E+02  0.43400712393E+02  0.00000000000E+00 0. -1.
         11    1    3    3    0    0 -0.14136104848E+01  0.88899877156E+00  0.32657050298E+01  0.36678935401E+01  0.51100000000E-03 0. -1.
        -11    1    3    3    0    0  0.12446252205E+01 -0.19760873139E+01 -0.73168311488E+00  0.24473196467E+01  0.51100000000E-03 0.  1.
         12    1    3    3    0    0  0.25460192082E+02 -0.28207176306E+02  0.17108349146E+02  0.41672074421E+02  0.00000000000E+00 0. -1.
</event>
<event>
 7    1  0.5504027E-010  0.4778727E+02  0.7816164E-02  0.1312668E+00
        -11   -1    0    0    0    0  0.00000000000E+00  0.00000000000E+00  0.45593999997E+02  0.45594000000E+02  0.51100000000E-03 0. -1.
         11   -1    0    0    0    0 -0.00000000000E+00 -0.00000000000E+00 -0.45593999997E+02  0.45594000000E+02  0.51100000000E-03 0.  1.
    9900012    2    1    2    0    0 -0.25504834322E+02 -0.34792570557E+02 -0.47543245227E+01  0.47787272571E+02  0.20000006959E+02 0.  0.
         12    1    1    2    0    0  0.25504834322E+02  0.34792570557E+02  0.47543245227E+01  0.43400727429E+02  0.00000000000E+00 0. -1.
         11    1    3    3    0    0  0.11865719380E+01 -0.14404414440E+01 -0.39704929343E+01  0.43872131154E+01  0.51100000000E-03 0. -1.
        -11    1    3    3    0    0 -0.18329487579E+02 -0.23620561581E+02 -0.40210039202E+01  0.30167358471E+02  0.51100000000E-03 0.  1.
        -12    1    3    3    0    0 -0.83619186802E+01 -0.97315675317E+01  0.32371723317E+01  0.13232700984E+02  0.00000000000E+00 0.  1.
</event>
<event>
 7    1  0.5504027E-010  0.4778726E+02  0.7816164E-02  0.1312668E+00
        -11   -1    0    0    0    0  0.00000000000E+00  0.00000000000E+00  0.45593999997E+02  0.45594000000E+02  0.51100000000E-03 0.  1.
         11   -1    0    0    0    0 -0.00000000000E+00 -0.00000000000E+00 -0.45593999997E+02  0.45594000000E+02  0.51100000000E-03 0. -1.
    9900012    2    1    2    0    0 -0.10979090108E+02 -0.20227507184E+02  0.36795814604E+02  0.47787257623E+02  0.19999938806E+02 0.  0.
         12    1    1    2    0    0  0.10979090108E+02  0.20227507184E+02 -0.36795814604E+02  0.43400742377E+02  0.00000000000E+00 0. -1.
         11    1    3    3    0    0 -0.39949290112E+01 -0.86296459016E+01  0.16785467813E+01  0.96564882722E+01  0.51100000000E-03 0. -1.
        -11    1    3    3    0    0 -0.58855848415E+01 -0.12241366339E+02  0.32238986984E+02  0.34983473823E+02  0.51100000000E-03 0.  1.
         12    1    3    3    0    0 -0.10985762549E+01  0.64350505622E+00  0.28782808395E+01  0.31472955273E+01  0.00000000000E+00 0. -1.
</event>
<event>
 7    1  0.5504027E-010  0.4778727E+02  0.7816164E-02  0.1312668E+00
        -11   -1    0    0    0    0  0.00000000000E+00  0.00000000000E+00  0.45593999997E+02  0.45594000000E+02  0.51100000000E-03 0.  1.
         11   -1    0    0    0    0 -0.00000000000E+00 -0.00000000000E+00 -0.45593999997E+02  0.45594000000E+02  0.51100000000E-03 0. -1.
    9900012    2    1    2    0    0  0.19293253411E+02 -0.28490325454E+02  0.26451750672E+02  0.47787269761E+02  0.19999994149E+02 0.  0.
         12    1    1    2    0    0 -0.19293253411E+02  0.28490325454E+02 -0.26451750672E+02  0.43400730239E+02  0.00000000000E+00 0. -1.
         11    1    3    3    0    0  0.17624879983E+02 -0.29676790332E+02  0.18757736766E+02  0.39283596674E+02  0.51100000000E-03 0. -1.
        -11    1    3    3    0    0 -0.70128426886E+00  0.96710837589E+00  0.32495891697E+01  0.34622143593E+01  0.51100000000E-03 0.  1.
         12    1    3    3    0    0  0.23696576964E+01  0.21935650134E+00  0.44444247357E+01  0.50414587277E+01  0.00000000000E+00 0. -1.
</event>
<event>
 7    1  0.5504027E-010  0.4778724E+02  0.7816164E-02  0.1312668E+00
        -11   -1    0    0    0    0  0.00000000000E+00  0.00000000000E+00  0.45593999997E+02  0.45594000000E+02  0.51100000000E-03 0. -1.
         11   -1    0    0    0    0 -0.00000000000E+00 -0.00000000000E+00 -0.45593999997E+02  0.45594000000E+02  0.51100000000E-03 0.  1.
    9900012    2    1    2    0    0  0.54301798936E+01  0.28465761040E+02 -0.32308501804E+02  0.47787243163E+02  0.19999872876E+02 0.  0.
         12    1    1    2    0    0 -0.54301798936E+01 -0.28465761040E+02  0.32308501804E+02  0.43400756837E+02  0.00000000000E+00 0. -1.
         11    1    3    3    0    0  0.34270644009E+01 -0.14028164617E+01 -0.56386435392E+01  0.67458850907E+01  0.51100000000E-03 0. -1.
        -11    1    3    3    0    0  0.54827855416E+01  0.18017696688E+02 -0.15593542744E+02  0.24451112588E+02  0.51100000000E-03 0.  1.
         12    1    3    3    0    0 -0.34796700489E+01  0.11850880813E+02 -0.11076315521E+02  0.16590245484E+02  0.00000000000E+00 0. -1.
</event>
<event>
 7    1  0.5504027E-010  0.4778724E+02  0.7816164E-02  0.1312668E+00
        -11   -1    0    0    0    0  0.00000000000E+00  0.00000000000E+00  0.45593999997E+02  0.45594000000E+02  0.51100000000E-03 0.  1.
         11   -1    0    0    0    0 -0.00000000000E+00 -0.00000000000E+00 -0.45593999997E+02  0.45594000000E+02  0.51100000000E-03 0. -1.
    9900012    2    1    2    0    0  0.15230549975E+02 -0.28130255582E+01  0.40543105944E+02  0.47787237277E+02  0.19999846041E+02 0.  0.
         12    1    1    2    0    0 -0.15230549975E+02  0.28130255582E+01 -0.40543105944E+02  0.43400762723E+02  0.00000000000E+00 0. -1.
         11    1    3    3    0    0 -0.93789504703E+00  0.53442067110E+00 -0.14587502812E+01  0.18147190463E+01  0.51100000000E-03 0. -1.
        -11    1    3    3    0    0  0.70298136863E+01 -0.13689383820E-01  0.28355350347E+02  0.29213770065E+02  0.51100000000E-03 0.  1.
         12    1    3    3    0    0  0.91386313355E+01 -0.33337568454E+01  0.13646505879E+02  0.16758748166E+02  0.00000000000E+00 0. -1.
</event>
<event>
 7    1  0.5504027E-010  0.4778728E+02  0.7816164E-02  0.1312668E+00
        -11   -1    0    0    0    0  0.00000000000E+00  0.00000000000E+00  0.45593999997E+02  0.45594000000E+02  0.51100000000E-03 0.  1.
         11   -1    0    0    0    0 -0.00000000000E+00 -0.00000000000E+00 -0.45593999997E+02  0.45594000000E+02  0.51100000000E-03 0. -1.
    9900012    2    1    2    0    0  0.10396659712E+02  0.16091736879E+02  0.38943395680E+02  0.47787278854E+02  0.20000035605E+02 0.  0.
         12    1    1    2    0    0 -0.10396659712E+02 -0.16091736879E+02 -0.38943395680E+02  0.43400721146E+02  0.00000000000E+00 0. -1.
         11    1    3    3    0    0 -0.11268902546E+01  0.19091687137E+01  0.18716616454E+01  0.29013659540E+01  0.51100000000E-03 0. -1.
        -11    1    3    3    0    0  0.22075868079E+01 -0.32130169249E+01  0.13969524503E+02  0.14503259371E+02  0.51100000000E-03 0.  1.
        -12    1    3    3    0    0  0.93159631587E+01  0.17395585090E+02  0.23102209531E+02  0.30382653528E+02  0.00000000000E+00 0.  1.
</event>
<event>
 7    1  0.5504027E-010  0.4778727E+02  0.7816164E-02  0.1312668E+00
        -11   -1    0    0    0    0  0.00000000000E+00  0.00000000000E+00  0.45593999997E+02  0.45594000000E+02  0.51100000000E-03 0.  1.
         11   -1    0    0    0    0 -0.00000000000E+00 -0.00000000000E+00 -0.45593999997E+02  0.45594000000E+02  0.51100000000E-03 0. -1.
    9900012    2    1    2    0    0 -0.41144799389E+02  0.12434746869E+01 -0.13754365762E+02  0.47787270471E+02  0.19999997388E+02 0.  0.
         12    1    1    2    0    0  0.41144799389E+02 -0.12434746869E+01  0.13754365762E+02  0.43400729529E+02  0.00000000000E+00 0. -1.
         11    1    3    3    0    0 -0.12841974594E+02  0.28252324059E+01 -0.96899391553E+01  0.16333804539E+02  0.51100000000E-03 0. -1.
        -11    1    3    3    0    0 -0.15034869179E+02 -0.41367915389E+01  0.34813634590E+01  0.15977491270E+02  0.51100000000E-03 0.  1.
        -12    1    3    3    0    0 -0.13267955616E+02  0.25550338199E+01 -0.75457900659E+01  0.15475974663E+02  0.00000000000E+00 0.  1.
</event>
<event>
 7    1  0.5504027E-010  0.4778727E+02  0.7816164E-02  0.1312668E+00
        -11   -1    0    0    0    0  0.00000000000E+00  0.00000000000E+00  0.45593999997E+02  0.45594000000E+02  0.51100000000E-03 0. -1.
         11   -1    0    0    0    0 -0.00000000000E+00 -0.00000000000E+00 -0.45593999997E+02  0.45594000000E+02  0.51100000000E-03 0.  1.
    9900012    2    1    2    0    0  0.29885069002E+01  0.43170599253E+02 -0.33153354482E+01  0.47787271175E+02  0.20000000596E+02 0.  0.
         12    1    1    2    0    0 -0.29885069002E+01 -0.43170599253E+02  0.33153354482E+01  0.43400728825E+02  0.00000000000E+00 0. -1.
         11    1    3    3    0    0 -0.57114595979E+01  0.66985255468E+01 -0.38175199927E+01  0.95950234182E+01  0.51100000000E-03 0. -1.
        -11    1    3    3    0    0  0.70153524627E+01  0.35552033938E+02  0.13428328617E+00  0.36237829951E+02  0.51100000000E-03 0.  1.
        -12    1    3    3    0    0  0.16846140354E+01  0.92003976881E+00  0.36790125834E+00  0.19544178060E+01  0.00000000000E+00 0.  1.
</event>
<event>
 7    1  0.5504027E-010  0.4778727E+02  0.7816164E-02  0.1312668E+00
        -11   -1    0    0    0    0  0.00000000000E+00  0.00000000000E+00  0.45593999997E+02  0.45594000000E+02  0.51100000000E-03 0.  1.
         11   -1    0    0    0    0 -0.00000000000E+00 -0.00000000000E+00 -0.45593999997E+02  0.45594000000E+02  0.51100000000E-03 0. -1.
    9900012    2    1    2    0    0  0.72182146303E+01 -0.39400720045E+02 -0.16706403765E+02  0.47787270867E+02  0.19999999191E+02 0.  0.
         12    1    1    2    0    0 -0.72182146303E+01  0.39400720045E+02  0.16706403765E+02  0.43400729133E+02  0.00000000000E+00 0. -1.
         11    1    3    3    0    0 -0.29343506980E+01 -0.75793238652E+00 -0.35518980210E+01  0.46691386073E+01  0.51100000000E-03 0. -1.
        -11    1    3    3    0    0  0.67230061749E+01 -0.32909576690E+02 -0.76200258532E+01  0.34442761855E+02  0.51100000000E-03 0.  1.
        -12    1    3    3    0    0  0.34295591534E+01 -0.57332109687E+01 -0.55344798909E+01  0.86753704048E+01  0.00000000000E+00 0.  1.
</event>
<event>
 7    1  0.5504027E-010  0.4778727E+02  0.7816164E-02  0.1312668E+00
        -11   -1    0    0    0    0  0.00000000000E+00  0.00000000000E+00  0.45593999997E+02  0.45594000000E+02  0.51100000000E-03 0. -1.
         11   -1    0    0    0    0 -0.00000000000E+00 -0.00000000000E+00 -0.45593999997E+02  0.45594000000E+02  0.51100000000E-03 0.  1.
    9900012    2    1    2    0    0  0.41555136755E+02 -0.85502839773E+01 -0.91480530230E+01  0.47787267046E+02  0.19999981772E+02 0.  0.
         12    1    1    2    0    0 -0.41555136755E+02  0.85502839773E+01  0.91480530230E+01  0.43400732954E+02  0.00000000000E+00 0. -1.
         11    1    3    3    0    0  0.32586267676E+02 -0.10513493750E+02 -0.33227651822E+01  0.34401150571E+02  0.51100000000E-03 0. -1.
        -11    1    3    3    0    0  0.30414386782E+01  0.12018788596E+01 -0.65943334440E+01  0.73607129993E+01  0.51100000000E-03 0.  1.
         12    1    3    3    0    0  0.59274304004E+01  0.76133091317E+00  0.76904560321E+00  0.60254034762E+01  0.00000000000E+00 0. -1.
</event>
<event>
 7    1  0.5504027E-010  0.4778730E+02  0.7816164E-02  0.1312668E+00
        -11   -1    0    0    0    0  0.00000000000E+00  0.00000000000E+00  0.45593999997E+02  0.45594000000E+02  0.51100000000E-03 0. -1.
         11   -1    0    0    0    0 -0.00000000000E+00 -0.00000000000E+00 -0.45593999997E+02  0.45594000000E+02  0.51100000000E-03 0.  1.
    9900012    2    1    2    0    0  0.14592916645E+01  0.39638584201E+02 -0.17614586499E+02  0.47787302458E+02  0.20000143225E+02 0.  0.
         12    1    1    2    0    0 -0.14592916645E+01 -0.39638584201E+02  0.17614586499E+02  0.43400697542E+02  0.00000000000E+00 0. -1.
         11    1    3    3    0    0 -0.78064475182E+01  0.23176709916E+02 -0.78744941116E+01  0.25692570193E+02  0.51100000000E-03 0. -1.
        -11    1    3    3    0    0  0.34771615586E+01  0.26911931516E+01 -0.26425835051E+00  0.44048843141E+01  0.51100000000E-03 0.  1.
         12    1    3    3    0    0  0.57885776241E+01  0.13770681134E+02 -0.94758340370E+01  0.17689847950E+02  0.00000000000E+00 0. -1.
</event>
<event>
 7    1  0.5504027E-010  0.4778727E+02  0.7816164E-02  0.1312668E+00
        -11   -1    0    0    0    0  0.00000000000E+00  0.00000000000E+00  0.45593999997E+02  0.45594000000E+02  0.51100000000E-03 0.  1.
         11   -1    0    0    0    0 -0.00000000000E+00 -0.00000000000E+00 -0.45593999997E+02  0.45594000000E+02  0.51100000000E-03 0. -1.
    9900012    2    1    2    0    0 -0.63466010275E+01 -0.17501669292E+02  0.39205043270E+02  0.47787272006E+02  0.20000004385E+02 0.  0.
         12    1    1    2    0    0  0.63466010275E+01  0.17501669292E+02 -0.39205043270E+02  0.43400727994E+02  0.00000000000E+00 0. -1.
         11    1    3    3    0    0 -0.10050533427E+01 -0.43069324181E+01  0.29199427032E+01  0.52996098655E+01  0.51100000000E-03 0. -1.
        -11    1    3    3    0    0 -0.93457402981E+01 -0.85581354814E+01  0.12037669928E+02  0.17478273433E+02  0.51100000000E-03 0.  1.
        -12    1    3    3    0    0  0.40041926133E+01 -0.46366013924E+01  0.24247430639E+02  0.25009388708E+02  0.00000000000E+00 0.  1.
</event>
<event>
 7    1  0.5504027E-010  0.4778727E+02  0.7816164E-02  0.1312668E+00
        -11   -1    0    0    0    0  0.00000000000E+00  0.00000000000E+00  0.45593999997E+02  0.45594000000E+02  0.51100000000E-03 0.  1.
         11   -1    0    0    0    0 -0.00000000000E+00 -0.00000000000E+00 -0.45593999997E+02  0.45594000000E+02  0.51100000000E-03 0. -1.
    9900012    2    1    2    0    0 -0.12399874275E+02 -0.32824438462E+02  0.25542561305E+02  0.47787273273E+02  0.20000010163E+02 0.  0.
         12    1    1    2    0    0  0.12399874275E+02  0.32824438462E+02 -0.25542561305E+02  0.43400726727E+02  0.00000000000E+00 0. -1.
         11    1    3    3    0    0 -0.97478966234E+01 -0.17172731212E+02  0.26855178095E+01  0.19928276193E+02  0.51100000000E-03 0.  1.
        -11    1    3    3    0    0 -0.26479357995E+01 -0.12693664960E+02  0.18795752763E+02  0.22834645088E+02  0.51100000000E-03 0. -1.
        -12    1    3    3    0    0 -0.40418518865E-02 -0.29580422897E+01  0.40612907322E+01  0.50243519916E+01  0.00000000000E+00 0.  1.
</event>
<event>
 7    1  0.5504027E-010  0.4778727E+02  0.7816164E-02  0.1312668E+00
        -11   -1    0    0    0    0  0.00000000000E+00  0.00000000000E+00  0.45593999997E+02  0.45594000000E+02  0.51100000000E-03 0.  1.
         11   -1    0    0    0    0 -0.00000000000E+00 -0.00000000000E+00 -0.45593999997E+02  0.45594000000E+02  0.51100000000E-03 0. -1.
    9900012    2    1    2    0    0  0.22404937684E+02 -0.33478596807E+02  0.16150103801E+02  0.47787268098E+02  0.19999986567E+02 0.  0.
         12    1    1    2    0    0 -0.22404937684E+02  0.33478596807E+02 -0.16150103801E+02  0.43400731902E+02  0.00000000000E+00 0. -1.
         11    1    3    3    0    0  0.14904641858E+02 -0.13676648302E+02  0.14562653627E+02  0.24925287132E+02  0.51100000000E-03 0. -1.
        -11    1    3    3    0    0  0.80728711947E+01 -0.11573827041E+02 -0.11841172082E+01  0.14160750528E+02  0.51100000000E-03 0.  1.
         12    1    3    3    0    0 -0.57257536833E+00 -0.82281214637E+01  0.27715673825E+01  0.87012304377E+01  0.00000000000E+00 0. -1.
</event>
<event>
 7    1  0.5504027E-010  0.4778727E+02  0.7816164E-02  0.1312668E+00
        -11   -1    0    0    0    0  0.00000000000E+00  0.00000000000E+00  0.45593999997E+02  0.45594000000E+02  0.51100000000E-03 0.  1.
         11   -1    0    0    0    0 -0.00000000000E+00 -0.00000000000E+00 -0.45593999997E+02  0.45594000000E+02  0.51100000000E-03 0. -1.
    9900012    2    1    2    0    0 -0.23892086456E+02 -0.30646319686E+02  0.19328592221E+02  0.47787272094E+02  0.20000004786E+02 0.  0.
         12    1    1    2    0    0  0.23892086456E+02  0.30646319686E+02 -0.19328592221E+02  0.43400727906E+02  0.00000000000E+00 0. -1.
         11    1    3    3    0    0 -0.18780677281E+02 -0.22236581743E+02  0.14636346841E+02  0.32579165978E+02  0.51100000000E-03 0. -1.
        -11    1    3    3    0    0 -0.77631015417E+01 -0.72985872039E+01  0.12580661200E+01  0.10729298735E+02  0.51100000000E-03 0.  1.
         12    1    3    3    0    0  0.26516923661E+01 -0.11111507394E+01  0.34341792594E+01  0.44788073809E+01  0.00000000000E+00 0. -1.
</event>
<event>
 7    1  0.5504027E-010  0.4778727E+02  0.7816164E-02  0.1312668E+00
        -11   -1    0    0    0    0  0.00000000000E+00  0.00000000000E+00  0.45593999997E+02  0.45594000000E+02  0.51100000000E-03 0.  1.
         11   -1    0    0    0    0 -0.00000000000E+00 -0.00000000000E+00 -0.45593999997E+02  0.45594000000E+02  0.51100000000E-03 0. -1.
    9900012    2    1    2    0    0  0.27986829484E+02  0.32093135605E+02 -0.83899735278E+01  0.47787266904E+02  0.19999981120E+02 0.  0.
         12    1    1    2    0    0 -0.27986829484E+02 -0.32093135605E+02  0.83899735278E+01  0.43400733096E+02  0.00000000000E+00 0. -1.
         11    1    3    3    0    0 -0.59341547069E+00 -0.13484897792E+01 -0.20311163380E+00  0.14872192853E+01  0.51100000000E-03 0. -1.
        -11    1    3    3    0    0  0.26737416350E+02  0.31283373686E+02 -0.41443014169E+01  0.41360780176E+02  0.51100000000E-03 0.  1.
         12    1    3    3    0    0  0.18428286043E+01  0.21582516984E+01 -0.40425604772E+01  0.49392674427E+01  0.00000000000E+00 0. -1.
</event>
<event>
 7    1  0.5504027E-010  0.4778727E+02  0.7816164E-02  0.1312668E+00
        -11   -1    0    0    0    0  0.00000000000E+00  0.00000000000E+00  0.45593999997E+02  0.45594000000E+02  0.51100000000E-03 0.  1.
         11   -1    0    0    0    0 -0.00000000000E+00 -0.00000000000E+00 -0.45593999997E+02  0.45594000000E+02  0.51100000000E-03 0. -1.
    9900012    2    1    2    0    0  0.15185666825E+02 -0.37806152274E+02  0.14957064985E+02  0.47787269365E+02  0.19999992343E+02 0.  0.
         12    1    1    2    0    0 -0.15185666825E+02  0.37806152274E+02 -0.14957064985E+02  0.43400730635E+02  0.00000000000E+00 0. -1.
         11    1    3    3    0    0  0.24455058241E+01 -0.92232042862E+00  0.16945708383E+00  0.26191391091E+01  0.51100000000E-03 0. -1.
        -11    1    3    3    0    0 -0.25799890307E+01 -0.16851453626E+01 -0.15482622588E+01  0.34486482243E+01  0.51100000000E-03 0.  1.
        -12    1    3    3    0    0  0.15320150032E+02 -0.35198686483E+02  0.16335870160E+02  0.41719482032E+02  0.00000000000E+00 0.  1.
</event>
<event>
 7    1  0.5504027E-010  0.4778727E+02  0.7816164E-02  0.1312668E+00
        -11   -1    0    0    0    0  0.00000000000E+00  0.00000000000E+00  0.45593999997E+02  0.45594000000E+02  0.51100000000E-03 0. -1.
         11   -1    0    0    0    0 -0.00000000000E+00 -0.00000000000E+00 -0.45593999997E+02  0.45594000000E+02  0.51100000000E-03 0.  1.
    9900012    2    1    2    0    0 -0.38317535418E+02 -0.15891167716E+02 -0.12761682283E+02  0.47787271129E+02  0.20000000385E+02 0.  0.
         12    1    1    2    0    0  0.38317535418E+02  0.15891167716E+02  0.12761682283E+02  0.43400728871E+02  0.00000000000E+00 0. -1.
         11    1    3    3    0    0 -0.20600998117E+02 -0.16801498961E+02 -0.47818172249E+01  0.27010317788E+02  0.51100000000E-03 0. -1.
        -11    1    3    3    0    0 -0.13358157862E+02  0.12289636310E+01 -0.22996857153E+01  0.13610264057E+02  0.51100000000E-03 0.  1.
         12    1    3    3    0    0 -0.43583794388E+01 -0.31863238673E+00 -0.56801793423E+01  0.71666892839E+01  0.00000000000E+00 0. -1.
</event>
<event>
 7    1  0.5504027E-010  0.4778727E+02  0.7816164E-02  0.1312668E+00
        -11   -1    0    0    0    0  0.00000000000E+00  0.00000000000E+00  0.45593999997E+02  0.45594000000E+02  0.51100000000E-03 0.  1.
         11   -1    0    0    0    0 -0.00000000000E+00 -0.00000000000E+00 -0.45593999997E+02  0.45594000000E+02  0.51100000000E-03 0. -1.
    9900012    2    1    2    0    0  0.82067356572E+00  0.38951079867E+02  0.19124945378E+02  0.47787266555E+02  0.19999979529E+02 0.  0.
         12    1    1    2    0    0 -0.82067356572E+00 -0.38951079867E+02 -0.19124945378E+02  0.43400733445E+02  0.00000000000E+00 0. -1.
         11    1    3    3    0    0 -0.57532136836E+01  0.22254910777E+02  0.16452206745E+02  0.28267572029E+02  0.51100000000E-03 0. -1.
        -11    1    3    3    0    0  0.58744621761E+01  0.16895760807E+02  0.36945743300E+01  0.18265429611E+02  0.51100000000E-03 0.  1.
         12    1    3    3    0    0  0.69942507316E+00 -0.19959171734E+00 -0.10218356967E+01  0.12542649153E+01  0.00000000000E+00 0. -1.
</event>
<event>
 7    1  0.5504027E-010  0.4778727E+02  0.7816164E-02  0.1312668E+00
        -11   -1    0    0    0    0  0.00000000000E+00  0.00000000000E+00  0.45593999997E+02  0.45594000000E+02  0.51100000000E-03 0.  1.
         11   -1    0    0    0    0 -0.00000000000E+00 -0.00000000000E+00 -0.45593999997E+02  0.45594000000E+02  0.51100000000E-03 0. -1.
    9900012    2    1    2    0    0 -0.20299073025E+02  0.32789467464E+02  0.19910341312E+02  0.47787271510E+02  0.20000002125E+02 0.  0.
         12    1    1    2    0    0  0.20299073025E+02 -0.32789467464E+02 -0.19910341312E+02  0.43400728490E+02  0.00000000000E+00 0. -1.
         11    1    3    3    0    0 -0.24988852819E+00 -0.17888266077E+01 -0.67117381976E-01  0.18074429211E+01  0.51100000000E-03 0. -1.
        -11    1    3    3    0    0 -0.16754486269E+02  0.18353400837E+02  0.12382641980E+02  0.27764905098E+02  0.51100000000E-03 0.  1.
        -12    1    3    3    0    0 -0.32946982281E+01  0.16224893234E+02  0.75948167145E+01  0.18214923492E+02  0.00000000000E+00 0.  1.
</event>
<event>
 7    1  0.5504027E-010  0.4778727E+02  0.7816164E-02  0.1312668E+00
        -11   -1    0    0    0    0  0.00000000000E+00  0.00000000000E+00  0.45593999997E+02  0.45594000000E+02  0.51100000000E-03 0. -1.
         11   -1    0    0    0    0 -0.00000000000E+00 -0.00000000000E+00 -0.45593999997E+02  0.45594000000E+02  0.51100000000E-03 0.  1.
    9900012    2    1    2    0    0 -0.22932299664E+02 -0.20538992198E+02 -0.30592197569E+02  0.47787272812E+02  0.20000008060E+02 0.  0.
         12    1    1    2    0    0  0.22932299664E+02  0.20538992198E+02  0.30592197569E+02  0.43400727188E+02  0.00000000000E+00 0. -1.
         11    1    3    3    0    0 -0.22307435513E+02 -0.19522965692E+02 -0.20034052411E+02  0.35778920118E+02  0.51100000000E-03 0. -1.
        -11    1    3    3    0    0  0.42602415985E+00 -0.30825467914E+01 -0.78447035924E+01  0.84393700013E+01  0.51100000000E-03 0.  1.
         12    1    3    3    0    0 -0.10508883108E+01  0.20665202855E+01 -0.27134415653E+01  0.35689826926E+01  0.00000000000E+00 0. -1.
</event>
<event>
 7    1  0.5504027E-010  0.4778727E+02  0.7816164E-02  0.1312668E+00
        -11   -1    0    0    0    0  0.00000000000E+00  0.00000000000E+00  0.45593999997E+02  0.45594000000E+02  0.51100000000E-03 0.  1.
         11   -1    0    0    0    0 -0.00000000000E+00 -0.00000000000E+00 -0.45593999997E+02  0.45594000000E+02  0.51100000000E-03 0. -1.
    9900012    2    1    2    0    0 -0.41138538162E+02 -0.98303069112E+01  0.97267208459E+01  0.47787270116E+02  0.19999995766E+02 0.  0.
         12    1    1    2    0    0  0.41138538162E+02  0.98303069112E+01 -0.97267208459E+01  0.43400729884E+02  0.00000000000E+00 0. -1.
         11    1    3    3    0    0 -0.32655495103E+02 -0.82876195519E+01  0.38886451161E+01  0.33914415215E+02  0.51100000000E-03 0. -1.
        -11    1    3    3    0    0 -0.37251868821E+01  0.30133161956E+01 -0.39019885292E+00  0.48072182400E+01  0.51100000000E-03 0.  1.
         12    1    3    3    0    0 -0.47578561770E+01 -0.45560035548E+01  0.62282745827E+01  0.90656366611E+01  0.00000000000E+00 0. -1.
</event>
<event>
 7    1  0.6568688E-010  0.4778731E+02  0.7816164E-02  0.1312668E+00
        -11   -1    0    0    0    0  0.00000000000E+00  0.00000000000E+00  0.45593999997E+02  0.45594000000E+02  0.51100000000E-03 0. -1.
         11   -1    0    0    0    0 -0.00000000000E+00 -0.00000000000E+00 -0.45593999997E+02  0.45594000000E+02  0.51100000000E-03 0.  1.
    9900012    2    1    2    0    0 -0.32226118243E+02 -0.28537466523E+02 -0.55416760945E+01  0.47787310300E+02  0.20000178979E+02 0.  0.
         12    1    1    2    0    0  0.32226118243E+02  0.28537466523E+02  0.55416760945E+01  0.43400689700E+02  0.00000000000E+00 0. -1.
         11    1    3    3    0    0 -0.13323762064E+02 -0.41611434854E+01 -0.64319398111E+01  0.15369046836E+02  0.51100000000E-03 0. -1.
        -11    1    3    3    0    0 -0.82257219393E+01 -0.93263604578E+01 -0.44513360327E+01  0.13208250965E+02  0.51100000000E-03 0.  1.
         12    1    3    3    0    0 -0.10676634240E+02 -0.15049962579E+02  0.53415997493E+01  0.19210012499E+02  0.00000000000E+00 0. -1.
</event>
<event>
 7    1  0.5504027E-010  0.4778727E+02  0.7816164E-02  0.1312668E+00
        -11   -1    0    0    0    0  0.00000000000E+00  0.00000000000E+00  0.45593999997E+02  0.45594000000E+02  0.51100000000E-03 0.  1.
         11   -1    0    0    0    0 -0.00000000000E+00 -0.00000000000E+00 -0.45593999997E+02  0.45594000000E+02  0.51100000000E-03 0. -1.
    9900012    2    1    2    0    0  0.21409044187E+02  0.15974230614E+01  0.37719018844E+02  0.47787270559E+02  0.19999997786E+02 0.  0.
         12    1    1    2    0    0 -0.21409044187E+02 -0.15974230614E+01 -0.37719018844E+02  0.43400729441E+02  0.00000000000E+00 0. -1.
         11    1    3    3    0    0  0.10109699384E+02  0.52527860772E+01  0.71496977721E+01  0.13450500425E+02  0.51100000000E-03 0. -1.
        -11    1    3    3    0    0  0.12451544702E+01 -0.51058701549E+01  0.78134784676E+01  0.94165155826E+01  0.51100000000E-03 0.  1.
        -12    1    3    3    0    0  0.10054190333E+02  0.14505071391E+01  0.22755842605E+02  0.24920254551E+02  0.00000000000E+00 0.  1.
</event>
<event>
 7    1  0.5504027E-010  0.4778727E+02  0.7816164E-02  0.1312668E+00
        -11   -1    0    0    0    0  0.00000000000E+00  0.00000000000E+00  0.45593999997E+02  0.45594000000E+02  0.51100000000E-03 0. -1.
         11   -1    0    0    0    0 -0.00000000000E+00 -0.00000000000E+00 -0.45593999997E+02  0.45594000000E+02  0.51100000000E-03 0.  1.
    9900012    2    1    2    0    0  0.44811371927E+00  0.39389351283E+02  0.18218165587E+02  0.47787270078E+02  0.19999995594E+02 0.  0.
         12    1    1    2    0    0 -0.44811371927E+00 -0.39389351283E+02 -0.18218165587E+02  0.43400729922E+02  0.00000000000E+00 0. -1.
         11    1    3    3    0    0  0.68722963888E+01  0.85063742288E+01  0.62487884257E-01  0.10935756269E+02  0.51100000000E-03 0. -1.
        -11    1    3    3    0    0 -0.12195954624E+01  0.19454239859E+02  0.10431768344E+02  0.22108293752E+02  0.51100000000E-03 0.  1.
         12    1    3    3    0    0 -0.52045872071E+01  0.11428737195E+02  0.77239093586E+01  0.14743220057E+02  0.00000000000E+00 0. -1.
</event>
<event>
 7    1  0.5504027E-010  0.4778727E+02  0.7816164E-02  0.1312668E+00
        -11   -1    0    0    0    0  0.00000000000E+00  0.00000000000E+00  0.45593999997E+02  0.45594000000E+02  0.51100000000E-03 0.  1.
         11   -1    0    0    0    0 -0.00000000000E+00 -0.00000000000E+00 -0.45593999997E+02  0.45594000000E+02  0.51100000000E-03 0. -1.
    9900012    2    1    2    0    0  0.14041593849E+02 -0.19450640076E+02  0.36168073498E+02  0.47787270769E+02  0.19999998746E+02 0.  0.
         12    1    1    2    0    0 -0.14041593849E+02  0.19450640076E+02 -0.36168073498E+02  0.43400729231E+02  0.00000000000E+00 0. -1.
         11    1    3    3    0    0  0.34007628782E+00 -0.93515859308E+01  0.23867763517E+02  0.25636652412E+02  0.51100000000E-03 0. -1.
        -11    1    3    3    0    0  0.37114814673E+01 -0.41335926658E+01  0.49883955036E+00  0.55776808951E+01  0.51100000000E-03 0.  1.
         12    1    3    3    0    0  0.99900360936E+01 -0.59654614798E+01  0.11801470430E+02  0.16572937463E+02  0.00000000000E+00 0. -1.
</event>
<event>
 7    1  0.5504027E-010  0.4778727E+02  0.7816164E-02  0.1312668E+00
        -11   -1    0    0    0    0  0.00000000000E+00  0.00000000000E+00  0.45593999997E+02  0.45594000000E+02  0.51100000000E-03 0.  1.
         11   -1    0    0    0    0 -0.00000000000E+00 -0.00000000000E+00 -0.45593999997E+02  0.45594000000E+02  0.51100000000E-03 0. -1.
    9900012    2    1    2    0    0 -0.15129828639E+02 -0.27965889952E+02  0.29540151571E+02  0.47787271086E+02  0.20000000189E+02 0.  0.
         12    1    1    2    0    0  0.15129828639E+02  0.27965889952E+02 -0.29540151571E+02  0.43400728914E+02  0.00000000000E+00 0. -1.
         11    1    3    3    0    0 -0.28308450068E+01 -0.19123310395E+01  0.11206945991E+02  0.11716071533E+02  0.51100000000E-03 0. -1.
        -11    1    3    3    0    0 -0.11368711395E+02 -0.25782555329E+02  0.19710388017E+02  0.34387310947E+02  0.51100000000E-03 0.  1.
         12    1    3    3    0    0 -0.93027223644E+00 -0.27100358300E+00 -0.13771824366E+01  0.16838886066E+01  0.00000000000E+00 0. -1.
</event>
<event>
 7    1  0.5504027E-010  0.4778727E+02  0.7816164E-02  0.1312668E+00
        -11   -1    0    0    0    0  0.00000000000E+00  0.00000000000E+00  0.45593999997E+02  0.45594000000E+02  0.51100000000E-03 0.  1.
         11   -1    0    0    0    0 -0.00000000000E+00 -0.00000000000E+00 -0.45593999997E+02  0.45594000000E+02  0.51100000000E-03 0. -1.
    9900012    2    1    2    0    0  0.48455432595E+01 -0.42491356613E+02 -0.73911237151E+01  0.47787269752E+02  0.19999994109E+02 0.  0.
         12    1    1    2    0    0 -0.48455432595E+01  0.42491356613E+02  0.73911237151E+01  0.43400730248E+02  0.00000000000E+00 0. -1.
         11    1    3    3    0    0  0.64930579018E+01 -0.21011107005E+02  0.42597781499E+01  0.22400270727E+02  0.51100000000E-03 0. -1.
        -11    1    3    3    0    0 -0.77197375350E+00 -0.19050990882E+02 -0.74798140839E+01  0.20481304061E+02  0.51100000000E-03 0.  1.
         12    1    3    3    0    0 -0.87554088883E+00 -0.24292587260E+01 -0.41710877811E+01  0.49056949644E+01  0.00000000000E+00 0. -1.
</event>
<event>
 7    1  0.5504027E-010  0.4778727E+02  0.7816164E-02  0.1312668E+00
        -11   -1    0    0    0    0  0.00000000000E+00  0.00000000000E+00  0.45593999997E+02  0.45594000000E+02  0.51100000000E-03 0.  1.
         11   -1    0    0    0    0 -0.00000000000E+00 -0.00000000000E+00 -0.45593999997E+02  0.45594000000E+02  0.51100000000E-03 0. -1.
    9900012    2    1    2    0    0 -0.74502288589E+01 -0.95176067886E+01  0.41683718839E+02  0.47787272295E+02  0.20000005702E+02 0.  0.
         12    1    1    2    0    0  0.74502288589E+01  0.95176067886E+01 -0.41683718839E+02  0.43400727705E+02  0.00000000000E+00 0. -1.
         11    1    3    3    0    0 -0.34183891043E+01  0.32739425192E+01  0.90926263680E+00  0.48198384300E+01  0.51100000000E-03 0. -1.
        -11    1    3    3    0    0 -0.31694275595E+01 -0.10447093920E+02  0.30545176243E+02  0.32437552843E+02  0.51100000000E-03 0.  1.
        -12    1    3    3    0    0 -0.86241219507E+00 -0.23444553874E+01  0.10229279959E+02  0.10529881022E+02  0.00000000000E+00 0.  1.
</event>
<event>
 7    1  0.5504027E-010  0.4778727E+02  0.7816164E-02  0.1312668E+00
        -11   -1    0    0    0    0  0.00000000000E+00  0.00000000000E+00  0.45593999997E+02  0.45594000000E+02  0.51100000000E-03 0.  1.
         11   -1    0    0    0    0 -0.00000000000E+00 -0.00000000000E+00 -0.45593999997E+02  0.45594000000E+02  0.51100000000E-03 0. -1.
    9900012    2    1    2    0    0  0.38185467166E+02  0.76359879699E+01  0.19162076465E+02  0.47787269714E+02  0.19999993932E+02 0.  0.
         12    1    1    2    0    0 -0.38185467166E+02 -0.76359879699E+01 -0.19162076465E+02  0.43400730286E+02  0.00000000000E+00 0. -1.
         11    1    3    3    0    0  0.52421379943E+01  0.15764119295E+01 -0.31212915001E+01  0.63013924027E+01  0.51100000000E-03 0. -1.
        -11    1    3    3    0    0  0.29686131011E+02  0.20334964077E+01  0.18097295544E+02  0.34826908968E+02  0.51100000000E-03 0.  1.
        -12    1    3    3    0    0  0.32571981606E+01  0.40260796327E+01  0.41860724218E+01  0.66589683425E+01  0.00000000000E+00 0.  1.
</event>
<event>
 7    1  0.5504027E-010  0.4778727E+02  0.7816164E-02  0.1312668E+00
        -11   -1    0    0    0    0  0.00000000000E+00  0.00000000000E+00  0.45593999997E+02  0.45594000000E+02  0.51100000000E-03 0.  1.
         11   -1    0    0    0    0 -0.00000000000E+00 -0.00000000000E+00 -0.45593999997E+02  0.45594000000E+02  0.51100000000E-03 0. -1.
    9900012    2    1    2    0    0  0.15181098307E+00 -0.13868381976E+02  0.41125027493E+02  0.47787274758E+02  0.20000016932E+02 0.  0.
         12    1    1    2    0    0 -0.15181098307E+00  0.13868381976E+02 -0.41125027493E+02  0.43400725242E+02  0.00000000000E+00 0. -1.
         11    1    3    3    0    0  0.36482419699E+01 -0.11606559478E+01  0.38255550965E+01  0.54121773583E+01  0.51100000000E-03 0. -1.
        -11    1    3    3    0    0  0.22339061643E+01 -0.12241476896E+02  0.32779058162E+02  0.35061528027E+02  0.51100000000E-03 0.  1.
        -12    1    3    3    0    0 -0.57303371511E+01 -0.46624913277E+00  0.45204142352E+01  0.73135693732E+01  0.00000000000E+00 0.  1.
</event>
<event>
 7    1  0.5504027E-010  0.4778726E+02  0.7816164E-02  0.1312668E+00
        -11   -1    0    0    0    0  0.00000000000E+00  0.00000000000E+00  0.45593999997E+02  0.45594000000E+02  0.51100000000E-03 0.  1.
         11   -1    0    0    0    0 -0.00000000000E+00 -0.00000000000E+00 -0.45593999997E+02  0.45594000000E+02  0.51100000000E-03 0. -1.
    9900012    2    1    2    0    0 -0.12059607269E+02  0.26261505575E+02  0.32380909100E+02  0.47787261796E+02  0.19999957832E+02 0.  0.
         12    1    1    2    0    0  0.12059607269E+02 -0.26261505575E+02 -0.32380909100E+02  0.43400738204E+02  0.00000000000E+00 0. -1.
         11    1    3    3    0    0  0.33961095829E+01  0.97278410741E+01  0.44245062479E+01  0.11213416431E+02  0.51100000000E-03 0. -1.
        -11    1    3    3    0    0 -0.10861500685E+02  0.15016916289E+02  0.24006797782E+02  0.30328308755E+02  0.51100000000E-03 0.  1.
         12    1    3    3    0    0 -0.45942161674E+01  0.15167482113E+01  0.39496050700E+01  0.62455366094E+01  0.00000000000E+00 0. -1.
</event>
<event>
 7    1  0.5504027E-010  0.4778726E+02  0.7816164E-02  0.1312668E+00
        -11   -1    0    0    0    0  0.00000000000E+00  0.00000000000E+00  0.45593999997E+02  0.45594000000E+02  0.51100000000E-03 0.  1.
         11   -1    0    0    0    0 -0.00000000000E+00 -0.00000000000E+00 -0.45593999997E+02  0.45594000000E+02  0.51100000000E-03 0. -1.
    9900012    2    1    2    0    0  0.21904991782E+02 -0.25476692888E+02  0.27472421080E+02  0.47787257316E+02  0.19999937406E+02 0.  0.
         12    1    1    2    0    0 -0.21904991782E+02  0.25476692888E+02 -0.27472421080E+02  0.43400742684E+02  0.00000000000E+00 0. -1.
         11    1    3    3    0    0  0.22147531154E+00  0.12616138626E+01  0.41764015047E+01  0.43684151179E+01  0.51100000000E-03 0. -1.
        -11    1    3    3    0    0  0.21619528849E+02 -0.27981028039E+02  0.22831450916E+02  0.42090582188E+02  0.51100000000E-03 0.  1.
        -12    1    3    3    0    0  0.63987622043E-01  0.12427212878E+01  0.46456865990E+00  0.13282600102E+01  0.00000000000E+00 0.  1.
</event>
<event>
 7    1  0.5504027E-010  0.4778726E+02  0.7816164E-02  0.1312668E+00
        -11   -1    0    0    0    0  0.00000000000E+00  0.00000000000E+00  0.45593999997E+02  0.45594000000E+02  0.51100000000E-03 0. -1.
         11   -1    0    0    0    0 -0.00000000000E+00 -0.00000000000E+00 -0.45593999997E+02  0.45594000000E+02  0.51100000000E-03 0.  1.
    9900012    2    1    2    0    0  0.39341517329E+02 -0.13631222605E+02 -0.12249850182E+02  0.47787262161E+02  0.19999959498E+02 0.  0.
         12    1    1    2    0    0 -0.39341517329E+02  0.13631222605E+02  0.12249850182E+02  0.43400737839E+02  0.00000000000E+00 0. -1.
         11    1    3    3    0    0  0.23934890121E+02 -0.24962389138E+01  0.11312777483E+01  0.24091283972E+02  0.51100000000E-03 0. -1.
        -11    1    3    3    0    0  0.15354935837E+02 -0.10519898161E+02 -0.11901374300E+02  0.22092646342E+02  0.51100000000E-03 0.  1.
         12    1    3    3    0    0  0.51691371202E-01 -0.61508553030E+00 -0.14797536305E+01  0.16033318478E+01  0.00000000000E+00 0. -1.
</event>
<event>
 7    1  0.5504027E-010  0.4778728E+02  0.7816164E-02  0.1312668E+00
        -11   -1    0    0    0    0  0.00000000000E+00  0.00000000000E+00  0.45593999997E+02  0.45594000000E+02  0.51100000000E-03 0. -1.
         11   -1    0    0    0    0 -0.00000000000E+00 -0.00000000000E+00 -0.45593999997E+02  0.45594000000E+02  0.51100000000E-03 0.  1.
    9900012    2    1    2    0    0 -0.24294765728E+02  0.16204459290E+02 -0.32106113492E+02  0.47787278045E+02  0.20000031917E+02 0.  0.
         12    1    1    2    0    0  0.24294765728E+02 -0.16204459290E+02  0.32106113492E+02  0.43400721955E+02  0.00000000000E+00 0. -1.
         11    1    3    3    0    0 -0.73713414428E+00  0.14052197019E+01  0.21416683555E+01  0.26654742099E+01  0.51100000000E-03 0. -1.
        -11    1    3    3    0    0 -0.13325590111E+02  0.12805917227E+02 -0.25618908410E+02  0.31589418105E+02  0.51100000000E-03 0.  1.
        -12    1    3    3    0    0 -0.10232041472E+02  0.19933223612E+01 -0.86288734379E+01  0.13532385729E+02  0.00000000000E+00 0.  1.
</event>
<event>
 7    1  0.5504027E-010  0.4778727E+02  0.7816164E-02  0.1312668E+00
        -11   -1    0    0    0    0  0.00000000000E+00  0.00000000000E+00  0.45593999997E+02  0.45594000000E+02  0.51100000000E-03 0.  1.
         11   -1    0    0    0    0 -0.00000000000E+00 -0.00000000000E+00 -0.45593999997E+02  0.45594000000E+02  0.51100000000E-03 0. -1.
    9900012    2    1    2    0    0  0.52554476523E+00  0.24941842604E+02  0.35514102121E+02  0.47787272364E+02  0.20000006018E+02 0.  0.
         12    1    1    2    0    0 -0.52554476523E+00 -0.24941842604E+02 -0.35514102121E+02  0.43400727636E+02  0.00000000000E+00 0. -1.
         11    1    3    3    0    0 -0.47560768974E+01  0.77347399911E+01  0.21130617756E+01  0.93226337755E+01  0.51100000000E-03 0. -1.
        -11    1    3    3    0    0  0.51691971336E+01  0.64082055632E+01  0.15744417622E+02  0.17767171527E+02  0.51100000000E-03 0.  1.
        -12    1    3    3    0    0  0.11242452895E+00  0.10798897050E+02  0.17656622724E+02  0.20697467062E+02  0.00000000000E+00 0.  1.
</event>
<event>
 7    1  0.5504027E-010  0.4778727E+02  0.7816164E-02  0.1312668E+00
        -11   -1    0    0    0    0  0.00000000000E+00  0.00000000000E+00  0.45593999997E+02  0.45594000000E+02  0.51100000000E-03 0. -1.
         11   -1    0    0    0    0 -0.00000000000E+00 -0.00000000000E+00 -0.45593999997E+02  0.45594000000E+02  0.51100000000E-03 0.  1.
    9900012    2    1    2    0    0  0.37228484378E+02 -0.19330996873E+02  0.11134444645E+02  0.47787270205E+02  0.19999996172E+02 0.  0.
         12    1    1    2    0    0 -0.37228484378E+02  0.19330996873E+02 -0.11134444645E+02  0.43400729795E+02  0.00000000000E+00 0. -1.
         11    1    3    3    0    0  0.34430289834E+02 -0.18198746008E+02  0.86577586634E+01  0.39894811688E+02  0.51100000000E-03 0.  1.
        -11    1    3    3    0    0  0.27286988264E+01  0.19585776894E+01  0.32836663609E+01  0.46972639782E+01  0.51100000000E-03 0. -1.
         12    1    3    3    0    0  0.69495718127E-01 -0.30908285540E+01 -0.80698037901E+00  0.31951945383E+01  0.00000000000E+00 0. -1.
</event>
<event>
 7    1  0.5504027E-010  0.4778727E+02  0.7816164E-02  0.1312668E+00
        -11   -1    0    0    0    0  0.00000000000E+00  0.00000000000E+00  0.45593999997E+02  0.45594000000E+02  0.51100000000E-03 0.  1.
         11   -1    0    0    0    0 -0.00000000000E+00 -0.00000000000E+00 -0.45593999997E+02  0.45594000000E+02  0.51100000000E-03 0. -1.
    9900012    2    1    2    0    0  0.24376751767E+02  0.32179954937E+02  0.15932600412E+02  0.47787270947E+02  0.19999999556E+02 0.  0.
         12    1    1    2    0    0 -0.24376751767E+02 -0.32179954937E+02 -0.15932600412E+02  0.43400729053E+02  0.00000000000E+00 0. -1.
         11    1    3    3    0    0  0.34202258507E+01 -0.17315528526E+01 -0.39337356104E+00  0.38536947428E+01  0.51100000000E-03 0. -1.
        -11    1    3    3    0    0  0.13070418670E+02  0.27679320273E+02  0.13754721720E+02  0.33558500933E+02  0.51100000000E-03 0.  1.
        -12    1    3    3    0    0  0.78861072466E+01  0.62321875161E+01  0.25712522532E+01  0.10375075272E+02  0.00000000000E+00 0.  1.
</event>
<event>
 7    1  0.6413848E-010  0.4778727E+02  0.7816164E-02  0.1312668E+00
        -11   -1    0    0    0    0  0.00000000000E+00  0.00000000000E+00  0.45593999997E+02  0.45594000000E+02  0.51100000000E-03 0.  1.
         11   -1    0    0    0    0 -0.00000000000E+00 -0.00000000000E+00 -0.45593999997E+02  0.45594000000E+02  0.51100000000E-03 0. -1.
    9900012    2    1    2    0    0 -0.38678726465E+02 -0.13967138534E+02  0.13874387445E+02  0.47787268823E+02  0.19999989870E+02 0.  0.
         12    1    1    2    0    0  0.38678726465E+02  0.13967138534E+02 -0.13874387445E+02  0.43400731177E+02  0.00000000000E+00 0. -1.
         11    1    3    3    0    0 -0.65022831591E+01 -0.26837218220E+01 -0.24853590824E+01  0.74604999249E+01  0.51100000000E-03 0. -1.
        -11    1    3    3    0    0 -0.33229268576E+02 -0.91294778487E+01  0.15213928948E+02  0.37669553889E+02  0.51100000000E-03 0.  1.
        -12    1    3    3    0    0  0.10528252706E+01 -0.21539388636E+01  0.11458175794E+01  0.26572150090E+01  0.00000000000E+00 0.  1.
</event>
<event>
 7    1  0.5504027E-010  0.4778729E+02  0.7816164E-02  0.1312668E+00
        -11   -1    0    0    0    0  0.00000000000E+00  0.00000000000E+00  0.45593999997E+02  0.45594000000E+02  0.51100000000E-03 0.  1.
         11   -1    0    0    0    0 -0.00000000000E+00 -0.00000000000E+00 -0.45593999997E+02  0.45594000000E+02  0.51100000000E-03 0. -1.
    9900012    2    1    2    0    0 -0.39644747528E+02  0.13189049505E+02  0.11745848410E+02  0.47787285855E+02  0.20000067529E+02 0.  0.
         12    1    1    2    0    0  0.39644747528E+02 -0.13189049505E+02 -0.11745848410E+02  0.43400714145E+02  0.00000000000E+00 0. -1.
         11    1    3    3    0    0 -0.20118247530E+02  0.13599744858E+02  0.10481621610E+02  0.26449221836E+02  0.51100000000E-03 0. -1.
        -11    1    3    3    0    0 -0.16727398601E+02  0.28210863630E+01  0.16584077957E+01  0.17044492040E+02  0.51100000000E-03 0.  1.
         12    1    3    3    0    0 -0.27991013971E+01 -0.32317817159E+01 -0.39418099558E+00  0.42935719801E+01  0.00000000000E+00 0. -1.
</event>
<event>
 7    1  0.5504027E-010  0.4778727E+02  0.7816164E-02  0.1312668E+00
        -11   -1    0    0    0    0  0.00000000000E+00  0.00000000000E+00  0.45593999997E+02  0.45594000000E+02  0.51100000000E-03 0.  1.
         11   -1    0    0    0    0 -0.00000000000E+00 -0.00000000000E+00 -0.45593999997E+02  0.45594000000E+02  0.51100000000E-03 0. -1.
    9900012    2    1    2    0    0 -0.39981014583E+02  0.11204662086E+02  0.12633175042E+02  0.47787273149E+02  0.20000009595E+02 0.  0.
         12    1    1    2    0    0  0.39981014583E+02 -0.11204662086E+02 -0.12633175042E+02  0.43400726851E+02  0.00000000000E+00 0. -1.
         11    1    3    3    0    0 -0.13779054667E+02  0.10637142506E+02  0.98515936016E+01  0.20001626058E+02  0.51100000000E-03 0. -1.
        -11    1    3    3    0    0 -0.23096819144E+02  0.29142530353E+00 -0.70400512479E+00  0.23109383522E+02  0.51100000000E-03 0.  1.
        -12    1    3    3    0    0 -0.31051407717E+01  0.27609427620E+00  0.34855865651E+01  0.46762635687E+01  0.00000000000E+00 0.  1.
</event>
<event>
 7    1  0.5504027E-010  0.4778726E+02  0.7816164E-02  0.1312668E+00
        -11   -1    0    0    0    0  0.00000000000E+00  0.00000000000E+00  0.45593999997E+02  0.45594000000E+02  0.51100000000E-03 0. -1.
         11   -1    0    0    0    0 -0.00000000000E+00 -0.00000000000E+00 -0.45593999997E+02  0.45594000000E+02  0.51100000000E-03 0.  1.
    9900012    2    1    2    0    0  0.29356096072E+02  0.30874662309E+02  0.82824302154E+01  0.47787264989E+02  0.19999972389E+02 0.  0.
         12    1    1    2    0    0 -0.29356096072E+02 -0.30874662309E+02 -0.82824302154E+01  0.43400735011E+02  0.00000000000E+00 0. -1.
         11    1    3    3    0    0  0.25825671695E+02  0.20418171188E+02  0.24719948117E+01  0.33014811703E+02  0.51100000000E-03 0.  1.
        -11    1    3    3    0    0  0.16239793014E+01  0.10150359767E+02  0.70619224886E+01  0.12471481936E+02  0.51100000000E-03 0. -1.
        -12    1    3    3    0    0  0.19064450755E+01  0.30613135402E+00 -0.12514870850E+01  0.23009713505E+01  0.00000000000E+00 0.  1.
</event>
<event>
 7    1  0.5504027E-010  0.4778727E+02  0.7816164E-02  0.1312668E+00
        -11   -1    0    0    0    0  0.00000000000E+00  0.00000000000E+00  0.45593999997E+02  0.45594000000E+02  0.51100000000E-03 0. -1.
         11   -1    0    0    0    0 -0.00000000000E+00 -0.00000000000E+00 -0.45593999997E+02  0.45594000000E+02  0.51100000000E-03 0.  1.
    9900012    2    1    2    0    0 -0.12075807675E+02 -0.32181739784E+01 -0.41562501777E+02  0.47787270412E+02  0.19999997119E+02 0.  0.
         12    1    1    2    0    0  0.12075807675E+02  0.32181739784E+01  0.41562501777E+02  0.43400729588E+02  0.00000000000E+00 0. -1.
         11    1    3    3    0    0  0.52795982890E+00  0.23990329430E+01 -0.18337514015E+02  0.18501311336E+02  0.51100000000E-03 0. -1.
        -11    1    3    3    0    0 -0.10186122155E+02 -0.88694862961E+01 -0.19865176591E+02  0.24021867391E+02  0.51100000000E-03 0.  1.
        -12    1    3    3    0    0 -0.24176453491E+01  0.32522793747E+01 -0.33598111713E+01  0.52640916854E+01  0.00000000000E+00 0.  1.
</event>
<event>
 7    1  0.5504027E-010  0.4778727E+02  0.7816164E-02  0.1312668E+00
        -11   -1    0    0    0    0  0.00000000000E+00  0.00000000000E+00  0.45593999997E+02  0.45594000000E+02  0.51100000000E-03 0.  1.
         11   -1    0    0    0    0 -0.00000000000E+00 -0.00000000000E+00 -0.45593999997E+02  0.45594000000E+02  0.51100000000E-03 0. -1.
    9900012    2    1    2    0    0  0.88121997740E+01 -0.35408192704E+02 -0.23499539539E+02  0.47787270352E+02  0.19999996842E+02 0.  0.
         12    1    1    2    0    0 -0.88121997740E+01  0.35408192704E+02  0.23499539539E+02  0.43400729648E+02  0.00000000000E+00 0. -1.
         11    1    3    3    0    0  0.16101224880E+01  0.19835140813E+00 -0.48447419645E-01  0.16230172892E+01  0.51100000000E-03 0. -1.
        -11    1    3    3    0    0 -0.33306355442E+01 -0.86502881273E+01 -0.11704314323E+02  0.14930224105E+02  0.51100000000E-03 0.  1.
        -12    1    3    3    0    0  0.10532712830E+02 -0.26956255985E+02 -0.11746777797E+02  0.31234028957E+02  0.00000000000E+00 0.  1.
</event>
<event>
 7    1  0.5504027E-010  0.4778726E+02  0.7816164E-02  0.1312668E+00
        -11   -1    0    0    0    0  0.00000000000E+00  0.00000000000E+00  0.45593999997E+02  0.45594000000E+02  0.51100000000E-03 0.  1.
         11   -1    0    0    0    0 -0.00000000000E+00 -0.00000000000E+00 -0.45593999997E+02  0.45594000000E+02  0.51100000000E-03 0. -1.
    9900012    2    1    2    0    0  0.37529661193E+02  0.21386491124E+02 -0.42150800602E+01  0.47787258396E+02  0.19999942332E+02 0.  0.
         12    1    1    2    0    0 -0.37529661193E+02 -0.21386491124E+02  0.42150800602E+01  0.43400741604E+02  0.00000000000E+00 0. -1.
         11    1    3    3    0    0  0.17713443114E+02  0.16526874862E+02  0.47681475939E+01  0.24690866558E+02  0.51100000000E-03 0.  1.
        -11    1    3    3    0    0  0.19334119988E+01  0.26186231002E+01 -0.13986705069E+01  0.35428164426E+01  0.51100000000E-03 0. -1.
         12    1    3    3    0    0  0.17882806080E+02  0.22409931626E+01 -0.75845571472E+01  0.19553575396E+02  0.00000000000E+00 0. -1.
</event>
<event>
 7    1  0.5504027E-010  0.4778728E+02  0.7816164E-02  0.1312668E+00
        -11   -1    0    0    0    0  0.00000000000E+00  0.00000000000E+00  0.45593999997E+02  0.45594000000E+02  0.51100000000E-03 0.  1.
         11   -1    0    0    0    0 -0.00000000000E+00 -0.00000000000E+00 -0.45593999997E+02  0.45594000000E+02  0.51100000000E-03 0. -1.
    9900012    2    1    2    0    0  0.65193394017E+01  0.42531143716E+02 -0.56765246444E+01  0.47787275305E+02  0.20000019427E+02 0.  0.
         12    1    1    2    0    0 -0.65193394017E+01 -0.42531143716E+02  0.56765246444E+01  0.43400724695E+02  0.00000000000E+00 0. -1.
         11    1    3    3    0    0  0.27771673744E+01 -0.12482199965E+00  0.13254510643E+00  0.27831291065E+01  0.51100000000E-03 0. -1.
        -11    1    3    3    0    0 -0.33489165748E+01  0.59594330121E+01 -0.31715028208E+01  0.75358154472E+01  0.51100000000E-03 0.  1.
        -12    1    3    3    0    0  0.70910886021E+01  0.36696532703E+02 -0.26375669301E+01  0.37468330752E+02  0.00000000000E+00 0.  1.
</event>
<event>
 7    1  0.5504027E-010  0.4778727E+02  0.7816164E-02  0.1312668E+00
        -11   -1    0    0    0    0  0.00000000000E+00  0.00000000000E+00  0.45593999997E+02  0.45594000000E+02  0.51100000000E-03 0. -1.
         11   -1    0    0    0    0 -0.00000000000E+00 -0.00000000000E+00 -0.45593999997E+02  0.45594000000E+02  0.51100000000E-03 0.  1.
    9900012    2    1    2    0    0  0.46221436175E+01 -0.15657364901E+02 -0.40213256203E+02  0.47787271185E+02  0.20000000640E+02 0.  0.
         12    1    1    2    0    0 -0.46221436175E+01  0.15657364901E+02  0.40213256203E+02  0.43400728815E+02  0.00000000000E+00 0. -1.
         11    1    3    3    0    0  0.84290409904E+00  0.39209451622E+01 -0.51469017054E+01  0.65249441155E+01  0.51100000000E-03 0. -1.
        -11    1    3    3    0    0  0.54703743507E+01 -0.19258612394E+02 -0.32034555384E+02  0.37776075574E+02  0.51100000000E-03 0.  1.
        -12    1    3    3    0    0 -0.16911348322E+01 -0.31969766860E+00 -0.30317991138E+01  0.34862514950E+01  0.00000000000E+00 0.  1.
</event>
<event>
 7    1  0.5504027E-010  0.4778728E+02  0.7816164E-02  0.1312668E+00
        -11   -1    0    0    0    0  0.00000000000E+00  0.00000000000E+00  0.45593999997E+02  0.45594000000E+02  0.51100000000E-03 0.  1.
         11   -1    0    0    0    0 -0.00000000000E+00 -0.00000000000E+00 -0.45593999997E+02  0.45594000000E+02  0.51100000000E-03 0. -1.
    9900012    2    1    2    0    0 -0.13487850165E+02 -0.28835987812E+02  0.29498924784E+02  0.47787275829E+02  0.20000021813E+02 0.  0.
         12    1    1    2    0    0  0.13487850165E+02  0.28835987812E+02 -0.29498924784E+02  0.43400724171E+02  0.00000000000E+00 0. -1.
         11    1    3    3    0    0  0.43349456671E+01 -0.13432049445E+01  0.27763107420E+01  0.53201367518E+01  0.51100000000E-03 0. -1.
        -11    1    3    3    0    0 -0.11527428316E+02 -0.15261170646E+02  0.17336230423E+02  0.25813365116E+02  0.51100000000E-03 0.  1.
         12    1    3    3    0    0 -0.62953675163E+01 -0.12231612221E+02  0.93863836191E+01  0.16653773961E+02  0.00000000000E+00 0. -1.
</event>
<event>
 7    1  0.5504027E-010  0.4778727E+02  0.7816164E-02  0.1312668E+00
        -11   -1    0    0    0    0  0.00000000000E+00  0.00000000000E+00  0.45593999997E+02  0.45594000000E+02  0.51100000000E-03 0. -1.
         11   -1    0    0    0    0 -0.00000000000E+00 -0.00000000000E+00 -0.45593999997E+02  0.45594000000E+02  0.51100000000E-03 0.  1.
    9900012    2    1    2    0    0  0.33512595510E+02  0.57566619880E+01 -0.26970169662E+02  0.47787271128E+02  0.20000000381E+02 0.  0.
         12    1    1    2    0    0 -0.33512595510E+02 -0.57566619880E+01  0.26970169662E+02  0.43400728872E+02  0.00000000000E+00 0. -1.
         11    1    3    3    0    0  0.49926990922E+01  0.29555286528E+01  0.13825452186E+00  0.58035599779E+01  0.51100000000E-03 0. -1.
        -11    1    3    3    0    0  0.19906224864E+02 -0.38482979479E+01 -0.22142125482E+02  0.30022340124E+02  0.51100000000E-03 0.  1.
        -12    1    3    3    0    0  0.86136715535E+01  0.66494312831E+01 -0.49662987018E+01  0.11961371026E+02  0.00000000000E+00 0.  1.
</event>
<event>
 7    1  0.5504027E-010  0.4778727E+02  0.7816164E-02  0.1312668E+00
        -11   -1    0    0    0    0  0.00000000000E+00  0.00000000000E+00  0.45593999997E+02  0.45594000000E+02  0.51100000000E-03 0.  1.
         11   -1    0    0    0    0 -0.00000000000E+00 -0.00000000000E+00 -0.45593999997E+02  0.45594000000E+02  0.51100000000E-03 0. -1.
    9900012    2    1    2    0    0 -0.19100337243E+02  0.15046444345E+02  0.35950032345E+02  0.47787271944E+02  0.20000004101E+02 0.  0.
         12    1    1    2    0    0  0.19100337243E+02 -0.15046444345E+02 -0.35950032345E+02  0.43400728056E+02  0.00000000000E+00 0. -1.
         11    1    3    3    0    0 -0.24393036710E+01 -0.22571369465E+01  0.55686268920E+01  0.64849421985E+01  0.51100000000E-03 0. -1.
        -11    1    3    3    0    0 -0.12208390076E+02  0.19375931298E+02  0.23174769479E+02  0.32581305109E+02  0.51100000000E-03 0.  1.
        -12    1    3    3    0    0 -0.44526434958E+01 -0.20723500070E+01  0.72066359738E+01  0.87210246365E+01  0.00000000000E+00 0.  1.
</event>
<event>
 7    1  0.5504027E-010  0.4778727E+02  0.7816164E-02  0.1312668E+00
        -11   -1    0    0    0    0  0.00000000000E+00  0.00000000000E+00  0.45593999997E+02  0.45594000000E+02  0.51100000000E-03 0.  1.
         11   -1    0    0    0    0 -0.00000000000E+00 -0.00000000000E+00 -0.45593999997E+02  0.45594000000E+02  0.51100000000E-03 0. -1.
    9900012    2    1    2    0    0 -0.16280146263E+02  0.62988564432E+01  0.39735429935E+02  0.47787272507E+02  0.20000006667E+02 0.  0.
         12    1    1    2    0    0  0.16280146263E+02 -0.62988564432E+01 -0.39735429935E+02  0.43400727493E+02  0.00000000000E+00 0. -1.
         11    1    3    3    0    0  0.15770002091E+01 -0.38736529615E+00  0.18344873263E+01  0.24499643964E+01  0.51100000000E-03 0. -1.
        -11    1    3    3    0    0 -0.36836957128E+01  0.65985764255E+01  0.39081343398E+01  0.85078986376E+01  0.51100000000E-03 0.  1.
        -12    1    3    3    0    0 -0.14173450759E+02  0.87645313889E-01  0.33992808269E+02  0.36829409473E+02  0.00000000000E+00 0.  1.
</event>
<event>
 7    1  0.5504027E-010  0.4778727E+02  0.7816164E-02  0.1312668E+00
        -11   -1    0    0    0    0  0.00000000000E+00  0.00000000000E+00  0.45593999997E+02  0.45594000000E+02  0.51100000000E-03 0. -1.
         11   -1    0    0    0    0 -0.00000000000E+00 -0.00000000000E+00 -0.45593999997E+02  0.45594000000E+02  0.51100000000E-03 0.  1.
    9900012    2    1    2    0    0  0.34723960277E+02  0.15611559956E+02 -0.20836242678E+02  0.47787271544E+02  0.20000002275E+02 0.  0.
         12    1    1    2    0    0 -0.34723960277E+02 -0.15611559956E+02  0.20836242678E+02  0.43400728456E+02  0.00000000000E+00 0. -1.
         11    1    3    3    0    0  0.52060324996E+01 -0.30741215526E+01 -0.69027986562E+01  0.91761444657E+01  0.51100000000E-03 0. -1.
        -11    1    3    3    0    0  0.22968270967E+02  0.15613441849E+02 -0.14545054856E+02  0.31350911607E+02  0.51100000000E-03 0.  1.
         12    1    3    3    0    0  0.65496568109E+01  0.30722396596E+01  0.61161083380E+00  0.72602154706E+01  0.00000000000E+00 0. -1.
</event>
<event>
 7    1  0.5504027E-010  0.4778727E+02  0.7816164E-02  0.1312668E+00
        -11   -1    0    0    0    0  0.00000000000E+00  0.00000000000E+00  0.45593999997E+02  0.45594000000E+02  0.51100000000E-03 0.  1.
         11   -1    0    0    0    0 -0.00000000000E+00 -0.00000000000E+00 -0.45593999997E+02  0.45594000000E+02  0.51100000000E-03 0. -1.
    9900012    2    1    2    0    0  0.23569985582E+02 -0.22315747962E+02  0.28811220157E+02  0.47787271499E+02  0.20000002072E+02 0.  0.
         12    1    1    2    0    0 -0.23569985582E+02  0.22315747962E+02 -0.28811220157E+02  0.43400728501E+02  0.00000000000E+00 0. -1.
         11    1    3    3    0    0  0.17112136146E+02 -0.17715251649E+02  0.28085031761E+02  0.37355379181E+02  0.51100000000E-03 0. -1.
        -11    1    3    3    0    0  0.44046848491E+00 -0.39128258611E+01 -0.11314277204E+01  0.40968704706E+01  0.51100000000E-03 0.  1.
         12    1    3    3    0    0  0.60173809516E+01 -0.68767045247E+00  0.18576161164E+01  0.63350218471E+01  0.00000000000E+00 0. -1.
</event>
<event>
 7    1  0.5504027E-010  0.4778728E+02  0.7816164E-02  0.1312668E+00
        -11   -1    0    0    0    0  0.00000000000E+00  0.00000000000E+00  0.45593999997E+02  0.45594000000E+02  0.51100000000E-03 0.  1.
         11   -1    0    0    0    0 -0.00000000000E+00 -0.00000000000E+00 -0.45593999997E+02  0.45594000000E+02  0.51100000000E-03 0. -1.
    9900012    2    1    2    0    0  0.54396189677E+00  0.25952623292E+02  0.34782007258E+02  0.47787279048E+02  0.20000036491E+02 0.  0.
         12    1    1    2    0    0 -0.54396189677E+00 -0.25952623292E+02 -0.34782007258E+02  0.43400720952E+02  0.00000000000E+00 0. -1.
         11    1    3    3    0    0  0.60020527736E+01  0.24040380165E+02  0.27374545413E+02  0.36923302301E+02  0.51100000000E-03 0. -1.
        -11    1    3    3    0    0 -0.18875869837E+01  0.35146140111E+01  0.43099478285E+01  0.58729163806E+01  0.51100000000E-03 0.  1.
         12    1    3    3    0    0 -0.35705038932E+01 -0.16023708840E+01  0.30975140162E+01  0.49910603664E+01  0.00000000000E+00 0. -1.
</event>
<event>
 7    1  0.5504027E-010  0.4778728E+02  0.7816164E-02  0.1312668E+00
        -11   -1    0    0    0    0  0.00000000000E+00  0.00000000000E+00  0.45593999997E+02  0.45594000000E+02  0.51100000000E-03 0.  1.
         11   -1    0    0    0    0 -0.00000000000E+00 -0.00000000000E+00 -0.45593999997E+02  0.45594000000E+02  0.51100000000E-03 0. -1.
    9900012    2    1    2    0    0  0.29926321371E+02 -0.17529801502E+02  0.26091074074E+02  0.47787276528E+02  0.20000025002E+02 0.  0.
         12    1    1    2    0    0 -0.29926321371E+02  0.17529801502E+02 -0.26091074074E+02  0.43400723472E+02  0.00000000000E+00 0. -1.
         11    1    3    3    0    0  0.13842323894E+02 -0.17672652973E+01  0.31186862637E+01  0.14298928691E+02  0.51100000000E-03 0. -1.
        -11    1    3    3    0    0  0.12077234590E+02 -0.16064942825E+02  0.17189794154E+02  0.26446757961E+02  0.51100000000E-03 0.  1.
         12    1    3    3    0    0  0.40067628869E+01  0.30240661987E+00  0.57825936563E+01  0.70415898765E+01  0.00000000000E+00 0. -1.
</event>
<event>
 7    1  0.5504027E-010  0.4778727E+02  0.7816164E-02  0.1312668E+00
        -11   -1    0    0    0    0  0.00000000000E+00  0.00000000000E+00  0.45593999997E+02  0.45594000000E+02  0.51100000000E-03 0.  1.
         11   -1    0    0    0    0 -0.00000000000E+00 -0.00000000000E+00 -0.45593999997E+02  0.45594000000E+02  0.51100000000E-03 0. -1.
    9900012    2    1    2    0    0 -0.23645530435E+02 -0.18768613731E+02  0.31180939571E+02  0.47787274621E+02  0.20000016306E+02 0.  0.
         12    1    1    2    0    0  0.23645530435E+02  0.18768613731E+02 -0.31180939571E+02  0.43400725379E+02  0.00000000000E+00 0. -1.
         11    1    3    3    0    0 -0.11624841522E+02 -0.17017210422E+02  0.23268709369E+02  0.31083037608E+02  0.51100000000E-03 0. -1.
        -11    1    3    3    0    0 -0.89233225244E+01 -0.26851844032E+01  0.13871959448E+01  0.94212638751E+01  0.51100000000E-03 0.  1.
        -12    1    3    3    0    0 -0.30973663882E+01  0.93378109454E+00  0.65250342567E+01  0.72829731378E+01  0.00000000000E+00 0.  1.
</event>
<event>
 7    1  0.5504027E-010  0.4778727E+02  0.7816164E-02  0.1312668E+00
        -11   -1    0    0    0    0  0.00000000000E+00  0.00000000000E+00  0.45593999997E+02  0.45594000000E+02  0.51100000000E-03 0.  1.
         11   -1    0    0    0    0 -0.00000000000E+00 -0.00000000000E+00 -0.45593999997E+02  0.45594000000E+02  0.51100000000E-03 0. -1.
    9900012    2    1    2    0    0 -0.60191309432E+01  0.41340140475E+02  0.11763771592E+02  0.47787268741E+02  0.19999989496E+02 0.  0.
         12    1    1    2    0    0  0.60191309432E+01 -0.41340140475E+02 -0.11763771592E+02  0.43400731259E+02  0.00000000000E+00 0. -1.
         11    1    3    3    0    0 -0.66748191753E+00 -0.38908280305E-01  0.69279003580E-01  0.67219476788E+00  0.51100000000E-03 0. -1.
        -11    1    3    3    0    0 -0.37419789133E+00 -0.14737640888E+01 -0.13623634215E+01  0.20415775774E+01  0.51100000000E-03 0.  1.
        -12    1    3    3    0    0 -0.49774511343E+01  0.42852812844E+02  0.13056856010E+02  0.45073496395E+02  0.00000000000E+00 0.  1.
</event>
<event>
 7    1  0.5504027E-010  0.4778727E+02  0.7816164E-02  0.1312668E+00
        -11   -1    0    0    0    0  0.00000000000E+00  0.00000000000E+00  0.45593999997E+02  0.45594000000E+02  0.51100000000E-03 0.  1.
         11   -1    0    0    0    0 -0.00000000000E+00 -0.00000000000E+00 -0.45593999997E+02  0.45594000000E+02  0.51100000000E-03 0. -1.
    9900012    2    1    2    0    0 -0.32125253157E+02 -0.17163977827E+02 -0.23600628257E+02  0.47787266373E+02  0.19999978703E+02 0.  0.
         12    1    1    2    0    0  0.32125253157E+02  0.17163977827E+02  0.23600628257E+02  0.43400733627E+02  0.00000000000E+00 0. -1.
         11    1    3    3    0    0  0.13325909478E+01  0.11523001616E+01  0.44826253576E+00  0.18178376877E+01  0.51100000000E-03 0. -1.
        -11    1    3    3    0    0 -0.22025908360E+02 -0.16152732662E+02 -0.14538468541E+02  0.30942179615E+02  0.51100000000E-03 0.  1.
         12    1    3    3    0    0 -0.11431935744E+02 -0.21635453262E+01 -0.95104222510E+01  0.15027249070E+02  0.00000000000E+00 0. -1.
</event>
<event>
 7    1  0.5504027E-010  0.4778727E+02  0.7816164E-02  0.1312668E+00
        -11   -1    0    0    0    0  0.00000000000E+00  0.00000000000E+00  0.45593999997E+02  0.45594000000E+02  0.51100000000E-03 0.  1.
         11   -1    0    0    0    0 -0.00000000000E+00 -0.00000000000E+00 -0.45593999997E+02  0.45594000000E+02  0.51100000000E-03 0. -1.
    9900012    2    1    2    0    0  0.37259693432E+02  0.16865481983E+02 -0.14522187564E+02  0.47787272255E+02  0.20000005519E+02 0.  0.
         12    1    1    2    0    0 -0.37259693432E+02 -0.16865481983E+02  0.14522187564E+02  0.43400727745E+02  0.00000000000E+00 0. -1.
         11    1    3    3    0    0  0.49409074529E+01 -0.13653376873E+00  0.60866083288E+00  0.49801281308E+01  0.51100000000E-03 0. -1.
        -11    1    3    3    0    0  0.84535457319E+01  0.13446363661E+02 -0.68493414913E+01  0.17296838159E+02  0.51100000000E-03 0.  1.
        -12    1    3    3    0    0  0.23865240247E+02  0.35556520903E+01 -0.82815069057E+01  0.25510305966E+02  0.00000000000E+00 0.  1.
</event>
<event>
 7    1  0.5504027E-010  0.4778730E+02  0.7816164E-02  0.1312668E+00
        -11   -1    0    0    0    0  0.00000000000E+00  0.00000000000E+00  0.45593999997E+02  0.45594000000E+02  0.51100000000E-03 0.  1.
         11   -1    0    0    0    0 -0.00000000000E+00 -0.00000000000E+00 -0.45593999997E+02  0.45594000000E+02  0.51100000000E-03 0. -1.
    9900012    2    1    2    0    0 -0.86585801491E+01 -0.37538824597E+02  0.19987165814E+02  0.47787295402E+02  0.20000111056E+02 0.  0.
         12    1    1    2    0    0  0.86585801491E+01  0.37538824597E+02 -0.19987165814E+02  0.43400704598E+02  0.00000000000E+00 0. -1.
         11    1    3    3    0    0 -0.35159475592E-01 -0.12169307141E+02  0.17149920278E+01  0.12289608228E+02  0.51100000000E-03 0. -1.
        -11    1    3    3    0    0 -0.84749322793E+01 -0.17682687386E+02  0.19566676274E+02  0.27701204505E+02  0.51100000000E-03 0.  1.
        -12    1    3    3    0    0 -0.14848839415E+00 -0.76868300700E+01 -0.12945024877E+01  0.77964826698E+01  0.00000000000E+00 0.  1.
</event>
<event>
 7    1  0.5504027E-010  0.4778727E+02  0.7816164E-02  0.1312668E+00
        -11   -1    0    0    0    0  0.00000000000E+00  0.00000000000E+00  0.45593999997E+02  0.45594000000E+02  0.51100000000E-03 0. -1.
         11   -1    0    0    0    0 -0.00000000000E+00 -0.00000000000E+00 -0.45593999997E+02  0.45594000000E+02  0.51100000000E-03 0.  1.
    9900012    2    1    2    0    0  0.24997821379E+02  0.52659191471E+01 -0.35085642675E+02  0.47787270743E+02  0.19999998624E+02 0.  0.
         12    1    1    2    0    0 -0.24997821379E+02 -0.52659191471E+01  0.35085642675E+02  0.43400729257E+02  0.00000000000E+00 0. -1.
         11    1    3    3    0    0  0.53471662393E+01 -0.59532238353E+01 -0.17094687781E+02  0.18874888382E+02  0.51100000000E-03 0. -1.
        -11    1    3    3    0    0  0.98964430071E+01  0.54641648241E+01 -0.87573200945E+01  0.14299906885E+02  0.51100000000E-03 0.  1.
         12    1    3    3    0    0  0.97542121330E+01  0.57549781583E+01 -0.92336347986E+01  0.14612475476E+02  0.00000000000E+00 0. -1.
</event>
<event>
 7    1  0.5504027E-010  0.4778728E+02  0.7816164E-02  0.1312668E+00
        -11   -1    0    0    0    0  0.00000000000E+00  0.00000000000E+00  0.45593999997E+02  0.45594000000E+02  0.51100000000E-03 0. -1.
         11   -1    0    0    0    0 -0.00000000000E+00 -0.00000000000E+00 -0.45593999997E+02  0.45594000000E+02  0.51100000000E-03 0.  1.
    9900012    2    1    2    0    0 -0.14770481413E+01  0.42702820811E+02  0.76098791219E+01  0.47787276081E+02  0.20000022965E+02 0.  0.
         12    1    1    2    0    0  0.14770481413E+01 -0.42702820811E+02 -0.76098791219E+01  0.43400723919E+02  0.00000000000E+00 0. -1.
         11    1    3    3    0    0  0.86873453023E+00 -0.39541990173E+00  0.23380820254E+01  0.25254077693E+01  0.51100000000E-03 0. -1.
        -11    1    3    3    0    0 -0.32997575454E+00  0.38217841714E+02  0.83903466677E+01  0.39129403608E+02  0.51100000000E-03 0.  1.
        -12    1    3    3    0    0 -0.20158069170E+01  0.48803989989E+01 -0.31185495712E+01  0.61324647038E+01  0.00000000000E+00 0.  1.
</event>
<event>
 7    1  0.5504027E-010  0.4778727E+02  0.7816164E-02  0.1312668E+00
        -11   -1    0    0    0    0  0.00000000000E+00  0.00000000000E+00  0.45593999997E+02  0.45594000000E+02  0.51100000000E-03 0.  1.
         11   -1    0    0    0    0 -0.00000000000E+00 -0.00000000000E+00 -0.45593999997E+02  0.45594000000E+02  0.51100000000E-03 0. -1.
    9900012    2    1    2    0    0 -0.27247291723E+02  0.91946314255E+01  0.32506417338E+02  0.47787270497E+02  0.19999997502E+02 0.  0.
         12    1    1    2    0    0  0.27247291723E+02 -0.91946314255E+01 -0.32506417338E+02  0.43400729503E+02  0.00000000000E+00 0. -1.
         11    1    3    3    0    0 -0.18331813157E+02  0.91701831369E+01  0.27289041607E+02  0.34129743985E+02  0.51100000000E-03 0.  1.
        -11    1    3    3    0    0 -0.44855849624E+01  0.62541280075E+00 -0.21706219217E+01  0.50222717384E+01  0.51100000000E-03 0. -1.
        -12    1    3    3    0    0 -0.44298936035E+01 -0.60096451218E+00  0.73879976521E+01  0.86352547728E+01  0.00000000000E+00 0.  1.
</event>
<event>
 7    1  0.5504027E-010  0.4778726E+02  0.7816164E-02  0.1312668E+00
        -11   -1    0    0    0    0  0.00000000000E+00  0.00000000000E+00  0.45593999997E+02  0.45594000000E+02  0.51100000000E-03 0. -1.
         11   -1    0    0    0    0 -0.00000000000E+00 -0.00000000000E+00 -0.45593999997E+02  0.45594000000E+02  0.51100000000E-03 0.  1.
    9900012    2    1    2    0    0  0.26872291475E+01  0.16590159656E+02 -0.40014614684E+02  0.47787262838E+02  0.19999962582E+02 0.  0.
         12    1    1    2    0    0 -0.26872291475E+01 -0.16590159656E+02  0.40014614684E+02  0.43400737162E+02  0.00000000000E+00 0. -1.
         11    1    3    3    0    0 -0.25300332122E+01  0.12746382194E+02 -0.21833106201E+02  0.25407791202E+02  0.51100000000E-03 0.  1.
        -11    1    3    3    0    0  0.22919615694E+01 -0.40366256623E+01 -0.66096412745E+01  0.80768058421E+01  0.51100000000E-03 0. -1.
         12    1    3    3    0    0  0.29253007903E+01  0.78804031241E+01 -0.11571867209E+02  0.14302665794E+02  0.00000000000E+00 0. -1.
</event>
<event>
 7    1  0.5504027E-010  0.4778727E+02  0.7816164E-02  0.1312668E+00
        -11   -1    0    0    0    0  0.00000000000E+00  0.00000000000E+00  0.45593999997E+02  0.45594000000E+02  0.51100000000E-03 0. -1.
         11   -1    0    0    0    0 -0.00000000000E+00 -0.00000000000E+00 -0.45593999997E+02  0.45594000000E+02  0.51100000000E-03 0.  1.
    9900012    2    1    2    0    0  0.34389236629E+02 -0.26191318639E+02 -0.38753745424E+01  0.47787270792E+02  0.19999998847E+02 0.  0.
         12    1    1    2    0    0 -0.34389236629E+02  0.26191318639E+02  0.38753745424E+01  0.43400729208E+02  0.00000000000E+00 0. -1.
         11    1    3    3    0    0  0.16708703874E+01 -0.55985330408E+01 -0.12301615263E+01  0.59706513633E+01  0.51100000000E-03 0. -1.
        -11    1    3    3    0    0  0.21223214163E+02 -0.21261578795E+02 -0.36308641211E+01  0.30259919478E+02  0.51100000000E-03 0.  1.
        -12    1    3    3    0    0  0.11495152078E+02  0.66879319688E+00  0.98565110503E+00  0.11556699951E+02  0.00000000000E+00 0.  1.
</event>
<event>
 7    1  0.5504027E-010  0.4778727E+02  0.7816164E-02  0.1312668E+00
        -11   -1    0    0    0    0  0.00000000000E+00  0.00000000000E+00  0.45593999997E+02  0.45594000000E+02  0.51100000000E-03 0.  1.
         11   -1    0    0    0    0 -0.00000000000E+00 -0.00000000000E+00 -0.45593999997E+02  0.45594000000E+02  0.51100000000E-03 0. -1.
    9900012    2    1    2    0    0  0.10356100740E+02 -0.33377399829E+02  0.25735643066E+02  0.47787274593E+02  0.20000016178E+02 0.  0.
         12    1    1    2    0    0 -0.10356100740E+02  0.33377399829E+02 -0.25735643066E+02  0.43400725407E+02  0.00000000000E+00 0. -1.
         11    1    3    3    0    0  0.27471635452E+01 -0.20536156153E+02  0.63790546633E+01  0.21678859650E+02  0.51100000000E-03 0. -1.
        -11    1    3    3    0    0  0.52981912826E+01 -0.13706451518E+01  0.38896677944E+01  0.67140907658E+01  0.51100000000E-03 0.  1.
         12    1    3    3    0    0  0.23107459121E+01 -0.11470598525E+02  0.15466920608E+02  0.19394324177E+02  0.00000000000E+00 0. -1.
</event>
<event>
 7    1  0.5504027E-010  0.4778727E+02  0.7816164E-02  0.1312668E+00
        -11   -1    0    0    0    0  0.00000000000E+00  0.00000000000E+00  0.45593999997E+02  0.45594000000E+02  0.51100000000E-03 0.  1.
         11   -1    0    0    0    0 -0.00000000000E+00 -0.00000000000E+00 -0.45593999997E+02  0.45594000000E+02  0.51100000000E-03 0. -1.
    9900012    2    1    2    0    0 -0.15612418254E+02  0.42796958762E+01  0.40268596985E+02  0.47787270701E+02  0.19999998432E+02 0.  0.
         12    1    1    2    0    0  0.15612418254E+02 -0.42796958762E+01 -0.40268596985E+02  0.43400729299E+02  0.00000000000E+00 0. -1.
         11    1    3    3    0    0  0.51995601909E+00  0.50119807572E+00 -0.17060139276E+00  0.74206392529E+00  0.51100000000E-03 0. -1.
        -11    1    3    3    0    0 -0.12849092283E+02  0.10276541864E+02  0.31296878458E+02  0.35358182740E+02  0.51100000000E-03 0.  1.
        -12    1    3    3    0    0 -0.32832819905E+01 -0.64980440637E+01  0.91423199203E+01  0.11687024036E+02  0.00000000000E+00 0.  1.
</event>
<event>
 7    1  0.5504027E-010  0.4778727E+02  0.7816164E-02  0.1312668E+00
        -11   -1    0    0    0    0  0.00000000000E+00  0.00000000000E+00  0.45593999997E+02  0.45594000000E+02  0.51100000000E-03 0.  1.
         11   -1    0    0    0    0 -0.00000000000E+00 -0.00000000000E+00 -0.45593999997E+02  0.45594000000E+02  0.51100000000E-03 0. -1.
    9900012    2    1    2    0    0  0.27633625465E+02 -0.10219833931E+02  0.31867867578E+02  0.47787271367E+02  0.20000001470E+02 0.  0.
         12    1    1    2    0    0 -0.27633625465E+02  0.10219833931E+02 -0.31867867578E+02  0.43400728633E+02  0.00000000000E+00 0. -1.
         11    1    3    3    0    0  0.37201456572E+01 -0.88330661835E+01  0.67349565378E+01  0.11714187199E+02  0.51100000000E-03 0. -1.
        -11    1    3    3    0    0  0.74485199899E+01  0.21842163026E+01  0.13589576205E+02  0.15650170370E+02  0.51100000000E-03 0.  1.
        -12    1    3    3    0    0  0.16464959818E+02 -0.35709840503E+01  0.11543334835E+02  0.20422913798E+02  0.00000000000E+00 0.  1.
</event>
<event>
 7    1  0.5504027E-010  0.4778727E+02  0.7816164E-02  0.1312668E+00
        -11   -1    0    0    0    0  0.00000000000E+00  0.00000000000E+00  0.45593999997E+02  0.45594000000E+02  0.51100000000E-03 0.  1.
         11   -1    0    0    0    0 -0.00000000000E+00 -0.00000000000E+00 -0.45593999997E+02  0.45594000000E+02  0.51100000000E-03 0. -1.
    9900012    2    1    2    0    0 -0.51631320131E+01 -0.30821016524E+02  0.30116938170E+02  0.47787274701E+02  0.20000016669E+02 0.  0.
         12    1    1    2    0    0  0.51631320131E+01  0.30821016524E+02 -0.30116938170E+02  0.43400725299E+02  0.00000000000E+00 0. -1.
         11    1    3    3    0    0 -0.53556136676E+01 -0.33014160961E+01  0.14503632406E+02  0.15809405404E+02  0.51100000000E-03 0. -1.
        -11    1    3    3    0    0  0.19584931039E+01 -0.13479102118E+02  0.92316699677E+01  0.16454349571E+02  0.51100000000E-03 0.  1.
         12    1    3    3    0    0 -0.17660114495E+01 -0.14040498310E+02  0.63816357966E+01  0.15523519726E+02  0.00000000000E+00 0. -1.
</event>
<event>
 7    1  0.5504027E-010  0.4778727E+02  0.7816164E-02  0.1312668E+00
        -11   -1    0    0    0    0  0.00000000000E+00  0.00000000000E+00  0.45593999997E+02  0.45594000000E+02  0.51100000000E-03 0.  1.
         11   -1    0    0    0    0 -0.00000000000E+00 -0.00000000000E+00 -0.45593999997E+02  0.45594000000E+02  0.51100000000E-03 0. -1.
    9900012    2    1    2    0    0 -0.19325083491E+02 -0.32814499345E+02  0.20817616581E+02  0.47787269830E+02  0.19999994464E+02 0.  0.
         12    1    1    2    0    0  0.19325083491E+02  0.32814499345E+02 -0.20817616581E+02  0.43400730170E+02  0.00000000000E+00 0. -1.
         11    1    3    3    0    0 -0.12306229054E+02 -0.19931842696E+02  0.19992126935E+02  0.30796213508E+02  0.51100000000E-03 0. -1.
        -11    1    3    3    0    0 -0.20510647238E+01 -0.23739277493E+01 -0.33970245472E+01  0.46240864498E+01  0.51100000000E-03 0.  1.
        -12    1    3    3    0    0 -0.49677897132E+01 -0.10508728900E+02  0.42225141931E+01  0.12366969873E+02  0.00000000000E+00 0.  1.
</event>
<event>
 7    1  0.5504027E-010  0.4778727E+02  0.7816164E-02  0.1312668E+00
        -11   -1    0    0    0    0  0.00000000000E+00  0.00000000000E+00  0.45593999997E+02  0.45594000000E+02  0.51100000000E-03 0. -1.
         11   -1    0    0    0    0 -0.00000000000E+00 -0.00000000000E+00 -0.45593999997E+02  0.45594000000E+02  0.51100000000E-03 0.  1.
    9900012    2    1    2    0    0  0.28936848817E+02  0.16942505779E+02 -0.27554194931E+02  0.47787269824E+02  0.19999994434E+02 0.  0.
         12    1    1    2    0    0 -0.28936848817E+02 -0.16942505779E+02  0.27554194931E+02  0.43400730176E+02  0.00000000000E+00 0. -1.
         11    1    3    3    0    0 -0.20779319175E+01  0.36873113520E+01 -0.14590255898E+01  0.44769210394E+01  0.51100000000E-03 0. -1.
        -11    1    3    3    0    0  0.23005910417E+02  0.12976144091E+02 -0.21609765681E+02  0.34126737357E+02  0.51100000000E-03 0.  1.
        -12    1    3    3    0    0  0.80088703175E+01  0.27905033615E+00 -0.44854036609E+01  0.91836114276E+01  0.00000000000E+00 0.  1.
</event>
<event>
 7    1  0.5504027E-010  0.4778727E+02  0.7816164E-02  0.1312668E+00
        -11   -1    0    0    0    0  0.00000000000E+00  0.00000000000E+00  0.45593999997E+02  0.45594000000E+02  0.51100000000E-03 0.  1.
         11   -1    0    0    0    0 -0.00000000000E+00 -0.00000000000E+00 -0.45593999997E+02  0.45594000000E+02  0.51100000000E-03 0. -1.
    9900012    2    1    2    0    0  0.40595119418E+02 -0.12200624342E+02 -0.93168708918E+01  0.47787273761E+02  0.20000012386E+02 0.  0.
         12    1    1    2    0    0 -0.40595119418E+02  0.12200624342E+02  0.93168708918E+01  0.43400726239E+02  0.00000000000E+00 0. -1.
         11    1    3    3    0    0  0.26111544005E+02  0.39712833401E+00 -0.10658496489E+01  0.26136305726E+02  0.51100000000E-03 0.  1.
        -11    1    3    3    0    0  0.13836843075E+02 -0.12776611750E+02 -0.87962312679E+01  0.20786383016E+02  0.51100000000E-03 0. -1.
         12    1    3    3    0    0  0.64673233695E+00  0.17885907454E+00  0.54521002495E+00  0.86458501925E+00  0.00000000000E+00 0. -1.
</event>
<event>
 7    1  0.5504027E-010  0.4778727E+02  0.7816164E-02  0.1312668E+00
        -11   -1    0    0    0    0  0.00000000000E+00  0.00000000000E+00  0.45593999997E+02  0.45594000000E+02  0.51100000000E-03 0.  1.
         11   -1    0    0    0    0 -0.00000000000E+00 -0.00000000000E+00 -0.45593999997E+02  0.45594000000E+02  0.51100000000E-03 0. -1.
    9900012    2    1    2    0    0 -0.21064801158E+02 -0.68476431039E+01  0.37323012468E+02  0.47787270472E+02  0.19999997390E+02 0.  0.
         12    1    1    2    0    0  0.21064801158E+02  0.68476431039E+01 -0.37323012468E+02  0.43400729528E+02  0.00000000000E+00 0. -1.
         11    1    3    3    0    0 -0.35581985820E+01 -0.84902630011E+01  0.60162456551E+01  0.10997297624E+02  0.51100000000E-03 0. -1.
        -11    1    3    3    0    0 -0.17885067268E+02  0.48632061208E+00  0.30393667425E+02  0.35268784480E+02  0.51100000000E-03 0.  1.
        -12    1    3    3    0    0  0.37846469175E+00  0.11562992852E+01  0.91309938792E+00  0.15211883683E+01  0.00000000000E+00 0.  1.
</event>
<event>
 7    1  0.5504027E-010  0.4778727E+02  0.7816164E-02  0.1312668E+00
        -11   -1    0    0    0    0  0.00000000000E+00  0.00000000000E+00  0.45593999997E+02  0.45594000000E+02  0.51100000000E-03 0.  1.
         11   -1    0    0    0    0 -0.00000000000E+00 -0.00000000000E+00 -0.45593999997E+02  0.45594000000E+02  0.51100000000E-03 0. -1.
    9900012    2    1    2    0    0 -0.87027703984E+01  0.17475182444E+02  0.38762131173E+02  0.47787273887E+02  0.20000012961E+02 0.  0.
         12    1    1    2    0    0  0.87027703984E+01 -0.17475182444E+02 -0.38762131173E+02  0.43400726113E+02  0.00000000000E+00 0. -1.
         11    1    3    3    0    0 -0.52240169021E+01 -0.18299143630E+00  0.61301569114E+00  0.52630435071E+01  0.51100000000E-03 0. -1.
        -11    1    3    3    0    0 -0.23031754605E+01  0.77347222391E+01  0.23012511669E+02  0.24386599576E+02  0.51100000000E-03 0.  1.
         12    1    3    3    0    0 -0.11755780358E+01  0.99234516410E+01  0.15136603813E+02  0.18137630804E+02  0.00000000000E+00 0. -1.
</event>
<event>
 7    1  0.5504027E-010  0.4778727E+02  0.7816164E-02  0.1312668E+00
        -11   -1    0    0    0    0  0.00000000000E+00  0.00000000000E+00  0.45593999997E+02  0.45594000000E+02  0.51100000000E-03 0. -1.
         11   -1    0    0    0    0 -0.00000000000E+00 -0.00000000000E+00 -0.45593999997E+02  0.45594000000E+02  0.51100000000E-03 0.  1.
    9900012    2    1    2    0    0  0.53930779161E+01  0.48812250525E+01 -0.42786817985E+02  0.47787269123E+02  0.19999991238E+02 0.  0.
         12    1    1    2    0    0 -0.53930779161E+01 -0.48812250525E+01  0.42786817985E+02  0.43400730877E+02  0.00000000000E+00 0. -1.
         11    1    3    3    0    0  0.97230921766E+01  0.21532200751E+01 -0.15231642128E+02  0.18198291138E+02  0.51100000000E-03 0. -1.
        -11    1    3    3    0    0  0.13410835307E+01  0.35600782467E+01 -0.18387699643E+02  0.18777118005E+02  0.51100000000E-03 0.  1.
         12    1    3    3    0    0 -0.56710977912E+01 -0.83207326932E+00 -0.91674762139E+01  0.10811859979E+02  0.00000000000E+00 0. -1.
</event>
<event>
 7    1  0.5504027E-010  0.4778727E+02  0.7816164E-02  0.1312668E+00
        -11   -1    0    0    0    0  0.00000000000E+00  0.00000000000E+00  0.45593999997E+02  0.45594000000E+02  0.51100000000E-03 0.  1.
         11   -1    0    0    0    0 -0.00000000000E+00 -0.00000000000E+00 -0.45593999997E+02  0.45594000000E+02  0.51100000000E-03 0. -1.
    9900012    2    1    2    0    0 -0.17999245805E+02 -0.16142409149E+02  0.36042651508E+02  0.47787274771E+02  0.20000016991E+02 0.  0.
         12    1    1    2    0    0  0.17999245805E+02  0.16142409149E+02 -0.36042651508E+02  0.43400725229E+02  0.00000000000E+00 0. -1.
         11    1    3    3    0    0  0.55370135777E+00 -0.43049148666E+01 -0.94935117103E+00  0.44429883085E+01  0.51100000000E-03 0. -1.
        -11    1    3    3    0    0 -0.96220840002E+01 -0.80305318021E+01  0.24537392536E+02  0.27552814271E+02  0.51100000000E-03 0.  1.
         12    1    3    3    0    0 -0.89308631630E+01 -0.38069624801E+01  0.12454610143E+02  0.15791472192E+02  0.00000000000E+00 0. -1.
</event>
<event>
 7    1  0.5504027E-010  0.4778727E+02  0.7816164E-02  0.1312668E+00
        -11   -1    0    0    0    0  0.00000000000E+00  0.00000000000E+00  0.45593999997E+02  0.45594000000E+02  0.51100000000E-03 0. -1.
         11   -1    0    0    0    0 -0.00000000000E+00 -0.00000000000E+00 -0.45593999997E+02  0.45594000000E+02  0.51100000000E-03 0.  1.
    9900012    2    1    2    0    0  0.15772924035E+02 -0.29106326893E+01 -0.40328231583E+02  0.47787272150E+02  0.20000005042E+02 0.  0.
         12    1    1    2    0    0 -0.15772924035E+02  0.29106326893E+01  0.40328231583E+02  0.43400727850E+02  0.00000000000E+00 0. -1.
         11    1    3    3    0    0  0.25710938076E+01 -0.30455589876E-01 -0.17476798707E+01  0.31089927793E+01  0.51100000000E-03 0. -1.
        -11    1    3    3    0    0  0.10377724675E+02 -0.74520816174E+00 -0.62143283231E+01  0.12119009093E+02  0.51100000000E-03 0.  1.
        -12    1    3    3    0    0  0.28241055523E+01 -0.21349689377E+01 -0.32366223389E+02  0.32559270278E+02  0.00000000000E+00 0.  1.
</event>
<event>
 7    1  0.5504027E-010  0.4778727E+02  0.7816164E-02  0.1312668E+00
        -11   -1    0    0    0    0  0.00000000000E+00  0.00000000000E+00  0.45593999997E+02  0.45594000000E+02  0.51100000000E-03 0.  1.
         11   -1    0    0    0    0 -0.00000000000E+00 -0.00000000000E+00 -0.45593999997E+02  0.45594000000E+02  0.51100000000E-03 0. -1.
    9900012    2    1    2    0    0 -0.32943504602E+02  0.20013553280E+02  0.19945078569E+02  0.47787274551E+02  0.20000015990E+02 0.  0.
         12    1    1    2    0    0  0.32943504602E+02 -0.20013553280E+02 -0.19945078569E+02  0.43400725449E+02  0.00000000000E+00 0. -1.
         11    1    3    3    0    0 -0.11070124639E+02  0.24987669066E+01 -0.24054379268E+01  0.11600759779E+02  0.51100000000E-03 0. -1.
        -11    1    3    3    0    0 -0.40616190643E+01  0.48183065243E+01  0.72538767105E+01  0.96089309904E+01  0.51100000000E-03 0.  1.
         12    1    3    3    0    0 -0.17811760899E+02  0.12696479849E+02  0.15096639786E+02  0.26577583782E+02  0.00000000000E+00 0. -1.
</event>
<event>
 7    1  0.5504027E-010  0.4778728E+02  0.7816164E-02  0.1312668E+00
        -11   -1    0    0    0    0  0.00000000000E+00  0.00000000000E+00  0.45593999997E+02  0.45594000000E+02  0.51100000000E-03 0. -1.
         11   -1    0    0    0    0 -0.00000000000E+00 -0.00000000000E+00 -0.45593999997E+02  0.45594000000E+02  0.51100000000E-03 0.  1.
    9900012    2    1    2    0    0 -0.37764484602E+01  0.37470178582E+02  0.21571902047E+02  0.47787276459E+02  0.20000024687E+02 0.  0.
         12    1    1    2    0    0  0.37764484602E+01 -0.37470178582E+02 -0.21571902047E+02  0.43400723541E+02  0.00000000000E+00 0. -1.
         11    1    3    3    0    0  0.54818223847E+01  0.23595317543E+02  0.12076964277E+02  0.27067368786E+02  0.51100000000E-03 0. -1.
        -11    1    3    3    0    0 -0.63836400374E+01  0.13414513218E+02  0.97931432923E+01  0.17793416783E+02  0.51100000000E-03 0.  1.
         12    1    3    3    0    0 -0.28746308075E+01  0.46034782168E+00 -0.29820552249E+00  0.29264908901E+01  0.00000000000E+00 0. -1.
</event>
<event>
 7    1  0.5504027E-010  0.4778727E+02  0.7816164E-02  0.1312668E+00
        -11   -1    0    0    0    0  0.00000000000E+00  0.00000000000E+00  0.45593999997E+02  0.45594000000E+02  0.51100000000E-03 0.  1.
         11   -1    0    0    0    0 -0.00000000000E+00 -0.00000000000E+00 -0.45593999997E+02  0.45594000000E+02  0.51100000000E-03 0. -1.
    9900012    2    1    2    0    0  0.16126313591E+02 -0.88259035494E+00  0.40283825418E+02  0.47787267908E+02  0.19999985700E+02 0.  0.
         12    1    1    2    0    0 -0.16126313591E+02  0.88259035494E+00 -0.40283825418E+02  0.43400732092E+02  0.00000000000E+00 0. -1.
         11    1    3    3    0    0  0.63060670137E+01 -0.65510487719E+01  0.25974329050E+02  0.27519965317E+02  0.51100000000E-03 0. -1.
        -11    1    3    3    0    0  0.10218814648E+02  0.45117448917E+01  0.15120697236E+02  0.18799348391E+02  0.51100000000E-03 0.  1.
         12    1    3    3    0    0 -0.39856807058E+00  0.11567135253E+01 -0.81120086732E+00  0.14679542001E+01  0.00000000000E+00 0. -1.
</event>
<event>
 7    1  0.5504027E-010  0.4778724E+02  0.7816164E-02  0.1312668E+00
        -11   -1    0    0    0    0  0.00000000000E+00  0.00000000000E+00  0.45593999997E+02  0.45594000000E+02  0.51100000000E-03 0.  1.
         11   -1    0    0    0    0 -0.00000000000E+00 -0.00000000000E+00 -0.45593999997E+02  0.45594000000E+02  0.51100000000E-03 0. -1.
    9900012    2    1    2    0    0  0.28379445007E+02  0.21364603106E+02  0.24935654717E+02  0.47787239166E+02  0.19999854653E+02 0.  0.
         12    1    1    2    0    0 -0.28379445007E+02 -0.21364603106E+02 -0.24935654717E+02  0.43400760834E+02  0.00000000000E+00 0. -1.
         11    1    3    3    0    0  0.62142219445E+01 -0.15186905342E+01  0.71425192639E+01  0.95884595744E+01  0.51100000000E-03 0. -1.
        -11    1    3    3    0    0  0.20100718930E+02  0.15854867746E+02  0.99497031562E+01  0.27466567422E+02  0.51100000000E-03 0.  1.
        -12    1    3    3    0    0  0.20645041322E+01  0.70284258942E+01  0.78434322973E+01  0.10732212170E+02  0.00000000000E+00 0.  1.
</event>
<event>
 7    1  0.5504027E-010  0.4778725E+02  0.7816164E-02  0.1312668E+00
        -11   -1    0    0    0    0  0.00000000000E+00  0.00000000000E+00  0.45593999997E+02  0.45594000000E+02  0.51100000000E-03 0.  1.
         11   -1    0    0    0    0 -0.00000000000E+00 -0.00000000000E+00 -0.45593999997E+02  0.45594000000E+02  0.51100000000E-03 0. -1.
    9900012    2    1    2    0    0  0.43054008624E+02 -0.47783551587E+01  0.26729048358E+01  0.47787253959E+02  0.19999922102E+02 0.  0.
         12    1    1    2    0    0 -0.43054008624E+02  0.47783551587E+01 -0.26729048358E+01  0.43400746041E+02  0.00000000000E+00 0. -1.
         11    1    3    3    0    0  0.28833951976E+02  0.52676175817E+00 -0.32308959988E+01  0.29019182513E+02  0.51100000000E-03 0. -1.
        -11    1    3    3    0    0  0.14030060430E+02 -0.35195823892E+01  0.75635181324E+01  0.16322893820E+02  0.51100000000E-03 0.  1.
        -12    1    3    3    0    0  0.18999621761E+00 -0.17855345277E+01 -0.16597172979E+01  0.24451776257E+01  0.00000000000E+00 0.  1.
</event>
<event>
 7    1  0.5504027E-010  0.4778725E+02  0.7816164E-02  0.1312668E+00
        -11   -1    0    0    0    0  0.00000000000E+00  0.00000000000E+00  0.45593999997E+02  0.45594000000E+02  0.51100000000E-03 0. -1.
         11   -1    0    0    0    0 -0.00000000000E+00 -0.00000000000E+00 -0.45593999997E+02  0.45594000000E+02  0.51100000000E-03 0.  1.
    9900012    2    1    2    0    0  0.25879006816E+02 -0.28017662561E+02 -0.20710197742E+02  0.47787254619E+02  0.19999925108E+02 0.  0.
         12    1    1    2    0    0 -0.25879006816E+02  0.28017662561E+02  0.20710197742E+02  0.43400745381E+02  0.00000000000E+00 0. -1.
         11    1    3    3    0    0  0.17000600608E+02 -0.10184154589E+02 -0.58851217199E+01  0.20672979554E+02  0.51100000000E-03 0. -1.
        -11    1    3    3    0    0  0.15455557415E+01 -0.12930130648E+02 -0.12362599672E+02  0.17955803854E+02  0.51100000000E-03 0.  1.
        -12    1    3    3    0    0  0.73328504663E+01 -0.49033773245E+01 -0.24624763501E+01  0.91584712110E+01  0.00000000000E+00 0.  1.
</event>
<event>
 7    1  0.5504027E-010  0.4778727E+02  0.7816164E-02  0.1312668E+00
        -11   -1    0    0    0    0  0.00000000000E+00  0.00000000000E+00  0.45593999997E+02  0.45594000000E+02  0.51100000000E-03 0.  1.
         11   -1    0    0    0    0 -0.00000000000E+00 -0.00000000000E+00 -0.45593999997E+02  0.45594000000E+02  0.51100000000E-03 0. -1.
    9900012    2    1    2    0    0  0.13221429931E+02 -0.10437447089E+02  0.39998459327E+02  0.47787271208E+02  0.20000000746E+02 0.  0.
         12    1    1    2    0    0 -0.13221429931E+02  0.10437447089E+02 -0.39998459327E+02  0.43400728792E+02  0.00000000000E+00 0. -1.
         11    1    3    3    0    0  0.78278748196E+01 -0.95311717486E+01  0.21774119786E+02  0.25024610922E+02  0.51100000000E-03 0. -1.
        -11    1    3    3    0    0  0.61802089664E+01  0.56484851948E+00  0.20990988277E+01  0.65513550406E+01  0.51100000000E-03 0.  1.
        -12    1    3    3    0    0 -0.78665385488E+00 -0.14711238597E+01  0.16125240713E+02  0.16211305245E+02  0.00000000000E+00 0.  1.
</event>
<event>
 7    1  0.5504027E-010  0.4778727E+02  0.7816164E-02  0.1312668E+00
        -11   -1    0    0    0    0  0.00000000000E+00  0.00000000000E+00  0.45593999997E+02  0.45594000000E+02  0.51100000000E-03 0.  1.
         11   -1    0    0    0    0 -0.00000000000E+00 -0.00000000000E+00 -0.45593999997E+02  0.45594000000E+02  0.51100000000E-03 0. -1.
    9900012    2    1    2    0    0 -0.28666659157E+02 -0.47849861498E+01  0.32232744717E+02  0.47787271070E+02  0.20000000117E+02 0.  0.
         12    1    1    2    0    0  0.28666659157E+02  0.47849861498E+01 -0.32232744717E+02  0.43400728930E+02  0.00000000000E+00 0. -1.
         11    1    3    3    0    0 -0.16597809219E+02  0.66395494796E+01  0.14642123541E+02  0.23107632294E+02  0.51100000000E-03 0. -1.
        -11    1    3    3    0    0 -0.41049069848E+01 -0.54209823259E+01  0.10232122645E+02  0.12285505476E+02  0.51100000000E-03 0.  1.
         12    1    3    3    0    0 -0.79639429533E+01 -0.60035533035E+01  0.73584985312E+01  0.12394133300E+02  0.00000000000E+00 0. -1.
</event>
<event>
 7    1  0.5504027E-010  0.4778726E+02  0.7816164E-02  0.1312668E+00
        -11   -1    0    0    0    0  0.00000000000E+00  0.00000000000E+00  0.45593999997E+02  0.45594000000E+02  0.51100000000E-03 0.  1.
         11   -1    0    0    0    0 -0.00000000000E+00 -0.00000000000E+00 -0.45593999997E+02  0.45594000000E+02  0.51100000000E-03 0. -1.
    9900012    2    1    2    0    0 -0.10158836325E+02  0.12700743036E+01  0.42175933721E+02  0.47787257731E+02  0.19999939299E+02 0.  0.
         12    1    1    2    0    0  0.10158836325E+02 -0.12700743036E+01 -0.42175933721E+02  0.43400742269E+02  0.00000000000E+00 0. -1.
         11    1    3    3    0    0 -0.30232576627E+01  0.60071946149E+01  0.65326086720E+01  0.93755773347E+01  0.51100000000E-03 0. -1.
        -11    1    3    3    0    0 -0.16100564402E+00 -0.41797049673E+01  0.26852334804E+02  0.27176161265E+02  0.51100000000E-03 0.  1.
         12    1    3    3    0    0 -0.69745730182E+01 -0.55741534389E+00  0.87909902458E+01  0.11235519131E+02  0.00000000000E+00 0. -1.
</event>
<event>
 7    1  0.5504027E-010  0.4778728E+02  0.7816164E-02  0.1312668E+00
        -11   -1    0    0    0    0  0.00000000000E+00  0.00000000000E+00  0.45593999997E+02  0.45594000000E+02  0.51100000000E-03 0.  1.
         11   -1    0    0    0    0 -0.00000000000E+00 -0.00000000000E+00 -0.45593999997E+02  0.45594000000E+02  0.51100000000E-03 0. -1.
    9900012    2    1    2    0    0  0.19600744180E+02  0.27466220925E+02  0.27295423331E+02  0.47787278818E+02  0.20000035441E+02 0.  0.
         12    1    1    2    0    0 -0.19600744180E+02 -0.27466220925E+02 -0.27295423331E+02  0.43400721182E+02  0.00000000000E+00 0. -1.
         11    1    3    3    0    0  0.82526073855E+01  0.15664178413E+02  0.22063043660E+02  0.28288688725E+02  0.51100000000E-03 0. -1.
        -11    1    3    3    0    0  0.67160276316E+01  0.28480077651E+01  0.59187415643E+01  0.93940234907E+01  0.51100000000E-03 0.  1.
         12    1    3    3    0    0  0.46321091630E+01  0.89540347473E+01 -0.68636189290E+00  0.10104566601E+02  0.00000000000E+00 0. -1.
</event>
<event>
 7    1  0.5504027E-010  0.4778727E+02  0.7816164E-02  0.1312668E+00
        -11   -1    0    0    0    0  0.00000000000E+00  0.00000000000E+00  0.45593999997E+02  0.45594000000E+02  0.51100000000E-03 0. -1.
         11   -1    0    0    0    0 -0.00000000000E+00 -0.00000000000E+00 -0.45593999997E+02  0.45594000000E+02  0.51100000000E-03 0.  1.
    9900012    2    1    2    0    0  0.28930629385E+02 -0.67359265438E+01  0.31642841697E+02  0.47787268973E+02  0.19999990554E+02 0.  0.
         12    1    1    2    0    0 -0.28930629385E+02  0.67359265438E+01 -0.31642841697E+02  0.43400731027E+02  0.00000000000E+00 0. -1.
         11    1    3    3    0    0  0.60917172168E+01  0.48860499635E+01  0.13304604583E+02  0.15427086772E+02  0.51100000000E-03 0. -1.
        -11    1    3    3    0    0  0.11540596884E+02 -0.76954919084E+01  0.58092889526E+01  0.15038411171E+02  0.51100000000E-03 0.  1.
         12    1    3    3    0    0  0.11298315284E+02 -0.39264845989E+01  0.12528948162E+02  0.17321771030E+02  0.00000000000E+00 0. -1.
</event>
<event>
 7    1  0.5504027E-010  0.4778727E+02  0.7816164E-02  0.1312668E+00
        -11   -1    0    0    0    0  0.00000000000E+00  0.00000000000E+00  0.45593999997E+02  0.45594000000E+02  0.51100000000E-03 0.  1.
         11   -1    0    0    0    0 -0.00000000000E+00 -0.00000000000E+00 -0.45593999997E+02  0.45594000000E+02  0.51100000000E-03 0. -1.
    9900012    2    1    2    0    0  0.16538759945E+02  0.40091917613E+02  0.16524790052E+01  0.47787272756E+02  0.20000007805E+02 0.  0.
         12    1    1    2    0    0 -0.16538759945E+02 -0.40091917613E+02 -0.16524790052E+01  0.43400727244E+02  0.00000000000E+00 0. -1.
         11    1    3    3    0    0 -0.96430812316E+00 -0.12951110534E+00 -0.20046577355E+01  0.22282989432E+01  0.51100000000E-03 0. -1.
        -11    1    3    3    0    0  0.69147021902E+01  0.29595403382E+02  0.18341063827E+01  0.30447741364E+02  0.51100000000E-03 0.  1.
         12    1    3    3    0    0  0.10588365878E+02  0.10626025337E+02  0.18230303580E+01  0.15111232449E+02  0.00000000000E+00 0. -1.
</event>
<event>
 7    1  0.5504027E-010  0.4778729E+02  0.7816164E-02  0.1312668E+00
        -11   -1    0    0    0    0  0.00000000000E+00  0.00000000000E+00  0.45593999997E+02  0.45594000000E+02  0.51100000000E-03 0. -1.
         11   -1    0    0    0    0 -0.00000000000E+00 -0.00000000000E+00 -0.45593999997E+02  0.45594000000E+02  0.51100000000E-03 0.  1.
    9900012    2    1    2    0    0 -0.17762160436E+02  0.39585606458E+02 -0.10520102323E+01  0.47787293697E+02  0.20000103283E+02 0.  0.
         12    1    1    2    0    0  0.17762160436E+02 -0.39585606458E+02  0.10520102323E+01  0.43400706303E+02  0.00000000000E+00 0. -1.
         11    1    3    3    0    0 -0.12553996788E+02  0.14849370161E+02  0.65019540157E+01  0.20503220133E+02  0.51100000000E-03 0. -1.
        -11    1    3    3    0    0 -0.14506403343E+01  0.17926603928E+02 -0.28917292920E+01  0.18216190170E+02  0.51100000000E-03 0.  1.
         12    1    3    3    0    0 -0.37575233139E+01  0.68096323695E+01 -0.46622349561E+01  0.90678833940E+01  0.00000000000E+00 0. -1.
</event>
<event>
 7    1  0.5504027E-010  0.4778727E+02  0.7816164E-02  0.1312668E+00
        -11   -1    0    0    0    0  0.00000000000E+00  0.00000000000E+00  0.45593999997E+02  0.45594000000E+02  0.51100000000E-03 0. -1.
         11   -1    0    0    0    0 -0.00000000000E+00 -0.00000000000E+00 -0.45593999997E+02  0.45594000000E+02  0.51100000000E-03 0.  1.
    9900012    2    1    2    0    0 -0.18153048095E+02  0.21360063307E+02 -0.33133635831E+02  0.47787270939E+02  0.19999999519E+02 0.  0.
         12    1    1    2    0    0  0.18153048095E+02 -0.21360063307E+02  0.33133635831E+02  0.43400729061E+02  0.00000000000E+00 0. -1.
         11    1    3    3    0    0 -0.42033001190E+01  0.14497117393E+00 -0.46103484380E+01  0.62405177279E+01  0.51100000000E-03 0. -1.
        -11    1    3    3    0    0  0.35817158790E+01  0.20070626697E+01 -0.51014971599E+01  0.65484549881E+01  0.51100000000E-03 0.  1.
        -12    1    3    3    0    0 -0.17531463855E+02  0.19208029463E+02 -0.23421790233E+02  0.34998298223E+02  0.00000000000E+00 0.  1.
</event>
<event>
 7    1  0.5504027E-010  0.4778726E+02  0.7816164E-02  0.1312668E+00
        -11   -1    0    0    0    0  0.00000000000E+00  0.00000000000E+00  0.45593999997E+02  0.45594000000E+02  0.51100000000E-03 0.  1.
         11   -1    0    0    0    0 -0.00000000000E+00 -0.00000000000E+00 -0.45593999997E+02  0.45594000000E+02  0.51100000000E-03 0. -1.
    9900012    2    1    2    0    0 -0.37078217529E+02 -0.22270792098E+02 -0.35834919660E+01  0.47787264862E+02  0.19999971814E+02 0.  0.
         12    1    1    2    0    0  0.37078217529E+02  0.22270792098E+02  0.35834919660E+01  0.43400735138E+02  0.00000000000E+00 0. -1.
         11    1    3    3    0    0 -0.13291370141E+02 -0.33517990487E+01  0.71234027155E+01  0.15447910655E+02  0.51100000000E-03 0. -1.
        -11    1    3    3    0    0 -0.20325230936E+02 -0.15004726709E+02 -0.93731032408E+01  0.26946463605E+02  0.51100000000E-03 0.  1.
         12    1    3    3    0    0 -0.34616164524E+01 -0.39142663395E+01 -0.13337914406E+01  0.53928906022E+01  0.00000000000E+00 0. -1.
</event>
<event>
 7    1  0.5504027E-010  0.4778727E+02  0.7816164E-02  0.1312668E+00
        -11   -1    0    0    0    0  0.00000000000E+00  0.00000000000E+00  0.45593999997E+02  0.45594000000E+02  0.51100000000E-03 0.  1.
         11   -1    0    0    0    0 -0.00000000000E+00 -0.00000000000E+00 -0.45593999997E+02  0.45594000000E+02  0.51100000000E-03 0. -1.
    9900012    2    1    2    0    0  0.10452846603E+02 -0.23779572270E+02  0.34769138545E+02  0.47787273570E+02  0.20000011516E+02 0.  0.
         12    1    1    2    0    0 -0.10452846603E+02  0.23779572270E+02 -0.34769138545E+02  0.43400726430E+02  0.00000000000E+00 0. -1.
         11    1    3    3    0    0 -0.17638346083E+01  0.11212119343E+01  0.25616533241E+01  0.33060999291E+01  0.51100000000E-03 0. -1.
        -11    1    3    3    0    0  0.56353049329E+01 -0.22901570731E+02  0.27024631274E+02  0.35868778894E+02  0.51100000000E-03 0.  1.
        -12    1    3    3    0    0  0.65813762789E+01 -0.19992134734E+01  0.51828539471E+01  0.86123947468E+01  0.00000000000E+00 0.  1.
</event>
<event>
 7    1  0.5504027E-010  0.4778727E+02  0.7816164E-02  0.1312668E+00
        -11   -1    0    0    0    0  0.00000000000E+00  0.00000000000E+00  0.45593999997E+02  0.45594000000E+02  0.51100000000E-03 0.  1.
         11   -1    0    0    0    0 -0.00000000000E+00 -0.00000000000E+00 -0.45593999997E+02  0.45594000000E+02  0.51100000000E-03 0. -1.
    9900012    2    1    2    0    0 -0.35285878533E+02 -0.21656781163E+02  0.13019751709E+02  0.47787270413E+02  0.19999997119E+02 0.  0.
         12    1    1    2    0    0  0.35285878533E+02  0.21656781163E+02 -0.13019751709E+02  0.43400729587E+02  0.00000000000E+00 0. -1.
         11    1    3    3    0    0 -0.66736344318E+01  0.31731031002E+01  0.34399658109E+01  0.81510333612E+01  0.51100000000E-03 0. -1.
        -11    1    3    3    0    0 -0.18571091542E+02 -0.14909481160E+02  0.28073095683E+01  0.23980389005E+02  0.51100000000E-03 0.  1.
        -12    1    3    3    0    0 -0.10041152558E+02 -0.99204031032E+01  0.67724763296E+01  0.15655848047E+02  0.00000000000E+00 0.  1.
</event>
<event>
 7    1  0.5504027E-010  0.4778727E+02  0.7816164E-02  0.1312668E+00
        -11   -1    0    0    0    0  0.00000000000E+00  0.00000000000E+00  0.45593999997E+02  0.45594000000E+02  0.51100000000E-03 0.  1.
         11   -1    0    0    0    0 -0.00000000000E+00 -0.00000000000E+00 -0.45593999997E+02  0.45594000000E+02  0.51100000000E-03 0. -1.
    9900012    2    1    2    0    0  0.40736141377E+02  0.13949779758E+01  0.14907843814E+02  0.47787274372E+02  0.20000015171E+02 0.  0.
         12    1    1    2    0    0 -0.40736141377E+02 -0.13949779758E+01 -0.14907843814E+02  0.43400725628E+02  0.00000000000E+00 0. -1.
         11    1    3    3    0    0  0.90708426070E+01 -0.33610306816E+01 -0.67662514930E+00  0.96971405423E+01  0.51100000000E-03 0. -1.
        -11    1    3    3    0    0  0.24720182756E+02  0.45727709526E+01  0.17793966785E+02  0.30799722789E+02  0.51100000000E-03 0.  1.
        -12    1    3    3    0    0  0.69451160144E+01  0.18323770474E+00 -0.22094978221E+01  0.72904110402E+01  0.00000000000E+00 0.  1.
</event>
<event>
 7    1  0.5504027E-010  0.4778727E+02  0.7816164E-02  0.1312668E+00
        -11   -1    0    0    0    0  0.00000000000E+00  0.00000000000E+00  0.45593999997E+02  0.45594000000E+02  0.51100000000E-03 0.  1.
         11   -1    0    0    0    0 -0.00000000000E+00 -0.00000000000E+00 -0.45593999997E+02  0.45594000000E+02  0.51100000000E-03 0. -1.
    9900012    2    1    2    0    0 -0.29502701378E+02  0.73414488197E+01  0.30972843038E+02  0.47787271144E+02  0.20000000452E+02 0.  0.
         12    1    1    2    0    0  0.29502701378E+02 -0.73414488197E+01 -0.30972843038E+02  0.43400728856E+02  0.00000000000E+00 0. -1.
         11    1    3    3    0    0 -0.49788422530E+01  0.30010353806E+01  0.14315857258E+02  0.15451176422E+02  0.51100000000E-03 0. -1.
        -11    1    3    3    0    0 -0.21253707724E+02 -0.11920525470E+01  0.12627198901E+02  0.24750499665E+02  0.51100000000E-03 0.  1.
        -12    1    3    3    0    0 -0.32701514008E+01  0.55324659861E+01  0.40297868791E+01  0.75855950566E+01  0.00000000000E+00 0.  1.
</event>
<event>
 7    1  0.5504027E-010  0.4778727E+02  0.7816164E-02  0.1312668E+00
        -11   -1    0    0    0    0  0.00000000000E+00  0.00000000000E+00  0.45593999997E+02  0.45594000000E+02  0.51100000000E-03 0.  1.
         11   -1    0    0    0    0 -0.00000000000E+00 -0.00000000000E+00 -0.45593999997E+02  0.45594000000E+02  0.51100000000E-03 0. -1.
    9900012    2    1    2    0    0  0.46989330659E+01  0.42668882520E+02  0.63960937229E+01  0.47787268182E+02  0.19999986947E+02 0.  0.
         12    1    1    2    0    0 -0.46989330659E+01 -0.42668882520E+02 -0.63960937229E+01  0.43400731818E+02  0.00000000000E+00 0. -1.
         11    1    3    3    0    0  0.26052893002E+01  0.21412626487E+02 -0.74579305936E+00  0.21583426812E+02  0.51100000000E-03 0. -1.
        -11    1    3    3    0    0  0.18113441224E+01  0.19629651045E+02  0.88509246802E+00  0.19732905428E+02  0.51100000000E-03 0.  1.
         12    1    3    3    0    0  0.28229964339E+00  0.16266049883E+01  0.62567943142E+01  0.64709359421E+01  0.00000000000E+00 0. -1.
</event>
<event>
 7    1  0.5504027E-010  0.4778727E+02  0.7816164E-02  0.1312668E+00
        -11   -1    0    0    0    0  0.00000000000E+00  0.00000000000E+00  0.45593999997E+02  0.45594000000E+02  0.51100000000E-03 0.  1.
         11   -1    0    0    0    0 -0.00000000000E+00 -0.00000000000E+00 -0.45593999997E+02  0.45594000000E+02  0.51100000000E-03 0. -1.
    9900012    2    1    2    0    0 -0.38743849996E+02 -0.12313314796E+02  0.15196050867E+02  0.47787267336E+02  0.19999983093E+02 0.  0.
         12    1    1    2    0    0  0.38743849996E+02  0.12313314796E+02 -0.15196050867E+02  0.43400732664E+02  0.00000000000E+00 0. -1.
         11    1    3    3    0    0 -0.17477263788E+01 -0.14972830090E+00  0.28350127350E+01  0.33338061623E+01  0.51100000000E-03 0. -1.
        -11    1    3    3    0    0 -0.15999418007E+02  0.36482797050E+01  0.43994098940E+01  0.16989588843E+02  0.51100000000E-03 0.  1.
        -12    1    3    3    0    0 -0.20996705610E+02 -0.15811866201E+02  0.79616282378E+01  0.27463872331E+02  0.00000000000E+00 0.  1.
</event>
<event>
 7    1  0.5504027E-010  0.4778727E+02  0.7816164E-02  0.1312668E+00
        -11   -1    0    0    0    0  0.00000000000E+00  0.00000000000E+00  0.45593999997E+02  0.45594000000E+02  0.51100000000E-03 0.  1.
         11   -1    0    0    0    0 -0.00000000000E+00 -0.00000000000E+00 -0.45593999997E+02  0.45594000000E+02  0.51100000000E-03 0. -1.
    9900012    2    1    2    0    0 -0.24612464684E+02 -0.26980010274E+02  0.23450566264E+02  0.47787269242E+02  0.19999991783E+02 0.  0.
         12    1    1    2    0    0  0.24612464684E+02  0.26980010274E+02 -0.23450566264E+02  0.43400730758E+02  0.00000000000E+00 0. -1.
         11    1    3    3    0    0  0.13003485521E+01 -0.32198183753E+01  0.83690264305E-01  0.34734911902E+01  0.51100000000E-03 0. -1.
        -11    1    3    3    0    0 -0.19244656265E+02 -0.20655179636E+02  0.23829341212E+02  0.36943615734E+02  0.51100000000E-03 0.  1.
        -12    1    3    3    0    0 -0.66681569701E+01 -0.31050122626E+01 -0.46246521278E+00  0.73701623186E+01  0.00000000000E+00 0.  1.
</event>
<event>
 7    1  0.5504027E-010  0.4778730E+02  0.7816164E-02  0.1312668E+00
        -11   -1    0    0    0    0  0.00000000000E+00  0.00000000000E+00  0.45593999997E+02  0.45594000000E+02  0.51100000000E-03 0.  1.
         11   -1    0    0    0    0 -0.00000000000E+00 -0.00000000000E+00 -0.45593999997E+02  0.45594000000E+02  0.51100000000E-03 0. -1.
    9900012    2    1    2    0    0  0.26422926664E+02  0.18291514226E+02  0.29169678056E+02  0.47787301111E+02  0.20000137084E+02 0.  0.
         12    1    1    2    0    0 -0.26422926664E+02 -0.18291514226E+02 -0.29169678056E+02  0.43400698889E+02  0.00000000000E+00 0. -1.
         11    1    3    3    0    0 -0.12190114312E+01  0.50642493766E+00 -0.15623730483E+01  0.20453520210E+01  0.51100000000E-03 0. -1.
        -11    1    3    3    0    0  0.21980135973E+02  0.13717583676E+02  0.19129781285E+02  0.32206319436E+02  0.51100000000E-03 0.  1.
        -12    1    3    3    0    0  0.56618021221E+01  0.40675056124E+01  0.11602269819E+02  0.13535629654E+02  0.00000000000E+00 0.  1.
</event>
<event>
 7    1  0.5504027E-010  0.4778727E+02  0.7816164E-02  0.1312668E+00
        -11   -1    0    0    0    0  0.00000000000E+00  0.00000000000E+00  0.45593999997E+02  0.45594000000E+02  0.51100000000E-03 0. -1.
         11   -1    0    0    0    0 -0.00000000000E+00 -0.00000000000E+00 -0.45593999997E+02  0.45594000000E+02  0.51100000000E-03 0.  1.
    9900012    2    1    2    0    0  0.16960654113E+02  0.31552856065E+02  0.24502594149E+02  0.47787266897E+02  0.19999981092E+02 0.  0.
         12    1    1    2    0    0 -0.16960654113E+02 -0.31552856065E+02 -0.24502594149E+02  0.43400733103E+02  0.00000000000E+00 0. -1.
         11    1    3    3    0    0  0.14619659533E+01 -0.12815486299E+01  0.93236325439E-01  0.19463824426E+01  0.51100000000E-03 0. -1.
        -11    1    3    3    0    0  0.20973668550E+00  0.63104705352E+01 -0.55436416415E+00  0.63382448470E+01  0.51100000000E-03 0.  1.
        -12    1    3    3    0    0  0.15288951474E+02  0.26523934160E+02  0.24963721988E+02  0.39502639608E+02  0.00000000000E+00 0.  1.
</event>
<event>
 7    1  0.5504027E-010  0.4778728E+02  0.7816164E-02  0.1312668E+00
        -11   -1    0    0    0    0  0.00000000000E+00  0.00000000000E+00  0.45593999997E+02  0.45594000000E+02  0.51100000000E-03 0. -1.
         11   -1    0    0    0    0 -0.00000000000E+00 -0.00000000000E+00 -0.45593999997E+02  0.45594000000E+02  0.51100000000E-03 0.  1.
    9900012    2    1    2    0    0 -0.13960400851E+02 -0.36236733977E+02 -0.19381148937E+02  0.47787278631E+02  0.20000034590E+02 0.  0.
         12    1    1    2    0    0  0.13960400851E+02  0.36236733977E+02  0.19381148937E+02  0.43400721369E+02  0.00000000000E+00 0. -1.
         11    1    3    3    0    0 -0.98034623965E+01 -0.23745001940E+02 -0.12375582773E+02  0.28514698689E+02  0.51100000000E-03 0. -1.
        -11    1    3    3    0    0 -0.82740208371E+01 -0.91273131594E+01 -0.65071492833E+01  0.13932345760E+02  0.51100000000E-03 0.  1.
         12    1    3    3    0    0  0.41170823827E+01 -0.33644188782E+01 -0.49841688077E+00  0.53402341822E+01  0.00000000000E+00 0. -1.
</event>
<event>
 7    1  0.5504027E-010  0.4778728E+02  0.7816164E-02  0.1312668E+00
        -11   -1    0    0    0    0  0.00000000000E+00  0.00000000000E+00  0.45593999997E+02  0.45594000000E+02  0.51100000000E-03 0.  1.
         11   -1    0    0    0    0 -0.00000000000E+00 -0.00000000000E+00 -0.45593999997E+02  0.45594000000E+02  0.51100000000E-03 0. -1.
    9900012    2    1    2    0    0 -0.85114796105E+01  0.42304403526E+02  0.46384241811E+01  0.47787276254E+02  0.20000023751E+02 0.  0.
         12    1    1    2    0    0  0.85114796105E+01 -0.42304403526E+02 -0.46384241811E+01  0.43400723746E+02  0.00000000000E+00 0. -1.
         11    1    3    3    0    0  0.44271323694E+01  0.12764346580E+02  0.17635782549E+01  0.13624912959E+02  0.51100000000E-03 0. -1.
        -11    1    3    3    0    0  0.17388365227E+01  0.62096241426E+01 -0.99288919327E-02  0.64484946529E+01  0.51100000000E-03 0.  1.
         12    1    3    3    0    0 -0.14677448503E+02  0.23330432803E+02  0.28847748181E+01  0.27713868642E+02  0.00000000000E+00 0. -1.
</event>
<event>
 7    1  0.5504027E-010  0.4778727E+02  0.7816164E-02  0.1312668E+00
        -11   -1    0    0    0    0  0.00000000000E+00  0.00000000000E+00  0.45593999997E+02  0.45594000000E+02  0.51100000000E-03 0.  1.
         11   -1    0    0    0    0 -0.00000000000E+00 -0.00000000000E+00 -0.45593999997E+02  0.45594000000E+02  0.51100000000E-03 0. -1.
    9900012    2    1    2    0    0 -0.27314009292E+02 -0.15671424325E+02  0.29865946126E+02  0.47787269799E+02  0.19999994322E+02 0.  0.
         12    1    1    2    0    0  0.27314009292E+02  0.15671424325E+02 -0.29865946126E+02  0.43400730201E+02  0.00000000000E+00 0. -1.
         11    1    3    3    0    0 -0.14257005864E+02 -0.70203406871E+01  0.20522972216E+02  0.25956498000E+02  0.51100000000E-03 0. -1.
        -11    1    3    3    0    0 -0.13280890387E+01 -0.18426844218E+01  0.78676695120E+01  0.81889883492E+01  0.51100000000E-03 0.  1.
         12    1    3    3    0    0 -0.11728914389E+02 -0.68083992159E+01  0.14753043982E+01  0.13641783450E+02  0.00000000000E+00 0. -1.
</event>
<event>
 7    1  0.5504027E-010  0.4778727E+02  0.7816164E-02  0.1312668E+00
        -11   -1    0    0    0    0  0.00000000000E+00  0.00000000000E+00  0.45593999997E+02  0.45594000000E+02  0.51100000000E-03 0. -1.
         11   -1    0    0    0    0 -0.00000000000E+00 -0.00000000000E+00 -0.45593999997E+02  0.45594000000E+02  0.51100000000E-03 0.  1.
    9900012    2    1    2    0    0 -0.25642066481E+02 -0.33292618178E+02  0.10849395688E+02  0.47787269760E+02  0.19999994142E+02 0.  0.
         12    1    1    2    0    0  0.25642066481E+02  0.33292618178E+02 -0.10849395688E+02  0.43400730240E+02  0.00000000000E+00 0. -1.
         11    1    3    3    0    0  0.23508017566E+00 -0.35455453093E+00  0.37591958814E+01  0.37831898631E+01  0.51100000000E-03 0. -1.
        -11    1    3    3    0    0 -0.17811772600E+02 -0.15112470701E+02  0.51933835691E+00  0.23364839533E+02  0.51100000000E-03 0.  1.
         12    1    3    3    0    0 -0.80653740573E+01 -0.17825592947E+02  0.65708614499E+01  0.20639240363E+02  0.00000000000E+00 0. -1.
</event>
<event>
 7    1  0.5504027E-010  0.4778727E+02  0.7816164E-02  0.1312668E+00
        -11   -1    0    0    0    0  0.00000000000E+00  0.00000000000E+00  0.45593999997E+02  0.45594000000E+02  0.51100000000E-03 0. -1.
         11   -1    0    0    0    0 -0.00000000000E+00 -0.00000000000E+00 -0.45593999997E+02  0.45594000000E+02  0.51100000000E-03 0.  1.
    9900012    2    1    2    0    0  0.29340750330E+02 -0.31882108288E+02  0.25049343760E+01  0.47787272413E+02  0.20000006242E+02 0.  0.
         12    1    1    2    0    0 -0.29340750330E+02  0.31882108288E+02 -0.25049343760E+01  0.43400727587E+02  0.00000000000E+00 0. -1.
         11    1    3    3    0    0  0.46994693760E+01  0.61564187239E+00  0.19391079621E+01  0.51209537472E+01  0.51100000000E-03 0. -1.
        -11    1    3    3    0    0  0.25057144292E+02 -0.28570445878E+02 -0.18324678019E+01  0.38045877519E+02  0.51100000000E-03 0.  1.
        -12    1    3    3    0    0 -0.41586333793E+00 -0.39273042827E+01  0.23982942158E+01  0.46204411467E+01  0.00000000000E+00 0.  1.
</event>
<event>
 7    1  0.5504027E-010  0.4778727E+02  0.7816164E-02  0.1312668E+00
        -11   -1    0    0    0    0  0.00000000000E+00  0.00000000000E+00  0.45593999997E+02  0.45594000000E+02  0.51100000000E-03 0. -1.
         11   -1    0    0    0    0 -0.00000000000E+00 -0.00000000000E+00 -0.45593999997E+02  0.45594000000E+02  0.51100000000E-03 0.  1.
    9900012    2    1    2    0    0  0.21802392263E+02  0.35904423657E+02 -0.10915645659E+02  0.47787271127E+02  0.20000000377E+02 0.  0.
         12    1    1    2    0    0 -0.21802392263E+02 -0.35904423657E+02  0.10915645659E+02  0.43400728873E+02  0.00000000000E+00 0. -1.
         11    1    3    3    0    0 -0.11104167594E+01 -0.12184946843E+01  0.72695201374E+00  0.18017253305E+01  0.51100000000E-03 0. -1.
        -11    1    3    3    0    0  0.15674694525E+02  0.17378939290E+02 -0.72719568836E+01  0.24507242530E+02  0.51100000000E-03 0.  1.
         12    1    3    3    0    0  0.72381144979E+01  0.19743979052E+02 -0.43706407889E+01  0.21478303266E+02  0.00000000000E+00 0. -1.
</event>
<event>
 7    1  0.5504027E-010  0.4778728E+02  0.7816164E-02  0.1312668E+00
        -11   -1    0    0    0    0  0.00000000000E+00  0.00000000000E+00  0.45593999997E+02  0.45594000000E+02  0.51100000000E-03 0.  1.
         11   -1    0    0    0    0 -0.00000000000E+00 -0.00000000000E+00 -0.45593999997E+02  0.45594000000E+02  0.51100000000E-03 0. -1.
    9900012    2    1    2    0    0 -0.29044263135E+02  0.26019521722E+02  0.19053559173E+02  0.47787275941E+02  0.20000022327E+02 0.  0.
         12    1    1    2    0    0  0.29044263135E+02 -0.26019521722E+02 -0.19053559173E+02  0.43400724059E+02  0.00000000000E+00 0. -1.
         11    1    3    3    0    0  0.82200906806E+00  0.20581756573E+01 -0.14421381117E+01  0.26441536526E+01  0.51100000000E-03 0. -1.
        -11    1    3    3    0    0 -0.20022251108E+02  0.82154713290E+01  0.11538299986E+02  0.24525840973E+02  0.51100000000E-03 0.  1.
        -12    1    3    3    0    0 -0.98440210949E+01  0.15745874735E+02  0.89573972986E+01  0.20617281316E+02  0.00000000000E+00 0.  1.
</event>
<event>
 7    1  0.5504027E-010  0.4778727E+02  0.7816164E-02  0.1312668E+00
        -11   -1    0    0    0    0  0.00000000000E+00  0.00000000000E+00  0.45593999997E+02  0.45594000000E+02  0.51100000000E-03 0. -1.
         11   -1    0    0    0    0 -0.00000000000E+00 -0.00000000000E+00 -0.45593999997E+02  0.45594000000E+02  0.51100000000E-03 0.  1.
    9900012    2    1    2    0    0 -0.60623243840E+01  0.24389423429E+02 -0.35384001710E+02  0.47787270408E+02  0.19999997096E+02 0.  0.
         12    1    1    2    0    0  0.60623243840E+01 -0.24389423429E+02  0.35384001710E+02  0.43400729592E+02  0.00000000000E+00 0. -1.
         11    1    3    3    0    0  0.13934239617E+01  0.14694575840E+00 -0.11420133257E+02  0.11505766696E+02  0.51100000000E-03 0. -1.
        -11    1    3    3    0    0 -0.91714660144E+00  0.16632140665E+02 -0.11317683256E+02  0.20138500826E+02  0.51100000000E-03 0.  1.
         12    1    3    3    0    0 -0.65386017443E+01  0.76103370056E+01 -0.12646185197E+02  0.16143002885E+02  0.00000000000E+00 0. -1.
</event>
<event>
 7    1  0.5504027E-010  0.4778727E+02  0.7816164E-02  0.1312668E+00
        -11   -1    0    0    0    0  0.00000000000E+00  0.00000000000E+00  0.45593999997E+02  0.45594000000E+02  0.51100000000E-03 0.  1.
         11   -1    0    0    0    0 -0.00000000000E+00 -0.00000000000E+00 -0.45593999997E+02  0.45594000000E+02  0.51100000000E-03 0. -1.
    9900012    2    1    2    0    0  0.28643432569E+02  0.32563808259E+02 -0.16659706124E+01  0.47787270792E+02  0.19999998851E+02 0.  0.
         12    1    1    2    0    0 -0.28643432569E+02 -0.32563808259E+02  0.16659706124E+01  0.43400729208E+02  0.00000000000E+00 0. -1.
         11    1    3    3    0    0 -0.96499451894E+00 -0.10874935998E+01  0.10023652701E+01  0.17659538915E+01  0.51100000000E-03 0. -1.
        -11    1    3    3    0    0  0.14328904174E+02  0.21486003600E+02 -0.51473865893E+01  0.26333655927E+02  0.51100000000E-03 0.  1.
        -12    1    3    3    0    0  0.15279522914E+02  0.12165298259E+02  0.24790507069E+01  0.19687660974E+02  0.00000000000E+00 0.  1.
</event>
<event>
 7    1  0.5504027E-010  0.4778728E+02  0.7816164E-02  0.1312668E+00
        -11   -1    0    0    0    0  0.00000000000E+00  0.00000000000E+00  0.45593999997E+02  0.45594000000E+02  0.51100000000E-03 0.  1.
         11   -1    0    0    0    0 -0.00000000000E+00 -0.00000000000E+00 -0.45593999997E+02  0.45594000000E+02  0.51100000000E-03 0. -1.
    9900012    2    1    2    0    0 -0.19416729451E+02  0.10409322834E+02  0.37393306396E+02  0.47787277106E+02  0.20000027638E+02 0.  0.
         12    1    1    2    0    0  0.19416729451E+02 -0.10409322834E+02 -0.37393306396E+02  0.43400722894E+02  0.00000000000E+00 0. -1.
         11    1    3    3    0    0 -0.10498143587E+02 -0.34001764013E+01  0.15352441869E+02  0.18906868856E+02  0.51100000000E-03 0. -1.
        -11    1    3    3    0    0 -0.91676377129E+01  0.14024172497E+02  0.22658726164E+02  0.28180505090E+02  0.51100000000E-03 0.  1.
        -12    1    3    3    0    0  0.24905184900E+00 -0.21467326177E+00 -0.61786163634E+00  0.69990316078E+00  0.00000000000E+00 0.  1.
</event>
<event>
 7    1  0.5504027E-010  0.4778727E+02  0.7816164E-02  0.1312668E+00
        -11   -1    0    0    0    0  0.00000000000E+00  0.00000000000E+00  0.45593999997E+02  0.45594000000E+02  0.51100000000E-03 0.  1.
         11   -1    0    0    0    0 -0.00000000000E+00 -0.00000000000E+00 -0.45593999997E+02  0.45594000000E+02  0.51100000000E-03 0. -1.
    9900012    2    1    2    0    0  0.14622995285E+02 -0.34702724180E+02  0.21575732654E+02  0.47787270788E+02  0.19999998829E+02 0.  0.
         12    1    1    2    0    0 -0.14622995285E+02  0.34702724180E+02 -0.21575732654E+02  0.43400729212E+02  0.00000000000E+00 0. -1.
         11    1    3    3    0    0  0.87708877409E+01 -0.30470638574E+01  0.32412484709E+01  0.98345697326E+01  0.51100000000E-03 0. -1.
        -11    1    3    3    0    0 -0.29343828946E+00 -0.10029575468E+02  0.94348699368E+01  0.13772990274E+02  0.51100000000E-03 0.  1.
         12    1    3    3    0    0  0.61455458334E+01 -0.21626084855E+02  0.88996142459E+01  0.24179710781E+02  0.00000000000E+00 0. -1.
</event>
<event>
 7    1  0.5504027E-010  0.4778727E+02  0.7816164E-02  0.1312668E+00
        -11   -1    0    0    0    0  0.00000000000E+00  0.00000000000E+00  0.45593999997E+02  0.45594000000E+02  0.51100000000E-03 0.  1.
         11   -1    0    0    0    0 -0.00000000000E+00 -0.00000000000E+00 -0.45593999997E+02  0.45594000000E+02  0.51100000000E-03 0. -1.
    9900012    2    1    2    0    0 -0.18130298871E+02  0.27311456246E+02  0.28442924049E+02  0.47787270653E+02  0.19999998214E+02 0.  0.
         12    1    1    2    0    0  0.18130298871E+02 -0.27311456246E+02 -0.28442924049E+02  0.43400729347E+02  0.00000000000E+00 0. -1.
         11    1    3    3    0    0 -0.15337443470E+01  0.13624580915E+02  0.29862673746E+01  0.14032083592E+02  0.51100000000E-03 0. -1.
        -11    1    3    3    0    0 -0.15686627348E+02  0.11222934517E+02  0.20511403733E+02  0.28155678292E+02  0.51100000000E-03 0.  1.
        -12    1    3    3    0    0 -0.90992717620E+00  0.24639408132E+01  0.49452529415E+01  0.55995087689E+01  0.00000000000E+00 0.  1.
</event>
<event>
 7    1  0.5504027E-010  0.4778727E+02  0.7816164E-02  0.1312668E+00
        -11   -1    0    0    0    0  0.00000000000E+00  0.00000000000E+00  0.45593999997E+02  0.45594000000E+02  0.51100000000E-03 0. -1.
         11   -1    0    0    0    0 -0.00000000000E+00 -0.00000000000E+00 -0.45593999997E+02  0.45594000000E+02  0.51100000000E-03 0.  1.
    9900012    2    1    2    0    0  0.28686339326E+01  0.43185002219E+02 -0.32326623299E+01  0.47787267483E+02  0.19999983762E+02 0.  0.
         12    1    1    2    0    0 -0.28686339326E+01 -0.43185002219E+02  0.32326623299E+01  0.43400732517E+02  0.00000000000E+00 0. -1.
         11    1    3    3    0    0  0.79945930295E+01  0.35335583735E+02  0.14949648501E+01  0.36259507936E+02  0.51100000000E-03 0. -1.
        -11    1    3    3    0    0 -0.69829004980E+00  0.34779164289E+01 -0.38650839203E+01  0.52461781948E+01  0.51100000000E-03 0.  1.
         12    1    3    3    0    0 -0.44276690471E+01  0.43715020546E+01 -0.86254325964E+00  0.62815813518E+01  0.00000000000E+00 0. -1.
</event>
<event>
 7    1  0.5504027E-010  0.4778727E+02  0.7816164E-02  0.1312668E+00
        -11   -1    0    0    0    0  0.00000000000E+00  0.00000000000E+00  0.45593999997E+02  0.45594000000E+02  0.51100000000E-03 0.  1.
         11   -1    0    0    0    0 -0.00000000000E+00 -0.00000000000E+00 -0.45593999997E+02  0.45594000000E+02  0.51100000000E-03 0. -1.
    9900012    2    1    2    0    0  0.23432618646E+02 -0.28844042875E+01  0.36417247076E+02  0.47787270866E+02  0.19999999188E+02 0.  0.
         12    1    1    2    0    0 -0.23432618646E+02  0.28844042875E+01 -0.36417247076E+02  0.43400729134E+02  0.00000000000E+00 0. -1.
         11    1    3    3    0    0  0.38072183340E+01  0.50668620623E+00 -0.65355147576E+00  0.38959943720E+01  0.51100000000E-03 0. -1.
        -11    1    3    3    0    0  0.20940154739E+02 -0.32969826690E+01  0.30212063721E+02  0.36907031440E+02  0.51100000000E-03 0.  1.
        -12    1    3    3    0    0 -0.13147544267E+01 -0.94107824783E-01  0.68587348317E+01  0.69842450541E+01  0.00000000000E+00 0.  1.
</event>
<event>
 7    1  0.5504027E-010  0.4778727E+02  0.7816164E-02  0.1312668E+00
        -11   -1    0    0    0    0  0.00000000000E+00  0.00000000000E+00  0.45593999997E+02  0.45594000000E+02  0.51100000000E-03 0.  1.
         11   -1    0    0    0    0 -0.00000000000E+00 -0.00000000000E+00 -0.45593999997E+02  0.45594000000E+02  0.51100000000E-03 0. -1.
    9900012    2    1    2    0    0 -0.32625609181E+02  0.28621494759E+02  0.55425781287E-01  0.47787269492E+02  0.19999992920E+02 0.  0.
         12    1    1    2    0    0  0.32625609181E+02 -0.28621494759E+02 -0.55425781287E-01  0.43400730508E+02  0.00000000000E+00 0. -1.
         11    1    3    3    0    0 -0.24989533978E+02  0.22515042327E+02  0.22226761538E+01  0.33709705264E+02  0.51100000000E-03 0.  1.
        -11    1    3    3    0    0 -0.22848653630E+01 -0.27210207850E+01 -0.98627453143E+00  0.36874519050E+01  0.51100000000E-03 0. -1.
         12    1    3    3    0    0 -0.53512098400E+01  0.88274732163E+01 -0.11809758411E+01  0.10390112322E+02  0.00000000000E+00 0. -1.
</event>
<event>
 7    1  0.5504027E-010  0.4778727E+02  0.7816164E-02  0.1312668E+00
        -11   -1    0    0    0    0  0.00000000000E+00  0.00000000000E+00  0.45593999997E+02  0.45594000000E+02  0.51100000000E-03 0.  1.
         11   -1    0    0    0    0 -0.00000000000E+00 -0.00000000000E+00 -0.45593999997E+02  0.45594000000E+02  0.51100000000E-03 0. -1.
    9900012    2    1    2    0    0  0.11667426752E+02  0.41701853217E+02 -0.29069282149E+01  0.47787266822E+02  0.19999980747E+02 0.  0.
         12    1    1    2    0    0 -0.11667426752E+02 -0.41701853217E+02  0.29069282149E+01  0.43400733178E+02  0.00000000000E+00 0. -1.
         11    1    3    3    0    0 -0.15427794055E+01  0.45491567748E+01  0.41338311005E+01  0.63374723261E+01  0.51100000000E-03 0. -1.
        -11    1    3    3    0    0  0.99623482062E+01  0.33522172406E+02 -0.29620065268E+01  0.35096408755E+02  0.51100000000E-03 0.  1.
         12    1    3    3    0    0  0.32478579518E+01  0.36305240362E+01 -0.40787527886E+01  0.63533857401E+01  0.00000000000E+00 0. -1.
</event>
<event>
 7    1  0.5504027E-010  0.4778731E+02  0.7816164E-02  0.1312668E+00
        -11   -1    0    0    0    0  0.00000000000E+00  0.00000000000E+00  0.45593999997E+02  0.45594000000E+02  0.51100000000E-03 0.  1.
         11   -1    0    0    0    0 -0.00000000000E+00 -0.00000000000E+00 -0.45593999997E+02  0.45594000000E+02  0.51100000000E-03 0. -1.
    9900012    2    1    2    0    0  0.38688531631E+02 -0.72788420344E+01  0.18271179735E+02  0.47787308415E+02  0.20000170388E+02 0.  0.
         12    1    1    2    0    0 -0.38688531631E+02  0.72788420344E+01 -0.18271179735E+02  0.43400691585E+02  0.00000000000E+00 0. -1.
         11    1    3    3    0    0  0.17646813105E+02  0.40578006719E+01  0.13913503912E+01  0.18160716264E+02  0.51100000000E-03 0. -1.
        -11    1    3    3    0    0  0.70307195543E+01 -0.45154202454E+01  0.85570935294E+01  0.11960095626E+02  0.51100000000E-03 0.  1.
        -12    1    3    3    0    0  0.14010998972E+02 -0.68212224609E+01  0.83227358141E+01  0.17666496526E+02  0.00000000000E+00 0.  1.
</event>
<event>
 7    1  0.5504027E-010  0.4778726E+02  0.7816164E-02  0.1312668E+00
        -11   -1    0    0    0    0  0.00000000000E+00  0.00000000000E+00  0.45593999997E+02  0.45594000000E+02  0.51100000000E-03 0. -1.
         11   -1    0    0    0    0 -0.00000000000E+00 -0.00000000000E+00 -0.45593999997E+02  0.45594000000E+02  0.51100000000E-03 0.  1.
    9900012    2    1    2    0    0 -0.43108936030E+02  0.48447316681E+01  0.13312717362E+01  0.47787261815E+02  0.19999957917E+02 0.  0.
         12    1    1    2    0    0  0.43108936030E+02 -0.48447316681E+01 -0.13312717362E+01  0.43400738185E+02  0.00000000000E+00 0. -1.
         11    1    3    3    0    0 -0.27189665654E+01  0.25567201167E+01  0.56514181386E+00  0.37747824401E+01  0.51100000000E-03 0. -1.
        -11    1    3    3    0    0 -0.13629996579E+02 -0.45430602329E+01  0.65587177332E+01  0.15793447425E+02  0.51100000000E-03 0.  1.
        -12    1    3    3    0    0 -0.26759972886E+02  0.68310717843E+01 -0.57925878108E+01  0.28219031949E+02  0.00000000000E+00 0.  1.
</event>
<event>
 7    1  0.5504027E-010  0.4778727E+02  0.7816164E-02  0.1312668E+00
        -11   -1    0    0    0    0  0.00000000000E+00  0.00000000000E+00  0.45593999997E+02  0.45594000000E+02  0.51100000000E-03 0.  1.
         11   -1    0    0    0    0 -0.00000000000E+00 -0.00000000000E+00 -0.45593999997E+02  0.45594000000E+02  0.51100000000E-03 0. -1.
    9900012    2    1    2    0    0 -0.98016930712E+00  0.38625981962E+02  0.19766035971E+02  0.47787269679E+02  0.19999993774E+02 0.  0.
         12    1    1    2    0    0  0.98016930712E+00 -0.38625981962E+02 -0.19766035971E+02  0.43400730321E+02  0.00000000000E+00 0. -1.
         11    1    3    3    0    0  0.29655608932E+01  0.12006814087E+02  0.15646062091E+02  0.19943856076E+02  0.51100000000E-03 0. -1.
        -11    1    3    3    0    0 -0.32379155654E+01  0.20199212490E+02  0.55190242771E+00  0.20464527334E+02  0.51100000000E-03 0.  1.
        -12    1    3    3    0    0 -0.70781463501E+00  0.64199553844E+01  0.35680714514E+01  0.73788862695E+01  0.00000000000E+00 0.  1.
</event>
<event>
 7    1  0.5504027E-010  0.4778727E+02  0.7816164E-02  0.1312668E+00
        -11   -1    0    0    0    0  0.00000000000E+00  0.00000000000E+00  0.45593999997E+02  0.45594000000E+02  0.51100000000E-03 0.  1.
         11   -1    0    0    0    0 -0.00000000000E+00 -0.00000000000E+00 -0.45593999997E+02  0.45594000000E+02  0.51100000000E-03 0. -1.
    9900012    2    1    2    0    0  0.38056603794E+02 -0.20864223120E+02 -0.50076303794E-01  0.47787269518E+02  0.19999993042E+02 0.  0.
         12    1    1    2    0    0 -0.38056603794E+02  0.20864223120E+02  0.50076303794E-01  0.43400730482E+02  0.00000000000E+00 0. -1.
         11    1    3    3    0    0 -0.12360123764E-01 -0.40069706128E+01 -0.40574881392E+01  0.57025587700E+01  0.51100000000E-03 0. -1.
        -11    1    3    3    0    0  0.44352981693E+01 -0.20861281119E+01 -0.10245828117E+01  0.50073516503E+01  0.51100000000E-03 0.  1.
         12    1    3    3    0    0  0.33633665748E+02 -0.14771124395E+02  0.50319946471E+01  0.37077359098E+02  0.00000000000E+00 0. -1.
</event>
<event>
 7    1  0.5504027E-010  0.4778727E+02  0.7816164E-02  0.1312668E+00
        -11   -1    0    0    0    0  0.00000000000E+00  0.00000000000E+00  0.45593999997E+02  0.45594000000E+02  0.51100000000E-03 0.  1.
         11   -1    0    0    0    0 -0.00000000000E+00 -0.00000000000E+00 -0.45593999997E+02  0.45594000000E+02  0.51100000000E-03 0. -1.
    9900012    2    1    2    0    0  0.14194000546E+02 -0.31746873841E+02  0.25967091083E+02  0.47787268791E+02  0.19999989724E+02 0.  0.
         12    1    1    2    0    0 -0.14194000546E+02  0.31746873841E+02 -0.25967091083E+02  0.43400731209E+02  0.00000000000E+00 0. -1.
         11    1    3    3    0    0 -0.43419031923E+01 -0.29788905102E+01  0.12186128237E+01  0.54047136352E+01  0.51100000000E-03 0. -1.
        -11    1    3    3    0    0  0.11901628369E+02 -0.15705792323E+02  0.15319919225E+02  0.24960380519E+02  0.51100000000E-03 0.  1.
         12    1    3    3    0    0  0.66342753694E+01 -0.13062191008E+02  0.94285590338E+01  0.17422174637E+02  0.00000000000E+00 0. -1.
</event>
<event>
 7    1  0.5504027E-010  0.4778727E+02  0.7816164E-02  0.1312668E+00
        -11   -1    0    0    0    0  0.00000000000E+00  0.00000000000E+00  0.45593999997E+02  0.45594000000E+02  0.51100000000E-03 0. -1.
         11   -1    0    0    0    0 -0.00000000000E+00 -0.00000000000E+00 -0.45593999997E+02  0.45594000000E+02  0.51100000000E-03 0.  1.
    9900012    2    1    2    0    0  0.19836450760E+02 -0.15440009621E+02 -0.35380000899E+02  0.47787272593E+02  0.20000007062E+02 0.  0.
         12    1    1    2    0    0 -0.19836450760E+02  0.15440009621E+02  0.35380000899E+02  0.43400727407E+02  0.00000000000E+00 0. -1.
         11    1    3    3    0    0  0.85012396873E+01  0.27908227760E+01 -0.73215020842E+01  0.11561321768E+02  0.51100000000E-03 0. -1.
        -11    1    3    3    0    0  0.36264050888E+01 -0.73025182265E+01 -0.17068936308E+02  0.18916293856E+02  0.51100000000E-03 0.  1.
         12    1    3    3    0    0  0.77088059839E+01 -0.10928314170E+02 -0.10989562507E+02  0.17309656969E+02  0.00000000000E+00 0. -1.
</event>
<event>
 7    1  0.5504027E-010  0.4778727E+02  0.7816164E-02  0.1312668E+00
        -11   -1    0    0    0    0  0.00000000000E+00  0.00000000000E+00  0.45593999997E+02  0.45594000000E+02  0.51100000000E-03 0.  1.
         11   -1    0    0    0    0 -0.00000000000E+00 -0.00000000000E+00 -0.45593999997E+02  0.45594000000E+02  0.51100000000E-03 0. -1.
    9900012    2    1    2    0    0 -0.19644355812E+01  0.18525528951E+01  0.43316650209E+02  0.47787272532E+02  0.20000006783E+02 0.  0.
         12    1    1    2    0    0  0.19644355812E+01 -0.18525528951E+01 -0.43316650209E+02  0.43400727468E+02  0.00000000000E+00 0. -1.
         11    1    3    3    0    0 -0.83554432846E+01 -0.29312427077E+01  0.16822009231E+02  0.19010144953E+02  0.51100000000E-03 0. -1.
        -11    1    3    3    0    0  0.57258608113E+01  0.20989956406E+00  0.20007946246E+02  0.20812194817E+02  0.51100000000E-03 0.  1.
         12    1    3    3    0    0  0.66514689209E+00  0.45738960387E+01  0.64866947323E+01  0.79649327625E+01  0.00000000000E+00 0. -1.
</event>
<event>
 7    1  0.5504027E-010  0.4778727E+02  0.7816164E-02  0.1312668E+00
        -11   -1    0    0    0    0  0.00000000000E+00  0.00000000000E+00  0.45593999997E+02  0.45594000000E+02  0.51100000000E-03 0.  1.
         11   -1    0    0    0    0 -0.00000000000E+00 -0.00000000000E+00 -0.45593999997E+02  0.45594000000E+02  0.51100000000E-03 0. -1.
    9900012    2    1    2    0    0  0.34186813950E+02  0.25961775201E+02  0.63930844821E+01  0.47787267877E+02  0.19999985556E+02 0.  0.
         12    1    1    2    0    0 -0.34186813950E+02 -0.25961775201E+02 -0.63930844821E+01  0.43400732123E+02  0.00000000000E+00 0. -1.
         11    1    3    3    0    0  0.27986658813E+00  0.51085057137E+00 -0.34512402175E+01  0.35000504158E+01  0.51100000000E-03 0. -1.
        -11    1    3    3    0    0  0.35677429769E+01  0.64794622178E+01  0.16699753068E+01  0.75829439116E+01  0.51100000000E-03 0.  1.
         12    1    3    3    0    0  0.30339204385E+02  0.18971462412E+02  0.81743493929E+01  0.36704273549E+02  0.00000000000E+00 0. -1.
</event>
<event>
 7    1  0.5504027E-010  0.4778727E+02  0.7816164E-02  0.1312668E+00
        -11   -1    0    0    0    0  0.00000000000E+00  0.00000000000E+00  0.45593999997E+02  0.45594000000E+02  0.51100000000E-03 0.  1.
         11   -1    0    0    0    0 -0.00000000000E+00 -0.00000000000E+00 -0.45593999997E+02  0.45594000000E+02  0.51100000000E-03 0. -1.
    9900012    2    1    2    0    0  0.33283271998E+01  0.15566958826E+02  0.40375923750E+02  0.47787272037E+02  0.20000004525E+02 0.  0.
         12    1    1    2    0    0 -0.33283271998E+01 -0.15566958826E+02 -0.40375923750E+02  0.43400727963E+02  0.00000000000E+00 0. -1.
         11    1    3    3    0    0  0.56969401134E+00  0.99714228622E+01  0.31302180896E+02  0.32856968123E+02  0.51100000000E-03 0.  1.
        -11    1    3    3    0    0 -0.49806301730E+00  0.40584794146E+01  0.10335121658E+02  0.11114587796E+02  0.51100000000E-03 0. -1.
         12    1    3    3    0    0  0.32566962058E+01  0.15370565488E+01 -0.12613788026E+01  0.38157161182E+01  0.00000000000E+00 0. -1.
</event>
<event>
 7    1  0.5504027E-010  0.4778727E+02  0.7816164E-02  0.1312668E+00
        -11   -1    0    0    0    0  0.00000000000E+00  0.00000000000E+00  0.45593999997E+02  0.45594000000E+02  0.51100000000E-03 0.  1.
         11   -1    0    0    0    0 -0.00000000000E+00 -0.00000000000E+00 -0.45593999997E+02  0.45594000000E+02  0.51100000000E-03 0. -1.
    9900012    2    1    2    0    0  0.98169535191E+01 -0.38979597277E+02 -0.16365870582E+02  0.47787270741E+02  0.19999998617E+02 0.  0.
         12    1    1    2    0    0 -0.98169535191E+01  0.38979597277E+02  0.16365870582E+02  0.43400729259E+02  0.00000000000E+00 0. -1.
         11    1    3    3    0    0  0.71334792470E+01 -0.21101801280E+02 -0.15492136890E+01  0.22328739479E+02  0.51100000000E-03 0. -1.
        -11    1    3    3    0    0  0.63119106512E+01 -0.12691205311E+02 -0.11816964823E+02  0.18453930915E+02  0.51100000000E-03 0.  1.
         12    1    3    3    0    0 -0.36284363791E+01 -0.51865906860E+01 -0.29996920697E+01  0.70046003465E+01  0.00000000000E+00 0. -1.
</event>
<event>
 7    1  0.5504027E-010  0.4778727E+02  0.7816164E-02  0.1312668E+00
        -11   -1    0    0    0    0  0.00000000000E+00  0.00000000000E+00  0.45593999997E+02  0.45594000000E+02  0.51100000000E-03 0.  1.
         11   -1    0    0    0    0 -0.00000000000E+00 -0.00000000000E+00 -0.45593999997E+02  0.45594000000E+02  0.51100000000E-03 0. -1.
    9900012    2    1    2    0    0 -0.60723518019E+01  0.13372325390E+02  0.40840311519E+02  0.47787267429E+02  0.19999983515E+02 0.  0.
         12    1    1    2    0    0  0.60723518019E+01 -0.13372325390E+02 -0.40840311519E+02  0.43400732571E+02  0.00000000000E+00 0. -1.
         11    1    3    3    0    0  0.18516690425E+00  0.96941438303E+01  0.24072809167E+02  0.25952087639E+02  0.51100000000E-03 0. -1.
        -11    1    3    3    0    0 -0.76025052370E+01 -0.21484073321E+01  0.81935751498E+01  0.11381933664E+02  0.51100000000E-03 0.  1.
        -12    1    3    3    0    0  0.13449865309E+01  0.58265888918E+01  0.85739272026E+01  0.10453246125E+02  0.00000000000E+00 0.  1.
</event>
<event>
 7    1  0.5504027E-010  0.4778727E+02  0.7816164E-02  0.1312668E+00
        -11   -1    0    0    0    0  0.00000000000E+00  0.00000000000E+00  0.45593999997E+02  0.45594000000E+02  0.51100000000E-03 0. -1.
         11   -1    0    0    0    0 -0.00000000000E+00 -0.00000000000E+00 -0.45593999997E+02  0.45594000000E+02  0.51100000000E-03 0.  1.
    9900012    2    1    2    0    0  0.10130741664E+02  0.41706004618E+02 -0.64498554591E+01  0.47787269784E+02  0.19999994252E+02 0.  0.
         12    1    1    2    0    0 -0.10130741664E+02 -0.41706004618E+02  0.64498554591E+01  0.43400730216E+02  0.00000000000E+00 0. -1.
         11    1    3    3    0    0 -0.20055292111E+01  0.20498391673E+01  0.31108022999E+00  0.28845726199E+01  0.51100000000E-03 0. -1.
        -11    1    3    3    0    0  0.16567468916E+01  0.92827956826E+01 -0.85416402189E+01  0.12722999797E+02  0.51100000000E-03 0.  1.
        -12    1    3    3    0    0  0.10479523984E+02  0.30373369768E+02  0.17807045299E+01  0.32179697367E+02  0.00000000000E+00 0.  1.
</event>
<event>
 7    1  0.5504027E-010  0.4778729E+02  0.7816164E-02  0.1312668E+00
        -11   -1    0    0    0    0  0.00000000000E+00  0.00000000000E+00  0.45593999997E+02  0.45594000000E+02  0.51100000000E-03 0. -1.
         11   -1    0    0    0    0 -0.00000000000E+00 -0.00000000000E+00 -0.45593999997E+02  0.45594000000E+02  0.51100000000E-03 0.  1.
    9900012    2    1    2    0    0  0.25780330175E+02 -0.24092399216E+02 -0.25269592640E+02  0.47787292217E+02  0.20000096533E+02 0.  0.
         12    1    1    2    0    0 -0.25780330175E+02  0.24092399216E+02  0.25269592640E+02  0.43400707783E+02  0.00000000000E+00 0. -1.
         11    1    3    3    0    0 -0.24278376958E+01 -0.23277718568E+00 -0.19306189399E+01  0.31106061865E+01  0.51100000000E-03 0. -1.
        -11    1    3    3    0    0  0.23454951485E+02 -0.15621248486E+02 -0.20155459615E+02  0.34646799361E+02  0.51100000000E-03 0.  1.
        -12    1    3    3    0    0  0.47532163855E+01 -0.82383735447E+01 -0.31835140853E+01  0.10029886669E+02  0.00000000000E+00 0.  1.
</event>
<event>
 7    1  0.5504027E-010  0.4778727E+02  0.7816164E-02  0.1312668E+00
        -11   -1    0    0    0    0  0.00000000000E+00  0.00000000000E+00  0.45593999997E+02  0.45594000000E+02  0.51100000000E-03 0. -1.
         11   -1    0    0    0    0 -0.00000000000E+00 -0.00000000000E+00 -0.45593999997E+02  0.45594000000E+02  0.51100000000E-03 0.  1.
    9900012    2    1    2    0    0 -0.34802559914E+01  0.18351470445E+02 -0.39175685524E+02  0.47787274367E+02  0.20000015147E+02 0.  0.
         12    1    1    2    0    0  0.34802559914E+01 -0.18351470445E+02  0.39175685524E+02  0.43400725633E+02  0.00000000000E+00 0. -1.
         11    1    3    3    0    0  0.15761940433E+00  0.69081114134E+01 -0.12261825993E+01  0.70178608710E+01  0.51100000000E-03 0. -1.
        -11    1    3    3    0    0 -0.32507514389E+01  0.20466383288E+01 -0.21332654577E+02  0.21675752926E+02  0.51100000000E-03 0.  1.
        -12    1    3    3    0    0 -0.38712395683E+00  0.93967207024E+01 -0.16616848348E+02  0.19093660569E+02  0.00000000000E+00 0.  1.
</event>
<event>
 7    1  0.5504027E-010  0.4778727E+02  0.7816164E-02  0.1312668E+00
        -11   -1    0    0    0    0  0.00000000000E+00  0.00000000000E+00  0.45593999997E+02  0.45594000000E+02  0.51100000000E-03 0. -1.
         11   -1    0    0    0    0 -0.00000000000E+00 -0.00000000000E+00 -0.45593999997E+02  0.45594000000E+02  0.51100000000E-03 0.  1.
    9900012    2    1    2    0    0  0.85958813750E+01 -0.27788357354E+02 -0.32210885948E+02  0.47787272419E+02  0.20000006265E+02 0.  0.
         12    1    1    2    0    0 -0.85958813750E+01  0.27788357354E+02  0.32210885948E+02  0.43400727581E+02  0.00000000000E+00 0. -1.
         11    1    3    3    0    0 -0.51634364237E+01 -0.15486323941E+02 -0.17418440780E+02  0.23872356071E+02  0.51100000000E-03 0. -1.
        -11    1    3    3    0    0  0.11156796306E+02 -0.98333669295E+01 -0.13549368753E+02  0.20118513932E+02  0.51100000000E-03 0.  1.
         12    1    3    3    0    0  0.26025214929E+01 -0.24686664833E+01 -0.12430764157E+01  0.37964024157E+01  0.00000000000E+00 0. -1.
</event>
<event>
 7    1  0.5504027E-010  0.4778727E+02  0.7816164E-02  0.1312668E+00
        -11   -1    0    0    0    0  0.00000000000E+00  0.00000000000E+00  0.45593999997E+02  0.45594000000E+02  0.51100000000E-03 0.  1.
         11   -1    0    0    0    0 -0.00000000000E+00 -0.00000000000E+00 -0.45593999997E+02  0.45594000000E+02  0.51100000000E-03 0. -1.
    9900012    2    1    2    0    0  0.10374947651E+02  0.97037699150E+01  0.41010004870E+02  0.47787272025E+02  0.20000004471E+02 0.  0.
         12    1    1    2    0    0 -0.10374947651E+02 -0.97037699150E+01 -0.41010004870E+02  0.43400727975E+02  0.00000000000E+00 0. -1.
         11    1    3    3    0    0 -0.17127745338E+00 -0.30502279222E+01  0.49051598905E+01  0.57787386302E+01  0.51100000000E-03 0. -1.
        -11    1    3    3    0    0  0.10838056143E+02  0.74651498193E+01  0.33724646329E+02  0.36201432197E+02  0.51100000000E-03 0.  1.
        -12    1    3    3    0    0 -0.29183103866E+00  0.52888480180E+01  0.23801986501E+01  0.58071011982E+01  0.00000000000E+00 0.  1.
</event>
<event>
 7    1  0.5504027E-010  0.4778728E+02  0.7816164E-02  0.1312668E+00
        -11   -1    0    0    0    0  0.00000000000E+00  0.00000000000E+00  0.45593999997E+02  0.45594000000E+02  0.51100000000E-03 0.  1.
         11   -1    0    0    0    0 -0.00000000000E+00 -0.00000000000E+00 -0.45593999997E+02  0.45594000000E+02  0.51100000000E-03 0. -1.
    9900012    2    1    2    0    0 -0.37215396116E+01 -0.16385372572E+02  0.40016146133E+02  0.47787282923E+02  0.20000054161E+02 0.  0.
         12    1    1    2    0    0  0.37215396116E+01  0.16385372572E+02 -0.40016146133E+02  0.43400717077E+02  0.00000000000E+00 0. -1.
         11    1    3    3    0    0 -0.10037429920E+02 -0.95265905106E+01  0.21831333485E+02  0.25847882857E+02  0.51100000000E-03 0. -1.
        -11    1    3    3    0    0  0.24005606322E+01  0.16417092342E+01  0.46282649459E+01  0.54661446403E+01  0.51100000000E-03 0.  1.
         12    1    3    3    0    0  0.39153296766E+01 -0.85004912957E+01  0.13556547702E+02  0.16473255426E+02  0.00000000000E+00 0. -1.
</event>
<event>
 7    1  0.5504027E-010  0.4778727E+02  0.7816164E-02  0.1312668E+00
        -11   -1    0    0    0    0  0.00000000000E+00  0.00000000000E+00  0.45593999997E+02  0.45594000000E+02  0.51100000000E-03 0.  1.
         11   -1    0    0    0    0 -0.00000000000E+00 -0.00000000000E+00 -0.45593999997E+02  0.45594000000E+02  0.51100000000E-03 0. -1.
    9900012    2    1    2    0    0 -0.40913837817E+02  0.40287998475E+01 -0.13908642777E+02  0.47787266169E+02  0.19999977773E+02 0.  0.
         12    1    1    2    0    0  0.40913837817E+02 -0.40287998475E+01  0.13908642777E+02  0.43400733831E+02  0.00000000000E+00 0. -1.
         11    1    3    3    0    0 -0.94922102087E+01 -0.24548500628E+01  0.21955674014E+01  0.10047330986E+02  0.51100000000E-03 0. -1.
        -11    1    3    3    0    0 -0.29162965056E+02  0.91549323361E+01 -0.13704847693E+02  0.33497972587E+02  0.51100000000E-03 0.  1.
        -12    1    3    3    0    0 -0.22586625525E+01 -0.26712824258E+01 -0.23993624856E+01  0.42419625955E+01  0.00000000000E+00 0.  1.
</event>
<event>
 7    1  0.5504027E-010  0.4778728E+02  0.7816164E-02  0.1312668E+00
        -11   -1    0    0    0    0  0.00000000000E+00  0.00000000000E+00  0.45593999997E+02  0.45594000000E+02  0.51100000000E-03 0. -1.
         11   -1    0    0    0    0 -0.00000000000E+00 -0.00000000000E+00 -0.45593999997E+02  0.45594000000E+02  0.51100000000E-03 0.  1.
    9900012    2    1    2    0    0 -0.28660397267E+02 -0.31589280734E+02 -0.80200839322E+01  0.47787276791E+02  0.20000026200E+02 0.  0.
         12    1    1    2    0    0  0.28660397267E+02  0.31589280734E+02  0.80200839322E+01  0.43400723209E+02  0.00000000000E+00 0. -1.
         11    1    3    3    0    0 -0.25854826208E+01 -0.24112397141E+00 -0.43418077252E+01  0.50590666862E+01  0.51100000000E-03 0. -1.
        -11    1    3    3    0    0 -0.24756668458E+02 -0.28874623371E+02  0.86323513537E-01  0.38034773037E+02  0.51100000000E-03 0.  1.
        -12    1    3    3    0    0 -0.13182461882E+01 -0.24735333909E+01 -0.37645997206E+01  0.46934370673E+01  0.00000000000E+00 0.  1.
</event>
<event>
 7    1  0.5504027E-010  0.4778727E+02  0.7816164E-02  0.1312668E+00
        -11   -1    0    0    0    0  0.00000000000E+00  0.00000000000E+00  0.45593999997E+02  0.45594000000E+02  0.51100000000E-03 0.  1.
         11   -1    0    0    0    0 -0.00000000000E+00 -0.00000000000E+00 -0.45593999997E+02  0.45594000000E+02  0.51100000000E-03 0. -1.
    9900012    2    1    2    0    0 -0.15624168015E+01  0.40341125017E+02  0.15930349931E+02  0.47787267716E+02  0.19999984823E+02 0.  0.
         12    1    1    2    0    0  0.15624168015E+01 -0.40341125017E+02 -0.15930349931E+02  0.43400732284E+02  0.00000000000E+00 0. -1.
         11    1    3    3    0    0  0.42611508035E+00  0.76913206215E+01  0.84409153130E+01  0.11427468598E+02  0.51100000000E-03 0. -1.
        -11    1    3    3    0    0  0.18267063799E+00  0.30087960835E+02  0.22969985149E+01  0.30176065983E+02  0.51100000000E-03 0.  1.
        -12    1    3    3    0    0 -0.21712025198E+01  0.25618435607E+01  0.51924361026E+01  0.61837331355E+01  0.00000000000E+00 0.  1.
</event>
<event>
 7    1  0.5504027E-010  0.4778727E+02  0.7816164E-02  0.1312668E+00
        -11   -1    0    0    0    0  0.00000000000E+00  0.00000000000E+00  0.45593999997E+02  0.45594000000E+02  0.51100000000E-03 0. -1.
         11   -1    0    0    0    0 -0.00000000000E+00 -0.00000000000E+00 -0.45593999997E+02  0.45594000000E+02  0.51100000000E-03 0.  1.
    9900012    2    1    2    0    0 -0.11902112061E+02  0.35974525463E+02 -0.21161203130E+02  0.47787271070E+02  0.20000000116E+02 0.  0.
         12    1    1    2    0    0  0.11902112061E+02 -0.35974525463E+02  0.21161203130E+02  0.43400728930E+02  0.00000000000E+00 0. -1.
         11    1    3    3    0    0 -0.51730800869E+01  0.37194864196E+00 -0.16873048783E+01  0.54539986607E+01  0.51100000000E-03 0. -1.
        -11    1    3    3    0    0 -0.38618526115E+01  0.33826888105E+02 -0.16488045383E+02  0.37828929476E+02  0.51100000000E-03 0.  1.
        -12    1    3    3    0    0 -0.28671793623E+01  0.17756887154E+01 -0.29858528681E+01  0.45043429332E+01  0.00000000000E+00 0.  1.
</event>
<event>
 7    1  0.5504027E-010  0.4778727E+02  0.7816164E-02  0.1312668E+00
        -11   -1    0    0    0    0  0.00000000000E+00  0.00000000000E+00  0.45593999997E+02  0.45594000000E+02  0.51100000000E-03 0.  1.
         11   -1    0    0    0    0 -0.00000000000E+00 -0.00000000000E+00 -0.45593999997E+02  0.45594000000E+02  0.51100000000E-03 0. -1.
    9900012    2    1    2    0    0  0.12940209040E+02  0.27576827533E+02  0.30914284513E+02  0.47787269433E+02  0.19999992654E+02 0.  0.
         12    1    1    2    0    0 -0.12940209040E+02 -0.27576827533E+02 -0.30914284513E+02  0.43400730567E+02  0.00000000000E+00 0. -1.
         11    1    3    3    0    0  0.97150197121E+01  0.50484194893E+01  0.52526963621E+01  0.12143268369E+02  0.51100000000E-03 0. -1.
        -11    1    3    3    0    0  0.61757206729E+01  0.19656395858E+02  0.21867167998E+02  0.30044740979E+02  0.51100000000E-03 0.  1.
         12    1    3    3    0    0 -0.29505313447E+01  0.28720121858E+01  0.37944201521E+01  0.55992600852E+01  0.00000000000E+00 0. -1.
</event>
<event>
 7    1  0.5504027E-010  0.4778727E+02  0.7816164E-02  0.1312668E+00
        -11   -1    0    0    0    0  0.00000000000E+00  0.00000000000E+00  0.45593999997E+02  0.45594000000E+02  0.51100000000E-03 0. -1.
         11   -1    0    0    0    0 -0.00000000000E+00 -0.00000000000E+00 -0.45593999997E+02  0.45594000000E+02  0.51100000000E-03 0.  1.
    9900012    2    1    2    0    0  0.29551258397E+02 -0.11261577031E+02  0.29724126808E+02  0.47787266083E+02  0.19999977379E+02 0.  0.
         12    1    1    2    0    0 -0.29551258397E+02  0.11261577031E+02 -0.29724126808E+02  0.43400733917E+02  0.00000000000E+00 0. -1.
         11    1    3    3    0    0  0.76328638052E+01 -0.64690404636E+01  0.12146599505E+02  0.15736866721E+02  0.51100000000E-03 0. -1.
        -11    1    3    3    0    0  0.20582873228E+02 -0.15325535871E+01  0.19183947379E+02  0.28178488748E+02  0.51100000000E-03 0.  1.
        -12    1    3    3    0    0  0.13355213630E+01 -0.32599829806E+01 -0.16064200762E+01  0.38719106144E+01  0.00000000000E+00 0.  1.
</event>
<event>
 7    1  0.5504027E-010  0.4778727E+02  0.7816164E-02  0.1312668E+00
        -11   -1    0    0    0    0  0.00000000000E+00  0.00000000000E+00  0.45593999997E+02  0.45594000000E+02  0.51100000000E-03 0.  1.
         11   -1    0    0    0    0 -0.00000000000E+00 -0.00000000000E+00 -0.45593999997E+02  0.45594000000E+02  0.51100000000E-03 0. -1.
    9900012    2    1    2    0    0 -0.14139624602E+02 -0.92519584010E+00  0.41022415779E+02  0.47787267661E+02  0.19999984574E+02 0.  0.
         12    1    1    2    0    0  0.14139624602E+02  0.92519584010E+00 -0.41022415779E+02  0.43400732339E+02  0.00000000000E+00 0. -1.
         11    1    3    3    0    0  0.32245061951E+00  0.65155274308E+01  0.70983406634E+01  0.96406697143E+01  0.51100000000E-03 0. -1.
        -11    1    3    3    0    0 -0.79294570094E+01 -0.71775533963E+01  0.23830361571E+02  0.26120484186E+02  0.51100000000E-03 0.  1.
         12    1    3    3    0    0 -0.65326182123E+01 -0.26316987463E+00  0.10093713544E+02  0.12026113761E+02  0.00000000000E+00 0. -1.
</event>
<event>
 7    1  0.5504027E-010  0.4778727E+02  0.7816164E-02  0.1312668E+00
        -11   -1    0    0    0    0  0.00000000000E+00  0.00000000000E+00  0.45593999997E+02  0.45594000000E+02  0.51100000000E-03 0.  1.
         11   -1    0    0    0    0 -0.00000000000E+00 -0.00000000000E+00 -0.45593999997E+02  0.45594000000E+02  0.51100000000E-03 0. -1.
    9900012    2    1    2    0    0  0.15354938242E+02  0.70660039794E+01  0.39973999179E+02  0.47787272459E+02  0.20000006452E+02 0.  0.
         12    1    1    2    0    0 -0.15354938242E+02 -0.70660039794E+01 -0.39973999179E+02  0.43400727541E+02  0.00000000000E+00 0. -1.
         11    1    3    3    0    0  0.60344764685E+01  0.66109121172E+01  0.29632842337E+01  0.94286859626E+01  0.51100000000E-03 0. -1.
        -11    1    3    3    0    0  0.49361613299E+01  0.14135900840E+01  0.25334863616E+02  0.25849936950E+02  0.51100000000E-03 0.  1.
         12    1    3    3    0    0  0.43843004437E+01 -0.95849822173E+00  0.11675851330E+02  0.12508649547E+02  0.00000000000E+00 0. -1.
</event>
<event>
 7    1  0.5504027E-010  0.4778727E+02  0.7816164E-02  0.1312668E+00
        -11   -1    0    0    0    0  0.00000000000E+00  0.00000000000E+00  0.45593999997E+02  0.45594000000E+02  0.51100000000E-03 0. -1.
         11   -1    0    0    0    0 -0.00000000000E+00 -0.00000000000E+00 -0.45593999997E+02  0.45594000000E+02  0.51100000000E-03 0.  1.
    9900012    2    1    2    0    0  0.38774776971E+02 -0.25392801431E+01 -0.19331119452E+02  0.47787268992E+02  0.19999990641E+02 0.  0.
         12    1    1    2    0    0 -0.38774776971E+02  0.25392801431E+01  0.19331119452E+02  0.43400731008E+02  0.00000000000E+00 0. -1.
         11    1    3    3    0    0 -0.19168466711E+01  0.88393966571E+00 -0.20187572087E+01  0.29207929441E+01  0.51100000000E-03 0. -1.
        -11    1    3    3    0    0  0.24883743572E+02 -0.53933910217E+01 -0.10700416873E+02  0.27618622021E+02  0.51100000000E-03 0.  1.
        -12    1    3    3    0    0  0.15807880071E+02  0.19701712129E+01 -0.66119453702E+01  0.17247854026E+02  0.00000000000E+00 0.  1.
</event>
<event>
 7    1  0.5504027E-010  0.4778727E+02  0.7816164E-02  0.1312668E+00
        -11   -1    0    0    0    0  0.00000000000E+00  0.00000000000E+00  0.45593999997E+02  0.45594000000E+02  0.51100000000E-03 0.  1.
         11   -1    0    0    0    0 -0.00000000000E+00 -0.00000000000E+00 -0.45593999997E+02  0.45594000000E+02  0.51100000000E-03 0. -1.
    9900012    2    1    2    0    0  0.38215634827E+02 -0.17814845990E+02 -0.10286887652E+02  0.47787267973E+02  0.19999985995E+02 0.  0.
         12    1    1    2    0    0 -0.38215634827E+02  0.17814845990E+02  0.10286887652E+02  0.43400732027E+02  0.00000000000E+00 0. -1.
         11    1    3    3    0    0 -0.39372745782E+00 -0.71909753836E+00  0.10200216285E+01  0.13086508184E+01  0.51100000000E-03 0. -1.
        -11    1    3    3    0    0  0.17560292472E+02 -0.93318710104E+01  0.26419480744E+01  0.20060597651E+02  0.51100000000E-03 0.  1.
        -12    1    3    3    0    0  0.21049069814E+02 -0.77638774416E+01 -0.13948857355E+02  0.26418019503E+02  0.00000000000E+00 0.  1.
</event>
<event>
 7    1  0.5504027E-010  0.4778726E+02  0.7816164E-02  0.1312668E+00
        -11   -1    0    0    0    0  0.00000000000E+00  0.00000000000E+00  0.45593999997E+02  0.45594000000E+02  0.51100000000E-03 0.  1.
         11   -1    0    0    0    0 -0.00000000000E+00 -0.00000000000E+00 -0.45593999997E+02  0.45594000000E+02  0.51100000000E-03 0. -1.
    9900012    2    1    2    0    0  0.11719957451E+02 -0.11604545615E+02  0.40144759339E+02  0.47787255952E+02  0.19999931186E+02 0.  0.
         12    1    1    2    0    0 -0.11719957451E+02  0.11604545615E+02 -0.40144759339E+02  0.43400744048E+02  0.00000000000E+00 0. -1.
         11    1    3    3    0    0 -0.14931149229E+01 -0.63303447262E+01  0.27332547932E+02  0.28095744041E+02  0.51100000000E-03 0. -1.
        -11    1    3    3    0    0  0.10444968301E+02 -0.23644223392E+01  0.76981503748E+01  0.13188986893E+02  0.51100000000E-03 0.  1.
         12    1    3    3    0    0  0.27681040723E+01 -0.29097785492E+01  0.51140610325E+01  0.65025250176E+01  0.00000000000E+00 0. -1.
</event>
<event>
 7    1  0.5504027E-010  0.4778727E+02  0.7816164E-02  0.1312668E+00
        -11   -1    0    0    0    0  0.00000000000E+00  0.00000000000E+00  0.45593999997E+02  0.45594000000E+02  0.51100000000E-03 0.  1.
         11   -1    0    0    0    0 -0.00000000000E+00 -0.00000000000E+00 -0.45593999997E+02  0.45594000000E+02  0.51100000000E-03 0. -1.
    9900012    2    1    2    0    0 -0.31437452335E+00  0.40049866629E+02  0.16719233773E+02  0.47787269289E+02  0.19999991996E+02 0.  0.
         12    1    1    2    0    0  0.31437452335E+00 -0.40049866629E+02 -0.16719233773E+02  0.43400730711E+02  0.00000000000E+00 0. -1.
         11    1    3    3    0    0  0.26856809654E+01  0.17887986808E+02  0.14250324983E+02  0.23027477427E+02  0.51100000000E-03 0. -1.
        -11    1    3    3    0    0 -0.23499920391E+01  0.27009495582E+01  0.38271736011E+01  0.52406916656E+01  0.51100000000E-03 0.  1.
         12    1    3    3    0    0 -0.65006344960E+00  0.19460930262E+02 -0.13582648108E+01  0.19519100196E+02  0.00000000000E+00 0. -1.
</event>
<event>
 7    1  0.5504027E-010  0.4778727E+02  0.7816164E-02  0.1312668E+00
        -11   -1    0    0    0    0  0.00000000000E+00  0.00000000000E+00  0.45593999997E+02  0.45594000000E+02  0.51100000000E-03 0.  1.
         11   -1    0    0    0    0 -0.00000000000E+00 -0.00000000000E+00 -0.45593999997E+02  0.45594000000E+02  0.51100000000E-03 0. -1.
    9900012    2    1    2    0    0  0.26458946996E+02 -0.30176943529E+02  0.16519668554E+02  0.47787271366E+02  0.20000001464E+02 0.  0.
         12    1    1    2    0    0 -0.26458946996E+02  0.30176943529E+02 -0.16519668554E+02  0.43400728634E+02  0.00000000000E+00 0. -1.
         11    1    3    3    0    0  0.40073898192E+01 -0.15370464761E+02  0.67689774896E+01  0.17266424547E+02  0.51100000000E-03 0. -1.
        -11    1    3    3    0    0  0.21097589058E+01 -0.50409655563E+01  0.51152394814E+01  0.74851914867E+01  0.51100000000E-03 0.  1.
         12    1    3    3    0    0  0.20341798271E+02 -0.97655132118E+01  0.46354515827E+01  0.23035655331E+02  0.00000000000E+00 0. -1.
</event>
<event>
 7    1  0.5504027E-010  0.4778727E+02  0.7816164E-02  0.1312668E+00
        -11   -1    0    0    0    0  0.00000000000E+00  0.00000000000E+00  0.45593999997E+02  0.45594000000E+02  0.51100000000E-03 0.  1.
         11   -1    0    0    0    0 -0.00000000000E+00 -0.00000000000E+00 -0.45593999997E+02  0.45594000000E+02  0.51100000000E-03 0. -1.
    9900012    2    1    2    0    0  0.18824920829E+02  0.38213158361E+02  0.83066350071E+01  0.47787270728E+02  0.19999998559E+02 0.  0.
         12    1    1    2    0    0 -0.18824920829E+02 -0.38213158361E+02 -0.83066350071E+01  0.43400729272E+02  0.00000000000E+00 0. -1.
         11    1    3    3    0    0 -0.12342667094E+01  0.11327741330E+02  0.83956295107E+01  0.14153717995E+02  0.51100000000E-03 0. -1.
        -11    1    3    3    0    0  0.91308838905E+01  0.10421228501E+02 -0.56181958623E+00  0.13866891707E+02  0.51100000000E-03 0.  1.
         12    1    3    3    0    0  0.10928303648E+02  0.16464188530E+02  0.47282508260E+00  0.19766661026E+02  0.00000000000E+00 0. -1.
</event>
<event>
 7    1  0.5504027E-010  0.4778727E+02  0.7816164E-02  0.1312668E+00
        -11   -1    0    0    0    0  0.00000000000E+00  0.00000000000E+00  0.45593999997E+02  0.45594000000E+02  0.51100000000E-03 0. -1.
         11   -1    0    0    0    0 -0.00000000000E+00 -0.00000000000E+00 -0.45593999997E+02  0.45594000000E+02  0.51100000000E-03 0.  1.
    9900012    2    1    2    0    0 -0.33569296222E+02 -0.21702789992E+02 -0.16903096053E+02  0.47787269610E+02  0.19999993458E+02 0.  0.
         12    1    1    2    0    0  0.33569296222E+02  0.21702789992E+02  0.16903096053E+02  0.43400730390E+02  0.00000000000E+00 0. -1.
         11    1    3    3    0    0 -0.13347733712E+02 -0.34122911379E+01 -0.24937555817E+01  0.14000876516E+02  0.51100000000E-03 0. -1.
        -11    1    3    3    0    0 -0.17547476655E+02 -0.20566190303E+02 -0.13068130730E+02  0.30027623308E+02  0.51100000000E-03 0.  1.
        -12    1    3    3    0    0 -0.26740858551E+01  0.22756914488E+01 -0.13412097416E+01  0.37587697857E+01  0.00000000000E+00 0.  1.
</event>
<event>
 7    1  0.5504027E-010  0.4778727E+02  0.7816164E-02  0.1312668E+00
        -11   -1    0    0    0    0  0.00000000000E+00  0.00000000000E+00  0.45593999997E+02  0.45594000000E+02  0.51100000000E-03 0. -1.
         11   -1    0    0    0    0 -0.00000000000E+00 -0.00000000000E+00 -0.45593999997E+02  0.45594000000E+02  0.51100000000E-03 0.  1.
    9900012    2    1    2    0    0 -0.25726084564E+02  0.30111911434E+02  0.17750061138E+02  0.47787270656E+02  0.19999998229E+02 0.  0.
         12    1    1    2    0    0  0.25726084564E+02 -0.30111911434E+02 -0.17750061138E+02  0.43400729344E+02  0.00000000000E+00 0. -1.
         11    1    3    3    0    0 -0.26303836496E+02  0.24170410544E+02  0.18454264909E+02  0.40207716348E+02  0.51100000000E-03 0. -1.
        -11    1    3    3    0    0  0.86431578055E-01  0.66686289111E+01 -0.61650393429E+00  0.66976234094E+01  0.51100000000E-03 0.  1.
         12    1    3    3    0    0  0.49132035463E+00 -0.72712802052E+00 -0.87699837412E-01  0.88193089898E+00  0.00000000000E+00 0. -1.
</event>
<event>
 7    1  0.5504027E-010  0.4778727E+02  0.7816164E-02  0.1312668E+00
        -11   -1    0    0    0    0  0.00000000000E+00  0.00000000000E+00  0.45593999997E+02  0.45594000000E+02  0.51100000000E-03 0.  1.
         11   -1    0    0    0    0 -0.00000000000E+00 -0.00000000000E+00 -0.45593999997E+02  0.45594000000E+02  0.51100000000E-03 0. -1.
    9900012    2    1    2    0    0  0.15754966707E+02 -0.37180820200E+02  0.15905703648E+02  0.47787265269E+02  0.19999973667E+02 0.  0.
         12    1    1    2    0    0 -0.15754966707E+02  0.37180820200E+02 -0.15905703648E+02  0.43400734731E+02  0.00000000000E+00 0. -1.
         11    1    3    3    0    0  0.46215861343E+01 -0.13434354298E+02  0.14466460816E+02  0.20276080060E+02  0.51100000000E-03 0.  1.
        -11    1    3    3    0    0  0.80650477674E+00 -0.64899475788E+01 -0.25309783191E+01  0.70125402704E+01  0.51100000000E-03 0. -1.
        -12    1    3    3    0    0  0.10326875796E+02 -0.17256518323E+02  0.39702211514E+01  0.20498644939E+02  0.00000000000E+00 0.  1.
</event>
<event>
 7    1  0.5504027E-010  0.4778727E+02  0.7816164E-02  0.1312668E+00
        -11   -1    0    0    0    0  0.00000000000E+00  0.00000000000E+00  0.45593999997E+02  0.45594000000E+02  0.51100000000E-03 0.  1.
         11   -1    0    0    0    0 -0.00000000000E+00 -0.00000000000E+00 -0.45593999997E+02  0.45594000000E+02  0.51100000000E-03 0. -1.
    9900012    2    1    2    0    0 -0.19143956626E+02  0.21000990031E+02 -0.32803823103E+02  0.47787268811E+02  0.19999989815E+02 0.  0.
         12    1    1    2    0    0  0.19143956626E+02 -0.21000990031E+02  0.32803823103E+02  0.43400731189E+02  0.00000000000E+00 0. -1.
         11    1    3    3    0    0 -0.10175547174E+02 -0.15752310384E-01 -0.15533717705E+02  0.18569824836E+02  0.51100000000E-03 0. -1.
        -11    1    3    3    0    0 -0.78787648621E+01  0.12001463600E+02 -0.90665775184E+01  0.16979778928E+02  0.51100000000E-03 0.  1.
         12    1    3    3    0    0 -0.10896445896E+01  0.90152787420E+01 -0.82035278795E+01  0.12237665047E+02  0.00000000000E+00 0. -1.
</event>
<event>
 7    1  0.5504027E-010  0.4778727E+02  0.7816164E-02  0.1312668E+00
        -11   -1    0    0    0    0  0.00000000000E+00  0.00000000000E+00  0.45593999997E+02  0.45594000000E+02  0.51100000000E-03 0.  1.
         11   -1    0    0    0    0 -0.00000000000E+00 -0.00000000000E+00 -0.45593999997E+02  0.45594000000E+02  0.51100000000E-03 0. -1.
    9900012    2    1    2    0    0 -0.29449981379E+02 -0.31627669903E+02  0.40015415512E+01  0.47787271418E+02  0.20000001702E+02 0.  0.
         12    1    1    2    0    0  0.29449981379E+02  0.31627669903E+02 -0.40015415512E+01  0.43400728582E+02  0.00000000000E+00 0. -1.
         11    1    3    3    0    0 -0.23328041704E+01  0.13089890766E+01  0.12165492801E+01  0.29386085333E+01  0.51100000000E-03 0. -1.
        -11    1    3    3    0    0 -0.15423630736E+02 -0.27284472237E+02  0.47926842166E+01  0.31706476193E+02  0.51100000000E-03 0.  1.
        -12    1    3    3    0    0 -0.11693546472E+02 -0.56521867423E+01 -0.20076919455E+01  0.13142186691E+02  0.00000000000E+00 0.  1.
</event>
<event>
 7    1  0.5504027E-010  0.4778727E+02  0.7816164E-02  0.1312668E+00
        -11   -1    0    0    0    0  0.00000000000E+00  0.00000000000E+00  0.45593999997E+02  0.45594000000E+02  0.51100000000E-03 0.  1.
         11   -1    0    0    0    0 -0.00000000000E+00 -0.00000000000E+00 -0.45593999997E+02  0.45594000000E+02  0.51100000000E-03 0. -1.
    9900012    2    1    2    0    0  0.76597797431E+01  0.38195740889E+02 -0.19132076267E+02  0.47787272010E+02  0.20000004402E+02 0.  0.
         12    1    1    2    0    0 -0.76597797431E+01 -0.38195740889E+02  0.19132076267E+02  0.43400727990E+02  0.00000000000E+00 0. -1.
         11    1    3    3    0    0 -0.12150107017E+01 -0.54902108117E-01 -0.10304824251E+01  0.15941014824E+01  0.51100000000E-03 0. -1.
        -11    1    3    3    0    0  0.79247547007E+01  0.66662194281E+01 -0.77761100315E+01  0.12950216447E+02  0.51100000000E-03 0.  1.
        -12    1    3    3    0    0  0.95003574412E+00  0.31584423569E+02 -0.10325483810E+02  0.33242954081E+02  0.00000000000E+00 0.  1.
</event>
<event>
 7    1  0.5504027E-010  0.4778727E+02  0.7816164E-02  0.1312668E+00
        -11   -1    0    0    0    0  0.00000000000E+00  0.00000000000E+00  0.45593999997E+02  0.45594000000E+02  0.51100000000E-03 0. -1.
         11   -1    0    0    0    0 -0.00000000000E+00 -0.00000000000E+00 -0.45593999997E+02  0.45594000000E+02  0.51100000000E-03 0.  1.
    9900012    2    1    2    0    0  0.22181089337E+02 -0.37297236329E+02 -0.73414449770E+00  0.47787268092E+02  0.19999986540E+02 0.  0.
         12    1    1    2    0    0 -0.22181089337E+02  0.37297236329E+02  0.73414449770E+00  0.43400731908E+02  0.00000000000E+00 0. -1.
         11    1    3    3    0    0 -0.91829943914E+00 -0.78508611616E+00 -0.73637947118E+00  0.14148812870E+01  0.51100000000E-03 0. -1.
        -11    1    3    3    0    0  0.30304246131E+01 -0.13467763217E+02 -0.62949652972E+01  0.15172037034E+02  0.51100000000E-03 0.  1.
        -12    1    3    3    0    0  0.20068964163E+02 -0.23044386996E+02  0.62972002707E+01  0.31200349771E+02  0.00000000000E+00 0.  1.
</event>
<event>
 7    1  0.5504027E-010  0.4778727E+02  0.7816164E-02  0.1312668E+00
        -11   -1    0    0    0    0  0.00000000000E+00  0.00000000000E+00  0.45593999997E+02  0.45594000000E+02  0.51100000000E-03 0.  1.
         11   -1    0    0    0    0 -0.00000000000E+00 -0.00000000000E+00 -0.45593999997E+02  0.45594000000E+02  0.51100000000E-03 0. -1.
    9900012    2    1    2    0    0  0.12054351989E+02  0.41693109467E+02 -0.22979199079E-01  0.47787270663E+02  0.19999998262E+02 0.  0.
         12    1    1    2    0    0 -0.12054351989E+02 -0.41693109467E+02  0.22979199079E-01  0.43400729337E+02  0.00000000000E+00 0. -1.
         11    1    3    3    0    0  0.58555770599E+01  0.19013583311E+02  0.57492111667E+01  0.20708876414E+02  0.51100000000E-03 0. -1.
        -11    1    3    3    0    0  0.69010234440E+01  0.13539459699E+02  0.16463355155E+01  0.15285663688E+02  0.51100000000E-03 0.  1.
         12    1    3    3    0    0 -0.70224851509E+00  0.91400664573E+01 -0.74185258813E+01  0.11792730561E+02  0.00000000000E+00 0. -1.
</event>
<event>
 7    1  0.5504027E-010  0.4778727E+02  0.7816164E-02  0.1312668E+00
        -11   -1    0    0    0    0  0.00000000000E+00  0.00000000000E+00  0.45593999997E+02  0.45594000000E+02  0.51100000000E-03 0. -1.
         11   -1    0    0    0    0 -0.00000000000E+00 -0.00000000000E+00 -0.45593999997E+02  0.45594000000E+02  0.51100000000E-03 0.  1.
    9900012    2    1    2    0    0  0.69610503157E+01 -0.34255912732E+02 -0.25723524013E+02  0.47787268829E+02  0.19999989897E+02 0.  0.
         12    1    1    2    0    0 -0.69610503157E+01  0.34255912732E+02  0.25723524013E+02  0.43400731171E+02  0.00000000000E+00 0. -1.
         11    1    3    3    0    0  0.11216705128E+02 -0.26031951086E+02 -0.21793639299E+02  0.35755274652E+02  0.51100000000E-03 0. -1.
        -11    1    3    3    0    0 -0.38477077334E+01 -0.84475392338E+01 -0.52276568849E+01  0.10653364289E+02  0.51100000000E-03 0.  1.
         12    1    3    3    0    0 -0.40794707853E+00  0.22357758842E+00  0.12977721715E+01  0.13786298872E+01  0.00000000000E+00 0. -1.
</event>
<event>
 7    1  0.5504027E-010  0.4778727E+02  0.7816164E-02  0.1312668E+00
        -11   -1    0    0    0    0  0.00000000000E+00  0.00000000000E+00  0.45593999997E+02  0.45594000000E+02  0.51100000000E-03 0.  1.
         11   -1    0    0    0    0 -0.00000000000E+00 -0.00000000000E+00 -0.45593999997E+02  0.45594000000E+02  0.51100000000E-03 0. -1.
    9900012    2    1    2    0    0 -0.92164893773E+01 -0.14597871791E+01  0.42385711011E+02  0.47787272437E+02  0.20000006350E+02 0.  0.
         12    1    1    2    0    0  0.92164893773E+01  0.14597871791E+01 -0.42385711011E+02  0.43400727563E+02  0.00000000000E+00 0. -1.
         11    1    3    3    0    0 -0.46620515690E+00 -0.71396065151E+01  0.17715167959E+02  0.19105457454E+02  0.51100000000E-03 0. -1.
        -11    1    3    3    0    0 -0.96785736300E+01  0.62832713263E+01  0.24993316491E+02  0.27528533480E+02  0.51100000000E-03 0.  1.
         12    1    3    3    0    0  0.92828940964E+00 -0.60345199035E+00 -0.32277343894E+00  0.11532815032E+01  0.00000000000E+00 0. -1.
</event>
<event>
 7    1  0.5504027E-010  0.4778727E+02  0.7816164E-02  0.1312668E+00
        -11   -1    0    0    0    0  0.00000000000E+00  0.00000000000E+00  0.45593999997E+02  0.45594000000E+02  0.51100000000E-03 0.  1.
         11   -1    0    0    0    0 -0.00000000000E+00 -0.00000000000E+00 -0.45593999997E+02  0.45594000000E+02  0.51100000000E-03 0. -1.
    9900012    2    1    2    0    0 -0.60758997403E+01  0.18729060868E+01  0.42932497186E+02  0.47787266717E+02  0.19999980270E+02 0.  0.
         12    1    1    2    0    0  0.60758997403E+01 -0.18729060868E+01 -0.42932497186E+02  0.43400733283E+02  0.00000000000E+00 0. -1.
         11    1    3    3    0    0  0.27893435081E+01  0.13130921426E+01  0.42420829641E+01  0.52440362620E+01  0.51100000000E-03 0. -1.
        -11    1    3    3    0    0 -0.13272821471E+02  0.53325258488E+00  0.29036544272E+02  0.31930754010E+02  0.51100000000E-03 0.  1.
        -12    1    3    3    0    0  0.44075782222E+01  0.26561359280E-01  0.96538699495E+01  0.10612476445E+02  0.00000000000E+00 0.  1.
</event>
<event>
 7    1  0.5504027E-010  0.4778727E+02  0.7816164E-02  0.1312668E+00
        -11   -1    0    0    0    0  0.00000000000E+00  0.00000000000E+00  0.45593999997E+02  0.45594000000E+02  0.51100000000E-03 0.  1.
         11   -1    0    0    0    0 -0.00000000000E+00 -0.00000000000E+00 -0.45593999997E+02  0.45594000000E+02  0.51100000000E-03 0. -1.
    9900012    2    1    2    0    0  0.37371999721E+02 -0.20906732568E+02 -0.70615412444E+01  0.47787271958E+02  0.20000004165E+02 0.  0.
         12    1    1    2    0    0 -0.37371999721E+02  0.20906732568E+02  0.70615412444E+01  0.43400728042E+02  0.00000000000E+00 0. -1.
         11    1    3    3    0    0  0.16170704804E+02 -0.46552122417E+01 -0.80641591945E+01  0.18659939942E+02  0.51100000000E-03 0. -1.
        -11    1    3    3    0    0  0.22015452969E+02 -0.17013103445E+02  0.32954508663E+00  0.27825068886E+02  0.51100000000E-03 0.  1.
        -12    1    3    3    0    0 -0.81415805154E+00  0.76158311927E+00  0.67307286350E+00  0.13022631301E+01  0.00000000000E+00 0.  1.
</event>
<event>
 7    1  0.5504027E-010  0.4778727E+02  0.7816164E-02  0.1312668E+00
        -11   -1    0    0    0    0  0.00000000000E+00  0.00000000000E+00  0.45593999997E+02  0.45594000000E+02  0.51100000000E-03 0.  1.
         11   -1    0    0    0    0 -0.00000000000E+00 -0.00000000000E+00 -0.45593999997E+02  0.45594000000E+02  0.51100000000E-03 0. -1.
    9900012    2    1    2    0    0  0.28615738138E+02  0.59321294602E+00  0.32625311118E+02  0.47787270785E+02  0.19999998819E+02 0.  0.
         12    1    1    2    0    0 -0.28615738138E+02 -0.59321294602E+00 -0.32625311118E+02  0.43400729215E+02  0.00000000000E+00 0. -1.
         11    1    3    3    0    0  0.16991908560E+02 -0.66590048094E+01  0.24979895947E+02  0.30936426803E+02  0.51100000000E-03 0. -1.
        -11    1    3    3    0    0  0.81369674309E+01  0.63616050146E+01  0.82278434001E+01  0.13205213539E+02  0.51100000000E-03 0.  1.
        -12    1    3    3    0    0  0.34868621474E+01  0.89061274090E+00 -0.58242822857E+00  0.36456304435E+01  0.00000000000E+00 0.  1.
</event>
<event>
 7    1  0.5504027E-010  0.4778727E+02  0.7816164E-02  0.1312668E+00
        -11   -1    0    0    0    0  0.00000000000E+00  0.00000000000E+00  0.45593999997E+02  0.45594000000E+02  0.51100000000E-03 0. -1.
         11   -1    0    0    0    0 -0.00000000000E+00 -0.00000000000E+00 -0.45593999997E+02  0.45594000000E+02  0.51100000000E-03 0.  1.
    9900012    2    1    2    0    0  0.32057125012E+02  0.15317759185E+02  0.24926498402E+02  0.47787270363E+02  0.19999996892E+02 0.  0.
         12    1    1    2    0    0 -0.32057125012E+02 -0.15317759185E+02 -0.24926498402E+02  0.43400729637E+02  0.00000000000E+00 0. -1.
         11    1    3    3    0    0  0.18499200564E+02  0.14526488236E+02  0.17988133029E+02  0.29611015047E+02  0.51100000000E-03 0. -1.
        -11    1    3    3    0    0  0.14179412289E+02  0.15368298640E+01  0.36141685325E+01  0.14713252303E+02  0.51100000000E-03 0.  1.
         12    1    3    3    0    0 -0.62148784075E+00 -0.74555891587E+00  0.33241968404E+01  0.34630030128E+01  0.00000000000E+00 0. -1.
</event>
<event>
 7    1  0.5504027E-010  0.4778727E+02  0.7816164E-02  0.1312668E+00
        -11   -1    0    0    0    0  0.00000000000E+00  0.00000000000E+00  0.45593999997E+02  0.45594000000E+02  0.51100000000E-03 0.  1.
         11   -1    0    0    0    0 -0.00000000000E+00 -0.00000000000E+00 -0.45593999997E+02  0.45594000000E+02  0.51100000000E-03 0. -1.
    9900012    2    1    2    0    0  0.26124342868E+02 -0.27210653834E+02  0.21464449220E+02  0.47787267833E+02  0.19999985357E+02 0.  0.
         12    1    1    2    0    0 -0.26124342868E+02  0.27210653834E+02 -0.21464449220E+02  0.43400732167E+02  0.00000000000E+00 0. -1.
         11    1    3    3    0    0  0.63812239004E+00 -0.34007244551E+01 -0.26795483402E+01  0.43763119830E+01  0.51100000000E-03 0. -1.
        -11    1    3    3    0    0  0.13302568027E+02 -0.18427434126E+02  0.14355872541E+02  0.26881587030E+02  0.51100000000E-03 0.  1.
         12    1    3    3    0    0  0.12183652451E+02 -0.53824952524E+01  0.97881250193E+01  0.16529368820E+02  0.00000000000E+00 0. -1.
</event>
<event>
 7    1  0.5504027E-010  0.4778727E+02  0.7816164E-02  0.1312668E+00
        -11   -1    0    0    0    0  0.00000000000E+00  0.00000000000E+00  0.45593999997E+02  0.45594000000E+02  0.51100000000E-03 0.  1.
         11   -1    0    0    0    0 -0.00000000000E+00 -0.00000000000E+00 -0.45593999997E+02  0.45594000000E+02  0.51100000000E-03 0. -1.
    9900012    2    1    2    0    0 -0.10191042205E+02 -0.21420038941E+02  0.36344845527E+02  0.47787271828E+02  0.20000003574E+02 0.  0.
         12    1    1    2    0    0  0.10191042205E+02  0.21420038941E+02 -0.36344845527E+02  0.43400728172E+02  0.00000000000E+00 0. -1.
         11    1    3    3    0    0 -0.17484370066E+01 -0.20768895436E+02  0.26158448095E+02  0.33446501411E+02  0.51100000000E-03 0.  1.
        -11    1    3    3    0    0 -0.30806712390E+00 -0.12960509177E+01  0.36502216340E+01  0.38857137790E+01  0.51100000000E-03 0. -1.
         12    1    3    3    0    0 -0.81345380743E+01  0.64490741282E+00  0.65361757977E+01  0.10455056638E+02  0.00000000000E+00 0. -1.
</event>
<event>
 7    1  0.5504027E-010  0.4778727E+02  0.7816164E-02  0.1312668E+00
        -11   -1    0    0    0    0  0.00000000000E+00  0.00000000000E+00  0.45593999997E+02  0.45594000000E+02  0.51100000000E-03 0. -1.
         11   -1    0    0    0    0 -0.00000000000E+00 -0.00000000000E+00 -0.45593999997E+02  0.45594000000E+02  0.51100000000E-03 0.  1.
    9900012    2    1    2    0    0  0.33809737170E+02 -0.10534941604E+02 -0.25090638679E+02  0.47787268768E+02  0.19999989621E+02 0.  0.
         12    1    1    2    0    0 -0.33809737170E+02  0.10534941604E+02  0.25090638679E+02  0.43400731232E+02  0.00000000000E+00 0. -1.
         11    1    3    3    0    0  0.20418386365E+02 -0.10069070424E+02 -0.12065368129E+02  0.25765670752E+02  0.51100000000E-03 0.  1.
        -11    1    3    3    0    0 -0.15222278071E+00  0.25999734558E+01  0.48308253422E+00  0.26488493241E+01  0.51100000000E-03 0. -1.
        -12    1    3    3    0    0  0.13543573586E+02 -0.30658446362E+01 -0.13508353085E+02  0.19372748692E+02  0.00000000000E+00 0.  1.
</event>
<event>
 7    1  0.5504027E-010  0.4778727E+02  0.7816164E-02  0.1312668E+00
        -11   -1    0    0    0    0  0.00000000000E+00  0.00000000000E+00  0.45593999997E+02  0.45594000000E+02  0.51100000000E-03 0.  1.
         11   -1    0    0    0    0 -0.00000000000E+00 -0.00000000000E+00 -0.45593999997E+02  0.45594000000E+02  0.51100000000E-03 0. -1.
    9900012    2    1    2    0    0  0.51439559537E+01  0.37922147217E+02  0.20471302470E+02  0.47787265476E+02  0.19999974611E+02 0.  0.
         12    1    1    2    0    0 -0.51439559537E+01 -0.37922147217E+02 -0.20471302470E+02  0.43400734524E+02  0.00000000000E+00 0. -1.
         11    1    3    3    0    0  0.77204500462E+01  0.59699868955E+01  0.72895442099E+01  0.12181278566E+02  0.51100000000E-03 0. -1.
        -11    1    3    3    0    0  0.11957973936E+01  0.24384498885E+02  0.80109563683E+01  0.25694535206E+02  0.51100000000E-03 0.  1.
         12    1    3    3    0    0 -0.37722914860E+01  0.75676614367E+01  0.51708018914E+01  0.99114517038E+01  0.00000000000E+00 0. -1.
</event>
<event>
 7    1  0.5504027E-010  0.4778727E+02  0.7816164E-02  0.1312668E+00
        -11   -1    0    0    0    0  0.00000000000E+00  0.00000000000E+00  0.45593999997E+02  0.45594000000E+02  0.51100000000E-03 0.  1.
         11   -1    0    0    0    0 -0.00000000000E+00 -0.00000000000E+00 -0.45593999997E+02  0.45594000000E+02  0.51100000000E-03 0. -1.
    9900012    2    1    2    0    0 -0.22754770846E+02  0.42642602502E+01  0.36710482140E+02  0.47787274076E+02  0.20000013823E+02 0.  0.
         12    1    1    2    0    0  0.22754770846E+02 -0.42642602502E+01 -0.36710482140E+02  0.43400725924E+02  0.00000000000E+00 0. -1.
         11    1    3    3    0    0  0.11818744207E+01 -0.19552851650E+01  0.79622409613E+01  0.82835528977E+01  0.51100000000E-03 0. -1.
        -11    1    3    3    0    0 -0.17785353706E+02  0.34199015944E+01  0.27019052592E+02  0.32527584242E+02  0.51100000000E-03 0.  1.
         12    1    3    3    0    0 -0.61512915611E+01  0.27996438208E+01  0.17291885865E+01  0.69761369368E+01  0.00000000000E+00 0. -1.
</event>
<event>
 7    1  0.5504027E-010  0.4778728E+02  0.7816164E-02  0.1312668E+00
        -11   -1    0    0    0    0  0.00000000000E+00  0.00000000000E+00  0.45593999997E+02  0.45594000000E+02  0.51100000000E-03 0. -1.
         11   -1    0    0    0    0 -0.00000000000E+00 -0.00000000000E+00 -0.45593999997E+02  0.45594000000E+02  0.51100000000E-03 0.  1.
    9900012    2    1    2    0    0 -0.17511551075E+02 -0.28322153290E+02 -0.27835662282E+02  0.47787275551E+02  0.20000020546E+02 0.  0.
         12    1    1    2    0    0  0.17511551075E+02  0.28322153290E+02  0.27835662282E+02  0.43400724449E+02  0.00000000000E+00 0. -1.
         11    1    3    3    0    0 -0.19988522179E+01 -0.89984457048E+00  0.32975233877E+00  0.22167244543E+01  0.51100000000E-03 0. -1.
        -11    1    3    3    0    0  0.11198430597E+01 -0.13656492807E+02 -0.14843301510E+02  0.20200926817E+02  0.51100000000E-03 0.  1.
        -12    1    3    3    0    0 -0.16632541917E+02 -0.13765815912E+02 -0.13322113111E+02  0.25369624280E+02  0.00000000000E+00 0.  1.
</event>
<event>
 7    1  0.5504027E-010  0.4778727E+02  0.7816164E-02  0.1312668E+00
        -11   -1    0    0    0    0  0.00000000000E+00  0.00000000000E+00  0.45593999997E+02  0.45594000000E+02  0.51100000000E-03 0. -1.
         11   -1    0    0    0    0 -0.00000000000E+00 -0.00000000000E+00 -0.45593999997E+02  0.45594000000E+02  0.51100000000E-03 0.  1.
    9900012    2    1    2    0    0  0.40766577029E+02 -0.50680468713E+01 -0.14000875066E+02  0.47787269541E+02  0.19999993146E+02 0.  0.
         12    1    1    2    0    0 -0.40766577029E+02  0.50680468713E+01  0.14000875066E+02  0.43400730459E+02  0.00000000000E+00 0. -1.
         11    1    3    3    0    0  0.54632189918E+01  0.33158447483E+00 -0.95969299443E+01  0.11047976042E+02  0.51100000000E-03 0. -1.
        -11    1    3    3    0    0  0.20415835206E+02 -0.54595644847E+01  0.27080778968E+00  0.21134959396E+02  0.51100000000E-03 0.  1.
         12    1    3    3    0    0  0.14887522831E+02  0.59933138517E-01 -0.46747529112E+01  0.15604334103E+02  0.00000000000E+00 0. -1.
</event>
<event>
 7    1  0.5504027E-010  0.4778727E+02  0.7816164E-02  0.1312668E+00
        -11   -1    0    0    0    0  0.00000000000E+00  0.00000000000E+00  0.45593999997E+02  0.45594000000E+02  0.51100000000E-03 0.  1.
         11   -1    0    0    0    0 -0.00000000000E+00 -0.00000000000E+00 -0.45593999997E+02  0.45594000000E+02  0.51100000000E-03 0. -1.
    9900012    2    1    2    0    0 -0.20349889080E+02 -0.20088709245E+02  0.32648876316E+02  0.47787270174E+02  0.19999996034E+02 0.  0.
         12    1    1    2    0    0  0.20349889080E+02  0.20088709245E+02 -0.32648876316E+02  0.43400729826E+02  0.00000000000E+00 0. -1.
         11    1    3    3    0    0  0.13242160981E+01  0.55152906538E+00  0.66160414248E+01  0.67697663903E+01  0.51100000000E-03 0. -1.
        -11    1    3    3    0    0 -0.19041140662E+02 -0.11642815190E+02  0.18630869003E+02  0.29072830329E+02  0.51100000000E-03 0.  1.
         12    1    3    3    0    0 -0.26329645164E+01 -0.89974231203E+01  0.74019658878E+01  0.11944673455E+02  0.00000000000E+00 0. -1.
</event>
<event>
 7    1  0.5504027E-010  0.4778727E+02  0.7816164E-02  0.1312668E+00
        -11   -1    0    0    0    0  0.00000000000E+00  0.00000000000E+00  0.45593999997E+02  0.45594000000E+02  0.51100000000E-03 0.  1.
         11   -1    0    0    0    0 -0.00000000000E+00 -0.00000000000E+00 -0.45593999997E+02  0.45594000000E+02  0.51100000000E-03 0. -1.
    9900012    2    1    2    0    0  0.41035631363E+02 -0.13707661632E+02 -0.34351177399E+01  0.47787273478E+02  0.20000011095E+02 0.  0.
         12    1    1    2    0    0 -0.41035631363E+02  0.13707661632E+02  0.34351177399E+01  0.43400726522E+02  0.00000000000E+00 0. -1.
         11    1    3    3    0    0  0.11864724256E+02 -0.55459496397E+01  0.71044428347E+01  0.14899743197E+02  0.51100000000E-03 0. -1.
        -11    1    3    3    0    0  0.21376239010E+02 -0.85196286891E+01 -0.99246612664E+01  0.25060458271E+02  0.51100000000E-03 0.  1.
        -12    1    3    3    0    0  0.77946680963E+01  0.35791669702E+00 -0.61489930825E+00  0.78270720102E+01  0.00000000000E+00 0.  1.
</event>
<event>
 7    1  0.5504027E-010  0.4778727E+02  0.7816164E-02  0.1312668E+00
        -11   -1    0    0    0    0  0.00000000000E+00  0.00000000000E+00  0.45593999997E+02  0.45594000000E+02  0.51100000000E-03 0.  1.
         11   -1    0    0    0    0 -0.00000000000E+00 -0.00000000000E+00 -0.45593999997E+02  0.45594000000E+02  0.51100000000E-03 0. -1.
    9900012    2    1    2    0    0 -0.15921946970E+02 -0.24379174420E+02  0.32183390619E+02  0.47787272213E+02  0.20000005329E+02 0.  0.
         12    1    1    2    0    0  0.15921946970E+02  0.24379174420E+02 -0.32183390619E+02  0.43400727787E+02  0.00000000000E+00 0. -1.
         11    1    3    3    0    0 -0.75629338885E+01 -0.16465075341E+02  0.70125600218E+01  0.19428655983E+02  0.51100000000E-03 0.  1.
        -11    1    3    3    0    0 -0.47160959539E+01 -0.80437913234E+01  0.19541552259E+02  0.21652168595E+02  0.51100000000E-03 0. -1.
         12    1    3    3    0    0 -0.36429171278E+01  0.12969224492E+00  0.56292783378E+01  0.67064476351E+01  0.00000000000E+00 0. -1.
</event>
<event>
 7    1  0.5504027E-010  0.4778727E+02  0.7816164E-02  0.1312668E+00
        -11   -1    0    0    0    0  0.00000000000E+00  0.00000000000E+00  0.45593999997E+02  0.45594000000E+02  0.51100000000E-03 0.  1.
         11   -1    0    0    0    0 -0.00000000000E+00 -0.00000000000E+00 -0.45593999997E+02  0.45594000000E+02  0.51100000000E-03 0. -1.
    9900012    2    1    2    0    0  0.33873960379E+02  0.27093003836E+02  0.14652336752E+01  0.47787274680E+02  0.20000016574E+02 0.  0.
         12    1    1    2    0    0 -0.33873960379E+02 -0.27093003836E+02 -0.14652336752E+01  0.43400725320E+02  0.00000000000E+00 0. -1.
         11    1    3    3    0    0 -0.60317356609E+00  0.44836294258E+01 -0.24478400457E+01  0.51437994060E+01  0.51100000000E-03 0. -1.
        -11    1    3    3    0    0  0.86933195315E+01  0.41433982665E+01 -0.31874209865E+01  0.10144023190E+02  0.51100000000E-03 0.  1.
         12    1    3    3    0    0  0.25783814414E+02  0.18465976144E+02  0.71004947074E+01  0.32499452084E+02  0.00000000000E+00 0. -1.
</event>
<event>
 7    1  0.5504027E-010  0.4778728E+02  0.7816164E-02  0.1312668E+00
        -11   -1    0    0    0    0  0.00000000000E+00  0.00000000000E+00  0.45593999997E+02  0.45594000000E+02  0.51100000000E-03 0.  1.
         11   -1    0    0    0    0 -0.00000000000E+00 -0.00000000000E+00 -0.45593999997E+02  0.45594000000E+02  0.51100000000E-03 0. -1.
    9900012    2    1    2    0    0  0.15986737654E+01 -0.42631305922E+02  0.79774005967E+01  0.47787275090E+02  0.20000018445E+02 0.  0.
         12    1    1    2    0    0 -0.15986737654E+01  0.42631305922E+02 -0.79774005967E+01  0.43400724910E+02  0.00000000000E+00 0. -1.
         11    1    3    3    0    0 -0.56085161460E+01 -0.10513269833E+02 -0.14837332762E+01  0.12007737532E+02  0.51100000000E-03 0. -1.
        -11    1    3    3    0    0  0.77158808549E+01 -0.22049935554E+02  0.10563901348E+02  0.25638457193E+02  0.51100000000E-03 0.  1.
        -12    1    3    3    0    0 -0.50869094351E+00 -0.10068100535E+02 -0.11027674748E+01  0.10141080365E+02  0.00000000000E+00 0.  1.
</event>
<event>
 7    1  0.5504027E-010  0.4778726E+02  0.7816164E-02  0.1312668E+00
        -11   -1    0    0    0    0  0.00000000000E+00  0.00000000000E+00  0.45593999997E+02  0.45594000000E+02  0.51100000000E-03 0. -1.
         11   -1    0    0    0    0 -0.00000000000E+00 -0.00000000000E+00 -0.45593999997E+02  0.45594000000E+02  0.51100000000E-03 0.  1.
    9900012    2    1    2    0    0  0.10905592712E+02  0.41922715191E+02 -0.26791829020E+01  0.47787262421E+02  0.19999960682E+02 0.  0.
         12    1    1    2    0    0 -0.10905592712E+02 -0.41922715191E+02  0.26791829020E+01  0.43400737579E+02  0.00000000000E+00 0. -1.
         11    1    3    3    0    0  0.16161094211E+02  0.30289934692E+02 -0.12039805989E+01  0.34352739036E+02  0.51100000000E-03 0. -1.
        -11    1    3    3    0    0  0.18062202596E+00  0.23543232129E+01  0.70053357273E+00  0.24629676520E+01  0.51100000000E-03 0.  1.
         12    1    3    3    0    0 -0.54361235254E+01  0.92784572866E+01 -0.21757358758E+01  0.10971555733E+02  0.00000000000E+00 0. -1.
</event>
<event>
 7    1  0.5504027E-010  0.4778727E+02  0.7816164E-02  0.1312668E+00
        -11   -1    0    0    0    0  0.00000000000E+00  0.00000000000E+00  0.45593999997E+02  0.45594000000E+02  0.51100000000E-03 0.  1.
         11   -1    0    0    0    0 -0.00000000000E+00 -0.00000000000E+00 -0.45593999997E+02  0.45594000000E+02  0.51100000000E-03 0. -1.
    9900012    2    1    2    0    0 -0.11521519341E+02  0.40840169987E+02  0.91081679092E+01  0.47787267112E+02  0.19999982072E+02 0.  0.
         12    1    1    2    0    0  0.11521519341E+02 -0.40840169987E+02 -0.91081679092E+01  0.43400732888E+02  0.00000000000E+00 0. -1.
         11    1    3    3    0    0 -0.10944901125E+02  0.36610465454E+02  0.38953232884E+01  0.38409511650E+02  0.51100000000E-03 0. -1.
        -11    1    3    3    0    0  0.29000340467E+01  0.22567496216E+01  0.16702473046E+01  0.40364393525E+01  0.51100000000E-03 0.  1.
         12    1    3    3    0    0 -0.34766522631E+01  0.19729549113E+01  0.35425973161E+01  0.53413161098E+01  0.00000000000E+00 0. -1.
</event>
<event>
 7    1  0.5504027E-010  0.4778727E+02  0.7816164E-02  0.1312668E+00
        -11   -1    0    0    0    0  0.00000000000E+00  0.00000000000E+00  0.45593999997E+02  0.45594000000E+02  0.51100000000E-03 0. -1.
         11   -1    0    0    0    0 -0.00000000000E+00 -0.00000000000E+00 -0.45593999997E+02  0.45594000000E+02  0.51100000000E-03 0.  1.
    9900012    2    1    2    0    0 -0.11182824286E+02  0.39643711763E+02 -0.13672755871E+02  0.47787266199E+02  0.19999977907E+02 0.  0.
         12    1    1    2    0    0  0.11182824286E+02 -0.39643711763E+02  0.13672755871E+02  0.43400733801E+02  0.00000000000E+00 0. -1.
         11    1    3    3    0    0 -0.12613195232E+02  0.14167921747E+02 -0.29066615881E+01  0.19190398184E+02  0.51100000000E-03 0. -1.
        -11    1    3    3    0    0 -0.19772007586E+01  0.19606472773E+02 -0.80527168620E+01  0.21287774579E+02  0.51100000000E-03 0.  1.
         12    1    3    3    0    0  0.34075717048E+01  0.58693172432E+01 -0.27133774207E+01  0.73090934357E+01  0.00000000000E+00 0. -1.
</event>
<event>
 7    1  0.5504027E-010  0.4778725E+02  0.7816164E-02  0.1312668E+00
        -11   -1    0    0    0    0  0.00000000000E+00  0.00000000000E+00  0.45593999997E+02  0.45594000000E+02  0.51100000000E-03 0.  1.
         11   -1    0    0    0    0 -0.00000000000E+00 -0.00000000000E+00 -0.45593999997E+02  0.45594000000E+02  0.51100000000E-03 0. -1.
    9900012    2    1    2    0    0  0.17483400888E+02  0.18220256877E+02  0.35298413294E+02  0.47787250601E+02  0.19999906792E+02 0.  0.
         12    1    1    2    0    0 -0.17483400888E+02 -0.18220256877E+02 -0.35298413294E+02  0.43400749399E+02  0.00000000000E+00 0. -1.
         11    1    3    3    0    0  0.14167419777E+02  0.58495594271E+01  0.22605913757E+02  0.27312276831E+02  0.51100000000E-03 0. -1.
        -11    1    3    3    0    0  0.55952452496E+01  0.95894656020E+01  0.54041810668E+01  0.12347865937E+02  0.51100000000E-03 0.  1.
         12    1    3    3    0    0 -0.22792641391E+01  0.27812318477E+01  0.72883184709E+01  0.81271078336E+01  0.00000000000E+00 0. -1.
</event>
<event>
 7    1  0.5504027E-010  0.4778727E+02  0.7816164E-02  0.1312668E+00
        -11   -1    0    0    0    0  0.00000000000E+00  0.00000000000E+00  0.45593999997E+02  0.45594000000E+02  0.51100000000E-03 0. -1.
         11   -1    0    0    0    0 -0.00000000000E+00 -0.00000000000E+00 -0.45593999997E+02  0.45594000000E+02  0.51100000000E-03 0.  1.
    9900012    2    1    2    0    0  0.31095610786E+01  0.15550340836E+02 -0.40399766760E+02  0.47787267005E+02  0.19999981582E+02 0.  0.
         12    1    1    2    0    0 -0.31095610786E+01 -0.15550340836E+02  0.40399766760E+02  0.43400732995E+02  0.00000000000E+00 0. -1.
         11    1    3    3    0    0  0.28530775422E+01 -0.62297869487E-01 -0.26277849262E+01  0.38793280817E+01  0.51100000000E-03 0. -1.
        -11    1    3    3    0    0  0.27211971712E+01  0.14547543099E+02 -0.15338849759E+02  0.21314695317E+02  0.51100000000E-03 0.  1.
        -12    1    3    3    0    0 -0.24647136348E+01  0.10650956064E+01 -0.22433132076E+02  0.22593243607E+02  0.00000000000E+00 0.  1.
</event>
<event>
 7    1  0.5504027E-010  0.4778727E+02  0.7816164E-02  0.1312668E+00
        -11   -1    0    0    0    0  0.00000000000E+00  0.00000000000E+00  0.45593999997E+02  0.45594000000E+02  0.51100000000E-03 0.  1.
         11   -1    0    0    0    0 -0.00000000000E+00 -0.00000000000E+00 -0.45593999997E+02  0.45594000000E+02  0.51100000000E-03 0. -1.
    9900012    2    1    2    0    0  0.13224157891E+02 -0.11414949993E+02  0.39729636134E+02  0.47787269330E+02  0.19999992185E+02 0.  0.
         12    1    1    2    0    0 -0.13224157891E+02  0.11414949993E+02 -0.39729636134E+02  0.43400730670E+02  0.00000000000E+00 0. -1.
         11    1    3    3    0    0 -0.34659633269E+01 -0.35762834687E+01  0.35945278257E+01  0.61419325772E+01  0.51100000000E-03 0. -1.
        -11    1    3    3    0    0  0.71464492531E+01  0.13562799340E+01  0.10301353948E+02  0.12610675065E+02  0.51100000000E-03 0.  1.
         12    1    3    3    0    0  0.95436719651E+01 -0.91949464582E+01  0.25833754361E+02  0.29034661688E+02  0.00000000000E+00 0. -1.
</event>
<event>
 7    1  0.5504027E-010  0.4778728E+02  0.7816164E-02  0.1312668E+00
        -11   -1    0    0    0    0  0.00000000000E+00  0.00000000000E+00  0.45593999997E+02  0.45594000000E+02  0.51100000000E-03 0. -1.
         11   -1    0    0    0    0 -0.00000000000E+00 -0.00000000000E+00 -0.45593999997E+02  0.45594000000E+02  0.51100000000E-03 0.  1.
    9900012    2    1    2    0    0  0.24225273691E+02 -0.12456325816E+02 -0.33787546876E+02  0.47787282700E+02  0.20000053143E+02 0.  0.
         12    1    1    2    0    0 -0.24225273691E+02  0.12456325816E+02  0.33787546876E+02  0.43400717300E+02  0.00000000000E+00 0. -1.
         11    1    3    3    0    0  0.13829720521E+02  0.25779931029E+01 -0.20044977532E+02  0.24488943273E+02  0.51100000000E-03 0. -1.
        -11    1    3    3    0    0  0.38300905643E+01 -0.94290520004E+01 -0.76645685780E+01  0.12740574049E+02  0.51100000000E-03 0.  1.
        -12    1    3    3    0    0  0.65654626057E+01 -0.56052669190E+01 -0.60780007659E+01  0.10557765378E+02  0.00000000000E+00 0.  1.
</event>
<event>
 7    1  0.5504027E-010  0.4778727E+02  0.7816164E-02  0.1312668E+00
        -11   -1    0    0    0    0  0.00000000000E+00  0.00000000000E+00  0.45593999997E+02  0.45594000000E+02  0.51100000000E-03 0.  1.
         11   -1    0    0    0    0 -0.00000000000E+00 -0.00000000000E+00 -0.45593999997E+02  0.45594000000E+02  0.51100000000E-03 0. -1.
    9900012    2    1    2    0    0 -0.35452401318E+02 -0.24686279109E+02 -0.41639219730E+01  0.47787269803E+02  0.19999994338E+02 0.  0.
         12    1    1    2    0    0  0.35452401318E+02  0.24686279109E+02  0.41639219730E+01  0.43400730197E+02  0.00000000000E+00 0. -1.
         11    1    3    3    0    0 -0.17973158934E+02 -0.30274971756E+01 -0.12041745065E+01  0.18266094759E+02  0.51100000000E-03 0.  1.
        -11    1    3    3    0    0 -0.17683167651E+02 -0.21074340070E+02 -0.44863840237E+01  0.27873820503E+02  0.51100000000E-03 0. -1.
         12    1    3    3    0    0  0.20392526693E+00 -0.58444186273E+00  0.15266365572E+01  0.16473545408E+01  0.00000000000E+00 0. -1.
</event>
<event>
 7    1  0.5504027E-010  0.4778727E+02  0.7816164E-02  0.1312668E+00
        -11   -1    0    0    0    0  0.00000000000E+00  0.00000000000E+00  0.45593999997E+02  0.45594000000E+02  0.51100000000E-03 0. -1.
         11   -1    0    0    0    0 -0.00000000000E+00 -0.00000000000E+00 -0.45593999997E+02  0.45594000000E+02  0.51100000000E-03 0.  1.
    9900012    2    1    2    0    0 -0.39428526318E+02 -0.49942776871E+00 -0.18131879552E+02  0.47787272220E+02  0.20000005362E+02 0.  0.
         12    1    1    2    0    0  0.39428526318E+02  0.49942776871E+00  0.18131879552E+02  0.43400727780E+02  0.00000000000E+00 0. -1.
         11    1    3    3    0    0 -0.14399542474E+02  0.40938608424E+01 -0.11108852775E+02  0.18641704061E+02  0.51100000000E-03 0. -1.
        -11    1    3    3    0    0 -0.21306774271E+02 -0.64128110163E+01 -0.15825307232E+01  0.22307110497E+02  0.51100000000E-03 0.  1.
        -12    1    3    3    0    0 -0.37222095730E+01  0.18195224052E+01 -0.54404960544E+01  0.68384576628E+01  0.00000000000E+00 0.  1.
</event>
<event>
 7    1  0.5504027E-010  0.4778727E+02  0.7816164E-02  0.1312668E+00
        -11   -1    0    0    0    0  0.00000000000E+00  0.00000000000E+00  0.45593999997E+02  0.45594000000E+02  0.51100000000E-03 0. -1.
         11   -1    0    0    0    0 -0.00000000000E+00 -0.00000000000E+00 -0.45593999997E+02  0.45594000000E+02  0.51100000000E-03 0.  1.
    9900012    2    1    2    0    0 -0.42584982445E+02  0.77410910371E+01 -0.31965979490E+01  0.47787268915E+02  0.19999990289E+02 0.  0.
         12    1    1    2    0    0  0.42584982445E+02 -0.77410910371E+01  0.31965979490E+01  0.43400731085E+02  0.00000000000E+00 0. -1.
         11    1    3    3    0    0 -0.41644955757E+01 -0.83269858559E+00 -0.30675707426E+00  0.42579937175E+01  0.51100000000E-03 0. -1.
        -11    1    3    3    0    0 -0.48357356928E+01 -0.49580617249E+01  0.14056218953E+01  0.70669999952E+01  0.51100000000E-03 0.  1.
        -12    1    3    3    0    0 -0.33584751177E+02  0.13531851348E+02 -0.42954627700E+01  0.36462275202E+02  0.00000000000E+00 0.  1.
</event>
<event>
 7    1  0.5504027E-010  0.4778727E+02  0.7816164E-02  0.1312668E+00
        -11   -1    0    0    0    0  0.00000000000E+00  0.00000000000E+00  0.45593999997E+02  0.45594000000E+02  0.51100000000E-03 0. -1.
         11   -1    0    0    0    0 -0.00000000000E+00 -0.00000000000E+00 -0.45593999997E+02  0.45594000000E+02  0.51100000000E-03 0.  1.
    9900012    2    1    2    0    0  0.35777568336E+02 -0.20743466883E+02  0.13164247193E+02  0.47787271682E+02  0.20000002906E+02 0.  0.
         12    1    1    2    0    0 -0.35777568336E+02  0.20743466883E+02 -0.13164247193E+02  0.43400728318E+02  0.00000000000E+00 0. -1.
         11    1    3    3    0    0  0.22624836623E+01  0.25917913366E+01  0.90515795563E+00  0.35574605888E+01  0.51100000000E-03 0. -1.
        -11    1    3    3    0    0  0.28301950422E+02 -0.23396406828E+02  0.13021430299E+02  0.38960876497E+02  0.51100000000E-03 0.  1.
        -12    1    3    3    0    0  0.52131342521E+01  0.61148608234E-01 -0.76234106136E+00  0.52689345960E+01  0.00000000000E+00 0.  1.
</event>
<event>
 7    1  0.5504027E-010  0.4778727E+02  0.7816164E-02  0.1312668E+00
        -11   -1    0    0    0    0  0.00000000000E+00  0.00000000000E+00  0.45593999997E+02  0.45594000000E+02  0.51100000000E-03 0.  1.
         11   -1    0    0    0    0 -0.00000000000E+00 -0.00000000000E+00 -0.45593999997E+02  0.45594000000E+02  0.51100000000E-03 0. -1.
    9900012    2    1    2    0    0 -0.23866472750E+02  0.95052388872E+01  0.34980929784E+02  0.47787268020E+02  0.19999986210E+02 0.  0.
         12    1    1    2    0    0  0.23866472750E+02 -0.95052388872E+01 -0.34980929784E+02  0.43400731980E+02  0.00000000000E+00 0. -1.
         11    1    3    3    0    0  0.16598148261E+01  0.43683832357E+01  0.75365610682E+01  0.88677793357E+01  0.51100000000E-03 0. -1.
        -11    1    3    3    0    0 -0.15639946332E+02  0.49204522179E+01  0.22564643754E+02  0.27892327247E+02  0.51100000000E-03 0.  1.
         12    1    3    3    0    0 -0.98863412444E+01  0.21640343362E+00  0.48797249624E+01  0.11027161437E+02  0.00000000000E+00 0. -1.
</event>
<event>
 7    1  0.5504027E-010  0.4778727E+02  0.7816164E-02  0.1312668E+00
        -11   -1    0    0    0    0  0.00000000000E+00  0.00000000000E+00  0.45593999997E+02  0.45594000000E+02  0.51100000000E-03 0. -1.
         11   -1    0    0    0    0 -0.00000000000E+00 -0.00000000000E+00 -0.45593999997E+02  0.45594000000E+02  0.51100000000E-03 0.  1.
    9900012    2    1    2    0    0  0.40945812032E+02  0.46377573457E+00 -0.14382227109E+02  0.47787273422E+02  0.20000010839E+02 0.  0.
         12    1    1    2    0    0 -0.40945812032E+02 -0.46377573457E+00  0.14382227109E+02  0.43400726578E+02  0.00000000000E+00 0. -1.
         11    1    3    3    0    0  0.42470692170E+01  0.34100158540E+01 -0.11488608173E+01  0.55664788239E+01  0.51100000000E-03 0. -1.
        -11    1    3    3    0    0  0.26099807306E+02 -0.76011110666E+01 -0.14079455961E+02  0.30613851624E+02  0.51100000000E-03 0.  1.
        -12    1    3    3    0    0  0.10598935509E+02  0.46548709472E+01  0.84608966950E+00  0.11606942974E+02  0.00000000000E+00 0.  1.
</event>
<event>
 7    1  0.5504027E-010  0.4778727E+02  0.7816164E-02  0.1312668E+00
        -11   -1    0    0    0    0  0.00000000000E+00  0.00000000000E+00  0.45593999997E+02  0.45594000000E+02  0.51100000000E-03 0. -1.
         11   -1    0    0    0    0 -0.00000000000E+00 -0.00000000000E+00 -0.45593999997E+02  0.45594000000E+02  0.51100000000E-03 0.  1.
    9900012    2    1    2    0    0 -0.10154967801E+02 -0.24482933328E+02 -0.34366925851E+02  0.47787274340E+02  0.20000015024E+02 0.  0.
         12    1    1    2    0    0  0.10154967801E+02  0.24482933328E+02  0.34366925851E+02  0.43400725660E+02  0.00000000000E+00 0. -1.
         11    1    3    3    0    0  0.38006734494E+01 -0.99786149430E+01 -0.67499459951E+01  0.12632483764E+02  0.51100000000E-03 0. -1.
        -11    1    3    3    0    0 -0.91104434003E+01 -0.11916479026E+02 -0.14193314293E+02  0.20650734181E+02  0.51100000000E-03 0.  1.
         12    1    3    3    0    0 -0.48451978502E+01 -0.25878393592E+01 -0.13423665563E+02  0.14504056394E+02  0.00000000000E+00 0. -1.
</event>
<event>
 7    1  0.5504027E-010  0.4778727E+02  0.7816164E-02  0.1312668E+00
        -11   -1    0    0    0    0  0.00000000000E+00  0.00000000000E+00  0.45593999997E+02  0.45594000000E+02  0.51100000000E-03 0.  1.
         11   -1    0    0    0    0 -0.00000000000E+00 -0.00000000000E+00 -0.45593999997E+02  0.45594000000E+02  0.51100000000E-03 0. -1.
    9900012    2    1    2    0    0  0.40433943917E+02 -0.15745721392E+02  0.88995182720E+00  0.47787267552E+02  0.19999984075E+02 0.  0.
         12    1    1    2    0    0 -0.40433943917E+02  0.15745721392E+02 -0.88995182720E+00  0.43400732448E+02  0.00000000000E+00 0. -1.
         11    1    3    3    0    0  0.32290214753E+02 -0.12573146662E+02 -0.94064962387E+00  0.34664489146E+02  0.51100000000E-03 0. -1.
        -11    1    3    3    0    0  0.64479011952E+01 -0.48344750224E+01 -0.22803308667E+01  0.83754097027E+01  0.51100000000E-03 0.  1.
         12    1    3    3    0    0  0.16958279680E+01  0.16619002920E+01  0.41109323178E+01  0.47473687026E+01  0.00000000000E+00 0. -1.
</event>
<event>
 7    1  0.5504027E-010  0.4778727E+02  0.7816164E-02  0.1312668E+00
        -11   -1    0    0    0    0  0.00000000000E+00  0.00000000000E+00  0.45593999997E+02  0.45594000000E+02  0.51100000000E-03 0.  1.
         11   -1    0    0    0    0 -0.00000000000E+00 -0.00000000000E+00 -0.45593999997E+02  0.45594000000E+02  0.51100000000E-03 0. -1.
    9900012    2    1    2    0    0 -0.32062202261E+02  0.28995230152E+02  0.38619733391E+01  0.47787273929E+02  0.20000013153E+02 0.  0.
         12    1    1    2    0    0  0.32062202261E+02 -0.28995230152E+02 -0.38619733391E+01  0.43400726071E+02  0.00000000000E+00 0. -1.
         11    1    3    3    0    0 -0.41274566829E+01  0.10405133079E+02  0.78790536641E+01  0.13688761082E+02  0.51100000000E-03 0. -1.
        -11    1    3    3    0    0 -0.20700974872E+02  0.13992492273E+02 -0.98156895427E+00  0.25005672927E+02  0.51100000000E-03 0.  1.
         12    1    3    3    0    0 -0.72337707060E+01  0.45976047998E+01 -0.30355113707E+01  0.90928399196E+01  0.00000000000E+00 0. -1.
</event>
<event>
 7    1  0.5504027E-010  0.4778728E+02  0.7816164E-02  0.1312668E+00
        -11   -1    0    0    0    0  0.00000000000E+00  0.00000000000E+00  0.45593999997E+02  0.45594000000E+02  0.51100000000E-03 0.  1.
         11   -1    0    0    0    0 -0.00000000000E+00 -0.00000000000E+00 -0.45593999997E+02  0.45594000000E+02  0.51100000000E-03 0. -1.
    9900012    2    1    2    0    0  0.58330251280E+01  0.42315872421E+02  0.76788994520E+01  0.47787277222E+02  0.20000028166E+02 0.  0.
         12    1    1    2    0    0 -0.58330251280E+01 -0.42315872421E+02 -0.76788994520E+01  0.43400722778E+02  0.00000000000E+00 0. -1.
         11    1    3    3    0    0  0.19796969317E+01 -0.37677009430E+00  0.23525203622E+01  0.30976616925E+01  0.51100000000E-03 0. -1.
        -11    1    3    3    0    0  0.76382172866E+01  0.34641478481E+02  0.41350689543E+01  0.35713767516E+02  0.51100000000E-03 0.  1.
        -12    1    3    3    0    0 -0.37848890902E+01  0.80511640342E+01  0.11913101355E+01  0.89758480140E+01  0.00000000000E+00 0.  1.
</event>
<event>
 7    1  0.5504027E-010  0.4778728E+02  0.7816164E-02  0.1312668E+00
        -11   -1    0    0    0    0  0.00000000000E+00  0.00000000000E+00  0.45593999997E+02  0.45594000000E+02  0.51100000000E-03 0.  1.
         11   -1    0    0    0    0 -0.00000000000E+00 -0.00000000000E+00 -0.45593999997E+02  0.45594000000E+02  0.51100000000E-03 0. -1.
    9900012    2    1    2    0    0 -0.58826895415E+00 -0.27292742777E+02  0.33739931003E+02  0.47787276357E+02  0.20000024222E+02 0.  0.
         12    1    1    2    0    0  0.58826895415E+00  0.27292742777E+02 -0.33739931003E+02  0.43400723643E+02  0.00000000000E+00 0. -1.
         11    1    3    3    0    0 -0.69315345712E+01 -0.32866436105E+01  0.47154405569E+01  0.90046420051E+01  0.51100000000E-03 0. -1.
        -11    1    3    3    0    0  0.13762030971E+01 -0.14519597419E+02  0.20153620647E+02  0.24877320386E+02  0.51100000000E-03 0.  1.
         12    1    3    3    0    0  0.49670625199E+01 -0.94865017478E+01  0.88708697994E+01  0.13905313966E+02  0.00000000000E+00 0. -1.
</event>
<event>
 7    1  0.5504027E-010  0.4778727E+02  0.7816164E-02  0.1312668E+00
        -11   -1    0    0    0    0  0.00000000000E+00  0.00000000000E+00  0.45593999997E+02  0.45594000000E+02  0.51100000000E-03 0.  1.
         11   -1    0    0    0    0 -0.00000000000E+00 -0.00000000000E+00 -0.45593999997E+02  0.45594000000E+02  0.51100000000E-03 0. -1.
    9900012    2    1    2    0    0  0.22708270682E+02 -0.23768860384E+02  0.28337233716E+02  0.47787273094E+02  0.20000009346E+02 0.  0.
         12    1    1    2    0    0 -0.22708270682E+02  0.23768860384E+02 -0.28337233716E+02  0.43400726906E+02  0.00000000000E+00 0. -1.
         11    1    3    3    0    0  0.15144881395E+02 -0.72746235242E+01  0.58130158617E+01  0.17778603251E+02  0.51100000000E-03 0. -1.
        -11    1    3    3    0    0  0.20472314544E+01 -0.10169405152E+02  0.75044993138E+01  0.12803338158E+02  0.51100000000E-03 0.  1.
         12    1    3    3    0    0  0.55161578319E+01 -0.63248317073E+01  0.15019718540E+02  0.17205331685E+02  0.00000000000E+00 0. -1.
</event>
<event>
 7    1  0.5504027E-010  0.4778727E+02  0.7816164E-02  0.1312668E+00
        -11   -1    0    0    0    0  0.00000000000E+00  0.00000000000E+00  0.45593999997E+02  0.45594000000E+02  0.51100000000E-03 0. -1.
         11   -1    0    0    0    0 -0.00000000000E+00 -0.00000000000E+00 -0.45593999997E+02  0.45594000000E+02  0.51100000000E-03 0.  1.
    9900012    2    1    2    0    0  0.24269195392E+02  0.10475274705E+02 -0.34422347651E+02  0.47787271401E+02  0.20000001626E+02 0.  0.
         12    1    1    2    0    0 -0.24269195392E+02 -0.10475274705E+02  0.34422347651E+02  0.43400728599E+02  0.00000000000E+00 0. -1.
         11    1    3    3    0    0  0.36502679993E+01 -0.28498094494E+01 -0.67242763814E+00  0.46795330488E+01  0.51100000000E-03 0. -1.
        -11    1    3    3    0    0  0.13545625774E+02  0.65929724781E+01 -0.27946852013E+02  0.31748666135E+02  0.51100000000E-03 0.  1.
        -12    1    3    3    0    0  0.70733016193E+01  0.67321116764E+01 -0.58030679997E+01  0.11359072217E+02  0.00000000000E+00 0.  1.
</event>
<event>
 7    1  0.5504027E-010  0.4778727E+02  0.7816164E-02  0.1312668E+00
        -11   -1    0    0    0    0  0.00000000000E+00  0.00000000000E+00  0.45593999997E+02  0.45594000000E+02  0.51100000000E-03 0.  1.
         11   -1    0    0    0    0 -0.00000000000E+00 -0.00000000000E+00 -0.45593999997E+02  0.45594000000E+02  0.51100000000E-03 0. -1.
    9900012    2    1    2    0    0  0.25095135749E+02  0.31970596687E+02  0.15222967377E+02  0.47787266982E+02  0.19999981477E+02 0.  0.
         12    1    1    2    0    0 -0.25095135749E+02 -0.31970596687E+02 -0.15222967377E+02  0.43400733018E+02  0.00000000000E+00 0. -1.
         11    1    3    3    0    0  0.19113516730E+01  0.15193258541E+02  0.96833634387E+01  0.18117833702E+02  0.51100000000E-03 0. -1.
        -11    1    3    3    0    0  0.17284689944E+02  0.11356675146E+02  0.63051795991E+01  0.21621513982E+02  0.51100000000E-03 0.  1.
         12    1    3    3    0    0  0.58990941325E+01  0.54206629996E+01 -0.76557566066E+00  0.80479192983E+01  0.00000000000E+00 0. -1.
</event>
<event>
 7    1  0.5504027E-010  0.4778727E+02  0.7816164E-02  0.1312668E+00
        -11   -1    0    0    0    0  0.00000000000E+00  0.00000000000E+00  0.45593999997E+02  0.45594000000E+02  0.51100000000E-03 0.  1.
         11   -1    0    0    0    0 -0.00000000000E+00 -0.00000000000E+00 -0.45593999997E+02  0.45594000000E+02  0.51100000000E-03 0. -1.
    9900012    2    1    2    0    0  0.39646464077E+02  0.14883164915E+02 -0.95011908097E+01  0.47787270300E+02  0.19999996607E+02 0.  0.
         12    1    1    2    0    0 -0.39646464077E+02 -0.14883164915E+02  0.95011908097E+01  0.43400729700E+02  0.00000000000E+00 0. -1.
         11    1    3    3    0    0  0.31040248211E+02  0.17268423091E+02 -0.87728056658E+01  0.36587669570E+02  0.51100000000E-03 0. -1.
        -11    1    3    3    0    0  0.38456227929E+01 -0.37648510116E+01  0.17485953160E+01  0.56586662426E+01  0.51100000000E-03 0.  1.
         12    1    3    3    0    0  0.47605930726E+01  0.13795928356E+01 -0.24769804599E+01  0.55409344874E+01  0.00000000000E+00 0. -1.
</event>
<event>
 7    1  0.5504027E-010  0.4778727E+02  0.7816164E-02  0.1312668E+00
        -11   -1    0    0    0    0  0.00000000000E+00  0.00000000000E+00  0.45593999997E+02  0.45594000000E+02  0.51100000000E-03 0.  1.
         11   -1    0    0    0    0 -0.00000000000E+00 -0.00000000000E+00 -0.45593999997E+02  0.45594000000E+02  0.51100000000E-03 0. -1.
    9900012    2    1    2    0    0 -0.27840404643E+01 -0.23298668495E+02  0.36510879703E+02  0.47787272223E+02  0.20000005372E+02 0.  0.
         12    1    1    2    0    0  0.27840404643E+01  0.23298668495E+02 -0.36510879703E+02  0.43400727777E+02  0.00000000000E+00 0. -1.
         11    1    3    3    0    0  0.14875343863E+01 -0.44868437493E+01  0.36966180159E+00  0.47414317975E+01  0.51100000000E-03 0. -1.
        -11    1    3    3    0    0 -0.30883631587E+01 -0.15791651428E+01  0.16627018509E+02  0.16984978490E+02  0.51100000000E-03 0.  1.
        -12    1    3    3    0    0 -0.11832116920E+01 -0.17232659603E+02  0.19514199392E+02  0.26060861935E+02  0.00000000000E+00 0.  1.
</event>
<event>
 7    1  0.5504027E-010  0.4778727E+02  0.7816164E-02  0.1312668E+00
        -11   -1    0    0    0    0  0.00000000000E+00  0.00000000000E+00  0.45593999997E+02  0.45594000000E+02  0.51100000000E-03 0. -1.
         11   -1    0    0    0    0 -0.00000000000E+00 -0.00000000000E+00 -0.45593999997E+02  0.45594000000E+02  0.51100000000E-03 0.  1.
    9900012    2    1    2    0    0  0.24546810463E+02 -0.32538993415E+02 -0.14909430900E+02  0.47787272747E+02  0.20000007761E+02 0.  0.
         12    1    1    2    0    0 -0.24546810463E+02  0.32538993415E+02  0.14909430900E+02  0.43400727253E+02  0.00000000000E+00 0. -1.
         11    1    3    3    0    0  0.77430648470E+00  0.38515469332E+00 -0.49158476804E+01  0.49913378315E+01  0.51100000000E-03 0. -1.
        -11    1    3    3    0    0  0.21219971281E+02 -0.26441267231E+02 -0.11240352274E+02  0.35717969056E+02  0.51100000000E-03 0.  1.
         12    1    3    3    0    0  0.25525326969E+01 -0.64828808770E+01  0.12467690537E+01  0.70779658595E+01  0.00000000000E+00 0. -1.
</event>
<event>
 7    1  0.5504027E-010  0.4778728E+02  0.7816164E-02  0.1312668E+00
        -11   -1    0    0    0    0  0.00000000000E+00  0.00000000000E+00  0.45593999997E+02  0.45594000000E+02  0.51100000000E-03 0.  1.
         11   -1    0    0    0    0 -0.00000000000E+00 -0.00000000000E+00 -0.45593999997E+02  0.45594000000E+02  0.51100000000E-03 0. -1.
    9900012    2    1    2    0    0 -0.34915105197E+02 -0.25549386650E+02  0.34331683832E+01  0.47787281409E+02  0.20000047255E+02 0.  0.
         12    1    1    2    0    0  0.34915105197E+02  0.25549386650E+02 -0.34331683832E+01  0.43400718591E+02  0.00000000000E+00 0. -1.
         11    1    3    3    0    0 -0.67510564590E+01 -0.64674023882E+01 -0.33288311618E+01  0.99239696758E+01  0.51100000000E-03 0. -1.
        -11    1    3    3    0    0 -0.37939712931E+01 -0.10335355676E+02  0.44257456239E+01  0.11865960547E+02  0.51100000000E-03 0.  1.
        -12    1    3    3    0    0 -0.24370077445E+02 -0.87466285854E+01  0.23362539211E+01  0.25997351185E+02  0.00000000000E+00 0.  1.
</event>
<event>
 7    1  0.5504027E-010  0.4778727E+02  0.7816164E-02  0.1312668E+00
        -11   -1    0    0    0    0  0.00000000000E+00  0.00000000000E+00  0.45593999997E+02  0.45594000000E+02  0.51100000000E-03 0. -1.
         11   -1    0    0    0    0 -0.00000000000E+00 -0.00000000000E+00 -0.45593999997E+02  0.45594000000E+02  0.51100000000E-03 0.  1.
    9900012    2    1    2    0    0  0.33248719377E+02  0.12883266701E+01 -0.27865501441E+02  0.47787270785E+02  0.19999998817E+02 0.  0.
         12    1    1    2    0    0 -0.33248719377E+02 -0.12883266701E+01  0.27865501441E+02  0.43400729215E+02  0.00000000000E+00 0. -1.
         11    1    3    3    0    0  0.99028090006E+01  0.28094625381E+01 -0.40655839160E+01  0.11067415177E+02  0.51100000000E-03 0. -1.
        -11    1    3    3    0    0  0.25295105937E+02 -0.30123992010E+01 -0.21165765932E+02  0.33119580025E+02  0.51100000000E-03 0.  1.
        -12    1    3    3    0    0 -0.19491955601E+01  0.14912633330E+01 -0.26341515927E+01  0.36002755830E+01  0.00000000000E+00 0.  1.
</event>
<event>
 7    1  0.5504027E-010  0.4778727E+02  0.7816164E-02  0.1312668E+00
        -11   -1    0    0    0    0  0.00000000000E+00  0.00000000000E+00  0.45593999997E+02  0.45594000000E+02  0.51100000000E-03 0. -1.
         11   -1    0    0    0    0 -0.00000000000E+00 -0.00000000000E+00 -0.45593999997E+02  0.45594000000E+02  0.51100000000E-03 0.  1.
    9900012    2    1    2    0    0  0.29315288980E+01  0.35323804937E+02 -0.25045122750E+02  0.47787271545E+02  0.20000002283E+02 0.  0.
         12    1    1    2    0    0 -0.29315288980E+01 -0.35323804937E+02  0.25045122750E+02  0.43400728455E+02  0.00000000000E+00 0. -1.
         11    1    3    3    0    0  0.93005085248E+00  0.24426063056E+01 -0.96772370581E+01  0.10023983115E+02  0.51100000000E-03 0.  1.
        -11    1    3    3    0    0 -0.23864194155E+01  0.14076121749E+02 -0.23354343899E+01  0.14466736162E+02  0.51100000000E-03 0. -1.
         12    1    3    3    0    0  0.43878974610E+01  0.18805076882E+02 -0.13032451302E+02  0.23296552268E+02  0.00000000000E+00 0. -1.
</event>
<event>
 7    1  0.5504027E-010  0.4778727E+02  0.7816164E-02  0.1312668E+00
        -11   -1    0    0    0    0  0.00000000000E+00  0.00000000000E+00  0.45593999997E+02  0.45594000000E+02  0.51100000000E-03 0.  1.
         11   -1    0    0    0    0 -0.00000000000E+00 -0.00000000000E+00 -0.45593999997E+02  0.45594000000E+02  0.51100000000E-03 0. -1.
    9900012    2    1    2    0    0 -0.14036748517E+02  0.37643091769E+02  0.16419204798E+02  0.47787274740E+02  0.20000016850E+02 0.  0.
         12    1    1    2    0    0  0.14036748517E+02 -0.37643091769E+02 -0.16419204798E+02  0.43400725260E+02  0.00000000000E+00 0. -1.
         11    1    3    3    0    0 -0.11217206704E+02  0.12704822419E+02  0.88953523613E+01  0.19140677439E+02  0.51100000000E-03 0. -1.
        -11    1    3    3    0    0  0.35390308372E+01  0.59331446901E+01  0.48215249463E+01  0.84246096793E+01  0.51100000000E-03 0.  1.
        -12    1    3    3    0    0 -0.63585726504E+01  0.19005124660E+02  0.27023274908E+01  0.20221987622E+02  0.00000000000E+00 0.  1.
</event>
<event>
 7    1  0.5504027E-010  0.4778726E+02  0.7816164E-02  0.1312668E+00
        -11   -1    0    0    0    0  0.00000000000E+00  0.00000000000E+00  0.45593999997E+02  0.45594000000E+02  0.51100000000E-03 0. -1.
         11   -1    0    0    0    0 -0.00000000000E+00 -0.00000000000E+00 -0.45593999997E+02  0.45594000000E+02  0.51100000000E-03 0.  1.
    9900012    2    1    2    0    0 -0.37843591792E+02 -0.18758364055E+02  0.99805061127E+01  0.47787260790E+02  0.19999953247E+02 0.  0.
         12    1    1    2    0    0  0.37843591792E+02  0.18758364055E+02 -0.99805061127E+01  0.43400739210E+02  0.00000000000E+00 0. -1.
         11    1    3    3    0    0 -0.97152529084E+01 -0.13510737531E+02  0.73202384024E+01  0.18179990600E+02  0.51100000000E-03 0. -1.
        -11    1    3    3    0    0 -0.21303102463E+02 -0.66072679325E+01  0.35720814748E+01  0.22588446835E+02  0.51100000000E-03 0.  1.
         12    1    3    3    0    0 -0.68252364203E+01  0.13596414085E+01 -0.91181376453E+00  0.70188233553E+01  0.00000000000E+00 0. -1.
</event>
<event>
 7    1  0.5504027E-010  0.4778728E+02  0.7816164E-02  0.1312668E+00
        -11   -1    0    0    0    0  0.00000000000E+00  0.00000000000E+00  0.45593999997E+02  0.45594000000E+02  0.51100000000E-03 0.  1.
         11   -1    0    0    0    0 -0.00000000000E+00 -0.00000000000E+00 -0.45593999997E+02  0.45594000000E+02  0.51100000000E-03 0. -1.
    9900012    2    1    2    0    0 -0.41494149758E+02 -0.45655683306E+01 -0.11874927346E+02  0.47787276760E+02  0.20000026059E+02 0.  0.
         12    1    1    2    0    0  0.41494149758E+02  0.45655683306E+01  0.11874927346E+02  0.43400723240E+02  0.00000000000E+00 0. -1.
         11    1    3    3    0    0 -0.37351898475E+01  0.52967686739E+01 -0.16804117243E+01  0.66956094126E+01  0.51100000000E-03 0. -1.
        -11    1    3    3    0    0 -0.33280608709E+02 -0.87373552887E+01 -0.61508377880E+01  0.34953871019E+02  0.51100000000E-03 0.  1.
         12    1    3    3    0    0 -0.44783512016E+01 -0.11249817158E+01 -0.40436778335E+01  0.61377963282E+01  0.00000000000E+00 0. -1.
</event>
<event>
 7    1  0.5504027E-010  0.4778723E+02  0.7816164E-02  0.1312668E+00
        -11   -1    0    0    0    0  0.00000000000E+00  0.00000000000E+00  0.45593999997E+02  0.45594000000E+02  0.51100000000E-03 0.  1.
         11   -1    0    0    0    0 -0.00000000000E+00 -0.00000000000E+00 -0.45593999997E+02  0.45594000000E+02  0.51100000000E-03 0. -1.
    9900012    2    1    2    0    0 -0.11201672499E+01  0.22115033312E+02  0.37326896650E+02  0.47787231728E+02  0.19999820741E+02 0.  0.
         12    1    1    2    0    0  0.11201672499E+01 -0.22115033312E+02 -0.37326896650E+02  0.43400768272E+02  0.00000000000E+00 0. -1.
         11    1    3    3    0    0 -0.18896644872E+01 -0.30929669412E+01  0.49767560850E+01  0.61567343425E+01  0.51100000000E-03 0. -1.
        -11    1    3    3    0    0  0.95823555177E+00  0.24340475797E+02  0.32611622548E+02  0.40704973933E+02  0.51100000000E-03 0.  1.
         12    1    3    3    0    0 -0.18873831448E+00  0.86752445676E+00 -0.26148198330E+00  0.92552345298E+00  0.00000000000E+00 0. -1.
</event>
<event>
 7    1  0.5504027E-010  0.4778727E+02  0.7816164E-02  0.1312668E+00
        -11   -1    0    0    0    0  0.00000000000E+00  0.00000000000E+00  0.45593999997E+02  0.45594000000E+02  0.51100000000E-03 0. -1.
         11   -1    0    0    0    0 -0.00000000000E+00 -0.00000000000E+00 -0.45593999997E+02  0.45594000000E+02  0.51100000000E-03 0.  1.
    9900012    2    1    2    0    0 -0.96901499852E+00  0.38534756531E+02  0.19943834851E+02  0.47787274205E+02  0.20000014408E+02 0.  0.
         12    1    1    2    0    0  0.96901499852E+00 -0.38534756531E+02 -0.19943834851E+02  0.43400725795E+02  0.00000000000E+00 0. -1.
         11    1    3    3    0    0  0.11313890358E+01  0.15770794416E+01 -0.96735856653E+00  0.21686409506E+01  0.51100000000E-03 0. -1.
        -11    1    3    3    0    0  0.10399972737E+01  0.66066037381E+00  0.62111272549E+01  0.63321535433E+01  0.51100000000E-03 0.  1.
        -12    1    3    3    0    0 -0.31404013081E+01  0.36297016716E+02  0.14700066163E+02  0.39286479711E+02  0.00000000000E+00 0.  1.
</event>
<event>
 7    1  0.5504027E-010  0.4778727E+02  0.7816164E-02  0.1312668E+00
        -11   -1    0    0    0    0  0.00000000000E+00  0.00000000000E+00  0.45593999997E+02  0.45594000000E+02  0.51100000000E-03 0. -1.
         11   -1    0    0    0    0 -0.00000000000E+00 -0.00000000000E+00 -0.45593999997E+02  0.45594000000E+02  0.51100000000E-03 0.  1.
    9900012    2    1    2    0    0 -0.30889595177E+02 -0.29763102817E+02  0.66040805209E+01  0.47787271216E+02  0.20000000783E+02 0.  0.
         12    1    1    2    0    0  0.30889595177E+02  0.29763102817E+02 -0.66040805209E+01  0.43400728784E+02  0.00000000000E+00 0. -1.
         11    1    3    3    0    0 -0.10523489634E+02 -0.19995616543E+02  0.89808448100E+01  0.24315100016E+02  0.51100000000E-03 0. -1.
        -11    1    3    3    0    0 -0.14349995133E+02 -0.45376469010E+01  0.32913876228E+00  0.15053934113E+02  0.51100000000E-03 0.  1.
         12    1    3    3    0    0 -0.60161104096E+01 -0.52298393726E+01 -0.27059030514E+01  0.84182370867E+01  0.00000000000E+00 0. -1.
</event>
<event>
 7    1  0.5504027E-010  0.4778726E+02  0.7816164E-02  0.1312668E+00
        -11   -1    0    0    0    0  0.00000000000E+00  0.00000000000E+00  0.45593999997E+02  0.45594000000E+02  0.51100000000E-03 0. -1.
         11   -1    0    0    0    0 -0.00000000000E+00 -0.00000000000E+00 -0.45593999997E+02  0.45594000000E+02  0.51100000000E-03 0.  1.
    9900012    2    1    2    0    0  0.22273485785E+02 -0.37239665873E+02  0.85047604576E+00  0.47787260458E+02  0.19999951730E+02 0.  0.
         12    1    1    2    0    0 -0.22273485785E+02  0.37239665873E+02 -0.85047604576E+00  0.43400739542E+02  0.00000000000E+00 0. -1.
         11    1    3    3    0    0  0.86977483298E+01 -0.13954521348E+01 -0.21813006254E-01  0.88090061152E+01  0.51100000000E-03 0. -1.
        -11    1    3    3    0    0  0.12649887001E+02 -0.35267260034E+02 -0.17254567518E+00  0.37467706678E+02  0.51100000000E-03 0.  1.
        -12    1    3    3    0    0  0.92585045402E+00 -0.57695370443E+00  0.10448347272E+01  0.15105476647E+01  0.00000000000E+00 0.  1.
</event>
<event>
 7    1  0.5504027E-010  0.4778727E+02  0.7816164E-02  0.1312668E+00
        -11   -1    0    0    0    0  0.00000000000E+00  0.00000000000E+00  0.45593999997E+02  0.45594000000E+02  0.51100000000E-03 0.  1.
         11   -1    0    0    0    0 -0.00000000000E+00 -0.00000000000E+00 -0.45593999997E+02  0.45594000000E+02  0.51100000000E-03 0. -1.
    9900012    2    1    2    0    0  0.79845578550E+01  0.28344519709E+02  0.31881940915E+02  0.47787272837E+02  0.20000008175E+02 0.  0.
         12    1    1    2    0    0 -0.79845578550E+01 -0.28344519709E+02 -0.31881940915E+02  0.43400727163E+02  0.00000000000E+00 0. -1.
         11    1    3    3    0    0 -0.40373988637E+01  0.77741372409E+01  0.18838219833E+01  0.89602781738E+01  0.51100000000E-03 0.  1.
        -11    1    3    3    0    0  0.11239395738E+02  0.17682347469E+02  0.22453720821E+02  0.30710893956E+02  0.51100000000E-03 0. -1.
        -12    1    3    3    0    0  0.78256098024E+00  0.28880349995E+01  0.75443981108E+01  0.81161007079E+01  0.00000000000E+00 0.  1.
</event>
<event>
 7    1  0.5504027E-010  0.4778729E+02  0.7816164E-02  0.1312668E+00
        -11   -1    0    0    0    0  0.00000000000E+00  0.00000000000E+00  0.45593999997E+02  0.45594000000E+02  0.51100000000E-03 0.  1.
         11   -1    0    0    0    0 -0.00000000000E+00 -0.00000000000E+00 -0.45593999997E+02  0.45594000000E+02  0.51100000000E-03 0. -1.
    9900012    2    1    2    0    0  0.33957392802E+02  0.17955212835E+02  0.20202156534E+02  0.47787293525E+02  0.20000102497E+02 0.  0.
         12    1    1    2    0    0 -0.33957392802E+02 -0.17955212835E+02 -0.20202156534E+02  0.43400706475E+02  0.00000000000E+00 0. -1.
         11    1    3    3    0    0 -0.59705527688E+00  0.32424183469E+01  0.41914309530E+01  0.53327146403E+01  0.51100000000E-03 0. -1.
        -11    1    3    3    0    0  0.33087148228E+02  0.10391899496E+02  0.13277909289E+02  0.37135614016E+02  0.51100000000E-03 0.  1.
         12    1    3    3    0    0  0.14672998518E+01  0.43208949921E+01  0.27328162923E+01  0.53189648688E+01  0.00000000000E+00 0. -1.
</event>
<event>
 7    1  0.5504027E-010  0.4778727E+02  0.7816164E-02  0.1312668E+00
        -11   -1    0    0    0    0  0.00000000000E+00  0.00000000000E+00  0.45593999997E+02  0.45594000000E+02  0.51100000000E-03 0. -1.
         11   -1    0    0    0    0 -0.00000000000E+00 -0.00000000000E+00 -0.45593999997E+02  0.45594000000E+02  0.51100000000E-03 0.  1.
    9900012    2    1    2    0    0  0.33548653460E+02 -0.27272309516E+02 -0.37858152524E+01  0.47787269448E+02  0.19999992722E+02 0.  0.
         12    1    1    2    0    0 -0.33548653460E+02  0.27272309516E+02  0.37858152524E+01  0.43400730552E+02  0.00000000000E+00 0. -1.
         11    1    3    3    0    0  0.11739664117E+02 -0.11626518227E+02  0.17022937956E+01  0.16610040461E+02  0.51100000000E-03 0. -1.
        -11    1    3    3    0    0 -0.19673739854E+00 -0.65295308890E+01 -0.31235775680E+01  0.72408712403E+01  0.51100000000E-03 0.  1.
        -12    1    3    3    0    0  0.22005726741E+02 -0.91162604001E+01 -0.23645314801E+01  0.23936357747E+02  0.00000000000E+00 0.  1.
</event>
<event>
 7    1  0.5504027E-010  0.4778728E+02  0.7816164E-02  0.1312668E+00
        -11   -1    0    0    0    0  0.00000000000E+00  0.00000000000E+00  0.45593999997E+02  0.45594000000E+02  0.51100000000E-03 0. -1.
         11   -1    0    0    0    0 -0.00000000000E+00 -0.00000000000E+00 -0.45593999997E+02  0.45594000000E+02  0.51100000000E-03 0.  1.
    9900012    2    1    2    0    0  0.26771036332E+02 -0.34128688753E+02 -0.14720444841E+01  0.47787277687E+02  0.20000030288E+02 0.  0.
         12    1    1    2    0    0 -0.26771036332E+02  0.34128688753E+02  0.14720444841E+01  0.43400722313E+02  0.00000000000E+00 0. -1.
         11    1    3    3    0    0  0.59721917568E+00 -0.12177667240E+02  0.34853300912E+01  0.12680685165E+02  0.51100000000E-03 0. -1.
        -11    1    3    3    0    0  0.11547200150E+01 -0.19397952965E+01 -0.18500472365E+01  0.29187084719E+01  0.51100000000E-03 0.  1.
         12    1    3    3    0    0  0.25019097142E+02 -0.20011226217E+02 -0.31073273388E+01  0.32187884051E+02  0.00000000000E+00 0. -1.
</event>
<event>
 7    1  0.5504027E-010  0.4778727E+02  0.7816164E-02  0.1312668E+00
        -11   -1    0    0    0    0  0.00000000000E+00  0.00000000000E+00  0.45593999997E+02  0.45594000000E+02  0.51100000000E-03 0.  1.
         11   -1    0    0    0    0 -0.00000000000E+00 -0.00000000000E+00 -0.45593999997E+02  0.45594000000E+02  0.51100000000E-03 0. -1.
    9900012    2    1    2    0    0  0.10160602477E+02 -0.41924323608E+02  0.47683065171E+01  0.47787268443E+02  0.19999988137E+02 0.  0.
         12    1    1    2    0    0 -0.10160602477E+02  0.41924323608E+02 -0.47683065171E+01  0.43400731557E+02  0.00000000000E+00 0. -1.
         11    1    3    3    0    0  0.10581630433E+02 -0.18585143524E+02  0.79791559017E+01  0.22826418720E+02  0.51100000000E-03 0. -1.
        -11    1    3    3    0    0 -0.71924253902E+00 -0.21147927126E+02 -0.54113405374E+01  0.21841124931E+02  0.51100000000E-03 0.  1.
         12    1    3    3    0    0  0.29821458320E+00 -0.21912529574E+01  0.22004911528E+01  0.31197247915E+01  0.00000000000E+00 0. -1.
</event>
<event>
 7    1  0.5504027E-010  0.4778727E+02  0.7816164E-02  0.1312668E+00
        -11   -1    0    0    0    0  0.00000000000E+00  0.00000000000E+00  0.45593999997E+02  0.45594000000E+02  0.51100000000E-03 0. -1.
         11   -1    0    0    0    0 -0.00000000000E+00 -0.00000000000E+00 -0.45593999997E+02  0.45594000000E+02  0.51100000000E-03 0.  1.
    9900012    2    1    2    0    0 -0.41877254629E+02  0.10588667933E+02 -0.42188534807E+01  0.47787273410E+02  0.20000010787E+02 0.  0.
         12    1    1    2    0    0  0.41877254629E+02 -0.10588667933E+02  0.42188534807E+01  0.43400726590E+02  0.00000000000E+00 0. -1.
         11    1    3    3    0    0 -0.37602891091E+01 -0.37806823430E+01  0.28482262653E+01  0.60453061364E+01  0.51100000000E-03 0. -1.
        -11    1    3    3    0    0 -0.25999733339E+02  0.12505851945E+02 -0.42449890658E+01  0.29161659743E+02  0.51100000000E-03 0.  1.
         12    1    3    3    0    0 -0.12117232181E+02  0.18634983304E+01 -0.28220906803E+01  0.12580307531E+02  0.00000000000E+00 0. -1.
</event>
<event>
 7    1  0.5504027E-010  0.4778728E+02  0.7816164E-02  0.1312668E+00
        -11   -1    0    0    0    0  0.00000000000E+00  0.00000000000E+00  0.45593999997E+02  0.45594000000E+02  0.51100000000E-03 0.  1.
         11   -1    0    0    0    0 -0.00000000000E+00 -0.00000000000E+00 -0.45593999997E+02  0.45594000000E+02  0.51100000000E-03 0. -1.
    9900012    2    1    2    0    0 -0.26566040509E+02  0.29146165937E+02  0.18120964703E+02  0.47787275825E+02  0.20000021796E+02 0.  0.
         12    1    1    2    0    0  0.26566040509E+02 -0.29146165937E+02 -0.18120964703E+02  0.43400724175E+02  0.00000000000E+00 0. -1.
         11    1    3    3    0    0 -0.13767073425E+02  0.41001078346E+01  0.26662484987E+01  0.14609999188E+02  0.51100000000E-03 0. -1.
        -11    1    3    3    0    0 -0.59759790788E+01  0.19971382366E+02  0.11332776722E+02  0.23727626684E+02  0.51100000000E-03 0.  1.
        -12    1    3    3    0    0 -0.68229880046E+01  0.50746757367E+01  0.41219394825E+01  0.94496499533E+01  0.00000000000E+00 0.  1.
</event>
<event>
 7    1  0.5524546E-010  0.4778727E+02  0.7816164E-02  0.1312668E+00
        -11   -1    0    0    0    0  0.00000000000E+00  0.00000000000E+00  0.45593999997E+02  0.45594000000E+02  0.51100000000E-03 0.  1.
         11   -1    0    0    0    0 -0.00000000000E+00 -0.00000000000E+00 -0.45593999997E+02  0.45594000000E+02  0.51100000000E-03 0. -1.
    9900012    2    1    2    0    0 -0.32252930609E+02 -0.28509647145E+02  0.55292130228E+01  0.47787266021E+02  0.19999977097E+02 0.  0.
         12    1    1    2    0    0  0.32252930609E+02  0.28509647145E+02 -0.55292130228E+01  0.43400733979E+02  0.00000000000E+00 0. -1.
         11    1    3    3    0    0 -0.21372283669E+01  0.34733316620E+00  0.18568592643E+01  0.28524221302E+01  0.51100000000E-03 0. -1.
        -11    1    3    3    0    0 -0.35431191118E+01 -0.12499650584E+02  0.44168338608E+01  0.13722367849E+02  0.51100000000E-03 0.  1.
        -12    1    3    3    0    0 -0.26572583131E+02 -0.16357329727E+02 -0.74448010230E+00  0.31212476042E+02  0.00000000000E+00 0.  1.
</event>
<event>
 7    1  0.5504027E-010  0.4778727E+02  0.7816164E-02  0.1312668E+00
        -11   -1    0    0    0    0  0.00000000000E+00  0.00000000000E+00  0.45593999997E+02  0.45594000000E+02  0.51100000000E-03 0. -1.
         11   -1    0    0    0    0 -0.00000000000E+00 -0.00000000000E+00 -0.45593999997E+02  0.45594000000E+02  0.51100000000E-03 0.  1.
    9900012    2    1    2    0    0 -0.44943818046E+01  0.36951277939E+02 -0.22316508746E+02  0.47787274525E+02  0.20000015870E+02 0.  0.
         12    1    1    2    0    0  0.44943818046E+01 -0.36951277939E+02  0.22316508746E+02  0.43400725475E+02  0.00000000000E+00 0. -1.
         11    1    3    3    0    0 -0.10307555330E+01 -0.19352629173E+01  0.21799843001E+00  0.22034570802E+01  0.51100000000E-03 0. -1.
        -11    1    3    3    0    0 -0.29489698401E+01  0.62185637008E+01 -0.29198862853E+01  0.74761416385E+01  0.51100000000E-03 0.  1.
         12    1    3    3    0    0 -0.51465643151E+00  0.32667977155E+02 -0.19614620891E+02  0.38107675806E+02  0.00000000000E+00 0. -1.
</event>
<event>
 7    1  0.5504027E-010  0.4778726E+02  0.7816164E-02  0.1312668E+00
        -11   -1    0    0    0    0  0.00000000000E+00  0.00000000000E+00  0.45593999997E+02  0.45594000000E+02  0.51100000000E-03 0. -1.
         11   -1    0    0    0    0 -0.00000000000E+00 -0.00000000000E+00 -0.45593999997E+02  0.45594000000E+02  0.51100000000E-03 0.  1.
    9900012    2    1    2    0    0  0.42284947104E+01 -0.41665432862E+02  0.11390171301E+02  0.47787257318E+02  0.19999937415E+02 0.  0.
         12    1    1    2    0    0 -0.42284947104E+01  0.41665432862E+02 -0.11390171301E+02  0.43400742682E+02  0.00000000000E+00 0. -1.
         11    1    3    3    0    0  0.82002938561E+01 -0.17582484875E+02  0.11818961878E+01  0.19436704262E+02  0.51100000000E-03 0.  1.
        -11    1    3    3    0    0 -0.45583618602E+01 -0.13203335354E+02  0.86025515122E+00  0.13994526305E+02  0.51100000000E-03 0. -1.
         12    1    3    3    0    0  0.58656271443E+00 -0.10879612634E+02  0.93480199615E+01  0.14356026751E+02  0.00000000000E+00 0. -1.
</event>
<event>
 7    1  0.5504027E-010  0.4778727E+02  0.7816164E-02  0.1312668E+00
        -11   -1    0    0    0    0  0.00000000000E+00  0.00000000000E+00  0.45593999997E+02  0.45594000000E+02  0.51100000000E-03 0.  1.
         11   -1    0    0    0    0 -0.00000000000E+00 -0.00000000000E+00 -0.45593999997E+02  0.45594000000E+02  0.51100000000E-03 0. -1.
    9900012    2    1    2    0    0  0.38521444965E+02 -0.17137530227E+02  0.10296933155E+02  0.47787268476E+02  0.19999988289E+02 0.  0.
         12    1    1    2    0    0 -0.38521444965E+02  0.17137530227E+02 -0.10296933155E+02  0.43400731524E+02  0.00000000000E+00 0. -1.
         11    1    3    3    0    0  0.28732940860E+02 -0.97380415995E+01  0.24089540619E+01  0.30433770792E+02  0.51100000000E-03 0.  1.
        -11    1    3    3    0    0  0.71957938771E+01 -0.38478722769E+01  0.96312579065E+01  0.12623260264E+02  0.51100000000E-03 0. -1.
         12    1    3    3    0    0  0.25927102273E+01 -0.35516163505E+01 -0.17432788137E+01  0.47302374197E+01  0.00000000000E+00 0. -1.
</event>
<event>
 7    1  0.5504027E-010  0.4778727E+02  0.7816164E-02  0.1312668E+00
        -11   -1    0    0    0    0  0.00000000000E+00  0.00000000000E+00  0.45593999997E+02  0.45594000000E+02  0.51100000000E-03 0.  1.
         11   -1    0    0    0    0 -0.00000000000E+00 -0.00000000000E+00 -0.45593999997E+02  0.45594000000E+02  0.51100000000E-03 0. -1.
    9900012    2    1    2    0    0 -0.12842203126E+02 -0.84466841568E+01  0.40587613130E+02  0.47787274269E+02  0.20000014704E+02 0.  0.
         12    1    1    2    0    0  0.12842203126E+02  0.84466841568E+01 -0.40587613130E+02  0.43400725731E+02  0.00000000000E+00 0. -1.
         11    1    3    3    0    0  0.26418375021E+01 -0.61339704762E+01  0.44172590728E+01  0.80073139796E+01  0.51100000000E-03 0. -1.
        -11    1    3    3    0    0 -0.13850687554E+02 -0.37849810619E+01  0.31360403405E+02  0.34491194954E+02  0.51100000000E-03 0.  1.
        -12    1    3    3    0    0 -0.16333530735E+01  0.14722673813E+01  0.48099506519E+01  0.52887653359E+01  0.00000000000E+00 0.  1.
</event>
<event>
 7    1  0.5504027E-010  0.4778726E+02  0.7816164E-02  0.1312668E+00
        -11   -1    0    0    0    0  0.00000000000E+00  0.00000000000E+00  0.45593999997E+02  0.45594000000E+02  0.51100000000E-03 0. -1.
         11   -1    0    0    0    0 -0.00000000000E+00 -0.00000000000E+00 -0.45593999997E+02  0.45594000000E+02  0.51100000000E-03 0.  1.
    9900012    2    1    2    0    0  0.17098683993E+02  0.29437390986E+02 -0.26920245064E+02  0.47787256036E+02  0.19999931571E+02 0.  0.
         12    1    1    2    0    0 -0.17098683993E+02 -0.29437390986E+02  0.26920245064E+02  0.43400743964E+02  0.00000000000E+00 0. -1.
         11    1    3    3    0    0  0.93174610351E+01  0.25988853881E+02 -0.23427677711E+02  0.36209000116E+02  0.51100000000E-03 0. -1.
        -11    1    3    3    0    0  0.32759320516E+01  0.26495753687E+01  0.18002817034E+01  0.45818113137E+01  0.51100000000E-03 0.  1.
         12    1    3    3    0    0  0.45052909059E+01  0.79896173557E+00 -0.52928490557E+01  0.69964446062E+01  0.00000000000E+00 0. -1.
</event>
<event>
 7    1  0.5504027E-010  0.4778727E+02  0.7816164E-02  0.1312668E+00
        -11   -1    0    0    0    0  0.00000000000E+00  0.00000000000E+00  0.45593999997E+02  0.45594000000E+02  0.51100000000E-03 0.  1.
         11   -1    0    0    0    0 -0.00000000000E+00 -0.00000000000E+00 -0.45593999997E+02  0.45594000000E+02  0.51100000000E-03 0. -1.
    9900012    2    1    2    0    0 -0.25104032516E+02  0.13769502927E+02  0.32616126184E+02  0.47787270205E+02  0.19999996174E+02 0.  0.
         12    1    1    2    0    0  0.25104032516E+02 -0.13769502927E+02 -0.32616126184E+02  0.43400729795E+02  0.00000000000E+00 0. -1.
         11    1    3    3    0    0 -0.20016162217E+02  0.13589692587E+02  0.22333169306E+02  0.32925627496E+02  0.51100000000E-03 0.  1.
        -11    1    3    3    0    0 -0.21726588236E+01  0.41842285759E+01  0.18160637850E+01  0.50523561901E+01  0.51100000000E-03 0. -1.
         12    1    3    3    0    0 -0.29152114753E+01 -0.40044182356E+01  0.84668930936E+01  0.98092865189E+01  0.00000000000E+00 0. -1.
</event>
<event>
 7    1  0.5504027E-010  0.4778726E+02  0.7816164E-02  0.1312668E+00
        -11   -1    0    0    0    0  0.00000000000E+00  0.00000000000E+00  0.45593999997E+02  0.45594000000E+02  0.51100000000E-03 0.  1.
         11   -1    0    0    0    0 -0.00000000000E+00 -0.00000000000E+00 -0.45593999997E+02  0.45594000000E+02  0.51100000000E-03 0. -1.
    9900012    2    1    2    0    0 -0.13796155627E+02  0.29621270207E+02  0.28563443179E+02  0.47787264465E+02  0.19999970000E+02 0.  0.
         12    1    1    2    0    0  0.13796155627E+02 -0.29621270207E+02 -0.28563443179E+02  0.43400735535E+02  0.00000000000E+00 0. -1.
         11    1    3    3    0    0  0.17236077687E+01  0.91636632382E+01  0.50687534944E+01  0.10613001928E+02  0.51100000000E-03 0. -1.
        -11    1    3    3    0    0 -0.14248798051E+02  0.13613565567E+02  0.22863901414E+02  0.30184688195E+02  0.51100000000E-03 0.  1.
        -12    1    3    3    0    0 -0.12709653449E+01  0.68440414025E+01  0.63078827064E+00  0.69895743411E+01  0.00000000000E+00 0.  1.
</event>
<event>
 7    1  0.5504027E-010  0.4778727E+02  0.7816164E-02  0.1312668E+00
        -11   -1    0    0    0    0  0.00000000000E+00  0.00000000000E+00  0.45593999997E+02  0.45594000000E+02  0.51100000000E-03 0.  1.
         11   -1    0    0    0    0 -0.00000000000E+00 -0.00000000000E+00 -0.45593999997E+02  0.45594000000E+02  0.51100000000E-03 0. -1.
    9900012    2    1    2    0    0 -0.26259912512E+02 -0.10434466920E+02 -0.32941795193E+02  0.47787274481E+02  0.20000015670E+02 0.  0.
         12    1    1    2    0    0  0.26259912512E+02  0.10434466920E+02  0.32941795193E+02  0.43400725519E+02  0.00000000000E+00 0. -1.
         11    1    3    3    0    0 -0.50474068268E+01 -0.15832968664E+01  0.21988428078E+01  0.57287044432E+01  0.51100000000E-03 0. -1.
        -11    1    3    3    0    0 -0.17626215499E+02 -0.67369633480E+01 -0.27393323884E+02  0.33263558764E+02  0.51100000000E-03 0.  1.
         12    1    3    3    0    0 -0.35862901862E+01 -0.21142067052E+01 -0.77473141165E+01  0.87950112741E+01  0.00000000000E+00 0. -1.
</event>
<event>
 7    1  0.5504027E-010  0.4778725E+02  0.7816164E-02  0.1312668E+00
        -11   -1    0    0    0    0  0.00000000000E+00  0.00000000000E+00  0.45593999997E+02  0.45594000000E+02  0.51100000000E-03 0. -1.
         11   -1    0    0    0    0 -0.00000000000E+00 -0.00000000000E+00 -0.45593999997E+02  0.45594000000E+02  0.51100000000E-03 0.  1.
    9900012    2    1    2    0    0  0.18682614159E+02  0.22766009316E+02 -0.31879368611E+02  0.47787246607E+02  0.19999888580E+02 0.  0.
         12    1    1    2    0    0 -0.18682614159E+02 -0.22766009316E+02  0.31879368611E+02  0.43400753393E+02  0.00000000000E+00 0. -1.
         11    1    3    3    0    0  0.34334944140E+01  0.39730021128E-01 -0.14914043677E+02  0.15304220380E+02  0.51100000000E-03 0. -1.
        -11    1    3    3    0    0  0.13578326457E+02  0.21204698774E+02 -0.16684864889E+02  0.30205875523E+02  0.51100000000E-03 0.  1.
         12    1    3    3    0    0  0.16707932879E+01  0.15215805211E+01 -0.28046004491E+00  0.22771507043E+01  0.00000000000E+00 0. -1.
</event>
<event>
 7    1  0.5504027E-010  0.4778725E+02  0.7816164E-02  0.1312668E+00
        -11   -1    0    0    0    0  0.00000000000E+00  0.00000000000E+00  0.45593999997E+02  0.45594000000E+02  0.51100000000E-03 0.  1.
         11   -1    0    0    0    0 -0.00000000000E+00 -0.00000000000E+00 -0.45593999997E+02  0.45594000000E+02  0.51100000000E-03 0. -1.
    9900012    2    1    2    0    0 -0.77389878724E+01 -0.49724794832E+01  0.42414709652E+02  0.47787250233E+02  0.19999905111E+02 0.  0.
         12    1    1    2    0    0  0.77389878724E+01  0.49724794832E+01 -0.42414709652E+02  0.43400749767E+02  0.00000000000E+00 0. -1.
         11    1    3    3    0    0  0.68319772023E+00  0.65480860054E+01  0.71060043672E+01  0.96870783927E+01  0.51100000000E-03 0. -1.
        -11    1    3    3    0    0 -0.61849280753E+01 -0.78858143425E+01  0.23709292992E+02  0.25740434681E+02  0.51100000000E-03 0.  1.
         12    1    3    3    0    0 -0.22372575173E+01 -0.36347511461E+01  0.11599412293E+02  0.12359737159E+02  0.00000000000E+00 0. -1.
</event>
<event>
 7    1  0.5504027E-010  0.4778727E+02  0.7816164E-02  0.1312668E+00
        -11   -1    0    0    0    0  0.00000000000E+00  0.00000000000E+00  0.45593999997E+02  0.45594000000E+02  0.51100000000E-03 0.  1.
         11   -1    0    0    0    0 -0.00000000000E+00 -0.00000000000E+00 -0.45593999997E+02  0.45594000000E+02  0.51100000000E-03 0. -1.
    9900012    2    1    2    0    0 -0.83206203903E+01 -0.30791678673E+02  0.29432346342E+02  0.47787271775E+02  0.20000003333E+02 0.  0.
         12    1    1    2    0    0  0.83206203903E+01  0.30791678673E+02 -0.29432346342E+02  0.43400728225E+02  0.00000000000E+00 0. -1.
         11    1    3    3    0    0 -0.56369020057E+01 -0.25661003057E+01 -0.48882336686E+00  0.62127677846E+01  0.51100000000E-03 0. -1.
        -11    1    3    3    0    0  0.12673961063E+01 -0.32632129568E+01  0.26300387860E+01  0.43785792180E+01  0.51100000000E-03 0.  1.
         12    1    3    3    0    0 -0.39511144909E+01 -0.24962365411E+02  0.27291130923E+02  0.37195924773E+02  0.00000000000E+00 0. -1.
</event>
<event>
 7    1  0.5504027E-010  0.4778727E+02  0.7816164E-02  0.1312668E+00
        -11   -1    0    0    0    0  0.00000000000E+00  0.00000000000E+00  0.45593999997E+02  0.45594000000E+02  0.51100000000E-03 0.  1.
         11   -1    0    0    0    0 -0.00000000000E+00 -0.00000000000E+00 -0.45593999997E+02  0.45594000000E+02  0.51100000000E-03 0. -1.
    9900012    2    1    2    0    0  0.14494168824E+02  0.24849920354E+01  0.40833403744E+02  0.47787274469E+02  0.20000015613E+02 0.  0.
         12    1    1    2    0    0 -0.14494168824E+02 -0.24849920354E+01 -0.40833403744E+02  0.43400725531E+02  0.00000000000E+00 0. -1.
         11    1    3    3    0    0  0.84377544029E+01 -0.46485374155E+01  0.19078799978E+02  0.21373001855E+02  0.51100000000E-03 0.  1.
        -11    1    3    3    0    0  0.22817321671E+01  0.85629064541E+01  0.20254546838E+02  0.22108286602E+02  0.51100000000E-03 0. -1.
         12    1    3    3    0    0  0.37746822541E+01 -0.14293770032E+01  0.15000569286E+01  0.43059860109E+01  0.00000000000E+00 0. -1.
</event>
<event>
 7    1  0.5504027E-010  0.4778732E+02  0.7816164E-02  0.1312668E+00
        -11   -1    0    0    0    0  0.00000000000E+00  0.00000000000E+00  0.45593999997E+02  0.45594000000E+02  0.51100000000E-03 0.  1.
         11   -1    0    0    0    0 -0.00000000000E+00 -0.00000000000E+00 -0.45593999997E+02  0.45594000000E+02  0.51100000000E-03 0. -1.
    9900012    2    1    2    0    0 -0.40829557279E+02 -0.15337423495E+01 -0.14636061413E+02  0.47787315594E+02  0.20000203120E+02 0.  0.
         12    1    1    2    0    0  0.40829557279E+02  0.15337423495E+01  0.14636061413E+02  0.43400684406E+02  0.00000000000E+00 0. -1.
         11    1    3    3    0    0 -0.11393923216E+02  0.85486225821E+01 -0.54305541627E+01  0.15244387593E+02  0.51100000000E-03 0. -1.
        -11    1    3    3    0    0 -0.12647913065E+02 -0.52612945984E+01 -0.31437399814E+01  0.14054679900E+02  0.51100000000E-03 0.  1.
         12    1    3    3    0    0 -0.16787720998E+02 -0.48210703332E+01 -0.60617672689E+01  0.18488248102E+02  0.00000000000E+00 0. -1.
</event>
<event>
 7    1  0.5504027E-010  0.4778724E+02  0.7816164E-02  0.1312668E+00
        -11   -1    0    0    0    0  0.00000000000E+00  0.00000000000E+00  0.45593999997E+02  0.45594000000E+02  0.51100000000E-03 0. -1.
         11   -1    0    0    0    0 -0.00000000000E+00 -0.00000000000E+00 -0.45593999997E+02  0.45594000000E+02  0.51100000000E-03 0.  1.
    9900012    2    1    2    0    0 -0.32597986822E+02  0.28645347642E+02  0.66413671174E+00  0.47787242357E+02  0.19999869204E+02 0.  0.
         12    1    1    2    0    0  0.32597986822E+02 -0.28645347642E+02 -0.66413671174E+00  0.43400757643E+02  0.00000000000E+00 0. -1.
         11    1    3    3    0    0 -0.53239135661E+01 -0.13759430754E+01 -0.21619580222E+01  0.59085817043E+01  0.51100000000E-03 0. -1.
        -11    1    3    3    0    0 -0.21553448684E+02  0.21419588083E+02 -0.20492796728E+01  0.30455696532E+02  0.51100000000E-03 0.  1.
         12    1    3    3    0    0 -0.57206245722E+01  0.86017026344E+01  0.48753744067E+01  0.11422964121E+02  0.00000000000E+00 0. -1.
</event>
<event>
 7    1  0.5504027E-010  0.4778727E+02  0.7816164E-02  0.1312668E+00
        -11   -1    0    0    0    0  0.00000000000E+00  0.00000000000E+00  0.45593999997E+02  0.45594000000E+02  0.51100000000E-03 0.  1.
         11   -1    0    0    0    0 -0.00000000000E+00 -0.00000000000E+00 -0.45593999997E+02  0.45594000000E+02  0.51100000000E-03 0. -1.
    9900012    2    1    2    0    0 -0.39691098968E+02  0.99119550483E+01  0.14491135635E+02  0.47787271870E+02  0.20000003766E+02 0.  0.
         12    1    1    2    0    0  0.39691098968E+02 -0.99119550483E+01 -0.14491135635E+02  0.43400728130E+02  0.00000000000E+00 0. -1.
         11    1    3    3    0    0 -0.19981071152E+02 -0.14382772675E+01 -0.13276957129E+00  0.20033209276E+02  0.51100000000E-03 0. -1.
        -11    1    3    3    0    0 -0.18198373895E+02  0.83090089743E+01  0.11181153711E+02  0.22918085460E+02  0.51100000000E-03 0.  1.
         12    1    3    3    0    0 -0.15116539211E+01  0.30412233415E+01  0.34427514949E+01  0.48359771345E+01  0.00000000000E+00 0. -1.
</event>
<event>
 7    1  0.5504027E-010  0.4778727E+02  0.7816164E-02  0.1312668E+00
        -11   -1    0    0    0    0  0.00000000000E+00  0.00000000000E+00  0.45593999997E+02  0.45594000000E+02  0.51100000000E-03 0.  1.
         11   -1    0    0    0    0 -0.00000000000E+00 -0.00000000000E+00 -0.45593999997E+02  0.45594000000E+02  0.51100000000E-03 0. -1.
    9900012    2    1    2    0    0  0.21257541637E+02 -0.29937322090E+02  0.23140801717E+02  0.47787273802E+02  0.20000012572E+02 0.  0.
         12    1    1    2    0    0 -0.21257541637E+02  0.29937322090E+02 -0.23140801717E+02  0.43400726198E+02  0.00000000000E+00 0. -1.
         11    1    3    3    0    0  0.67908900520E+01 -0.24593989479E+01  0.12333869443E+02  0.14292976128E+02  0.51100000000E-03 0. -1.
        -11    1    3    3    0    0  0.78219835490E+01 -0.19252821075E+02  0.47809035738E+01  0.21323967390E+02  0.51100000000E-03 0.  1.
        -12    1    3    3    0    0  0.66446680364E+01 -0.82251020672E+01  0.60260287003E+01  0.12170330284E+02  0.00000000000E+00 0.  1.
</event>
<event>
 7    1  0.5504027E-010  0.4778729E+02  0.7816164E-02  0.1312668E+00
        -11   -1    0    0    0    0  0.00000000000E+00  0.00000000000E+00  0.45593999997E+02  0.45594000000E+02  0.51100000000E-03 0. -1.
         11   -1    0    0    0    0 -0.00000000000E+00 -0.00000000000E+00 -0.45593999997E+02  0.45594000000E+02  0.51100000000E-03 0.  1.
    9900012    2    1    2    0    0 -0.22832056696E+02 -0.27353092710E+02 -0.24781583813E+02  0.47787292747E+02  0.20000098953E+02 0.  0.
         12    1    1    2    0    0  0.22832056696E+02  0.27353092710E+02  0.24781583813E+02  0.43400707253E+02  0.00000000000E+00 0. -1.
         11    1    3    3    0    0 -0.27123303711E+01 -0.97360867780E+01 -0.15480859387E+02  0.18487972561E+02  0.51100000000E-03 0.  1.
        -11    1    3    3    0    0 -0.18696562141E+02 -0.18036728906E+02 -0.97517104898E+01  0.27748529389E+02  0.51100000000E-03 0. -1.
         12    1    3    3    0    0 -0.14231641835E+01  0.41972297376E+00  0.45098606419E+00  0.15507907976E+01  0.00000000000E+00 0. -1.
</event>
<event>
 7    1  0.5504027E-010  0.4778727E+02  0.7816164E-02  0.1312668E+00
        -11   -1    0    0    0    0  0.00000000000E+00  0.00000000000E+00  0.45593999997E+02  0.45594000000E+02  0.51100000000E-03 0.  1.
         11   -1    0    0    0    0 -0.00000000000E+00 -0.00000000000E+00 -0.45593999997E+02  0.45594000000E+02  0.51100000000E-03 0. -1.
    9900012    2    1    2    0    0  0.55424518065E+01 -0.11082929240E+02  0.41594148591E+02  0.47787270863E+02  0.19999999174E+02 0.  0.
         12    1    1    2    0    0 -0.55424518065E+01  0.11082929240E+02 -0.41594148591E+02  0.43400729137E+02  0.00000000000E+00 0. -1.
         11    1    3    3    0    0 -0.16095419048E+01  0.45683998834E+01  0.12935317803E+02  0.13812434599E+02  0.51100000000E-03 0. -1.
        -11    1    3    3    0    0  0.67383945746E+01 -0.10422577294E+02  0.23718447530E+02  0.26769401046E+02  0.51100000000E-03 0.  1.
         12    1    3    3    0    0  0.41359913673E+00 -0.52287518292E+01  0.49403832591E+01  0.72054352182E+01  0.00000000000E+00 0. -1.
</event>
<event>
 7    1  0.5504027E-010  0.4778727E+02  0.7816164E-02  0.1312668E+00
        -11   -1    0    0    0    0  0.00000000000E+00  0.00000000000E+00  0.45593999997E+02  0.45594000000E+02  0.51100000000E-03 0. -1.
         11   -1    0    0    0    0 -0.00000000000E+00 -0.00000000000E+00 -0.45593999997E+02  0.45594000000E+02  0.51100000000E-03 0.  1.
    9900012    2    1    2    0    0 -0.23302107329E+02 -0.19091035518E+02 -0.31243677584E+02  0.47787271526E+02  0.20000002195E+02 0.  0.
         12    1    1    2    0    0  0.23302107329E+02  0.19091035518E+02  0.31243677584E+02  0.43400728474E+02  0.00000000000E+00 0. -1.
         11    1    3    3    0    0  0.21650632466E+00  0.23728538490E+01 -0.73597672542E+00  0.24937867549E+01  0.51100000000E-03 0. -1.
        -11    1    3    3    0    0 -0.37645430203E+01 -0.31892183423E+01 -0.11000220780E+02  0.12056025682E+02  0.51100000000E-03 0.  1.
         12    1    3    3    0    0 -0.19754070634E+02 -0.18274671025E+02 -0.19507480078E+02  0.33237459089E+02  0.00000000000E+00 0. -1.
</event>
<event>
 7    1  0.5504027E-010  0.4778726E+02  0.7816164E-02  0.1312668E+00
        -11   -1    0    0    0    0  0.00000000000E+00  0.00000000000E+00  0.45593999997E+02  0.45594000000E+02  0.51100000000E-03 0. -1.
         11   -1    0    0    0    0 -0.00000000000E+00 -0.00000000000E+00 -0.45593999997E+02  0.45594000000E+02  0.51100000000E-03 0.  1.
    9900012    2    1    2    0    0  0.30460385718E+02 -0.26662811548E+02 -0.15648748380E+02  0.47787263329E+02  0.19999964821E+02 0.  0.
         12    1    1    2    0    0 -0.30460385718E+02  0.26662811548E+02  0.15648748380E+02  0.43400736671E+02  0.00000000000E+00 0. -1.
         11    1    3    3    0    0 -0.75670850951E+00 -0.74875663309E+01 -0.18758005849E+01  0.77559580596E+01  0.51100000000E-03 0. -1.
        -11    1    3    3    0    0  0.30494895070E+02 -0.16259512682E+02 -0.13058478908E+02  0.36943663187E+02  0.51100000000E-03 0.  1.
        -12    1    3    3    0    0  0.72219915777E+00 -0.29157325349E+01 -0.71446888705E+00  0.30876420824E+01  0.00000000000E+00 0.  1.
</event>
<event>
 7    1  0.5504027E-010  0.4778727E+02  0.7816164E-02  0.1312668E+00
        -11   -1    0    0    0    0  0.00000000000E+00  0.00000000000E+00  0.45593999997E+02  0.45594000000E+02  0.51100000000E-03 0. -1.
         11   -1    0    0    0    0 -0.00000000000E+00 -0.00000000000E+00 -0.45593999997E+02  0.45594000000E+02  0.51100000000E-03 0.  1.
    9900012    2    1    2    0    0  0.30764685442E+02  0.17687632434E+02 -0.24986102709E+02  0.47787267978E+02  0.19999986018E+02 0.  0.
         12    1    1    2    0    0 -0.30764685442E+02 -0.17687632434E+02  0.24986102709E+02  0.43400732022E+02  0.00000000000E+00 0. -1.
         11    1    3    3    0    0  0.84783664176E+01  0.44188265668E+01 -0.11965397019E+02  0.15315986793E+02  0.51100000000E-03 0. -1.
        -11    1    3    3    0    0  0.92875417624E+01  0.10850655244E+02 -0.54550706659E+00  0.14293100764E+02  0.51100000000E-03 0.  1.
        -12    1    3    3    0    0  0.12998777262E+02  0.24181506227E+01 -0.12475198623E+02  0.18178180422E+02  0.00000000000E+00 0.  1.
</event>
<event>
 7    1  0.5504027E-010  0.4778727E+02  0.7816164E-02  0.1312668E+00
        -11   -1    0    0    0    0  0.00000000000E+00  0.00000000000E+00  0.45593999997E+02  0.45594000000E+02  0.51100000000E-03 0. -1.
         11   -1    0    0    0    0 -0.00000000000E+00 -0.00000000000E+00 -0.45593999997E+02  0.45594000000E+02  0.51100000000E-03 0.  1.
    9900012    2    1    2    0    0  0.19798169078E+02 -0.37048790012E+02 -0.10910678699E+02  0.47787271322E+02  0.20000001263E+02 0.  0.
         12    1    1    2    0    0 -0.19798169078E+02  0.37048790012E+02  0.10910678699E+02  0.43400728678E+02  0.00000000000E+00 0. -1.
         11    1    3    3    0    0  0.85859298278E+01 -0.25867628548E+02  0.19749262922E+01  0.27326776828E+02  0.51100000000E-03 0. -1.
        -11    1    3    3    0    0  0.31764867847E+01 -0.28699939703E+01 -0.42329722705E+01  0.60203810666E+01  0.51100000000E-03 0.  1.
         12    1    3    3    0    0  0.80357524652E+01 -0.83111674939E+01 -0.86526327204E+01  0.14440113427E+02  0.00000000000E+00 0. -1.
</event>
<event>
 7    1  0.5504027E-010  0.4778727E+02  0.7816164E-02  0.1312668E+00
        -11   -1    0    0    0    0  0.00000000000E+00  0.00000000000E+00  0.45593999997E+02  0.45594000000E+02  0.51100000000E-03 0.  1.
         11   -1    0    0    0    0 -0.00000000000E+00 -0.00000000000E+00 -0.45593999997E+02  0.45594000000E+02  0.51100000000E-03 0. -1.
    9900012    2    1    2    0    0 -0.33676514258E+02  0.25018095157E+02 -0.11118021351E+02  0.47787273087E+02  0.20000009311E+02 0.  0.
         12    1    1    2    0    0  0.33676514258E+02 -0.25018095157E+02  0.11118021351E+02  0.43400726913E+02  0.00000000000E+00 0. -1.
         11    1    3    3    0    0 -0.40255799375E+01 -0.10615856363E+01  0.59111394412E+00  0.42049582462E+01  0.51100000000E-03 0. -1.
        -11    1    3    3    0    0 -0.26780313398E+02  0.16361734354E+02 -0.11571447427E+02  0.33448317336E+02  0.51100000000E-03 0.  1.
        -12    1    3    3    0    0 -0.28706209224E+01  0.97179464395E+01 -0.13768786837E+00  0.10133997505E+02  0.00000000000E+00 0.  1.
</event>
<event>
 7    1  0.5504027E-010  0.4778727E+02  0.7816164E-02  0.1312668E+00
        -11   -1    0    0    0    0  0.00000000000E+00  0.00000000000E+00  0.45593999997E+02  0.45594000000E+02  0.51100000000E-03 0.  1.
         11   -1    0    0    0    0 -0.00000000000E+00 -0.00000000000E+00 -0.45593999997E+02  0.45594000000E+02  0.51100000000E-03 0. -1.
    9900012    2    1    2    0    0  0.16805340949E+02 -0.22322805399E+02  0.33209881347E+02  0.47787270232E+02  0.19999996297E+02 0.  0.
         12    1    1    2    0    0 -0.16805340949E+02  0.22322805399E+02 -0.33209881347E+02  0.43400729768E+02  0.00000000000E+00 0. -1.
         11    1    3    3    0    0 -0.19469194229E+01 -0.19520705420E+01  0.46274286702E+01  0.53864803907E+01  0.51100000000E-03 0. -1.
        -11    1    3    3    0    0  0.13322860388E+02 -0.11633861975E+02  0.26570794125E+02  0.31919468261E+02  0.51100000000E-03 0.  1.
        -12    1    3    3    0    0  0.54293999839E+01 -0.87368728824E+01  0.20116585512E+01  0.10481321581E+02  0.00000000000E+00 0.  1.
</event>
<event>
 7    1  0.5504027E-010  0.4778727E+02  0.7816164E-02  0.1312668E+00
        -11   -1    0    0    0    0  0.00000000000E+00  0.00000000000E+00  0.45593999997E+02  0.45594000000E+02  0.51100000000E-03 0. -1.
         11   -1    0    0    0    0 -0.00000000000E+00 -0.00000000000E+00 -0.45593999997E+02  0.45594000000E+02  0.51100000000E-03 0.  1.
    9900012    2    1    2    0    0 -0.41439627907E+02  0.62434661748E+01  0.11287143349E+02  0.47787271482E+02  0.20000001994E+02 0.  0.
         12    1    1    2    0    0  0.41439627907E+02 -0.62434661748E+01 -0.11287143349E+02  0.43400728518E+02  0.00000000000E+00 0. -1.
         11    1    3    3    0    0 -0.24367766577E+00 -0.65982893847E+00  0.48388343091E+01  0.48896902525E+01  0.51100000000E-03 0. -1.
        -11    1    3    3    0    0 -0.34868473919E+02  0.80368487502E+01  0.69441454154E+01  0.36450275268E+02  0.51100000000E-03 0.  1.
         12    1    3    3    0    0 -0.63274763216E+01 -0.11335536369E+01 -0.49583637514E+00  0.64473059614E+01  0.00000000000E+00 0. -1.
</event>
<event>
 7    1  0.5504027E-010  0.4778725E+02  0.7816164E-02  0.1312668E+00
        -11   -1    0    0    0    0  0.00000000000E+00  0.00000000000E+00  0.45593999997E+02  0.45594000000E+02  0.51100000000E-03 0. -1.
         11   -1    0    0    0    0 -0.00000000000E+00 -0.00000000000E+00 -0.45593999997E+02  0.45594000000E+02  0.51100000000E-03 0.  1.
    9900012    2    1    2    0    0  0.34410159586E+02 -0.25083415330E+02  0.83897625413E+01  0.47787252047E+02  0.19999913383E+02 0.  0.
         12    1    1    2    0    0 -0.34410159586E+02  0.25083415330E+02 -0.83897625413E+01  0.43400747953E+02  0.00000000000E+00 0. -1.
         11    1    3    3    0    0  0.98935891000E+01 -0.13706753245E+02 -0.47439539231E+01  0.17557428311E+02  0.51100000000E-03 0. -1.
        -11    1    3    3    0    0  0.12765880625E+02 -0.74048783588E+01  0.60864509574E+01  0.15963859720E+02  0.51100000000E-03 0.  1.
         12    1    3    3    0    0  0.11750689861E+02 -0.39717837260E+01  0.70472655071E+01  0.14265964016E+02  0.00000000000E+00 0. -1.
</event>
<event>
 7    1  0.5504027E-010  0.4778728E+02  0.7816164E-02  0.1312668E+00
        -11   -1    0    0    0    0  0.00000000000E+00  0.00000000000E+00  0.45593999997E+02  0.45594000000E+02  0.51100000000E-03 0.  1.
         11   -1    0    0    0    0 -0.00000000000E+00 -0.00000000000E+00 -0.45593999997E+02  0.45594000000E+02  0.51100000000E-03 0. -1.
    9900012    2    1    2    0    0 -0.93936528289E-01  0.23345780344E+02  0.36586727424E+02  0.47787275265E+02  0.20000019245E+02 0.  0.
         12    1    1    2    0    0  0.93936528289E-01 -0.23345780344E+02 -0.36586727424E+02  0.43400724735E+02  0.00000000000E+00 0. -1.
         11    1    3    3    0    0  0.71642422749E+01  0.16853360310E+02  0.20547253000E+02  0.27523657591E+02  0.51100000000E-03 0. -1.
        -11    1    3    3    0    0 -0.48063914992E+01  0.15504081740E+01  0.13040783270E+02  0.13984534075E+02  0.51100000000E-03 0.  1.
        -12    1    3    3    0    0 -0.24517873040E+01  0.49420118593E+01  0.29986911543E+01  0.62790835988E+01  0.00000000000E+00 0.  1.
</event>
<event>
 7    1  0.5504027E-010  0.4778727E+02  0.7816164E-02  0.1312668E+00
        -11   -1    0    0    0    0  0.00000000000E+00  0.00000000000E+00  0.45593999997E+02  0.45594000000E+02  0.51100000000E-03 0.  1.
         11   -1    0    0    0    0 -0.00000000000E+00 -0.00000000000E+00 -0.45593999997E+02  0.45594000000E+02  0.51100000000E-03 0. -1.
    9900012    2    1    2    0    0 -0.62958017113E+01 -0.34218068602E+02  0.25944359820E+02  0.47787272535E+02  0.20000006796E+02 0.  0.
         12    1    1    2    0    0  0.62958017113E+01  0.34218068602E+02 -0.25944359820E+02  0.43400727465E+02  0.00000000000E+00 0. -1.
         11    1    3    3    0    0  0.57997644395E+01 -0.54739081977E+01  0.15645631067E+01  0.81270410659E+01  0.51100000000E-03 0. -1.
        -11    1    3    3    0    0 -0.59349566394E+01 -0.11518802609E+02  0.10970672148E+02  0.16978285293E+02  0.51100000000E-03 0.  1.
         12    1    3    3    0    0 -0.61606095114E+01 -0.17225357794E+02  0.13409124566E+02  0.22681946176E+02  0.00000000000E+00 0. -1.
</event>
<event>
 7    1  0.5504027E-010  0.4778727E+02  0.7816164E-02  0.1312668E+00
        -11   -1    0    0    0    0  0.00000000000E+00  0.00000000000E+00  0.45593999997E+02  0.45594000000E+02  0.51100000000E-03 0. -1.
         11   -1    0    0    0    0 -0.00000000000E+00 -0.00000000000E+00 -0.45593999997E+02  0.45594000000E+02  0.51100000000E-03 0.  1.
    9900012    2    1    2    0    0  0.42521166712E+02  0.74401748345E+01  0.44963698812E+01  0.47787272331E+02  0.20000005867E+02 0.  0.
         12    1    1    2    0    0 -0.42521166712E+02 -0.74401748345E+01 -0.44963698812E+01  0.43400727669E+02  0.00000000000E+00 0. -1.
         11    1    3    3    0    0  0.17930121329E+02  0.64495721632E+00  0.88217807147E+01  0.19993224751E+02  0.51100000000E-03 0. -1.
        -11    1    3    3    0    0  0.22271121108E+02  0.88622764849E+01 -0.52784978081E+01  0.24543946693E+02  0.51100000000E-03 0.  1.
        -12    1    3    3    0    0  0.23199242743E+01 -0.20670588667E+01  0.95308697457E+00  0.32501008874E+01  0.00000000000E+00 0.  1.
</event>
<event>
 7    1  0.5504027E-010  0.4778733E+02  0.7816164E-02  0.1312668E+00
        -11   -1    0    0    0    0  0.00000000000E+00  0.00000000000E+00  0.45593999997E+02  0.45594000000E+02  0.51100000000E-03 0.  1.
         11   -1    0    0    0    0 -0.00000000000E+00 -0.00000000000E+00 -0.45593999997E+02  0.45594000000E+02  0.51100000000E-03 0. -1.
    9900012    2    1    2    0    0 -0.99961989728E+01 -0.58556776592E+01  0.41825893415E+02  0.47787328177E+02  0.20000260488E+02 0.  0.
         12    1    1    2    0    0  0.99961989728E+01  0.58556776592E+01 -0.41825893415E+02  0.43400671823E+02  0.00000000000E+00 0. -1.
         11    1    3    3    0    0  0.44098973703E+00 -0.83902858451E+00  0.29790387188E+02  0.29805462754E+02  0.51100000000E-03 0. -1.
        -11    1    3    3    0    0 -0.72294439021E+01 -0.65870006978E+01  0.85301872870E+01  0.12977578077E+02  0.51100000000E-03 0.  1.
         12    1    3    3    0    0 -0.32077448078E+01  0.15703516230E+01  0.35053189397E+01  0.50042873459E+01  0.00000000000E+00 0. -1.
</event>
<event>
 7    1  0.5504027E-010  0.4778727E+02  0.7816164E-02  0.1312668E+00
        -11   -1    0    0    0    0  0.00000000000E+00  0.00000000000E+00  0.45593999997E+02  0.45594000000E+02  0.51100000000E-03 0.  1.
         11   -1    0    0    0    0 -0.00000000000E+00 -0.00000000000E+00 -0.45593999997E+02  0.45594000000E+02  0.51100000000E-03 0. -1.
    9900012    2    1    2    0    0 -0.58974460065E+01 -0.86296553775E+01  0.42123300451E+02  0.47787271178E+02  0.20000000611E+02 0.  0.
         12    1    1    2    0    0  0.58974460065E+01  0.86296553775E+01 -0.42123300451E+02  0.43400728822E+02  0.00000000000E+00 0. -1.
         11    1    3    3    0    0  0.12719780199E+01  0.39006464561E+01  0.80470907147E+01  0.90326430290E+01  0.51100000000E-03 0. -1.
        -11    1    3    3    0    0 -0.70311438018E+01 -0.10823538672E+02  0.34628318722E+02  0.36955465500E+02  0.51100000000E-03 0.  1.
        -12    1    3    3    0    0 -0.13828022452E+00 -0.17067631613E+01 -0.55210898482E+00  0.17991626498E+01  0.00000000000E+00 0.  1.
</event>
<event>
 7    1  0.5504027E-010  0.4778728E+02  0.7816164E-02  0.1312668E+00
        -11   -1    0    0    0    0  0.00000000000E+00  0.00000000000E+00  0.45593999997E+02  0.45594000000E+02  0.51100000000E-03 0.  1.
         11   -1    0    0    0    0 -0.00000000000E+00 -0.00000000000E+00 -0.45593999997E+02  0.45594000000E+02  0.51100000000E-03 0. -1.
    9900012    2    1    2    0    0 -0.26211658576E+02 -0.15872633747E+01  0.34555064025E+02  0.47787275351E+02  0.20000019636E+02 0.  0.
         12    1    1    2    0    0  0.26211658576E+02  0.15872633747E+01 -0.34555064025E+02  0.43400724649E+02  0.00000000000E+00 0. -1.
         11    1    3    3    0    0 -0.16348609968E+02 -0.80485532784E+01  0.18775508985E+02  0.26164403216E+02  0.51100000000E-03 0. -1.
        -11    1    3    3    0    0 -0.91391622685E+01  0.19808080462E+01  0.13803270602E+02  0.16672677262E+02  0.51100000000E-03 0.  1.
         12    1    3    3    0    0 -0.72388633884E+00  0.44804818574E+01  0.19762844378E+01  0.49501948735E+01  0.00000000000E+00 0. -1.
</event>
<event>
 7    1  0.5504027E-010  0.4778727E+02  0.7816164E-02  0.1312668E+00
        -11   -1    0    0    0    0  0.00000000000E+00  0.00000000000E+00  0.45593999997E+02  0.45594000000E+02  0.51100000000E-03 0.  1.
         11   -1    0    0    0    0 -0.00000000000E+00 -0.00000000000E+00 -0.45593999997E+02  0.45594000000E+02  0.51100000000E-03 0. -1.
    9900012    2    1    2    0    0  0.16781402776E+02 -0.84565709489E+01  0.39121533958E+02  0.47787268548E+02  0.19999988617E+02 0.  0.
         12    1    1    2    0    0 -0.16781402776E+02  0.84565709489E+01 -0.39121533958E+02  0.43400731452E+02  0.00000000000E+00 0. -1.
         11    1    3    3    0    0 -0.27701760749E+01 -0.53328004916E+01  0.55077135825E+01  0.81515364034E+01  0.51100000000E-03 0.  1.
        -11    1    3    3    0    0  0.17307630554E+02 -0.40741549390E+01  0.32291499390E+02  0.36863176029E+02  0.51100000000E-03 0. -1.
         12    1    3    3    0    0  0.22439482969E+01  0.95038448165E+00  0.13223209856E+01  0.27725561151E+01  0.00000000000E+00 0. -1.
</event>
<event>
 7    1  0.5504027E-010  0.4778727E+02  0.7816164E-02  0.1312668E+00
        -11   -1    0    0    0    0  0.00000000000E+00  0.00000000000E+00  0.45593999997E+02  0.45594000000E+02  0.51100000000E-03 0.  1.
         11   -1    0    0    0    0 -0.00000000000E+00 -0.00000000000E+00 -0.45593999997E+02  0.45594000000E+02  0.51100000000E-03 0. -1.
    9900012    2    1    2    0    0  0.41091864875E+02  0.13926971809E+02 -0.10589615124E+01  0.47787270718E+02  0.19999998512E+02 0.  0.
         12    1    1    2    0    0 -0.41091864875E+02 -0.13926971809E+02  0.10589615124E+01  0.43400729282E+02  0.00000000000E+00 0. -1.
         11    1    3    3    0    0  0.21578642019E+02  0.10166583088E+02 -0.54278141570E+01  0.24463408795E+02  0.51100000000E-03 0. -1.
        -11    1    3    3    0    0  0.47319890084E+01  0.61190332257E+01  0.15015740838E-01  0.77352771977E+01  0.51100000000E-03 0.  1.
         12    1    3    3    0    0  0.14781233848E+02 -0.23586445046E+01  0.43538369037E+01  0.15588584726E+02  0.00000000000E+00 0. -1.
</event>
<event>
 7    1  0.5504027E-010  0.4778727E+02  0.7816164E-02  0.1312668E+00
        -11   -1    0    0    0    0  0.00000000000E+00  0.00000000000E+00  0.45593999997E+02  0.45594000000E+02  0.51100000000E-03 0.  1.
         11   -1    0    0    0    0 -0.00000000000E+00 -0.00000000000E+00 -0.45593999997E+02  0.45594000000E+02  0.51100000000E-03 0. -1.
    9900012    2    1    2    0    0  0.51521746837E+01  0.40235778193E+02  0.15432449602E+02  0.47787271303E+02  0.20000001177E+02 0.  0.
         12    1    1    2    0    0 -0.51521746837E+01 -0.40235778193E+02 -0.15432449602E+02  0.43400728697E+02  0.00000000000E+00 0. -1.
         11    1    3    3    0    0  0.61541697482E+01  0.35674511827E+02  0.90667278977E+01  0.37319567982E+02  0.51100000000E-03 0. -1.
        -11    1    3    3    0    0  0.11695006004E+01  0.44296501060E+01  0.68481840007E+01  0.82393662429E+01  0.51100000000E-03 0.  1.
         12    1    3    3    0    0 -0.21714956649E+01  0.13161626020E+00 -0.48246229662E+00  0.22283370774E+01  0.00000000000E+00 0. -1.
</event>
<event>
 7    1  0.5504027E-010  0.4778727E+02  0.7816164E-02  0.1312668E+00
        -11   -1    0    0    0    0  0.00000000000E+00  0.00000000000E+00  0.45593999997E+02  0.45594000000E+02  0.51100000000E-03 0.  1.
         11   -1    0    0    0    0 -0.00000000000E+00 -0.00000000000E+00 -0.45593999997E+02  0.45594000000E+02  0.51100000000E-03 0. -1.
    9900012    2    1    2    0    0 -0.40988298043E+01  0.12958480819E+02  0.41217722732E+02  0.47787270765E+02  0.19999998727E+02 0.  0.
         12    1    1    2    0    0  0.40988298043E+01 -0.12958480819E+02 -0.41217722732E+02  0.43400729235E+02  0.00000000000E+00 0. -1.
         11    1    3    3    0    0 -0.20780417155E+01  0.14835867301E+01 -0.34320411086E+00  0.25762523712E+01  0.51100000000E-03 0. -1.
        -11    1    3    3    0    0  0.44476501165E+01  0.94376240264E+01  0.30516312603E+02  0.32250514321E+02  0.51100000000E-03 0.  1.
        -12    1    3    3    0    0 -0.64684382052E+01  0.20372700623E+01  0.11044614240E+02  0.12960504073E+02  0.00000000000E+00 0.  1.
</event>
<event>
 7    1  0.5504027E-010  0.4778726E+02  0.7816164E-02  0.1312668E+00
        -11   -1    0    0    0    0  0.00000000000E+00  0.00000000000E+00  0.45593999997E+02  0.45594000000E+02  0.51100000000E-03 0. -1.
         11   -1    0    0    0    0 -0.00000000000E+00 -0.00000000000E+00 -0.45593999997E+02  0.45594000000E+02  0.51100000000E-03 0.  1.
    9900012    2    1    2    0    0  0.34389286664E+02 -0.35102786660E+01 -0.26242693354E+02  0.47787262125E+02  0.19999959335E+02 0.  0.
         12    1    1    2    0    0 -0.34389286664E+02  0.35102786660E+01  0.26242693354E+02  0.43400737875E+02  0.00000000000E+00 0. -1.
         11    1    3    3    0    0  0.64982905582E+01 -0.26736735988E+01  0.82233380272E+00  0.70747822465E+01  0.51100000000E-03 0. -1.
        -11    1    3    3    0    0  0.17316556143E+02 -0.39653789009E+01 -0.22765024523E+02  0.28876178561E+02  0.51100000000E-03 0.  1.
         12    1    3    3    0    0  0.10574439963E+02  0.31287738337E+01 -0.43000026332E+01  0.11836301318E+02  0.00000000000E+00 0. -1.
</event>
<event>
 7    1  0.5504027E-010  0.4778730E+02  0.7816164E-02  0.1312668E+00
        -11   -1    0    0    0    0  0.00000000000E+00  0.00000000000E+00  0.45593999997E+02  0.45594000000E+02  0.51100000000E-03 0.  1.
         11   -1    0    0    0    0 -0.00000000000E+00 -0.00000000000E+00 -0.45593999997E+02  0.45594000000E+02  0.51100000000E-03 0. -1.
    9900012    2    1    2    0    0  0.27330525353E+01  0.95101377806E+01  0.42257640413E+02  0.47787303346E+02  0.20000147277E+02 0.  0.
         12    1    1    2    0    0 -0.27330525353E+01 -0.95101377806E+01 -0.42257640413E+02  0.43400696654E+02  0.00000000000E+00 0. -1.
         11    1    3    3    0    0  0.35622080000E+01  0.72699540918E+01  0.68421274963E+01  0.10599823926E+02  0.51100000000E-03 0. -1.
        -11    1    3    3    0    0 -0.10859089459E+01  0.20198286689E+01  0.60013494304E+00  0.23704574034E+01  0.51100000000E-03 0.  1.
         12    1    3    3    0    0  0.25675348115E+00  0.22035501986E+00  0.34815377973E+02  0.34817022017E+02  0.00000000000E+00 0. -1.
</event>
<event>
 7    1  0.5504027E-010  0.4778725E+02  0.7816164E-02  0.1312668E+00
        -11   -1    0    0    0    0  0.00000000000E+00  0.00000000000E+00  0.45593999997E+02  0.45594000000E+02  0.51100000000E-03 0.  1.
         11   -1    0    0    0    0 -0.00000000000E+00 -0.00000000000E+00 -0.45593999997E+02  0.45594000000E+02  0.51100000000E-03 0. -1.
    9900012    2    1    2    0    0  0.14042097835E+02 -0.39892072372E+02  0.97502435976E+01  0.47787248855E+02  0.19999898828E+02 0.  0.
         12    1    1    2    0    0 -0.14042097835E+02  0.39892072372E+02 -0.97502435976E+01  0.43400751145E+02  0.00000000000E+00 0. -1.
         11    1    3    3    0    0  0.56851516926E-01  0.15184528893E+01 -0.97627080176E+00  0.18061107972E+01  0.51100000000E-03 0. -1.
        -11    1    3    3    0    0  0.10877205805E+02 -0.38919803652E+02  0.81136529552E+01  0.41217667170E+02  0.51100000000E-03 0.  1.
        -12    1    3    3    0    0  0.31080405133E+01 -0.24907216096E+01  0.26128614441E+01  0.47634708874E+01  0.00000000000E+00 0.  1.
</event>
<event>
 7    1  0.5504027E-010  0.4778727E+02  0.7816164E-02  0.1312668E+00
        -11   -1    0    0    0    0  0.00000000000E+00  0.00000000000E+00  0.45593999997E+02  0.45594000000E+02  0.51100000000E-03 0.  1.
         11   -1    0    0    0    0 -0.00000000000E+00 -0.00000000000E+00 -0.45593999997E+02  0.45594000000E+02  0.51100000000E-03 0. -1.
    9900012    2    1    2    0    0  0.30196296299E+02  0.26694030367E+02  0.16100789118E+02  0.47787274457E+02  0.20000015559E+02 0.  0.
         12    1    1    2    0    0 -0.30196296299E+02 -0.26694030367E+02 -0.16100789118E+02  0.43400725543E+02  0.00000000000E+00 0. -1.
         11    1    3    3    0    0  0.18343048481E+02  0.11079749459E+02  0.13594739471E+02  0.25378045969E+02  0.51100000000E-03 0.  1.
        -11    1    3    3    0    0  0.11690323158E+02  0.11861736191E+02  0.55710016956E+01  0.17561335403E+02  0.51100000000E-03 0. -1.
         12    1    3    3    0    0  0.16292466026E+00  0.37525447173E+01 -0.30649520487E+01  0.48478930848E+01  0.00000000000E+00 0. -1.
</event>
<event>
 7    1  0.5504027E-010  0.4778725E+02  0.7816164E-02  0.1312668E+00
        -11   -1    0    0    0    0  0.00000000000E+00  0.00000000000E+00  0.45593999997E+02  0.45594000000E+02  0.51100000000E-03 0.  1.
         11   -1    0    0    0    0 -0.00000000000E+00 -0.00000000000E+00 -0.45593999997E+02  0.45594000000E+02  0.51100000000E-03 0. -1.
    9900012    2    1    2    0    0 -0.40051671262E+01 -0.40734930066E+02  0.14430834941E+02  0.47787252445E+02  0.19999915199E+02 0.  0.
         12    1    1    2    0    0  0.40051671262E+01  0.40734930066E+02 -0.14430834941E+02  0.43400747555E+02  0.00000000000E+00 0. -1.
         11    1    3    3    0    0 -0.18886347593E+01 -0.86457330919E+01 -0.44804437968E+01  0.99191743017E+01  0.51100000000E-03 0. -1.
        -11    1    3    3    0    0 -0.11087472218E+01 -0.16355000333E+02  0.13378894345E+02  0.21159162802E+02  0.51100000000E-03 0.  1.
        -12    1    3    3    0    0 -0.10077851451E+01 -0.15734196641E+02  0.55323843925E+01  0.16708915342E+02  0.00000000000E+00 0.  1.
</event>
<event>
 7    1  0.5504027E-010  0.4778727E+02  0.7816164E-02  0.1312668E+00
        -11   -1    0    0    0    0  0.00000000000E+00  0.00000000000E+00  0.45593999997E+02  0.45594000000E+02  0.51100000000E-03 0.  1.
         11   -1    0    0    0    0 -0.00000000000E+00 -0.00000000000E+00 -0.45593999997E+02  0.45594000000E+02  0.51100000000E-03 0. -1.
    9900012    2    1    2    0    0 -0.30428723676E+02  0.21749750270E+02  0.22015091444E+02  0.47787272902E+02  0.20000008468E+02 0.  0.
         12    1    1    2    0    0  0.30428723676E+02 -0.21749750270E+02 -0.22015091444E+02  0.43400727098E+02  0.00000000000E+00 0. -1.
         11    1    3    3    0    0 -0.87100325369E+01 -0.14746379573E+01  0.83744800247E+01  0.12172556833E+02  0.51100000000E-03 0. -1.
        -11    1    3    3    0    0 -0.66879300325E+01  0.12271871545E+02  0.83441363860E+01  0.16277341663E+02  0.51100000000E-03 0.  1.
         12    1    3    3    0    0 -0.15030761107E+02  0.10952516683E+02  0.52964750337E+01  0.19337374406E+02  0.00000000000E+00 0. -1.
</event>
<event>
 7    1  0.5504027E-010  0.4778727E+02  0.7816164E-02  0.1312668E+00
        -11   -1    0    0    0    0  0.00000000000E+00  0.00000000000E+00  0.45593999997E+02  0.45594000000E+02  0.51100000000E-03 0. -1.
         11   -1    0    0    0    0 -0.00000000000E+00 -0.00000000000E+00 -0.45593999997E+02  0.45594000000E+02  0.51100000000E-03 0.  1.
    9900012    2    1    2    0    0 -0.13749774579E+02 -0.13682398723E+02 -0.38824720679E+02  0.47787271071E+02  0.20000000120E+02 0.  0.
         12    1    1    2    0    0  0.13749774579E+02  0.13682398723E+02  0.38824720679E+02  0.43400728929E+02  0.00000000000E+00 0. -1.
         11    1    3    3    0    0  0.30502096521E+01 -0.41943684591E+01 -0.31456768447E+01  0.60656235264E+01  0.51100000000E-03 0. -1.
        -11    1    3    3    0    0 -0.97922885602E+01 -0.59714293633E+01 -0.29772345282E+02  0.31905163026E+02  0.51100000000E-03 0.  1.
         12    1    3    3    0    0 -0.70076956705E+01 -0.35166009005E+01 -0.59066985527E+01  0.98164845182E+01  0.00000000000E+00 0. -1.
</event>
<event>
 7    1  0.5504027E-010  0.4778726E+02  0.7816164E-02  0.1312668E+00
        -11   -1    0    0    0    0  0.00000000000E+00  0.00000000000E+00  0.45593999997E+02  0.45594000000E+02  0.51100000000E-03 0.  1.
         11   -1    0    0    0    0 -0.00000000000E+00 -0.00000000000E+00 -0.45593999997E+02  0.45594000000E+02  0.51100000000E-03 0. -1.
    9900012    2    1    2    0    0  0.65577503145E+01  0.21849652201E+02  0.36921711923E+02  0.47787260354E+02  0.19999951260E+02 0.  0.
         12    1    1    2    0    0 -0.65577503145E+01 -0.21849652201E+02 -0.36921711923E+02  0.43400739646E+02  0.00000000000E+00 0. -1.
         11    1    3    3    0    0  0.37187466292E+00  0.26032295497E+00  0.13886634714E+02  0.13894052063E+02  0.51100000000E-03 0. -1.
        -11    1    3    3    0    0  0.73324228612E+01  0.17509349542E+02  0.13021087090E+02  0.23019349593E+02  0.51100000000E-03 0.  1.
        -12    1    3    3    0    0 -0.11465472096E+01  0.40799797033E+01  0.10013990119E+02  0.10873858698E+02  0.00000000000E+00 0.  1.
</event>
<event>
 7    1  0.5504027E-010  0.4778727E+02  0.7816164E-02  0.1312668E+00
        -11   -1    0    0    0    0  0.00000000000E+00  0.00000000000E+00  0.45593999997E+02  0.45594000000E+02  0.51100000000E-03 0.  1.
         11   -1    0    0    0    0 -0.00000000000E+00 -0.00000000000E+00 -0.45593999997E+02  0.45594000000E+02  0.51100000000E-03 0. -1.
    9900012    2    1    2    0    0 -0.25663681969E+02 -0.14707819402E+02  0.31759703099E+02  0.47787271150E+02  0.20000000482E+02 0.  0.
         12    1    1    2    0    0  0.25663681969E+02  0.14707819402E+02 -0.31759703099E+02  0.43400728850E+02  0.00000000000E+00 0. -1.
         11    1    3    3    0    0  0.12526089267E+01 -0.14981211682E+01  0.50124510337E+01  0.53794109142E+01  0.51100000000E-03 0. -1.
        -11    1    3    3    0    0 -0.17434752922E+02 -0.11839783081E+02  0.10498035647E+02  0.23544847113E+02  0.51100000000E-03 0.  1.
        -12    1    3    3    0    0 -0.94815379732E+01 -0.13699151530E+01  0.16249216419E+02  0.18863013123E+02  0.00000000000E+00 0.  1.
</event>
<event>
 7    1  0.5504027E-010  0.4778727E+02  0.7816164E-02  0.1312668E+00
        -11   -1    0    0    0    0  0.00000000000E+00  0.00000000000E+00  0.45593999997E+02  0.45594000000E+02  0.51100000000E-03 0.  1.
         11   -1    0    0    0    0 -0.00000000000E+00 -0.00000000000E+00 -0.45593999997E+02  0.45594000000E+02  0.51100000000E-03 0. -1.
    9900012    2    1    2    0    0 -0.15994359154E+02  0.39340878399E+02  0.89498195476E+01  0.47787268348E+02  0.19999987707E+02 0.  0.
         12    1    1    2    0    0  0.15994359154E+02 -0.39340878399E+02 -0.89498195476E+01  0.43400731652E+02  0.00000000000E+00 0. -1.
         11    1    3    3    0    0 -0.17328056539E+02  0.31870113360E+02  0.76323087055E+01  0.37070443826E+02  0.51100000000E-03 0.  1.
        -11    1    3    3    0    0  0.98682996517E+00 -0.11962109364E+01  0.13299216476E+01  0.20429013276E+01  0.51100000000E-03 0. -1.
        -12    1    3    3    0    0  0.34686741938E+00  0.86669759756E+01 -0.12410805510E-01  0.86739231952E+01  0.00000000000E+00 0.  1.
</event>
<event>
 7    1  0.5504027E-010  0.4778726E+02  0.7816164E-02  0.1312668E+00
        -11   -1    0    0    0    0  0.00000000000E+00  0.00000000000E+00  0.45593999997E+02  0.45594000000E+02  0.51100000000E-03 0. -1.
         11   -1    0    0    0    0 -0.00000000000E+00 -0.00000000000E+00 -0.45593999997E+02  0.45594000000E+02  0.51100000000E-03 0.  1.
    9900012    2    1    2    0    0  0.41198134244E+01 -0.33671433319E+02 -0.27071866002E+02  0.47787260223E+02  0.19999950660E+02 0.  0.
         12    1    1    2    0    0 -0.41198134244E+01  0.33671433319E+02  0.27071866002E+02  0.43400739777E+02  0.00000000000E+00 0. -1.
         11    1    3    3    0    0 -0.34779796335E+01 -0.37415131493E+01 -0.17939505610E+00  0.51115013279E+01  0.51100000000E-03 0. -1.
        -11    1    3    3    0    0  0.91131617834E+01 -0.29272304319E+02 -0.27212493293E+02  0.40993137344E+02  0.51100000000E-03 0.  1.
        -12    1    3    3    0    0 -0.15153687255E+01 -0.65761585011E+00  0.32002234729E+00  0.16826215508E+01  0.00000000000E+00 0.  1.
</event>
<event>
 7    1  0.5504027E-010  0.4778728E+02  0.7816164E-02  0.1312668E+00
        -11   -1    0    0    0    0  0.00000000000E+00  0.00000000000E+00  0.45593999997E+02  0.45594000000E+02  0.51100000000E-03 0. -1.
         11   -1    0    0    0    0 -0.00000000000E+00 -0.00000000000E+00 -0.45593999997E+02  0.45594000000E+02  0.51100000000E-03 0.  1.
    9900012    2    1    2    0    0  0.28128096029E+02 -0.21622911057E+02 -0.24997656732E+02  0.47787275226E+02  0.20000019067E+02 0.  0.
         12    1    1    2    0    0 -0.28128096029E+02  0.21622911057E+02  0.24997656732E+02  0.43400724774E+02  0.00000000000E+00 0. -1.
         11    1    3    3    0    0  0.23085066656E+02 -0.12526220896E+02 -0.13540540363E+02  0.29549496544E+02  0.51100000000E-03 0. -1.
        -11    1    3    3    0    0  0.29220434013E+01 -0.10972502191E+02 -0.93290028803E+01  0.14695728528E+02  0.51100000000E-03 0.  1.
        -12    1    3    3    0    0  0.21209859720E+01  0.18758120308E+01 -0.21281134895E+01  0.35420501539E+01  0.00000000000E+00 0.  1.
</event>
<event>
 7    1  0.5504027E-010  0.4778727E+02  0.7816164E-02  0.1312668E+00
        -11   -1    0    0    0    0  0.00000000000E+00  0.00000000000E+00  0.45593999997E+02  0.45594000000E+02  0.51100000000E-03 0.  1.
         11   -1    0    0    0    0 -0.00000000000E+00 -0.00000000000E+00 -0.45593999997E+02  0.45594000000E+02  0.51100000000E-03 0. -1.
    9900012    2    1    2    0    0 -0.35153564143E+00  0.11936762536E+02  0.41725453899E+02  0.47787269819E+02  0.19999994414E+02 0.  0.
         12    1    1    2    0    0  0.35153564143E+00 -0.11936762536E+02 -0.41725453899E+02  0.43400730181E+02  0.00000000000E+00 0. -1.
         11    1    3    3    0    0  0.70341993514E+01 -0.13779715896E+00  0.11476629748E+02  0.13461499887E+02  0.51100000000E-03 0. -1.
        -11    1    3    3    0    0  0.10437512282E+01  0.43474270221E+01  0.11820630895E+02  0.12637913330E+02  0.51100000000E-03 0.  1.
         12    1    3    3    0    0 -0.84294862210E+01  0.77271326731E+01  0.18428193257E+02  0.21687856602E+02  0.00000000000E+00 0. -1.
</event>
<event>
 7    1  0.5504027E-010  0.4778726E+02  0.7816164E-02  0.1312668E+00
        -11   -1    0    0    0    0  0.00000000000E+00  0.00000000000E+00  0.45593999997E+02  0.45594000000E+02  0.51100000000E-03 0.  1.
         11   -1    0    0    0    0 -0.00000000000E+00 -0.00000000000E+00 -0.45593999997E+02  0.45594000000E+02  0.51100000000E-03 0. -1.
    9900012    2    1    2    0    0  0.12688342429E+01 -0.21511424667E+02  0.37673238515E+02  0.47787260009E+02  0.19999949687E+02 0.  0.
         12    1    1    2    0    0 -0.12688342429E+01  0.21511424667E+02 -0.37673238515E+02  0.43400739991E+02  0.00000000000E+00 0. -1.
         11    1    3    3    0    0  0.38007026732E+01 -0.17272141452E+02  0.11543111043E+02  0.21119081987E+02  0.51100000000E-03 0. -1.
        -11    1    3    3    0    0 -0.22396597006E+01 -0.27203802806E+01  0.13858704994E+02  0.14299659045E+02  0.51100000000E-03 0.  1.
         12    1    3    3    0    0 -0.29220872974E+00 -0.15189029349E+01  0.12271422478E+02  0.12368518978E+02  0.00000000000E+00 0. -1.
</event>
<event>
 7    1  0.5504027E-010  0.4778727E+02  0.7816164E-02  0.1312668E+00
        -11   -1    0    0    0    0  0.00000000000E+00  0.00000000000E+00  0.45593999997E+02  0.45594000000E+02  0.51100000000E-03 0.  1.
         11   -1    0    0    0    0 -0.00000000000E+00 -0.00000000000E+00 -0.45593999997E+02  0.45594000000E+02  0.51100000000E-03 0. -1.
    9900012    2    1    2    0    0  0.26628260958E+02 -0.30588226070E+02  0.15457016873E+02  0.47787271592E+02  0.20000002495E+02 0.  0.
         12    1    1    2    0    0 -0.26628260958E+02  0.30588226070E+02 -0.15457016873E+02  0.43400728408E+02  0.00000000000E+00 0. -1.
         11    1    3    3    0    0  0.13709115819E+02 -0.19561004898E+02  0.13346318126E+02  0.27362327696E+02  0.51100000000E-03 0. -1.
        -11    1    3    3    0    0  0.11326197789E+02 -0.11626155440E+02  0.50756929594E+01  0.17006260787E+02  0.51100000000E-03 0.  1.
         12    1    3    3    0    0  0.15929473497E+01  0.59893426808E+00 -0.29649942124E+01  0.34186831084E+01  0.00000000000E+00 0. -1.
</event>
<event>
 7    1  0.5504027E-010  0.4778727E+02  0.7816164E-02  0.1312668E+00
        -11   -1    0    0    0    0  0.00000000000E+00  0.00000000000E+00  0.45593999997E+02  0.45594000000E+02  0.51100000000E-03 0.  1.
         11   -1    0    0    0    0 -0.00000000000E+00 -0.00000000000E+00 -0.45593999997E+02  0.45594000000E+02  0.51100000000E-03 0. -1.
    9900012    2    1    2    0    0  0.35592204914E+01 -0.23957498770E+02  0.36013797548E+02  0.47787269457E+02  0.19999992764E+02 0.  0.
         12    1    1    2    0    0 -0.35592204914E+01  0.23957498770E+02 -0.36013797548E+02  0.43400730543E+02  0.00000000000E+00 0. -1.
         11    1    3    3    0    0 -0.14117906108E+01  0.24271396397E+01  0.51980493433E+01  0.59079503042E+01  0.51100000000E-03 0. -1.
        -11    1    3    3    0    0  0.51486247839E+01 -0.26584371041E+02  0.27645006826E+02  0.38697332253E+02  0.51100000000E-03 0.  1.
        -12    1    3    3    0    0 -0.17761368172E+00  0.19973263172E+00  0.31707413787E+01  0.31819869005E+01  0.00000000000E+00 0.  1.
</event>
<event>
 7    1  0.6667375E-010  0.4778727E+02  0.7816164E-02  0.1312668E+00
        -11   -1    0    0    0    0  0.00000000000E+00  0.00000000000E+00  0.45593999997E+02  0.45594000000E+02  0.51100000000E-03 0.  1.
         11   -1    0    0    0    0 -0.00000000000E+00 -0.00000000000E+00 -0.45593999997E+02  0.45594000000E+02  0.51100000000E-03 0. -1.
    9900012    2    1    2    0    0  0.45724000373E+01  0.40034211541E+02  0.16123839587E+02  0.47787272600E+02  0.20000007091E+02 0.  0.
         12    1    1    2    0    0 -0.45724000373E+01 -0.40034211541E+02 -0.16123839587E+02  0.43400727400E+02  0.00000000000E+00 0. -1.
         11    1    3    3    0    0  0.49548347638E+01  0.32962436408E+02  0.91486182363E+01  0.34565442532E+02  0.51100000000E-03 0. -1.
        -11    1    3    3    0    0  0.23746986306E+01  0.67355282046E+01  0.18265935446E+01  0.73717689885E+01  0.51100000000E-03 0.  1.
         12    1    3    3    0    0 -0.27571333572E+01  0.33624692830E+00  0.51486278065E+01  0.58500610797E+01  0.00000000000E+00 0. -1.
</event>
<event>
 7    1  0.5504027E-010  0.4778727E+02  0.7816164E-02  0.1312668E+00
        -11   -1    0    0    0    0  0.00000000000E+00  0.00000000000E+00  0.45593999997E+02  0.45594000000E+02  0.51100000000E-03 0.  1.
         11   -1    0    0    0    0 -0.00000000000E+00 -0.00000000000E+00 -0.45593999997E+02  0.45594000000E+02  0.51100000000E-03 0. -1.
    9900012    2    1    2    0    0 -0.39291494275E+02  0.17501503170E+02 -0.57878713365E+01  0.47787267401E+02  0.19999983387E+02 0.  0.
         12    1    1    2    0    0  0.39291494275E+02 -0.17501503170E+02  0.57878713365E+01  0.43400732599E+02  0.00000000000E+00 0. -1.
         11    1    3    3    0    0 -0.62827595366E+01 -0.22692691523E+01  0.11760920670E+01  0.67827606984E+01  0.51100000000E-03 0. -1.
        -11    1    3    3    0    0 -0.18522599708E+02  0.40466950086E+01 -0.44740252917E+01  0.19480229542E+02  0.51100000000E-03 0.  1.
         12    1    3    3    0    0 -0.14486135030E+02  0.15724077313E+02 -0.24899381117E+01  0.21524277160E+02  0.00000000000E+00 0. -1.
</event>
<event>
 7    1  0.5504027E-010  0.4778727E+02  0.7816164E-02  0.1312668E+00
        -11   -1    0    0    0    0  0.00000000000E+00  0.00000000000E+00  0.45593999997E+02  0.45594000000E+02  0.51100000000E-03 0. -1.
         11   -1    0    0    0    0 -0.00000000000E+00 -0.00000000000E+00 -0.45593999997E+02  0.45594000000E+02  0.51100000000E-03 0.  1.
    9900012    2    1    2    0    0 -0.26294517947E+02  0.17794968679E+02 -0.29589874191E+02  0.47787271447E+02  0.20000001833E+02 0.  0.
         12    1    1    2    0    0  0.26294517947E+02 -0.17794968679E+02  0.29589874191E+02  0.43400728553E+02  0.00000000000E+00 0. -1.
         11    1    3    3    0    0 -0.92129623173E+00  0.28054852308E+01 -0.15129953314E-01  0.29529245339E+01  0.51100000000E-03 0. -1.
        -11    1    3    3    0    0 -0.33093147973E+00  0.39463913396E+01 -0.11173274845E+02  0.11854349045E+02  0.51100000000E-03 0.  1.
        -12    1    3    3    0    0 -0.25042290235E+02  0.11043092109E+02 -0.18401469392E+02  0.32979997868E+02  0.00000000000E+00 0.  1.
</event>
<event>
 7    1  0.5504027E-010  0.4778727E+02  0.7816164E-02  0.1312668E+00
        -11   -1    0    0    0    0  0.00000000000E+00  0.00000000000E+00  0.45593999997E+02  0.45594000000E+02  0.51100000000E-03 0.  1.
         11   -1    0    0    0    0 -0.00000000000E+00 -0.00000000000E+00 -0.45593999997E+02  0.45594000000E+02  0.51100000000E-03 0. -1.
    9900012    2    1    2    0    0  0.11462905812E+02  0.29948456387E+02  0.29245773788E+02  0.47787268046E+02  0.19999986330E+02 0.  0.
         12    1    1    2    0    0 -0.11462905812E+02 -0.29948456387E+02 -0.29245773788E+02  0.43400731954E+02  0.00000000000E+00 0. -1.
         11    1    3    3    0    0 -0.40749730503E+01  0.12540596237E+02  0.60621438765E+01  0.14512806344E+02  0.51100000000E-03 0. -1.
        -11    1    3    3    0    0  0.27260330637E+01  0.33463005780E+01  0.18629768235E+01  0.47010282629E+01  0.51100000000E-03 0.  1.
         12    1    3    3    0    0  0.12811845799E+02  0.14061559572E+02  0.21320653088E+02  0.28573433439E+02  0.00000000000E+00 0. -1.
</event>
<event>
 7    1  0.5504027E-010  0.4778727E+02  0.7816164E-02  0.1312668E+00
        -11   -1    0    0    0    0  0.00000000000E+00  0.00000000000E+00  0.45593999997E+02  0.45594000000E+02  0.51100000000E-03 0. -1.
         11   -1    0    0    0    0 -0.00000000000E+00 -0.00000000000E+00 -0.45593999997E+02  0.45594000000E+02  0.51100000000E-03 0.  1.
    9900012    2    1    2    0    0  0.26012562115E+02 -0.21026511748E+02 -0.27656023809E+02  0.47787271469E+02  0.20000001935E+02 0.  0.
         12    1    1    2    0    0 -0.26012562115E+02  0.21026511748E+02  0.27656023809E+02  0.43400728531E+02  0.00000000000E+00 0. -1.
         11    1    3    3    0    0  0.60176152082E+01 -0.20628135560E+01 -0.37486983430E+01  0.73837410632E+01  0.51100000000E-03 0.  1.
        -11    1    3    3    0    0  0.20683002175E+01 -0.48711111911E+01  0.22078448961E+01  0.57341232435E+01  0.51100000000E-03 0. -1.
        -12    1    3    3    0    0  0.17926646689E+02 -0.14092587001E+02 -0.26115170362E+02  0.34669407162E+02  0.00000000000E+00 0.  1.
</event>
<event>
 7    1  0.5504027E-010  0.4778727E+02  0.7816164E-02  0.1312668E+00
        -11   -1    0    0    0    0  0.00000000000E+00  0.00000000000E+00  0.45593999997E+02  0.45594000000E+02  0.51100000000E-03 0. -1.
         11   -1    0    0    0    0 -0.00000000000E+00 -0.00000000000E+00 -0.45593999997E+02  0.45594000000E+02  0.51100000000E-03 0.  1.
    9900012    2    1    2    0    0 -0.32043309413E+01  0.36234453732E+02 -0.23673191065E+02  0.47787270176E+02  0.19999996039E+02 0.  0.
         12    1    1    2    0    0  0.32043309413E+01 -0.36234453732E+02  0.23673191065E+02  0.43400729824E+02  0.00000000000E+00 0. -1.
         11    1    3    3    0    0 -0.56395192935E+00  0.20237296177E+01  0.29494634324E+01  0.36211680635E+01  0.51100000000E-03 0. -1.
        -11    1    3    3    0    0 -0.67326875550E+00  0.25778509414E+02 -0.23710077935E+02  0.35030738421E+02  0.51100000000E-03 0.  1.
         12    1    3    3    0    0 -0.19671102565E+01  0.84322147011E+01 -0.29125765628E+01  0.91353636907E+01  0.00000000000E+00 0. -1.
</event>
<event>
 7    1  0.5504027E-010  0.4778726E+02  0.7816164E-02  0.1312668E+00
        -11   -1    0    0    0    0  0.00000000000E+00  0.00000000000E+00  0.45593999997E+02  0.45594000000E+02  0.51100000000E-03 0.  1.
         11   -1    0    0    0    0 -0.00000000000E+00 -0.00000000000E+00 -0.45593999997E+02  0.45594000000E+02  0.51100000000E-03 0. -1.
    9900012    2    1    2    0    0 -0.17972864562E+02 -0.23995822756E+02  0.31381533850E+02  0.47787262252E+02  0.19999959912E+02 0.  0.
         12    1    1    2    0    0  0.17972864562E+02  0.23995822756E+02 -0.31381533850E+02  0.43400737748E+02  0.00000000000E+00 0. -1.
         11    1    3    3    0    0  0.32246667244E+01 -0.40044104638E+01  0.19308899077E+01  0.54920046197E+01  0.51100000000E-03 0. -1.
        -11    1    3    3    0    0 -0.15209369570E+01 -0.45253062210E+01  0.80808947244E+01  0.93857607805E+01  0.51100000000E-03 0.  1.
         12    1    3    3    0    0 -0.19676594329E+02 -0.15466106071E+02  0.21369749218E+02  0.32909496852E+02  0.00000000000E+00 0. -1.
</event>
<event>
 7    1  0.5504027E-010  0.4778727E+02  0.7816164E-02  0.1312668E+00
        -11   -1    0    0    0    0  0.00000000000E+00  0.00000000000E+00  0.45593999997E+02  0.45594000000E+02  0.51100000000E-03 0. -1.
         11   -1    0    0    0    0 -0.00000000000E+00 -0.00000000000E+00 -0.45593999997E+02  0.45594000000E+02  0.51100000000E-03 0.  1.
    9900012    2    1    2    0    0 -0.26149223994E+02 -0.32887179294E+02 -0.10875434373E+02  0.47787267861E+02  0.19999985486E+02 0.  0.
         12    1    1    2    0    0  0.26149223994E+02  0.32887179294E+02  0.10875434373E+02  0.43400732139E+02  0.00000000000E+00 0. -1.
         11    1    3    3    0    0 -0.50875922600E+00 -0.29051265032E+01  0.32215990904E+00  0.29668810589E+01  0.51100000000E-03 0. -1.
        -11    1    3    3    0    0 -0.20148505337E+02 -0.16242951209E+02  0.61434854243E+00  0.25887702789E+02  0.51100000000E-03 0.  1.
        -12    1    3    3    0    0 -0.54919594306E+01 -0.13739101582E+02 -0.11811942824E+02  0.18932684013E+02  0.00000000000E+00 0.  1.
</event>
<event>
 7    1  0.5504027E-010  0.4778727E+02  0.7816164E-02  0.1312668E+00
        -11   -1    0    0    0    0  0.00000000000E+00  0.00000000000E+00  0.45593999997E+02  0.45594000000E+02  0.51100000000E-03 0. -1.
         11   -1    0    0    0    0 -0.00000000000E+00 -0.00000000000E+00 -0.45593999997E+02  0.45594000000E+02  0.51100000000E-03 0.  1.
    9900012    2    1    2    0    0  0.34933633979E+02  0.25723067295E+02  0.12602618170E+01  0.47787271505E+02  0.20000002100E+02 0.  0.
         12    1    1    2    0    0 -0.34933633979E+02 -0.25723067295E+02 -0.12602618170E+01  0.43400728495E+02  0.00000000000E+00 0. -1.
         11    1    3    3    0    0  0.11779325207E+01 -0.85340586015E+00  0.33589653224E+01  0.36603927226E+01  0.51100000000E-03 0. -1.
        -11    1    3    3    0    0  0.30233619761E+02  0.18984563082E+02 -0.13724468951E+01  0.35726306975E+02  0.51100000000E-03 0.  1.
         12    1    3    3    0    0  0.35220816971E+01  0.75919100728E+01 -0.72625661026E+00  0.84005718078E+01  0.00000000000E+00 0. -1.
</event>
<event>
 7    1  0.5504027E-010  0.4778727E+02  0.7816164E-02  0.1312668E+00
        -11   -1    0    0    0    0  0.00000000000E+00  0.00000000000E+00  0.45593999997E+02  0.45594000000E+02  0.51100000000E-03 0.  1.
         11   -1    0    0    0    0 -0.00000000000E+00 -0.00000000000E+00 -0.45593999997E+02  0.45594000000E+02  0.51100000000E-03 0. -1.
    9900012    2    1    2    0    0 -0.27525360523E+02  0.92249171197E+01  0.32262654107E+02  0.47787269386E+02  0.19999992439E+02 0.  0.
         12    1    1    2    0    0  0.27525360523E+02 -0.92249171197E+01 -0.32262654107E+02  0.43400730614E+02  0.00000000000E+00 0. -1.
         11    1    3    3    0    0 -0.69484249748E+01 -0.16827395951E+01 -0.28151920412E+00  0.71548218356E+01  0.51100000000E-03 0. -1.
        -11    1    3    3    0    0 -0.15968084398E+02  0.49171001215E+01  0.21032107080E+02  0.26860884599E+02  0.51100000000E-03 0.  1.
        -12    1    3    3    0    0 -0.46088511500E+01  0.59905565932E+01  0.11512066231E+02  0.13771562951E+02  0.00000000000E+00 0.  1.
</event>
<event>
 7    1  0.5504027E-010  0.4778727E+02  0.7816164E-02  0.1312668E+00
        -11   -1    0    0    0    0  0.00000000000E+00  0.00000000000E+00  0.45593999997E+02  0.45594000000E+02  0.51100000000E-03 0.  1.
         11   -1    0    0    0    0 -0.00000000000E+00 -0.00000000000E+00 -0.45593999997E+02  0.45594000000E+02  0.51100000000E-03 0. -1.
    9900012    2    1    2    0    0  0.39939157750E+02 -0.75445352034E+01  0.15217316497E+02  0.47787273571E+02  0.20000011518E+02 0.  0.
         12    1    1    2    0    0 -0.39939157750E+02  0.75445352034E+01 -0.15217316497E+02  0.43400726429E+02  0.00000000000E+00 0. -1.
         11    1    3    3    0    0  0.43993592871E+01  0.69110801207E+00  0.54625135972E+00  0.44866895626E+01  0.51100000000E-03 0. -1.
        -11    1    3    3    0    0  0.86271794560E+01  0.55403541444E+01  0.58591815642E+01  0.11809054080E+02  0.51100000000E-03 0.  1.
        -12    1    3    3    0    0  0.26912619007E+02 -0.13775997360E+02  0.88118835728E+01  0.31491529928E+02  0.00000000000E+00 0.  1.
</event>
<event>
 7    1  0.5504027E-010  0.4778728E+02  0.7816164E-02  0.1312668E+00
        -11   -1    0    0    0    0  0.00000000000E+00  0.00000000000E+00  0.45593999997E+02  0.45594000000E+02  0.51100000000E-03 0.  1.
         11   -1    0    0    0    0 -0.00000000000E+00 -0.00000000000E+00 -0.45593999997E+02  0.45594000000E+02  0.51100000000E-03 0. -1.
    9900012    2    1    2    0    0  0.26403532041E+01  0.11153197108E+02  0.41859973680E+02  0.47787278033E+02  0.20000031862E+02 0.  0.
         12    1    1    2    0    0 -0.26403532041E+01 -0.11153197108E+02 -0.41859973680E+02  0.43400721967E+02  0.00000000000E+00 0. -1.
         11    1    3    3    0    0 -0.26149010497E+01 -0.49857797957E+00 -0.95763103441E+00  0.28290183740E+01  0.51100000000E-03 0. -1.
        -11    1    3    3    0    0 -0.49127302263E+00  0.31674919264E+01  0.14317936586E+02  0.14672343460E+02  0.51100000000E-03 0.  1.
         12    1    3    3    0    0  0.57465272764E+01  0.84842831607E+01  0.28499668129E+02  0.30285916198E+02  0.00000000000E+00 0. -1.
</event>
<event>
 7    1  0.5504027E-010  0.4778731E+02  0.7816164E-02  0.1312668E+00
        -11   -1    0    0    0    0  0.00000000000E+00  0.00000000000E+00  0.45593999997E+02  0.45594000000E+02  0.51100000000E-03 0.  1.
         11   -1    0    0    0    0 -0.00000000000E+00 -0.00000000000E+00 -0.45593999997E+02  0.45594000000E+02  0.51100000000E-03 0. -1.
    9900012    2    1    2    0    0  0.16016607762E+02 -0.28690163341E+02  0.28354234625E+02  0.47787310859E+02  0.20000181529E+02 0.  0.
         12    1    1    2    0    0 -0.16016607762E+02  0.28690163341E+02 -0.28354234625E+02  0.43400689141E+02  0.00000000000E+00 0. -1.
         11    1    3    3    0    0 -0.29696907668E+01 -0.53198735796E+01  0.20054280498E+01  0.64141920830E+01  0.51100000000E-03 0.  1.
        -11    1    3    3    0    0  0.14506968534E+02 -0.10826528072E+02  0.18643030434E+02  0.25985157883E+02  0.51100000000E-03 0. -1.
        -12    1    3    3    0    0  0.44793299941E+01 -0.12543761689E+02  0.77057761411E+01  0.15387960893E+02  0.00000000000E+00 0.  1.
</event>
<event>
 7    1  0.5504027E-010  0.4778729E+02  0.7816164E-02  0.1312668E+00
        -11   -1    0    0    0    0  0.00000000000E+00  0.00000000000E+00  0.45593999997E+02  0.45594000000E+02  0.51100000000E-03 0.  1.
         11   -1    0    0    0    0 -0.00000000000E+00 -0.00000000000E+00 -0.45593999997E+02  0.45594000000E+02  0.51100000000E-03 0. -1.
    9900012    2    1    2    0    0 -0.24188164772E+02  0.28211573361E+02  0.22420121905E+02  0.47787285112E+02  0.20000064140E+02 0.  0.
         12    1    1    2    0    0  0.24188164772E+02 -0.28211573361E+02 -0.22420121905E+02  0.43400714888E+02  0.00000000000E+00 0. -1.
         11    1    3    3    0    0  0.17087154834E+01  0.61451567010E+01  0.44305781760E+01  0.77661240473E+01  0.51100000000E-03 0. -1.
        -11    1    3    3    0    0 -0.23387957881E+01  0.79793950527E+00  0.52853109754E+01  0.58344824587E+01  0.51100000000E-03 0.  1.
         12    1    3    3    0    0 -0.23558084467E+02  0.21268477155E+02  0.12704232753E+02  0.34186678606E+02  0.00000000000E+00 0. -1.
</event>
<event>
 7    1  0.5504027E-010  0.4778726E+02  0.7816164E-02  0.1312668E+00
        -11   -1    0    0    0    0  0.00000000000E+00  0.00000000000E+00  0.45593999997E+02  0.45594000000E+02  0.51100000000E-03 0.  1.
         11   -1    0    0    0    0 -0.00000000000E+00 -0.00000000000E+00 -0.45593999997E+02  0.45594000000E+02  0.51100000000E-03 0. -1.
    9900012    2    1    2    0    0 -0.34513540992E+02  0.21510774044E+02  0.15156711940E+02  0.47787264653E+02  0.19999970860E+02 0.  0.
         12    1    1    2    0    0  0.34513540992E+02 -0.21510774044E+02 -0.15156711940E+02  0.43400735347E+02  0.00000000000E+00 0. -1.
         11    1    3    3    0    0 -0.18626313410E+02  0.46296754636E+01  0.14451919980E+02  0.24025641251E+02  0.51100000000E-03 0.  1.
        -11    1    3    3    0    0 -0.58286805655E+01  0.96616965932E+01 -0.67443705550E+00  0.11303838454E+02  0.51100000000E-03 0. -1.
        -12    1    3    3    0    0 -0.10058547017E+02  0.72194019873E+01  0.13792290157E+01  0.12457784948E+02  0.00000000000E+00 0.  1.
</event>
<event>
 7    1  0.5504027E-010  0.4778727E+02  0.7816164E-02  0.1312668E+00
        -11   -1    0    0    0    0  0.00000000000E+00  0.00000000000E+00  0.45593999997E+02  0.45594000000E+02  0.51100000000E-03 0. -1.
         11   -1    0    0    0    0 -0.00000000000E+00 -0.00000000000E+00 -0.45593999997E+02  0.45594000000E+02  0.51100000000E-03 0.  1.
    9900012    2    1    2    0    0  0.26113738757E+02  0.34177800316E+02  0.57942884777E+01  0.47787272295E+02  0.20000005702E+02 0.  0.
         12    1    1    2    0    0 -0.26113738757E+02 -0.34177800316E+02 -0.57942884777E+01  0.43400727705E+02  0.00000000000E+00 0. -1.
         11    1    3    3    0    0 -0.26674309240E+00  0.27106066363E+01  0.18273045336E+01  0.32798753534E+01  0.51100000000E-03 0. -1.
        -11    1    3    3    0    0 -0.12550894321E+01  0.56041702838E+01  0.33576763725E+01  0.66525156847E+01  0.51100000000E-03 0.  1.
        -12    1    3    3    0    0  0.27635571282E+02  0.25863023396E+02  0.60930757164E+00  0.37854881257E+02  0.00000000000E+00 0.  1.
</event>
<event>
 7    1  0.5504027E-010  0.4778726E+02  0.7816164E-02  0.1312668E+00
        -11   -1    0    0    0    0  0.00000000000E+00  0.00000000000E+00  0.45593999997E+02  0.45594000000E+02  0.51100000000E-03 0.  1.
         11   -1    0    0    0    0 -0.00000000000E+00 -0.00000000000E+00 -0.45593999997E+02  0.45594000000E+02  0.51100000000E-03 0. -1.
    9900012    2    1    2    0    0 -0.22666244120E+02  0.11838905035E+02  0.35067160662E+02  0.47787262082E+02  0.19999959137E+02 0.  0.
         12    1    1    2    0    0  0.22666244120E+02 -0.11838905035E+02 -0.35067160662E+02  0.43400737918E+02  0.00000000000E+00 0. -1.
         11    1    3    3    0    0  0.22940592502E+01  0.41149376122E+01  0.57383063148E+01  0.74245255080E+01  0.51100000000E-03 0.  1.
        -11    1    3    3    0    0 -0.25071369941E+02  0.84388482236E+01  0.29495482034E+02  0.39620338347E+02  0.51100000000E-03 0. -1.
         12    1    3    3    0    0  0.11106657022E+00 -0.71488080042E+00 -0.16662768693E+00  0.74239822729E+00  0.00000000000E+00 0. -1.
</event>
<event>
 7    1  0.5504027E-010  0.4778727E+02  0.7816164E-02  0.1312668E+00
        -11   -1    0    0    0    0  0.00000000000E+00  0.00000000000E+00  0.45593999997E+02  0.45594000000E+02  0.51100000000E-03 0. -1.
         11   -1    0    0    0    0 -0.00000000000E+00 -0.00000000000E+00 -0.45593999997E+02  0.45594000000E+02  0.51100000000E-03 0.  1.
    9900012    2    1    2    0    0  0.30003929884E+02  0.65158577698E+01 -0.30674601726E+02  0.47787269568E+02  0.19999993270E+02 0.  0.
         12    1    1    2    0    0 -0.30003929884E+02 -0.65158577698E+01  0.30674601726E+02  0.43400730432E+02  0.00000000000E+00 0. -1.
         11    1    3    3    0    0  0.17852460341E+02 -0.43739607744E+01 -0.13694700831E+02  0.22921315499E+02  0.51100000000E-03 0. -1.
        -11    1    3    3    0    0  0.41724845082E+01  0.77322774500E+01 -0.49360000392E+01  0.10077789350E+02  0.51100000000E-03 0.  1.
        -12    1    3    3    0    0  0.79789850342E+01  0.31575410941E+01 -0.12043900856E+02  0.14788164719E+02  0.00000000000E+00 0.  1.
</event>
<event>
 7    1  0.5504027E-010  0.4778727E+02  0.7816164E-02  0.1312668E+00
        -11   -1    0    0    0    0  0.00000000000E+00  0.00000000000E+00  0.45593999997E+02  0.45594000000E+02  0.51100000000E-03 0.  1.
         11   -1    0    0    0    0 -0.00000000000E+00 -0.00000000000E+00 -0.45593999997E+02  0.45594000000E+02  0.51100000000E-03 0. -1.
    9900012    2    1    2    0    0  0.24022516851E+02 -0.66500200232E+01  0.35529130479E+02  0.47787271956E+02  0.20000004156E+02 0.  0.
         12    1    1    2    0    0 -0.24022516851E+02  0.66500200232E+01 -0.35529130479E+02  0.43400728044E+02  0.00000000000E+00 0. -1.
         11    1    3    3    0    0  0.40935226819E+00 -0.49731903012E+01  0.12397649589E+02  0.13364202432E+02  0.51100000000E-03 0. -1.
        -11    1    3    3    0    0  0.12502302973E+02 -0.21013607182E+01  0.18387516355E+02  0.22334369355E+02  0.51100000000E-03 0.  1.
         12    1    3    3    0    0  0.11110861610E+02  0.42453099623E+00  0.47439645346E+01  0.12088700169E+02  0.00000000000E+00 0. -1.
</event>
<event>
 7    1  0.5504027E-010  0.4778727E+02  0.7816164E-02  0.1312668E+00
        -11   -1    0    0    0    0  0.00000000000E+00  0.00000000000E+00  0.45593999997E+02  0.45594000000E+02  0.51100000000E-03 0. -1.
         11   -1    0    0    0    0 -0.00000000000E+00 -0.00000000000E+00 -0.45593999997E+02  0.45594000000E+02  0.51100000000E-03 0.  1.
    9900012    2    1    2    0    0 -0.34581875881E+02 -0.26003137850E+02  0.33991376540E+01  0.47787268966E+02  0.19999990522E+02 0.  0.
         12    1    1    2    0    0  0.34581875881E+02  0.26003137850E+02 -0.33991376540E+01  0.43400731034E+02  0.00000000000E+00 0. -1.
         11    1    3    3    0    0 -0.46297509440E+01  0.14363632474E+01  0.43020899050E+01  0.64811812962E+01  0.51100000000E-03 0. -1.
        -11    1    3    3    0    0 -0.27652247853E+02 -0.27074257351E+02 -0.19588479208E+01  0.38749184609E+02  0.51100000000E-03 0.  1.
        -12    1    3    3    0    0 -0.22998770837E+01 -0.36524374705E+00  0.10558956698E+01  0.25569030604E+01  0.00000000000E+00 0.  1.
</event>
<event>
 7    1  0.5504027E-010  0.4778727E+02  0.7816164E-02  0.1312668E+00
        -11   -1    0    0    0    0  0.00000000000E+00  0.00000000000E+00  0.45593999997E+02  0.45594000000E+02  0.51100000000E-03 0.  1.
         11   -1    0    0    0    0 -0.00000000000E+00 -0.00000000000E+00 -0.45593999997E+02  0.45594000000E+02  0.51100000000E-03 0. -1.
    9900012    2    1    2    0    0 -0.37649684867E+02 -0.73866655096E+01  0.20286981422E+02  0.47787271744E+02  0.20000003189E+02 0.  0.
         12    1    1    2    0    0  0.37649684867E+02  0.73866655096E+01 -0.20286981422E+02  0.43400728256E+02  0.00000000000E+00 0. -1.
         11    1    3    3    0    0 -0.23971770088E+02 -0.12776807610E+02  0.18479559352E+02  0.32854020880E+02  0.51100000000E-03 0. -1.
        -11    1    3    3    0    0 -0.84485858563E+01  0.42156130570E+01  0.76190211842E+00  0.94726179864E+01  0.51100000000E-03 0.  1.
         12    1    3    3    0    0 -0.52293289229E+01  0.11745290434E+01  0.10455199518E+01  0.54606328779E+01  0.00000000000E+00 0. -1.
</event>
<event>
 7    1  0.5504027E-010  0.4778727E+02  0.7816164E-02  0.1312668E+00
        -11   -1    0    0    0    0  0.00000000000E+00  0.00000000000E+00  0.45593999997E+02  0.45594000000E+02  0.51100000000E-03 0.  1.
         11   -1    0    0    0    0 -0.00000000000E+00 -0.00000000000E+00 -0.45593999997E+02  0.45594000000E+02  0.51100000000E-03 0. -1.
    9900012    2    1    2    0    0  0.80874450469E+01 -0.41322460258E+02  0.10520006470E+02  0.47787273908E+02  0.20000013058E+02 0.  0.
         12    1    1    2    0    0 -0.80874450469E+01  0.41322460258E+02 -0.10520006470E+02  0.43400726092E+02  0.00000000000E+00 0. -1.
         11    1    3    3    0    0 -0.40036520025E+01 -0.45920943982E+01 -0.25206575025E+01  0.65931991344E+01  0.51100000000E-03 0. -1.
        -11    1    3    3    0    0  0.68808561343E+01 -0.17584464703E+02  0.36099148484E+01  0.19224751377E+02  0.51100000000E-03 0.  1.
         12    1    3    3    0    0  0.52102409150E+01 -0.19145901156E+02  0.94307491238E+01  0.21969323397E+02  0.00000000000E+00 0. -1.
</event>
<event>
 7    1  0.5504027E-010  0.4778727E+02  0.7816164E-02  0.1312668E+00
        -11   -1    0    0    0    0  0.00000000000E+00  0.00000000000E+00  0.45593999997E+02  0.45594000000E+02  0.51100000000E-03 0.  1.
         11   -1    0    0    0    0 -0.00000000000E+00 -0.00000000000E+00 -0.45593999997E+02  0.45594000000E+02  0.51100000000E-03 0. -1.
    9900012    2    1    2    0    0  0.29014325565E+02 -0.24742875418E+02  0.20726368217E+02  0.47787270613E+02  0.19999998031E+02 0.  0.
         12    1    1    2    0    0 -0.29014325565E+02  0.24742875418E+02 -0.20726368217E+02  0.43400729387E+02  0.00000000000E+00 0. -1.
         11    1    3    3    0    0  0.66835257445E+01 -0.12893798405E+02  0.12217987396E+02  0.18978903286E+02  0.51100000000E-03 0.  1.
        -11    1    3    3    0    0  0.47435129257E+01 -0.82792785576E+01  0.36528781465E+01  0.10217185881E+02  0.51100000000E-03 0. -1.
         12    1    3    3    0    0  0.17587286895E+02 -0.35697984552E+01  0.48555026744E+01  0.18591181446E+02  0.00000000000E+00 0. -1.
</event>
<event>
 7    1  0.5504027E-010  0.4778727E+02  0.7816164E-02  0.1312668E+00
        -11   -1    0    0    0    0  0.00000000000E+00  0.00000000000E+00  0.45593999997E+02  0.45594000000E+02  0.51100000000E-03 0.  1.
         11   -1    0    0    0    0 -0.00000000000E+00 -0.00000000000E+00 -0.45593999997E+02  0.45594000000E+02  0.51100000000E-03 0. -1.
    9900012    2    1    2    0    0  0.16954049505E+02 -0.39482316445E+02  0.61098176597E+01  0.47787274450E+02  0.20000015525E+02 0.  0.
         12    1    1    2    0    0 -0.16954049505E+02  0.39482316445E+02 -0.61098176597E+01  0.43400725550E+02  0.00000000000E+00 0. -1.
         11    1    3    3    0    0  0.48207221753E+01 -0.13894383534E+02 -0.70972857220E+01  0.16329872043E+02  0.51100000000E-03 0. -1.
        -11    1    3    3    0    0  0.56482045895E+01 -0.15742887796E+02  0.85233472908E+01  0.18772005235E+02  0.51100000000E-03 0.  1.
         12    1    3    3    0    0  0.64851227397E+01 -0.98450451159E+01  0.46837560909E+01  0.12685397172E+02  0.00000000000E+00 0. -1.
</event>
<event>
 7    1  0.5504027E-010  0.4778727E+02  0.7816164E-02  0.1312668E+00
        -11   -1    0    0    0    0  0.00000000000E+00  0.00000000000E+00  0.45593999997E+02  0.45594000000E+02  0.51100000000E-03 0.  1.
         11   -1    0    0    0    0 -0.00000000000E+00 -0.00000000000E+00 -0.45593999997E+02  0.45594000000E+02  0.51100000000E-03 0. -1.
    9900012    2    1    2    0    0 -0.65342674753E+00 -0.34673508824E+02  0.26094914364E+02  0.47787265716E+02  0.19999975707E+02 0.  0.
         12    1    1    2    0    0  0.65342674753E+00  0.34673508824E+02 -0.26094914364E+02  0.43400734284E+02  0.00000000000E+00 0. -1.
         11    1    3    3    0    0 -0.18952866677E+01 -0.10093233968E+01  0.30581977688E+00  0.21689562626E+01  0.51100000000E-03 0.  1.
        -11    1    3    3    0    0 -0.63308297741E+01 -0.19395833483E+02  0.89360155976E+01  0.22273978925E+02  0.51100000000E-03 0. -1.
        -12    1    3    3    0    0  0.75726896943E+01 -0.14268351945E+02  0.16853078989E+02  0.23344330529E+02  0.00000000000E+00 0.  1.
</event>
<event>
 7    1  0.5504027E-010  0.4778727E+02  0.7816164E-02  0.1312668E+00
        -11   -1    0    0    0    0  0.00000000000E+00  0.00000000000E+00  0.45593999997E+02  0.45594000000E+02  0.51100000000E-03 0. -1.
         11   -1    0    0    0    0 -0.00000000000E+00 -0.00000000000E+00 -0.45593999997E+02  0.45594000000E+02  0.51100000000E-03 0.  1.
    9900012    2    1    2    0    0 -0.94475742681E+01  0.25227354595E+02 -0.34028624292E+02  0.47787270160E+02  0.19999995966E+02 0.  0.
         12    1    1    2    0    0  0.94475742681E+01 -0.25227354595E+02  0.34028624292E+02  0.43400729840E+02  0.00000000000E+00 0. -1.
         11    1    3    3    0    0  0.19216618019E+01 -0.27488866759E+00 -0.35639172885E+01  0.40583068588E+01  0.51100000000E-03 0. -1.
        -11    1    3    3    0    0 -0.11255469203E+02  0.15829823631E+02 -0.11855068195E+02  0.22755472866E+02  0.51100000000E-03 0.  1.
        -12    1    3    3    0    0 -0.11376686683E+00  0.96724196318E+01 -0.18609638809E+02  0.20973490435E+02  0.00000000000E+00 0.  1.
</event>
<event>
 7    1  0.5504027E-010  0.4778727E+02  0.7816164E-02  0.1312668E+00
        -11   -1    0    0    0    0  0.00000000000E+00  0.00000000000E+00  0.45593999997E+02  0.45594000000E+02  0.51100000000E-03 0.  1.
         11   -1    0    0    0    0 -0.00000000000E+00 -0.00000000000E+00 -0.45593999997E+02  0.45594000000E+02  0.51100000000E-03 0. -1.
    9900012    2    1    2    0    0 -0.21195979683E+02 -0.25506470680E+02  0.27995961236E+02  0.47787269052E+02  0.19999990915E+02 0.  0.
         12    1    1    2    0    0  0.21195979683E+02  0.25506470680E+02 -0.27995961236E+02  0.43400730948E+02  0.00000000000E+00 0. -1.
         11    1    3    3    0    0  0.14162143459E+01 -0.86799169046E+01  0.85134181192E+01  0.12240298562E+02  0.51100000000E-03 0. -1.
        -11    1    3    3    0    0 -0.10899190793E+02 -0.48092924553E+01  0.36092452287E+01  0.12447823313E+02  0.51100000000E-03 0.  1.
        -12    1    3    3    0    0 -0.11713003236E+02 -0.12017261321E+02  0.15873297888E+02  0.23099147177E+02  0.00000000000E+00 0.  1.
</event>
<event>
 7    1  0.5504027E-010  0.4778727E+02  0.7816164E-02  0.1312668E+00
        -11   -1    0    0    0    0  0.00000000000E+00  0.00000000000E+00  0.45593999997E+02  0.45594000000E+02  0.51100000000E-03 0.  1.
         11   -1    0    0    0    0 -0.00000000000E+00 -0.00000000000E+00 -0.45593999997E+02  0.45594000000E+02  0.51100000000E-03 0. -1.
    9900012    2    1    2    0    0 -0.29182117328E+02  0.22931333600E+02  0.22498468510E+02  0.47787272843E+02  0.20000008202E+02 0.  0.
         12    1    1    2    0    0  0.29182117328E+02 -0.22931333600E+02 -0.22498468510E+02  0.43400727157E+02  0.00000000000E+00 0. -1.
         11    1    3    3    0    0 -0.96951860530E+01  0.15419394706E+02  0.27075855172E+01  0.18414271240E+02  0.51100000000E-03 0. -1.
        -11    1    3    3    0    0 -0.17174144171E+02  0.59884976104E+01  0.19371552294E+02  0.26571984687E+02  0.51100000000E-03 0.  1.
         12    1    3    3    0    0 -0.23127871032E+01  0.15234412836E+01  0.41933069832E+00  0.28010169161E+01  0.00000000000E+00 0. -1.
</event>
<event>
 7    1  0.5504027E-010  0.4778727E+02  0.7816164E-02  0.1312668E+00
        -11   -1    0    0    0    0  0.00000000000E+00  0.00000000000E+00  0.45593999997E+02  0.45594000000E+02  0.51100000000E-03 0. -1.
         11   -1    0    0    0    0 -0.00000000000E+00 -0.00000000000E+00 -0.45593999997E+02  0.45594000000E+02  0.51100000000E-03 0.  1.
    9900012    2    1    2    0    0 -0.31040554119E+02 -0.92166093611E+01 -0.28899155260E+02  0.47787273475E+02  0.20000011083E+02 0.  0.
         12    1    1    2    0    0  0.31040554119E+02  0.92166093611E+01  0.28899155260E+02  0.43400726525E+02  0.00000000000E+00 0. -1.
         11    1    3    3    0    0 -0.20399918997E+02 -0.13696541294E+02 -0.19281590607E+02  0.31233502447E+02  0.51100000000E-03 0. -1.
        -11    1    3    3    0    0 -0.57259183382E+01 -0.13075813995E+01 -0.39264607738E+01  0.70649136159E+01  0.51100000000E-03 0.  1.
         12    1    3    3    0    0 -0.49147167840E+01  0.57875133320E+01 -0.56911038787E+01  0.94888574124E+01  0.00000000000E+00 0. -1.
</event>
<event>
 7    1  0.5504027E-010  0.4778727E+02  0.7816164E-02  0.1312668E+00
        -11   -1    0    0    0    0  0.00000000000E+00  0.00000000000E+00  0.45593999997E+02  0.45594000000E+02  0.51100000000E-03 0.  1.
         11   -1    0    0    0    0 -0.00000000000E+00 -0.00000000000E+00 -0.45593999997E+02  0.45594000000E+02  0.51100000000E-03 0. -1.
    9900012    2    1    2    0    0 -0.13626843647E+02  0.10898272727E+02  0.39738645421E+02  0.47787272401E+02  0.20000006185E+02 0.  0.
         12    1    1    2    0    0  0.13626843647E+02 -0.10898272727E+02 -0.39738645421E+02  0.43400727599E+02  0.00000000000E+00 0. -1.
         11    1    3    3    0    0  0.36489073246E+01  0.55343229049E+01  0.13100002580E+02  0.14681734316E+02  0.51100000000E-03 0. -1.
        -11    1    3    3    0    0 -0.75420962369E+01 -0.15195994873E+01  0.11499347980E+02  0.13835729199E+02  0.51100000000E-03 0.  1.
         12    1    3    3    0    0 -0.97336547349E+01  0.68835493092E+01  0.15139294861E+02  0.19269808886E+02  0.00000000000E+00 0. -1.
</event>
<event>
 7    1  0.5504027E-010  0.4778727E+02  0.7816164E-02  0.1312668E+00
        -11   -1    0    0    0    0  0.00000000000E+00  0.00000000000E+00  0.45593999997E+02  0.45594000000E+02  0.51100000000E-03 0.  1.
         11   -1    0    0    0    0 -0.00000000000E+00 -0.00000000000E+00 -0.45593999997E+02  0.45594000000E+02  0.51100000000E-03 0. -1.
    9900012    2    1    2    0    0 -0.38818784390E+02  0.17561140500E+02  0.82662780014E+01  0.47787273863E+02  0.20000012851E+02 0.  0.
         12    1    1    2    0    0  0.38818784390E+02 -0.17561140500E+02 -0.82662780014E+01  0.43400726137E+02  0.00000000000E+00 0. -1.
         11    1    3    3    0    0 -0.90610081535E+01  0.11771870026E+02  0.57134581117E+01  0.15916104942E+02  0.51100000000E-03 0. -1.
        -11    1    3    3    0    0 -0.10199042456E+02 -0.11950584772E+01  0.40733719673E+01  0.11047216447E+02  0.51100000000E-03 0.  1.
         12    1    3    3    0    0 -0.19558733781E+02  0.69843289515E+01 -0.15205520777E+01  0.20823952474E+02  0.00000000000E+00 0. -1.
</event>
<event>
 7    1  0.5504027E-010  0.4778727E+02  0.7816164E-02  0.1312668E+00
        -11   -1    0    0    0    0  0.00000000000E+00  0.00000000000E+00  0.45593999997E+02  0.45594000000E+02  0.51100000000E-03 0.  1.
         11   -1    0    0    0    0 -0.00000000000E+00 -0.00000000000E+00 -0.45593999997E+02  0.45594000000E+02  0.51100000000E-03 0. -1.
    9900012    2    1    2    0    0 -0.72076269132E+01 -0.17228436854E+02  0.39177214567E+02  0.47787273469E+02  0.20000011057E+02 0.  0.
         12    1    1    2    0    0  0.72076269132E+01  0.17228436854E+02 -0.39177214567E+02  0.43400726531E+02  0.00000000000E+00 0. -1.
         11    1    3    3    0    0  0.21870578774E+01 -0.12803530663E+02  0.28039357892E+02  0.30901767116E+02  0.51100000000E-03 0.  1.
        -11    1    3    3    0    0 -0.43293019027E+01 -0.43671681047E+01  0.20516856735E+01  0.64826249763E+01  0.51100000000E-03 0. -1.
        -12    1    3    3    0    0 -0.50653828879E+01 -0.57738085695E-01  0.90861710012E+01  0.10402881377E+02  0.00000000000E+00 0.  1.
</event>
<event>
 7    1  0.5504027E-010  0.4778727E+02  0.7816164E-02  0.1312668E+00
        -11   -1    0    0    0    0  0.00000000000E+00  0.00000000000E+00  0.45593999997E+02  0.45594000000E+02  0.51100000000E-03 0. -1.
         11   -1    0    0    0    0 -0.00000000000E+00 -0.00000000000E+00 -0.45593999997E+02  0.45594000000E+02  0.51100000000E-03 0.  1.
    9900012    2    1    2    0    0 -0.30570245660E+00  0.57067683479E+01 -0.43022813520E+02  0.47787272562E+02  0.20000006918E+02 0.  0.
         12    1    1    2    0    0  0.30570245660E+00 -0.57067683479E+01  0.43022813520E+02  0.43400727438E+02  0.00000000000E+00 0. -1.
         11    1    3    3    0    0 -0.41433599365E+01 -0.21683189619E+01 -0.83787180590E+01  0.95954132406E+01  0.51100000000E-03 0. -1.
        -11    1    3    3    0    0  0.56713527135E+01  0.64831113696E+01 -0.34832746657E+02  0.35881962245E+02  0.51100000000E-03 0.  1.
        -12    1    3    3    0    0 -0.18336952335E+01  0.13919759403E+01  0.18865119557E+00  0.23098970760E+01  0.00000000000E+00 0.  1.
</event>
<event>
 7    1  0.5504027E-010  0.4778724E+02  0.7816164E-02  0.1312668E+00
        -11   -1    0    0    0    0  0.00000000000E+00  0.00000000000E+00  0.45593999997E+02  0.45594000000E+02  0.51100000000E-03 0.  1.
         11   -1    0    0    0    0 -0.00000000000E+00 -0.00000000000E+00 -0.45593999997E+02  0.45594000000E+02  0.51100000000E-03 0. -1.
    9900012    2    1    2    0    0 -0.40709444548E+02 -0.15442463592E+01  0.14966031601E+02  0.47787243392E+02  0.19999873923E+02 0.  0.
         12    1    1    2    0    0  0.40709444548E+02  0.15442463592E+01 -0.14966031601E+02  0.43400756608E+02  0.00000000000E+00 0. -1.
         11    1    3    3    0    0 -0.44618434317E+01 -0.59324645944E+01 -0.16418731644E+00  0.74249000471E+01  0.51100000000E-03 0. -1.
        -11    1    3    3    0    0 -0.38630365586E+01  0.31643067927E+01  0.16004163494E+01  0.52437793321E+01  0.51100000000E-03 0.  1.
         12    1    3    3    0    0 -0.32384564558E+02  0.12239114425E+01  0.13529802568E+02  0.35118564013E+02  0.00000000000E+00 0. -1.
</event>
<event>
 7    1  0.5504027E-010  0.4778727E+02  0.7816164E-02  0.1312668E+00
        -11   -1    0    0    0    0  0.00000000000E+00  0.00000000000E+00  0.45593999997E+02  0.45594000000E+02  0.51100000000E-03 0.  1.
         11   -1    0    0    0    0 -0.00000000000E+00 -0.00000000000E+00 -0.45593999997E+02  0.45594000000E+02  0.51100000000E-03 0. -1.
    9900012    2    1    2    0    0  0.29919470188E+02  0.31384180697E+02 -0.18659315393E+01  0.47787271955E+02  0.20000004150E+02 0.  0.
         12    1    1    2    0    0 -0.29919470188E+02 -0.31384180697E+02  0.18659315393E+01  0.43400728045E+02  0.00000000000E+00 0. -1.
         11    1    3    3    0    0  0.51626966200E+01  0.14718990435E+02  0.32907590801E+01  0.15941493387E+02  0.51100000000E-03 0. -1.
        -11    1    3    3    0    0  0.20436039924E+02  0.16863441644E+02 -0.21589775311E+01  0.26583238630E+02  0.51100000000E-03 0.  1.
         12    1    3    3    0    0  0.43207336440E+01 -0.19825138134E+00 -0.29977130884E+01  0.52625399374E+01  0.00000000000E+00 0. -1.
</event>
<event>
 7    1  0.5504027E-010  0.4778727E+02  0.7816164E-02  0.1312668E+00
        -11   -1    0    0    0    0  0.00000000000E+00  0.00000000000E+00  0.45593999997E+02  0.45594000000E+02  0.51100000000E-03 0. -1.
         11   -1    0    0    0    0 -0.00000000000E+00 -0.00000000000E+00 -0.45593999997E+02  0.45594000000E+02  0.51100000000E-03 0.  1.
    9900012    2    1    2    0    0 -0.40812999706E+02 -0.36798692244E+01 -0.14296176616E+02  0.47787273643E+02  0.20000011848E+02 0.  0.
         12    1    1    2    0    0  0.40812999706E+02  0.36798692244E+01  0.14296176616E+02  0.43400726357E+02  0.00000000000E+00 0. -1.
         11    1    3    3    0    0 -0.22220688666E+01 -0.22327449290E+01 -0.45007743979E+01  0.54936063208E+01  0.51100000000E-03 0.  1.
        -11    1    3    3    0    0 -0.15273953892E+02 -0.45989958664E+01  0.18180979896E+01  0.16054591587E+02  0.51100000000E-03 0. -1.
        -12    1    3    3    0    0 -0.23316976947E+02  0.31518715709E+01 -0.11613500208E+02  0.26239075735E+02  0.00000000000E+00 0.  1.
</event>
<event>
 7    1  0.5504027E-010  0.4778726E+02  0.7816164E-02  0.1312668E+00
        -11   -1    0    0    0    0  0.00000000000E+00  0.00000000000E+00  0.45593999997E+02  0.45594000000E+02  0.51100000000E-03 0.  1.
         11   -1    0    0    0    0 -0.00000000000E+00 -0.00000000000E+00 -0.45593999997E+02  0.45594000000E+02  0.51100000000E-03 0. -1.
    9900012    2    1    2    0    0  0.36667582396E+02 -0.22113781415E+02 -0.70776439792E+01  0.47787263007E+02  0.19999963353E+02 0.  0.
         12    1    1    2    0    0 -0.36667582396E+02  0.22113781415E+02  0.70776439792E+01  0.43400736993E+02  0.00000000000E+00 0. -1.
         11    1    3    3    0    0  0.18883580592E+02 -0.34837475918E+01 -0.63679433183E+01  0.20230591084E+02  0.51100000000E-03 0. -1.
        -11    1    3    3    0    0  0.18458545327E+02 -0.15167121916E+02 -0.15127981861E+01  0.23938421866E+02  0.51100000000E-03 0.  1.
         12    1    3    3    0    0 -0.67454352231E+00 -0.34629119069E+01  0.80309752526E+00  0.36182500568E+01  0.00000000000E+00 0. -1.
</event>
<event>
 7    1  0.5504027E-010  0.4778727E+02  0.7816164E-02  0.1312668E+00
        -11   -1    0    0    0    0  0.00000000000E+00  0.00000000000E+00  0.45593999997E+02  0.45594000000E+02  0.51100000000E-03 0.  1.
         11   -1    0    0    0    0 -0.00000000000E+00 -0.00000000000E+00 -0.45593999997E+02  0.45594000000E+02  0.51100000000E-03 0. -1.
    9900012    2    1    2    0    0  0.28360184732E+02 -0.23087505463E+02  0.23372857445E+02  0.47787268996E+02  0.19999990661E+02 0.  0.
         12    1    1    2    0    0 -0.28360184732E+02  0.23087505463E+02 -0.23372857445E+02  0.43400731004E+02  0.00000000000E+00 0. -1.
         11    1    3    3    0    0 -0.57479280696E+00 -0.60810240788E+01  0.13075731398E+01  0.62465181017E+01  0.51100000000E-03 0. -1.
        -11    1    3    3    0    0  0.44979899746E+01 -0.48720395842E+01  0.29786310424E+00  0.66375753262E+01  0.51100000000E-03 0.  1.
         12    1    3    3    0    0  0.24436987564E+02 -0.12134441800E+02  0.21767421201E+02  0.34903175568E+02  0.00000000000E+00 0. -1.
</event>
<event>
 7    1  0.5504027E-010  0.4778728E+02  0.7816164E-02  0.1312668E+00
        -11   -1    0    0    0    0  0.00000000000E+00  0.00000000000E+00  0.45593999997E+02  0.45594000000E+02  0.51100000000E-03 0.  1.
         11   -1    0    0    0    0 -0.00000000000E+00 -0.00000000000E+00 -0.45593999997E+02  0.45594000000E+02  0.51100000000E-03 0. -1.
    9900012    2    1    2    0    0  0.23390997658E+02  0.35727259798E+02  0.77490024166E+01  0.47787275322E+02  0.20000019505E+02 0.  0.
         12    1    1    2    0    0 -0.23390997658E+02 -0.35727259798E+02 -0.77490024166E+01  0.43400724678E+02  0.00000000000E+00 0. -1.
         11    1    3    3    0    0  0.41296052175E+01  0.92411797521E+01 -0.52336080449E+01  0.11394897801E+02  0.51100000000E-03 0. -1.
        -11    1    3    3    0    0  0.17896277170E+02  0.25961328805E+02  0.14110734316E+02  0.34545334751E+02  0.51100000000E-03 0.  1.
         12    1    3    3    0    0  0.13651152703E+01  0.52475124039E+00 -0.11281238541E+01  0.18470427704E+01  0.00000000000E+00 0. -1.
</event>
<event>
 7    1  0.5504027E-010  0.4778730E+02  0.7816164E-02  0.1312668E+00
        -11   -1    0    0    0    0  0.00000000000E+00  0.00000000000E+00  0.45593999997E+02  0.45594000000E+02  0.51100000000E-03 0. -1.
         11   -1    0    0    0    0 -0.00000000000E+00 -0.00000000000E+00 -0.45593999997E+02  0.45594000000E+02  0.51100000000E-03 0.  1.
    9900012    2    1    2    0    0 -0.30916018767E+02  0.28673905296E+02  0.10277532697E+02  0.47787300240E+02  0.20000133112E+02 0.  0.
         12    1    1    2    0    0  0.30916018767E+02 -0.28673905296E+02 -0.10277532697E+02  0.43400699760E+02  0.00000000000E+00 0. -1.
         11    1    3    3    0    0 -0.96795428405E+01  0.35288355598E+01  0.59045417898E+01  0.11874756588E+02  0.51100000000E-03 0. -1.
        -11    1    3    3    0    0 -0.82303268138E+01  0.15743945687E+02 -0.33891784643E+01  0.18085813119E+02  0.51100000000E-03 0.  1.
        -12    1    3    3    0    0 -0.13006149113E+02  0.94011240496E+01  0.77621693718E+01  0.17826730533E+02  0.00000000000E+00 0.  1.
</event>
<event>
 7    1  0.5504027E-010  0.4778727E+02  0.7816164E-02  0.1312668E+00
        -11   -1    0    0    0    0  0.00000000000E+00  0.00000000000E+00  0.45593999997E+02  0.45594000000E+02  0.51100000000E-03 0.  1.
         11   -1    0    0    0    0 -0.00000000000E+00 -0.00000000000E+00 -0.45593999997E+02  0.45594000000E+02  0.51100000000E-03 0. -1.
    9900012    2    1    2    0    0 -0.86283267520E+01 -0.41841158093E+02 -0.76480560433E+01  0.47787270808E+02  0.19999998923E+02 0.  0.
         12    1    1    2    0    0  0.86283267520E+01  0.41841158093E+02  0.76480560433E+01  0.43400729192E+02  0.00000000000E+00 0. -1.
         11    1    3    3    0    0 -0.10924313029E+02 -0.29431274643E+02 -0.11347106001E+02  0.33381092809E+02  0.51100000000E-03 0. -1.
        -11    1    3    3    0    0 -0.13913186359E+01 -0.78693553626E+01  0.29066377701E+01  0.85035912859E+01  0.51100000000E-03 0.  1.
         12    1    3    3    0    0  0.36873049126E+01 -0.45405280876E+01  0.79241218713E+00  0.59025867132E+01  0.00000000000E+00 0. -1.
</event>
<event>
 7    1  0.5504027E-010  0.4778727E+02  0.7816164E-02  0.1312668E+00
        -11   -1    0    0    0    0  0.00000000000E+00  0.00000000000E+00  0.45593999997E+02  0.45594000000E+02  0.51100000000E-03 0.  1.
         11   -1    0    0    0    0 -0.00000000000E+00 -0.00000000000E+00 -0.45593999997E+02  0.45594000000E+02  0.51100000000E-03 0. -1.
    9900012    2    1    2    0    0  0.13579579203E+02 -0.19745847745E+02  0.36184521967E+02  0.47787272996E+02  0.20000008896E+02 0.  0.
         12    1    1    2    0    0 -0.13579579203E+02  0.19745847745E+02 -0.36184521967E+02  0.43400727004E+02  0.00000000000E+00 0. -1.
         11    1    3    3    0    0 -0.35350222811E+01 -0.98032911103E+00  0.15131560752E+01  0.39682577112E+01  0.51100000000E-03 0. -1.
        -11    1    3    3    0    0  0.15852186458E+02 -0.12794099898E+02  0.23593332310E+02  0.31170918136E+02  0.51100000000E-03 0.  1.
        -12    1    3    3    0    0  0.12624150259E+01 -0.59714187363E+01  0.11078033582E+02  0.12648097148E+02  0.00000000000E+00 0.  1.
</event>
<event>
 7    1  0.5504027E-010  0.4778726E+02  0.7816164E-02  0.1312668E+00
        -11   -1    0    0    0    0  0.00000000000E+00  0.00000000000E+00  0.45593999997E+02  0.45594000000E+02  0.51100000000E-03 0. -1.
         11   -1    0    0    0    0 -0.00000000000E+00 -0.00000000000E+00 -0.45593999997E+02  0.45594000000E+02  0.51100000000E-03 0.  1.
    9900012    2    1    2    0    0 -0.34096905891E+02  0.19855180415E+02 -0.18077529058E+02  0.47787259943E+02  0.19999949383E+02 0.  0.
         12    1    1    2    0    0  0.34096905891E+02 -0.19855180415E+02  0.18077529058E+02  0.43400740057E+02  0.00000000000E+00 0. -1.
         11    1    3    3    0    0 -0.26758364795E+01  0.10396715214E+01  0.10300896918E+01  0.30499348799E+01  0.51100000000E-03 0. -1.
        -11    1    3    3    0    0 -0.31446537402E+02  0.12832851637E+02 -0.13536417231E+02  0.36562294614E+02  0.51100000000E-03 0.  1.
        -12    1    3    3    0    0  0.25467990854E-01  0.59826572566E+01 -0.55712015190E+01  0.81750304485E+01  0.00000000000E+00 0.  1.
</event>
<event>
 7    1  0.5504027E-010  0.4778727E+02  0.7816164E-02  0.1312668E+00
        -11   -1    0    0    0    0  0.00000000000E+00  0.00000000000E+00  0.45593999997E+02  0.45594000000E+02  0.51100000000E-03 0.  1.
         11   -1    0    0    0    0 -0.00000000000E+00 -0.00000000000E+00 -0.45593999997E+02  0.45594000000E+02  0.51100000000E-03 0. -1.
    9900012    2    1    2    0    0  0.86235062664E+01  0.28502014767E+02  0.31573624020E+02  0.47787269132E+02  0.19999991281E+02 0.  0.
         12    1    1    2    0    0 -0.86235062664E+01 -0.28502014767E+02 -0.31573624020E+02  0.43400730868E+02  0.00000000000E+00 0. -1.
         11    1    3    3    0    0  0.95317203375E+01  0.82668872120E+01  0.53603770758E+01  0.13708711078E+02  0.51100000000E-03 0. -1.
        -11    1    3    3    0    0  0.27850104992E+01  0.12595864262E+02  0.18864525335E+02  0.22853498559E+02  0.51100000000E-03 0.  1.
         12    1    3    3    0    0 -0.36932245703E+01  0.76392632936E+01  0.73487216088E+01  0.11225059496E+02  0.00000000000E+00 0. -1.
</event>
<event>
 7    1  0.5504027E-010  0.4778727E+02  0.7816164E-02  0.1312668E+00
        -11   -1    0    0    0    0  0.00000000000E+00  0.00000000000E+00  0.45593999997E+02  0.45594000000E+02  0.51100000000E-03 0.  1.
         11   -1    0    0    0    0 -0.00000000000E+00 -0.00000000000E+00 -0.45593999997E+02  0.45594000000E+02  0.51100000000E-03 0. -1.
    9900012    2    1    2    0    0  0.21137533854E+02  0.19498095511E+02  0.32506185198E+02  0.47787272562E+02  0.20000006921E+02 0.  0.
         12    1    1    2    0    0 -0.21137533854E+02 -0.19498095511E+02 -0.32506185198E+02  0.43400727438E+02  0.00000000000E+00 0. -1.
         11    1    3    3    0    0  0.87142030717E+01  0.86129700702E+00  0.85898317646E+01  0.12266392205E+02  0.51100000000E-03 0. -1.
        -11    1    3    3    0    0  0.60418537239E+00  0.61770129067E+01  0.16196215271E+00  0.62086037411E+01  0.51100000000E-03 0.  1.
        -12    1    3    3    0    0  0.11819145410E+02  0.12459785597E+02  0.23754391281E+02  0.29312276617E+02  0.00000000000E+00 0.  1.
</event>
<event>
 7    1  0.5504027E-010  0.4778727E+02  0.7816164E-02  0.1312668E+00
        -11   -1    0    0    0    0  0.00000000000E+00  0.00000000000E+00  0.45593999997E+02  0.45594000000E+02  0.51100000000E-03 0.  1.
         11   -1    0    0    0    0 -0.00000000000E+00 -0.00000000000E+00 -0.45593999997E+02  0.45594000000E+02  0.51100000000E-03 0. -1.
    9900012    2    1    2    0    0 -0.34296399332E+02  0.15741456847E+02  0.21437973124E+02  0.47787272328E+02  0.20000005851E+02 0.  0.
         12    1    1    2    0    0  0.34296399332E+02 -0.15741456847E+02 -0.21437973124E+02  0.43400727672E+02  0.00000000000E+00 0. -1.
         11    1    3    3    0    0 -0.73903597393E+01 -0.65534400579E+00  0.72022167098E+01  0.10340155639E+02  0.51100000000E-03 0. -1.
        -11    1    3    3    0    0 -0.52511196145E+01  0.10360562931E+02  0.80465997248E+01  0.14130226072E+02  0.51100000000E-03 0.  1.
        -12    1    3    3    0    0 -0.21654919978E+02  0.60362379222E+01  0.61891566891E+01  0.23316890617E+02  0.00000000000E+00 0.  1.
</event>
<event>
 7    1  0.5504027E-010  0.4778727E+02  0.7816164E-02  0.1312668E+00
        -11   -1    0    0    0    0  0.00000000000E+00  0.00000000000E+00  0.45593999997E+02  0.45594000000E+02  0.51100000000E-03 0. -1.
         11   -1    0    0    0    0 -0.00000000000E+00 -0.00000000000E+00 -0.45593999997E+02  0.45594000000E+02  0.51100000000E-03 0.  1.
    9900012    2    1    2    0    0 -0.21404485013E+02 -0.19317245114E+02 -0.32439412466E+02  0.47787269377E+02  0.19999992398E+02 0.  0.
         12    1    1    2    0    0  0.21404485013E+02  0.19317245114E+02  0.32439412466E+02  0.43400730623E+02  0.00000000000E+00 0. -1.
         11    1    3    3    0    0 -0.17248512832E+02 -0.15660593638E+02 -0.13632312784E+02  0.26992690494E+02  0.51100000000E-03 0. -1.
        -11    1    3    3    0    0  0.14000607313E+01  0.88388173670E+00 -0.28016565130E+01  0.32543350249E+01  0.51100000000E-03 0.  1.
         12    1    3    3    0    0 -0.55560329131E+01 -0.45405332123E+01 -0.16005443169E+02  0.17540243858E+02  0.00000000000E+00 0. -1.
</event>
<event>
 7    1  0.5504027E-010  0.4778727E+02  0.7816164E-02  0.1312668E+00
        -11   -1    0    0    0    0  0.00000000000E+00  0.00000000000E+00  0.45593999997E+02  0.45594000000E+02  0.51100000000E-03 0. -1.
         11   -1    0    0    0    0 -0.00000000000E+00 -0.00000000000E+00 -0.45593999997E+02  0.45594000000E+02  0.51100000000E-03 0.  1.
    9900012    2    1    2    0    0 -0.32128622276E+02 -0.14676069532E+02 -0.25218798346E+02  0.47787272169E+02  0.20000005128E+02 0.  0.
         12    1    1    2    0    0  0.32128622276E+02  0.14676069532E+02  0.25218798346E+02  0.43400727831E+02  0.00000000000E+00 0. -1.
         11    1    3    3    0    0 -0.58751382342E+01 -0.31634179605E+00 -0.25559704715E+01  0.64148504827E+01  0.51100000000E-03 0. -1.
        -11    1    3    3    0    0 -0.17030314160E+02 -0.10680850869E+02 -0.43906763468E+01  0.20576448059E+02  0.51100000000E-03 0.  1.
        -12    1    3    3    0    0 -0.92231698815E+01 -0.36788768663E+01 -0.18272151527E+02  0.20795973627E+02  0.00000000000E+00 0.  1.
</event>
<event>
 7    1  0.5504027E-010  0.4778727E+02  0.7816164E-02  0.1312668E+00
        -11   -1    0    0    0    0  0.00000000000E+00  0.00000000000E+00  0.45593999997E+02  0.45594000000E+02  0.51100000000E-03 0.  1.
         11   -1    0    0    0    0 -0.00000000000E+00 -0.00000000000E+00 -0.45593999997E+02  0.45594000000E+02  0.51100000000E-03 0. -1.
    9900012    2    1    2    0    0  0.91319575983E+01 -0.21026923005E+02  0.36852394937E+02  0.47787272434E+02  0.20000006337E+02 0.  0.
         12    1    1    2    0    0 -0.91319575983E+01  0.21026923005E+02 -0.36852394937E+02  0.43400727566E+02  0.00000000000E+00 0. -1.
         11    1    3    3    0    0 -0.12624165498E+01  0.76617318789E+00  0.11549170199E+01  0.18747134403E+01  0.51100000000E-03 0. -1.
        -11    1    3    3    0    0  0.20177891334E+01 -0.11357354710E+02  0.52891446657E+01  0.12689997264E+02  0.51100000000E-03 0.  1.
        -12    1    3    3    0    0  0.83765850147E+01 -0.10435741483E+02  0.30408333252E+02  0.33222561731E+02  0.00000000000E+00 0.  1.
</event>
<event>
 7    1  0.5504027E-010  0.4778728E+02  0.7816164E-02  0.1312668E+00
        -11   -1    0    0    0    0  0.00000000000E+00  0.00000000000E+00  0.45593999997E+02  0.45594000000E+02  0.51100000000E-03 0.  1.
         11   -1    0    0    0    0 -0.00000000000E+00 -0.00000000000E+00 -0.45593999997E+02  0.45594000000E+02  0.51100000000E-03 0. -1.
    9900012    2    1    2    0    0 -0.34024353805E+02  0.44618883202E+00  0.26940062534E+02  0.47787277590E+02  0.20000029845E+02 0.  0.
         12    1    1    2    0    0  0.34024353805E+02 -0.44618883202E+00 -0.26940062534E+02  0.43400722410E+02  0.00000000000E+00 0. -1.
         11    1    3    3    0    0 -0.10119565074E+01 -0.23084332169E+00  0.23350645040E+01  0.25553612486E+01  0.51100000000E-03 0. -1.
        -11    1    3    3    0    0 -0.48565997024E+01 -0.59434407139E+01  0.69816510529E+00  0.77070411290E+01  0.51100000000E-03 0.  1.
        -12    1    3    3    0    0 -0.28155797595E+02  0.66204728676E+01  0.23906832925E+02  0.37524875213E+02  0.00000000000E+00 0.  1.
</event>
<event>
 7    1  0.5504027E-010  0.4778727E+02  0.7816164E-02  0.1312668E+00
        -11   -1    0    0    0    0  0.00000000000E+00  0.00000000000E+00  0.45593999997E+02  0.45594000000E+02  0.51100000000E-03 0. -1.
         11   -1    0    0    0    0 -0.00000000000E+00 -0.00000000000E+00 -0.45593999997E+02  0.45594000000E+02  0.51100000000E-03 0.  1.
    9900012    2    1    2    0    0 -0.40625413184E+02 -0.12536426413E+02 -0.87199197371E+01  0.47787272082E+02  0.20000004731E+02 0.  0.
         12    1    1    2    0    0  0.40625413184E+02  0.12536426413E+02  0.87199197371E+01  0.43400727918E+02  0.00000000000E+00 0. -1.
         11    1    3    3    0    0  0.69950322326E+00 -0.34513656545E+01 -0.36427162579E+00  0.35403281937E+01  0.51100000000E-03 0. -1.
        -11    1    3    3    0    0 -0.25704652760E+02 -0.49836217136E+01 -0.99687982978E+01  0.28016827063E+02  0.51100000000E-03 0.  1.
        -12    1    3    3    0    0 -0.15620263647E+02 -0.41014390444E+01  0.16131501865E+01  0.16230116826E+02  0.00000000000E+00 0.  1.
</event>
<event>
 7    1  0.5504027E-010  0.4778727E+02  0.7816164E-02  0.1312668E+00
        -11   -1    0    0    0    0  0.00000000000E+00  0.00000000000E+00  0.45593999997E+02  0.45594000000E+02  0.51100000000E-03 0.  1.
         11   -1    0    0    0    0 -0.00000000000E+00 -0.00000000000E+00 -0.45593999997E+02  0.45594000000E+02  0.51100000000E-03 0. -1.
    9900012    2    1    2    0    0 -0.18259640210E+01  0.39687308628E+02  0.17470169056E+02  0.47787269389E+02  0.19999992452E+02 0.  0.
         12    1    1    2    0    0  0.18259640210E+01 -0.39687308628E+02 -0.17470169056E+02  0.43400730611E+02  0.00000000000E+00 0. -1.
         11    1    3    3    0    0  0.29267180293E+01  0.19495025868E+02  0.13055746812E-02  0.19713490660E+02  0.51100000000E-03 0. -1.
        -11    1    3    3    0    0 -0.23538365907E+01  0.19070254170E+02  0.14348724747E+02  0.23981264415E+02  0.51100000000E-03 0.  1.
         12    1    3    3    0    0 -0.23988454597E+01  0.11220285899E+01  0.31201387342E+01  0.40925143148E+01  0.00000000000E+00 0. -1.
</event>
<event>
 7    1  0.5504027E-010  0.4778727E+02  0.7816164E-02  0.1312668E+00
        -11   -1    0    0    0    0  0.00000000000E+00  0.00000000000E+00  0.45593999997E+02  0.45594000000E+02  0.51100000000E-03 0.  1.
         11   -1    0    0    0    0 -0.00000000000E+00 -0.00000000000E+00 -0.45593999997E+02  0.45594000000E+02  0.51100000000E-03 0. -1.
    9900012    2    1    2    0    0 -0.38807011943E+02 -0.82542500284E+01  0.17592794408E+02  0.47787271497E+02  0.20000002064E+02 0.  0.
         12    1    1    2    0    0  0.38807011943E+02  0.82542500284E+01 -0.17592794408E+02  0.43400728503E+02  0.00000000000E+00 0. -1.
         11    1    3    3    0    0 -0.27216949688E+02 -0.98744205215E+01  0.34817341261E+01  0.29161430070E+02  0.51100000000E-03 0. -1.
        -11    1    3    3    0    0 -0.11082403903E+02  0.70652151681E+00  0.13070010662E+02  0.17150627624E+02  0.51100000000E-03 0.  1.
        -12    1    3    3    0    0 -0.50765835253E+00  0.91364897626E+00  0.10410496202E+01  0.14752138036E+01  0.00000000000E+00 0.  1.
</event>
<event>
 7    1  0.5504027E-010  0.4778727E+02  0.7816164E-02  0.1312668E+00
        -11   -1    0    0    0    0  0.00000000000E+00  0.00000000000E+00  0.45593999997E+02  0.45594000000E+02  0.51100000000E-03 0. -1.
         11   -1    0    0    0    0 -0.00000000000E+00 -0.00000000000E+00 -0.45593999997E+02  0.45594000000E+02  0.51100000000E-03 0.  1.
    9900012    2    1    2    0    0 -0.27799742741E+02  0.31513682803E+02  0.10848299369E+02  0.47787268445E+02  0.19999988150E+02 0.  0.
         12    1    1    2    0    0  0.27799742741E+02 -0.31513682803E+02 -0.10848299369E+02  0.43400731555E+02  0.00000000000E+00 0. -1.
         11    1    3    3    0    0 -0.10132491052E+02 -0.87437030772E-01  0.36890643683E+01  0.10783515954E+02  0.51100000000E-03 0. -1.
        -11    1    3    3    0    0 -0.15527615193E+02  0.25715859710E+02  0.60804876920E+01  0.30649381805E+02  0.51100000000E-03 0.  1.
         12    1    3    3    0    0 -0.21396364958E+01  0.58852601239E+01  0.10787473087E+01  0.63543706861E+01  0.00000000000E+00 0. -1.
</event>
<event>
 7    1  0.5504027E-010  0.4778727E+02  0.7816164E-02  0.1312668E+00
        -11   -1    0    0    0    0  0.00000000000E+00  0.00000000000E+00  0.45593999997E+02  0.45594000000E+02  0.51100000000E-03 0.  1.
         11   -1    0    0    0    0 -0.00000000000E+00 -0.00000000000E+00 -0.45593999997E+02  0.45594000000E+02  0.51100000000E-03 0. -1.
    9900012    2    1    2    0    0 -0.10126625438E+02  0.16327050105E+02  0.38916606125E+02  0.47787270281E+02  0.19999996517E+02 0.  0.
         12    1    1    2    0    0  0.10126625438E+02 -0.16327050105E+02 -0.38916606125E+02  0.43400729719E+02  0.00000000000E+00 0. -1.
         11    1    3    3    0    0 -0.11174084198E+02  0.10096313695E+02  0.22616186099E+02  0.27171447915E+02  0.51100000000E-03 0. -1.
        -11    1    3    3    0    0  0.38787370033E+01  0.80722302445E+01  0.13635711777E+02  0.16313740766E+02  0.51100000000E-03 0.  1.
         12    1    3    3    0    0 -0.28312782428E+01 -0.18414938346E+01  0.26647082494E+01  0.43020815991E+01  0.00000000000E+00 0. -1.
</event>
<event>
 7    1  0.5504027E-010  0.4778727E+02  0.7816164E-02  0.1312668E+00
        -11   -1    0    0    0    0  0.00000000000E+00  0.00000000000E+00  0.45593999997E+02  0.45594000000E+02  0.51100000000E-03 0. -1.
         11   -1    0    0    0    0 -0.00000000000E+00 -0.00000000000E+00 -0.45593999997E+02  0.45594000000E+02  0.51100000000E-03 0.  1.
    9900012    2    1    2    0    0  0.75233144455E+01  0.40016385636E+02 -0.15023712444E+02  0.47787270568E+02  0.19999997828E+02 0.  0.
         12    1    1    2    0    0 -0.75233144455E+01 -0.40016385636E+02  0.15023712444E+02  0.43400729432E+02  0.00000000000E+00 0. -1.
         11    1    3    3    0    0  0.35195702189E+01  0.17098782475E+02 -0.17045883471E+02  0.24399136874E+02  0.51100000000E-03 0. -1.
        -11    1    3    3    0    0  0.35952059874E+01  0.19250682181E+02  0.12852317617E+01  0.19625648816E+02  0.51100000000E-03 0.  1.
         12    1    3    3    0    0  0.40853823923E+00  0.36669209805E+01  0.73693926554E+00  0.37624848772E+01  0.00000000000E+00 0. -1.
</event>
<event>
 7    1  0.5504027E-010  0.4778727E+02  0.7816164E-02  0.1312668E+00
        -11   -1    0    0    0    0  0.00000000000E+00  0.00000000000E+00  0.45593999997E+02  0.45594000000E+02  0.51100000000E-03 0. -1.
         11   -1    0    0    0    0 -0.00000000000E+00 -0.00000000000E+00 -0.45593999997E+02  0.45594000000E+02  0.51100000000E-03 0.  1.
    9900012    2    1    2    0    0  0.42385268676E+00  0.11531616038E+02 -0.41838564747E+02  0.47787270517E+02  0.19999997597E+02 0.  0.
         12    1    1    2    0    0 -0.42385268676E+00 -0.11531616038E+02  0.41838564747E+02  0.43400729483E+02  0.00000000000E+00 0. -1.
         11    1    3    3    0    0  0.72569078833E+00  0.13820416875E+00  0.18118789782E+00  0.76062923160E+00  0.51100000000E-03 0.  1.
        -11    1    3    3    0    0 -0.36308752432E+01 -0.39351238748E+01 -0.90406652501E+01  0.10507239569E+02  0.51100000000E-03 0. -1.
        -12    1    3    3    0    0  0.33290371416E+01  0.15328535744E+02 -0.32979087395E+02  0.36519401716E+02  0.00000000000E+00 0.  1.
</event>
<event>
 7    1  0.5504027E-010  0.4778728E+02  0.7816164E-02  0.1312668E+00
        -11   -1    0    0    0    0  0.00000000000E+00  0.00000000000E+00  0.45593999997E+02  0.45594000000E+02  0.51100000000E-03 0. -1.
         11   -1    0    0    0    0 -0.00000000000E+00 -0.00000000000E+00 -0.45593999997E+02  0.45594000000E+02  0.51100000000E-03 0.  1.
    9900012    2    1    2    0    0 -0.34719948845E+02  0.20147170125E+02 -0.16499683187E+02  0.47787275845E+02  0.20000021890E+02 0.  0.
         12    1    1    2    0    0  0.34719948845E+02 -0.20147170125E+02  0.16499683187E+02  0.43400724155E+02  0.00000000000E+00 0. -1.
         11    1    3    3    0    0 -0.24734967740E+01  0.90015701793E+01 -0.49611878576E+01  0.10571652529E+02  0.51100000000E-03 0. -1.
        -11    1    3    3    0    0 -0.21873289674E+02  0.10969838166E+02 -0.50700771938E+01  0.24989674539E+02  0.51100000000E-03 0.  1.
         12    1    3    3    0    0 -0.10373162397E+02  0.17576177976E+00 -0.64684181356E+01  0.12225948777E+02  0.00000000000E+00 0. -1.
</event>
<event>
 7    1  0.5504027E-010  0.4778727E+02  0.7816164E-02  0.1312668E+00
        -11   -1    0    0    0    0  0.00000000000E+00  0.00000000000E+00  0.45593999997E+02  0.45594000000E+02  0.51100000000E-03 0.  1.
         11   -1    0    0    0    0 -0.00000000000E+00 -0.00000000000E+00 -0.45593999997E+02  0.45594000000E+02  0.51100000000E-03 0. -1.
    9900012    2    1    2    0    0 -0.29054893578E+02  0.22705446171E+01  0.32160244219E+02  0.47787268187E+02  0.19999986971E+02 0.  0.
         12    1    1    2    0    0  0.29054893578E+02 -0.22705446171E+01 -0.32160244219E+02  0.43400731813E+02  0.00000000000E+00 0. -1.
         11    1    3    3    0    0 -0.71993843851E+01  0.38781617558E+01  0.18389801032E+02  0.20126004481E+02  0.51100000000E-03 0. -1.
        -11    1    3    3    0    0 -0.11124118651E+02 -0.55183999620E+01  0.56235489020E+01  0.13631693087E+02  0.51100000000E-03 0.  1.
        -12    1    3    3    0    0 -0.10731390542E+02  0.39107828232E+01  0.81468942855E+01  0.14029570619E+02  0.00000000000E+00 0.  1.
</event>
<event>
 7    1  0.5504027E-010  0.4778729E+02  0.7816164E-02  0.1312668E+00
        -11   -1    0    0    0    0  0.00000000000E+00  0.00000000000E+00  0.45593999997E+02  0.45594000000E+02  0.51100000000E-03 0.  1.
         11   -1    0    0    0    0 -0.00000000000E+00 -0.00000000000E+00 -0.45593999997E+02  0.45594000000E+02  0.51100000000E-03 0. -1.
    9900012    2    1    2    0    0  0.14615519035E+02 -0.13077126082E+02  0.38716885097E+02  0.47787287853E+02  0.20000076636E+02 0.  0.
         12    1    1    2    0    0 -0.14615519035E+02  0.13077126082E+02 -0.38716885097E+02  0.43400712147E+02  0.00000000000E+00 0. -1.
         11    1    3    3    0    0  0.17445086898E+02 -0.55127046478E+01  0.21809352253E+02  0.28466977629E+02  0.51100000000E-03 0. -1.
        -11    1    3    3    0    0 -0.24216034959E+00 -0.57941674929E+01  0.13484132124E+02  0.14678311823E+02  0.51100000000E-03 0.  1.
         12    1    3    3    0    0 -0.25874075130E+01 -0.17702539416E+01  0.34234007212E+01  0.46419984009E+01  0.00000000000E+00 0. -1.
</event>
<event>
 7    1  0.5504027E-010  0.4778727E+02  0.7816164E-02  0.1312668E+00
        -11   -1    0    0    0    0  0.00000000000E+00  0.00000000000E+00  0.45593999997E+02  0.45594000000E+02  0.51100000000E-03 0. -1.
         11   -1    0    0    0    0 -0.00000000000E+00 -0.00000000000E+00 -0.45593999997E+02  0.45594000000E+02  0.51100000000E-03 0.  1.
    9900012    2    1    2    0    0  0.17736825470E+02 -0.94872765816E+01 -0.38458028494E+02  0.47787270163E+02  0.19999995983E+02 0.  0.
         12    1    1    2    0    0 -0.17736825470E+02  0.94872765816E+01  0.38458028494E+02  0.43400729837E+02  0.00000000000E+00 0. -1.
         11    1    3    3    0    0  0.16265057383E+01 -0.69709160856E+01 -0.21955041694E+01  0.74872846085E+01  0.51100000000E-03 0. -1.
        -11    1    3    3    0    0  0.10449838201E+02 -0.61596478271E+00 -0.15558965611E+02  0.18752598278E+02  0.51100000000E-03 0.  1.
         12    1    3    3    0    0  0.56604815306E+01 -0.19003957133E+01 -0.20703558714E+02  0.21547387277E+02  0.00000000000E+00 0. -1.
</event>
<event>
 7    1  0.5504027E-010  0.4778727E+02  0.7816164E-02  0.1312668E+00
        -11   -1    0    0    0    0  0.00000000000E+00  0.00000000000E+00  0.45593999997E+02  0.45594000000E+02  0.51100000000E-03 0.  1.
         11   -1    0    0    0    0 -0.00000000000E+00 -0.00000000000E+00 -0.45593999997E+02  0.45594000000E+02  0.51100000000E-03 0. -1.
    9900012    2    1    2    0    0 -0.20034333277E+01  0.40802114350E+02  0.14655953601E+02  0.47787271244E+02  0.20000000912E+02 0.  0.
         12    1    1    2    0    0  0.20034333277E+01 -0.40802114350E+02 -0.14655953601E+02  0.43400728756E+02  0.00000000000E+00 0. -1.
         11    1    3    3    0    0 -0.87407056876E+00  0.63996483353E+01  0.97650155049E+01  0.11707904434E+02  0.51100000000E-03 0.  1.
        -11    1    3    3    0    0  0.24830642427E+01  0.22871664901E+02 -0.98739575244E-01  0.23006268997E+02  0.51100000000E-03 0. -1.
        -12    1    3    3    0    0 -0.36124270016E+01  0.11530801114E+02  0.49896776713E+01  0.13073097813E+02  0.00000000000E+00 0.  1.
</event>
<event>
 7    1  0.5732411E-010  0.4778727E+02  0.7816164E-02  0.1312668E+00
        -11   -1    0    0    0    0  0.00000000000E+00  0.00000000000E+00  0.45593999997E+02  0.45594000000E+02  0.51100000000E-03 0.  1.
         11   -1    0    0    0    0 -0.00000000000E+00 -0.00000000000E+00 -0.45593999997E+02  0.45594000000E+02  0.51100000000E-03 0. -1.
    9900012    2    1    2    0    0 -0.36957677145E+02  0.76949489516E+01 -0.21413577947E+02  0.47787268903E+02  0.19999990235E+02 0.  0.
         12    1    1    2    0    0  0.36957677145E+02 -0.76949489516E+01  0.21413577947E+02  0.43400731097E+02  0.00000000000E+00 0. -1.
         11    1    3    3    0    0 -0.12081333538E+02 -0.23106819612E+01 -0.14058317863E+02  0.18679779778E+02  0.51100000000E-03 0. -1.
        -11    1    3    3    0    0 -0.19637759831E+02  0.57064727629E+01 -0.86566553494E+01  0.22206826083E+02  0.51100000000E-03 0.  1.
         12    1    3    3    0    0 -0.52385837758E+01  0.42991581499E+01  0.13013952652E+01  0.69006630413E+01  0.00000000000E+00 0. -1.
</event>
<event>
 7    1  0.5504027E-010  0.4778727E+02  0.7816164E-02  0.1312668E+00
        -11   -1    0    0    0    0  0.00000000000E+00  0.00000000000E+00  0.45593999997E+02  0.45594000000E+02  0.51100000000E-03 0.  1.
         11   -1    0    0    0    0 -0.00000000000E+00 -0.00000000000E+00 -0.45593999997E+02  0.45594000000E+02  0.51100000000E-03 0. -1.
    9900012    2    1    2    0    0 -0.17460486496E+02 -0.13455590848E+01  0.39710753992E+02  0.47787273041E+02  0.20000009105E+02 0.  0.
         12    1    1    2    0    0  0.17460486496E+02  0.13455590848E+01 -0.39710753992E+02  0.43400726959E+02  0.00000000000E+00 0. -1.
         11    1    3    3    0    0 -0.84796788140E+01 -0.28829063806E+01  0.42393318335E+01  0.99089876700E+01  0.51100000000E-03 0. -1.
        -11    1    3    3    0    0 -0.21304948427E+00  0.39743470206E+01  0.79366592167E+01  0.88787039654E+01  0.51100000000E-03 0.  1.
         12    1    3    3    0    0 -0.87677581982E+01 -0.24369997248E+01  0.27534762942E+02  0.28999581406E+02  0.00000000000E+00 0. -1.
</event>
<event>
 7    1  0.5504027E-010  0.4778727E+02  0.7816164E-02  0.1312668E+00
        -11   -1    0    0    0    0  0.00000000000E+00  0.00000000000E+00  0.45593999997E+02  0.45594000000E+02  0.51100000000E-03 0. -1.
         11   -1    0    0    0    0 -0.00000000000E+00 -0.00000000000E+00 -0.45593999997E+02  0.45594000000E+02  0.51100000000E-03 0.  1.
    9900012    2    1    2    0    0 -0.58391678493E+01 -0.99013928262E+01 -0.41850804001E+02  0.47787271244E+02  0.20000000909E+02 0.  0.
         12    1    1    2    0    0  0.58391678493E+01  0.99013928262E+01  0.41850804001E+02  0.43400728756E+02  0.00000000000E+00 0. -1.
         11    1    3    3    0    0 -0.28449647638E+00  0.22089845077E+01 -0.20143742393E+02  0.20266497197E+02  0.51100000000E-03 0. -1.
        -11    1    3    3    0    0 -0.89411514564E+00 -0.12211216152E+02 -0.16173782367E+02  0.20285573153E+02  0.51100000000E-03 0.  1.
        -12    1    3    3    0    0 -0.46605562272E+01  0.10083881863E+00 -0.55332792410E+01  0.72352008938E+01  0.00000000000E+00 0.  1.
</event>
<event>
 7    1  0.5504027E-010  0.4778727E+02  0.7816164E-02  0.1312668E+00
        -11   -1    0    0    0    0  0.00000000000E+00  0.00000000000E+00  0.45593999997E+02  0.45594000000E+02  0.51100000000E-03 0.  1.
         11   -1    0    0    0    0 -0.00000000000E+00 -0.00000000000E+00 -0.45593999997E+02  0.45594000000E+02  0.51100000000E-03 0. -1.
    9900012    2    1    2    0    0 -0.18162659051E+02  0.22412338057E+02  0.32425731673E+02  0.47787272408E+02  0.20000006217E+02 0.  0.
         12    1    1    2    0    0  0.18162659051E+02 -0.22412338057E+02 -0.32425731673E+02  0.43400727592E+02  0.00000000000E+00 0. -1.
         11    1    3    3    0    0 -0.80725923175E+01  0.18064821875E+02  0.11837621295E+02  0.23057185741E+02  0.51100000000E-03 0. -1.
        -11    1    3    3    0    0 -0.93178958801E+01  0.53585129916E+01  0.20825635079E+02  0.23435953614E+02  0.51100000000E-03 0.  1.
         12    1    3    3    0    0 -0.77217085326E+00 -0.10109968094E+01 -0.23752470053E+00  0.12941330529E+01  0.00000000000E+00 0. -1.
</event>
<event>
 7    1  0.5504027E-010  0.4778727E+02  0.7816164E-02  0.1312668E+00
        -11   -1    0    0    0    0  0.00000000000E+00  0.00000000000E+00  0.45593999997E+02  0.45594000000E+02  0.51100000000E-03 0.  1.
         11   -1    0    0    0    0 -0.00000000000E+00 -0.00000000000E+00 -0.45593999997E+02  0.45594000000E+02  0.51100000000E-03 0. -1.
    9900012    2    1    2    0    0  0.12435410175E+02 -0.38458060645E+02  0.15810170934E+02  0.47787270055E+02  0.19999995488E+02 0.  0.
         12    1    1    2    0    0 -0.12435410175E+02  0.38458060645E+02 -0.15810170934E+02  0.43400729945E+02  0.00000000000E+00 0. -1.
         11    1    3    3    0    0  0.11657975066E+02 -0.11253027099E+02  0.63245296158E+01  0.17393638971E+02  0.51100000000E-03 0. -1.
        -11    1    3    3    0    0  0.16216354228E+01 -0.27559546646E+02  0.99767486324E+01  0.29354621890E+02  0.51100000000E-03 0.  1.
         12    1    3    3    0    0 -0.84420031454E+00  0.35451310040E+00 -0.49110731380E+00  0.10390091930E+01  0.00000000000E+00 0. -1.
</event>
<event>
 7    1  0.5504027E-010  0.4778725E+02  0.7816164E-02  0.1312668E+00
        -11   -1    0    0    0    0  0.00000000000E+00  0.00000000000E+00  0.45593999997E+02  0.45594000000E+02  0.51100000000E-03 0.  1.
         11   -1    0    0    0    0 -0.00000000000E+00 -0.00000000000E+00 -0.45593999997E+02  0.45594000000E+02  0.51100000000E-03 0. -1.
    9900012    2    1    2    0    0  0.23341245692E+02  0.22962039889E+02  0.28487830117E+02  0.47787245501E+02  0.19999883535E+02 0.  0.
         12    1    1    2    0    0 -0.23341245692E+02 -0.22962039889E+02 -0.28487830117E+02  0.43400754499E+02  0.00000000000E+00 0. -1.
         11    1    3    3    0    0  0.73915958024E+01 -0.46481341232E-01  0.94942620073E+01  0.12032408751E+02  0.51100000000E-03 0. -1.
        -11    1    3    3    0    0  0.14407875619E+02  0.23283383366E+02  0.19987568481E+02  0.33899936798E+02  0.51100000000E-03 0.  1.
         12    1    3    3    0    0  0.15417742706E+01 -0.27486213572E+00 -0.99400037148E+00  0.18548999525E+01  0.00000000000E+00 0. -1.
</event>
<event>
 7    1  0.5504027E-010  0.4778727E+02  0.7816164E-02  0.1312668E+00
        -11   -1    0    0    0    0  0.00000000000E+00  0.00000000000E+00  0.45593999997E+02  0.45594000000E+02  0.51100000000E-03 0.  1.
         11   -1    0    0    0    0 -0.00000000000E+00 -0.00000000000E+00 -0.45593999997E+02  0.45594000000E+02  0.51100000000E-03 0. -1.
    9900012    2    1    2    0    0  0.16284376770E+02  0.24860035289E+02  0.31629427081E+02  0.47787274904E+02  0.20000017598E+02 0.  0.
         12    1    1    2    0    0 -0.16284376770E+02 -0.24860035289E+02 -0.31629427081E+02  0.43400725096E+02  0.00000000000E+00 0. -1.
         11    1    3    3    0    0 -0.22393374161E+01  0.13016252486E+01 -0.56771364829E+00  0.26516333454E+01  0.51100000000E-03 0. -1.
        -11    1    3    3    0    0  0.17620086431E+02  0.16418738561E+02  0.27433064206E+02  0.36505005599E+02  0.51100000000E-03 0.  1.
        -12    1    3    3    0    0  0.90362775516E+00  0.71396714793E+01  0.47640765232E+01  0.86306359599E+01  0.00000000000E+00 0.  1.
</event>
<event>
 7    1  0.5504027E-010  0.4778727E+02  0.7816164E-02  0.1312668E+00
        -11   -1    0    0    0    0  0.00000000000E+00  0.00000000000E+00  0.45593999997E+02  0.45594000000E+02  0.51100000000E-03 0.  1.
         11   -1    0    0    0    0 -0.00000000000E+00 -0.00000000000E+00 -0.45593999997E+02  0.45594000000E+02  0.51100000000E-03 0. -1.
    9900012    2    1    2    0    0  0.18024788764E+02  0.24301237165E+02  0.31115591065E+02  0.47787272528E+02  0.20000006766E+02 0.  0.
         12    1    1    2    0    0 -0.18024788764E+02 -0.24301237165E+02 -0.31115591065E+02  0.43400727472E+02  0.00000000000E+00 0. -1.
         11    1    3    3    0    0  0.44648495651E+01  0.15243669168E+02  0.65466253739E+01  0.17180297884E+02  0.51100000000E-03 0. -1.
        -11    1    3    3    0    0  0.10833888203E+02  0.31627684824E+01  0.12090372968E+02  0.16539448504E+02  0.51100000000E-03 0.  1.
        -12    1    3    3    0    0  0.27260509959E+01  0.58947995152E+01  0.12478592723E+02  0.14067526140E+02  0.00000000000E+00 0.  1.
</event>
<event>
 7    1  0.5504027E-010  0.4778727E+02  0.7816164E-02  0.1312668E+00
        -11   -1    0    0    0    0  0.00000000000E+00  0.00000000000E+00  0.45593999997E+02  0.45594000000E+02  0.51100000000E-03 0.  1.
         11   -1    0    0    0    0 -0.00000000000E+00 -0.00000000000E+00 -0.45593999997E+02  0.45594000000E+02  0.51100000000E-03 0. -1.
    9900012    2    1    2    0    0 -0.14130953657E+02 -0.17873368193E+02  0.36938897474E+02  0.47787270877E+02  0.19999999235E+02 0.  0.
         12    1    1    2    0    0  0.14130953657E+02  0.17873368193E+02 -0.36938897474E+02  0.43400729123E+02  0.00000000000E+00 0. -1.
         11    1    3    3    0    0  0.28377838990E+01  0.20255526388E+01  0.44924877613E+01  0.56866798307E+01  0.51100000000E-03 0. -1.
        -11    1    3    3    0    0 -0.15135525345E+02 -0.18035073371E+02  0.25644734898E+02  0.34813796507E+02  0.51100000000E-03 0.  1.
        -12    1    3    3    0    0 -0.18332122111E+01 -0.18638474602E+01  0.68016748149E+01  0.72867945390E+01  0.00000000000E+00 0.  1.
</event>
<event>
 7    1  0.5504027E-010  0.4778727E+02  0.7816164E-02  0.1312668E+00
        -11   -1    0    0    0    0  0.00000000000E+00  0.00000000000E+00  0.45593999997E+02  0.45594000000E+02  0.51100000000E-03 0.  1.
         11   -1    0    0    0    0 -0.00000000000E+00 -0.00000000000E+00 -0.45593999997E+02  0.45594000000E+02  0.51100000000E-03 0. -1.
    9900012    2    1    2    0    0  0.11536593343E+01 -0.29739418962E+02  0.31588915707E+02  0.47787267683E+02  0.19999984675E+02 0.  0.
         12    1    1    2    0    0 -0.11536593343E+01  0.29739418962E+02 -0.31588915707E+02  0.43400732317E+02  0.00000000000E+00 0. -1.
         11    1    3    3    0    0  0.83496972964E+00  0.13055500231E+01 -0.37533804619E+00  0.15945263316E+01  0.51100000000E-03 0. -1.
        -11    1    3    3    0    0  0.30343807915E+01 -0.18456277311E+02  0.25927101705E+02  0.31969614355E+02  0.51100000000E-03 0.  1.
        -12    1    3    3    0    0 -0.27156911869E+01 -0.12588691674E+02  0.60371520485E+01  0.14223126996E+02  0.00000000000E+00 0.  1.
</event>
<event>
 7    1  0.5504027E-010  0.4778727E+02  0.7816164E-02  0.1312668E+00
        -11   -1    0    0    0    0  0.00000000000E+00  0.00000000000E+00  0.45593999997E+02  0.45594000000E+02  0.51100000000E-03 0. -1.
         11   -1    0    0    0    0 -0.00000000000E+00 -0.00000000000E+00 -0.45593999997E+02  0.45594000000E+02  0.51100000000E-03 0.  1.
    9900012    2    1    2    0    0 -0.39219811906E+02 -0.18141453960E+02 -0.40394662302E+01  0.47787270914E+02  0.19999999407E+02 0.  0.
         12    1    1    2    0    0  0.39219811906E+02  0.18141453960E+02  0.40394662302E+01  0.43400729086E+02  0.00000000000E+00 0. -1.
         11    1    3    3    0    0 -0.19318065998E+02 -0.96896591760E+00 -0.13484584160E+01  0.19389298832E+02  0.51100000000E-03 0. -1.
        -11    1    3    3    0    0 -0.16613856577E+02 -0.17647604191E+02 -0.18756289518E+00  0.24238261987E+02  0.51100000000E-03 0.  1.
         12    1    3    3    0    0 -0.32878893316E+01  0.47511614940E+00 -0.25034449190E+01  0.41597100951E+01  0.00000000000E+00 0. -1.
</event>
<event>
 7    1  0.5504027E-010  0.4778727E+02  0.7816164E-02  0.1312668E+00
        -11   -1    0    0    0    0  0.00000000000E+00  0.00000000000E+00  0.45593999997E+02  0.45594000000E+02  0.51100000000E-03 0.  1.
         11   -1    0    0    0    0 -0.00000000000E+00 -0.00000000000E+00 -0.45593999997E+02  0.45594000000E+02  0.51100000000E-03 0. -1.
    9900012    2    1    2    0    0  0.18916049376E+02  0.38973181624E+02  0.26263121486E+01  0.47787270451E+02  0.19999997294E+02 0.  0.
         12    1    1    2    0    0 -0.18916049376E+02 -0.38973181624E+02 -0.26263121486E+01  0.43400729549E+02  0.00000000000E+00 0. -1.
         11    1    3    3    0    0  0.21177078203E+02  0.28230048415E+02 -0.74603487315E+00  0.35298170534E+02  0.51100000000E-03 0.  1.
        -11    1    3    3    0    0 -0.21976290554E+01  0.68539772873E+01 -0.21053131395E+00  0.72007570307E+01  0.51100000000E-03 0. -1.
        -12    1    3    3    0    0 -0.63399772277E-01  0.38891559219E+01  0.35828783357E+01  0.52883428865E+01  0.00000000000E+00 0.  1.
</event>
<event>
 7    1  0.5504027E-010  0.4778727E+02  0.7816164E-02  0.1312668E+00
        -11   -1    0    0    0    0  0.00000000000E+00  0.00000000000E+00  0.45593999997E+02  0.45594000000E+02  0.51100000000E-03 0.  1.
         11   -1    0    0    0    0 -0.00000000000E+00 -0.00000000000E+00 -0.45593999997E+02  0.45594000000E+02  0.51100000000E-03 0. -1.
    9900012    2    1    2    0    0  0.43248273309E+02  0.27587979046E+01 -0.23662584398E+01  0.47787270869E+02  0.19999999201E+02 0.  0.
         12    1    1    2    0    0 -0.43248273309E+02 -0.27587979046E+01  0.23662584398E+01  0.43400729131E+02  0.00000000000E+00 0. -1.
         11    1    3    3    0    0  0.52218973372E+01  0.28766831543E+01 -0.43168151448E+01  0.73605985508E+01  0.51100000000E-03 0. -1.
        -11    1    3    3    0    0  0.25507085723E+02 -0.65023768986E+01  0.10190754744E+01  0.26342567121E+02  0.51100000000E-03 0.  1.
        -12    1    3    3    0    0  0.12519290248E+02  0.63844916489E+01  0.93148123056E+00  0.14084105198E+02  0.00000000000E+00 0.  1.
</event>
<event>
 7    1  0.5504027E-010  0.4778727E+02  0.7816164E-02  0.1312668E+00
        -11   -1    0    0    0    0  0.00000000000E+00  0.00000000000E+00  0.45593999997E+02  0.45594000000E+02  0.51100000000E-03 0.  1.
         11   -1    0    0    0    0 -0.00000000000E+00 -0.00000000000E+00 -0.45593999997E+02  0.45594000000E+02  0.51100000000E-03 0. -1.
    9900012    2    1    2    0    0  0.20475793828E+01  0.31735455441E+02  0.29534581326E+02  0.47787271809E+02  0.20000003486E+02 0.  0.
         12    1    1    2    0    0 -0.20475793828E+01 -0.31735455441E+02 -0.29534581326E+02  0.43400728191E+02  0.00000000000E+00 0. -1.
         11    1    3    3    0    0 -0.16176937901E+01  0.40781994469E+00 -0.12763338952E+00  0.16731828498E+01  0.51100000000E-03 0. -1.
        -11    1    3    3    0    0 -0.23107770193E+00  0.44978277646E+01  0.14213977069E+02  0.14910432451E+02  0.51100000000E-03 0.  1.
        -12    1    3    3    0    0  0.38963508748E+01  0.26829807732E+02  0.15448237647E+02  0.31203656508E+02  0.00000000000E+00 0.  1.
</event>
<event>
 7    1  0.5504027E-010  0.4778727E+02  0.7816164E-02  0.1312668E+00
        -11   -1    0    0    0    0  0.00000000000E+00  0.00000000000E+00  0.45593999997E+02  0.45594000000E+02  0.51100000000E-03 0.  1.
         11   -1    0    0    0    0 -0.00000000000E+00 -0.00000000000E+00 -0.45593999997E+02  0.45594000000E+02  0.51100000000E-03 0. -1.
    9900012    2    1    2    0    0  0.42345342760E+02  0.79028323265E+01  0.52953452732E+01  0.47787268510E+02  0.19999988446E+02 0.  0.
         12    1    1    2    0    0 -0.42345342760E+02 -0.79028323265E+01 -0.52953452732E+01  0.43400731490E+02  0.00000000000E+00 0. -1.
         11    1    3    3    0    0  0.31262389911E+01  0.15190042279E+01  0.55848609614E+01  0.65781012681E+01  0.51100000000E-03 0. -1.
        -11    1    3    3    0    0  0.25941662862E+02  0.56646968597E-01 -0.34363998200E+01  0.26168338215E+02  0.51100000000E-03 0.  1.
        -12    1    3    3    0    0  0.13277440907E+02  0.63271811299E+01  0.31468841318E+01  0.15040829028E+02  0.00000000000E+00 0.  1.
</event>
<event>
 7    1  0.5504027E-010  0.4778726E+02  0.7816164E-02  0.1312668E+00
        -11   -1    0    0    0    0  0.00000000000E+00  0.00000000000E+00  0.45593999997E+02  0.45594000000E+02  0.51100000000E-03 0.  1.
         11   -1    0    0    0    0 -0.00000000000E+00 -0.00000000000E+00 -0.45593999997E+02  0.45594000000E+02  0.51100000000E-03 0. -1.
    9900012    2    1    2    0    0  0.25346149189E+02 -0.13796131538E+02  0.32417021491E+02  0.47787264908E+02  0.19999972024E+02 0.  0.
         12    1    1    2    0    0 -0.25346149189E+02  0.13796131538E+02 -0.32417021491E+02  0.43400735092E+02  0.00000000000E+00 0. -1.
         11    1    3    3    0    0  0.24426946765E+01  0.28424015698E+01  0.11870476137E+01  0.39312957488E+01  0.51100000000E-03 0. -1.
        -11    1    3    3    0    0  0.93155761935E+01 -0.13855216930E+02  0.19669232604E+02  0.25799723012E+02  0.51100000000E-03 0.  1.
         12    1    3    3    0    0  0.13587878319E+02 -0.27833161775E+01  0.11560741273E+02  0.18056246148E+02  0.00000000000E+00 0. -1.
</event>
<event>
 7    1  0.5504027E-010  0.4778727E+02  0.7816164E-02  0.1312668E+00
        -11   -1    0    0    0    0  0.00000000000E+00  0.00000000000E+00  0.45593999997E+02  0.45594000000E+02  0.51100000000E-03 0. -1.
         11   -1    0    0    0    0 -0.00000000000E+00 -0.00000000000E+00 -0.45593999997E+02  0.45594000000E+02  0.51100000000E-03 0.  1.
    9900012    2    1    2    0    0 -0.10048287578E+02 -0.13330001515E+02 -0.40062030639E+02  0.47787270483E+02  0.19999997442E+02 0.  0.
         12    1    1    2    0    0  0.10048287578E+02  0.13330001515E+02  0.40062030639E+02  0.43400729517E+02  0.00000000000E+00 0. -1.
         11    1    3    3    0    0 -0.84985600472E+01 -0.64270661414E+01 -0.11671736708E+02  0.15803864720E+02  0.51100000000E-03 0. -1.
        -11    1    3    3    0    0  0.39446521668E+01 -0.68962767047E+01 -0.22802247163E+02  0.24146664139E+02  0.51100000000E-03 0.  1.
        -12    1    3    3    0    0 -0.54943796974E+01 -0.66586686307E-02 -0.55880467690E+01  0.78367416245E+01  0.00000000000E+00 0.  1.
</event>
<event>
 7    1  0.5504027E-010  0.4778727E+02  0.7816164E-02  0.1312668E+00
        -11   -1    0    0    0    0  0.00000000000E+00  0.00000000000E+00  0.45593999997E+02  0.45594000000E+02  0.51100000000E-03 0.  1.
         11   -1    0    0    0    0 -0.00000000000E+00 -0.00000000000E+00 -0.45593999997E+02  0.45594000000E+02  0.51100000000E-03 0. -1.
    9900012    2    1    2    0    0  0.22714806703E+02 -0.26437784637E+02  0.25859319445E+02  0.47787270718E+02  0.19999998512E+02 0.  0.
         12    1    1    2    0    0 -0.22714806703E+02  0.26437784637E+02 -0.25859319445E+02  0.43400729282E+02  0.00000000000E+00 0. -1.
         11    1    3    3    0    0  0.89341366619E+01 -0.14755756658E+02  0.88595265568E+01  0.19391811765E+02  0.51100000000E-03 0.  1.
        -11    1    3    3    0    0  0.37816878204E+01  0.48303703441E+00 -0.15038270540E+01  0.40982903285E+01  0.51100000000E-03 0. -1.
        -12    1    3    3    0    0  0.99989822202E+01 -0.12165065013E+02  0.18503619942E+02  0.24297168625E+02  0.00000000000E+00 0.  1.
</event>
<event>
 7    1  0.5504027E-010  0.4778727E+02  0.7816164E-02  0.1312668E+00
        -11   -1    0    0    0    0  0.00000000000E+00  0.00000000000E+00  0.45593999997E+02  0.45594000000E+02  0.51100000000E-03 0.  1.
         11   -1    0    0    0    0 -0.00000000000E+00 -0.00000000000E+00 -0.45593999997E+02  0.45594000000E+02  0.51100000000E-03 0. -1.
    9900012    2    1    2    0    0  0.59166453533E+01 -0.76690966314E+01  0.42306047976E+02  0.47787269238E+02  0.19999991763E+02 0.  0.
         12    1    1    2    0    0 -0.59166453533E+01  0.76690966314E+01 -0.42306047976E+02  0.43400730762E+02  0.00000000000E+00 0. -1.
         11    1    3    3    0    0 -0.49619526526E+01 -0.26741238697E+01  0.47139031417E+01  0.73479790206E+01  0.51100000000E-03 0. -1.
        -11    1    3    3    0    0  0.87799619221E+01 -0.46893117146E+01  0.36883869232E+02  0.38203366154E+02  0.51100000000E-03 0.  1.
         12    1    3    3    0    0  0.20986360837E+01 -0.30566104712E+00  0.70827560162E+00  0.22359240630E+01  0.00000000000E+00 0. -1.
</event>
<event>
 7    1  0.5504027E-010  0.4778727E+02  0.7816164E-02  0.1312668E+00
        -11   -1    0    0    0    0  0.00000000000E+00  0.00000000000E+00  0.45593999997E+02  0.45594000000E+02  0.51100000000E-03 0. -1.
         11   -1    0    0    0    0 -0.00000000000E+00 -0.00000000000E+00 -0.45593999997E+02  0.45594000000E+02  0.51100000000E-03 0.  1.
    9900012    2    1    2    0    0 -0.34375902890E+02 -0.13978033525E+02 -0.22506335341E+02  0.47787271305E+02  0.20000001189E+02 0.  0.
         12    1    1    2    0    0  0.34375902890E+02  0.13978033525E+02  0.22506335341E+02  0.43400728695E+02  0.00000000000E+00 0. -1.
         11    1    3    3    0    0 -0.25178358460E+02 -0.12666913858E+02 -0.82208585925E+01  0.29359546278E+02  0.51100000000E-03 0. -1.
        -11    1    3    3    0    0 -0.21685589213E+01  0.47218154515E+00 -0.94609973351E+01  0.97178224949E+01  0.51100000000E-03 0.  1.
        -12    1    3    3    0    0 -0.70289855094E+01 -0.17833012118E+01 -0.48244794138E+01  0.87099025321E+01  0.00000000000E+00 0.  1.
</event>
<event>
 7    1  0.5504027E-010  0.4778727E+02  0.7816164E-02  0.1312668E+00
        -11   -1    0    0    0    0  0.00000000000E+00  0.00000000000E+00  0.45593999997E+02  0.45594000000E+02  0.51100000000E-03 0.  1.
         11   -1    0    0    0    0 -0.00000000000E+00 -0.00000000000E+00 -0.45593999997E+02  0.45594000000E+02  0.51100000000E-03 0. -1.
    9900012    2    1    2    0    0 -0.86474802724E+01  0.19358377410E+02  0.37869481368E+02  0.47787270627E+02  0.19999998096E+02 0.  0.
         12    1    1    2    0    0  0.86474802724E+01 -0.19358377410E+02 -0.37869481368E+02  0.43400729373E+02  0.00000000000E+00 0. -1.
         11    1    3    3    0    0  0.21229876749E+01  0.57250505221E+00  0.13348277187E+02  0.13528168495E+02  0.51100000000E-03 0. -1.
        -11    1    3    3    0    0 -0.87309991876E+01  0.63619319765E+01  0.77841876598E+01  0.13315333382E+02  0.51100000000E-03 0.  1.
        -12    1    3    3    0    0 -0.20394687597E+01  0.12423940381E+02  0.16737016522E+02  0.20943768750E+02  0.00000000000E+00 0.  1.
</event>
<event>
 7    1  0.5504027E-010  0.4778727E+02  0.7816164E-02  0.1312668E+00
        -11   -1    0    0    0    0  0.00000000000E+00  0.00000000000E+00  0.45593999997E+02  0.45594000000E+02  0.51100000000E-03 0.  1.
         11   -1    0    0    0    0 -0.00000000000E+00 -0.00000000000E+00 -0.45593999997E+02  0.45594000000E+02  0.51100000000E-03 0. -1.
    9900012    2    1    2    0    0  0.14415869289E+02  0.11039447711E+02  0.39419998812E+02  0.47787274206E+02  0.20000014414E+02 0.  0.
         12    1    1    2    0    0 -0.14415869289E+02 -0.11039447711E+02 -0.39419998812E+02  0.43400725794E+02  0.00000000000E+00 0. -1.
         11    1    3    3    0    0  0.17374507340E+01  0.15683821194E+01  0.32484784923E+00  0.23630666330E+01  0.51100000000E-03 0. -1.
        -11    1    3    3    0    0  0.19165257385E+01 -0.42931263817E+01  0.38147464530E+01  0.60544443013E+01  0.51100000000E-03 0.  1.
        -12    1    3    3    0    0  0.10761892816E+02  0.13764191973E+02  0.35280404510E+02  0.39369763271E+02  0.00000000000E+00 0.  1.
</event>
<event>
 7    1  0.5504027E-010  0.4778728E+02  0.7816164E-02  0.1312668E+00
        -11   -1    0    0    0    0  0.00000000000E+00  0.00000000000E+00  0.45593999997E+02  0.45594000000E+02  0.51100000000E-03 0.  1.
         11   -1    0    0    0    0 -0.00000000000E+00 -0.00000000000E+00 -0.45593999997E+02  0.45594000000E+02  0.51100000000E-03 0. -1.
    9900012    2    1    2    0    0  0.53766173838E+01  0.34950494825E+02  0.25163023860E+02  0.47787275665E+02  0.20000021069E+02 0.  0.
         12    1    1    2    0    0 -0.53766173838E+01 -0.34950494825E+02 -0.25163023860E+02  0.43400724335E+02  0.00000000000E+00 0. -1.
         11    1    3    3    0    0 -0.14838148361E+01 -0.15152050120E+01 -0.52124561668E+00  0.21838612479E+01  0.51100000000E-03 0. -1.
        -11    1    3    3    0    0  0.52153724155E+01  0.35160023192E+02  0.24698825090E+02  0.43283476078E+02  0.51100000000E-03 0.  1.
        -12    1    3    3    0    0  0.16450598044E+01  0.13056766445E+01  0.98544438646E+00  0.23199383394E+01  0.00000000000E+00 0.  1.
</event>
<event>
 7    1  0.5504027E-010  0.4778727E+02  0.7816164E-02  0.1312668E+00
        -11   -1    0    0    0    0  0.00000000000E+00  0.00000000000E+00  0.45593999997E+02  0.45594000000E+02  0.51100000000E-03 0.  1.
         11   -1    0    0    0    0 -0.00000000000E+00 -0.00000000000E+00 -0.45593999997E+02  0.45594000000E+02  0.51100000000E-03 0. -1.
    9900012    2    1    2    0    0  0.19978048816E+01 -0.23015705326E+02  0.36741114980E+02  0.47787269062E+02  0.19999990960E+02 0.  0.
         12    1    1    2    0    0 -0.19978048816E+01  0.23015705326E+02 -0.36741114980E+02  0.43400730938E+02  0.00000000000E+00 0. -1.
         11    1    3    3    0    0 -0.46021240117E+01 -0.13048404695E+02  0.22709428153E+02  0.26592452648E+02  0.51100000000E-03 0. -1.
        -11    1    3    3    0    0  0.73554293036E+01 -0.22630927740E+01  0.44970354483E+01  0.89133190916E+01  0.51100000000E-03 0.  1.
        -12    1    3    3    0    0 -0.75550041034E+00 -0.77042078570E+01  0.95346513780E+01  0.12281497322E+02  0.00000000000E+00 0.  1.
</event>
<event>
 7    1  0.5504027E-010  0.4778728E+02  0.7816164E-02  0.1312668E+00
        -11   -1    0    0    0    0  0.00000000000E+00  0.00000000000E+00  0.45593999997E+02  0.45594000000E+02  0.51100000000E-03 0. -1.
         11   -1    0    0    0    0 -0.00000000000E+00 -0.00000000000E+00 -0.45593999997E+02  0.45594000000E+02  0.51100000000E-03 0.  1.
    9900012    2    1    2    0    0 -0.11059549408E+02 -0.38801244246E+02 -0.15992889345E+02  0.47787277682E+02  0.20000030261E+02 0.  0.
         12    1    1    2    0    0  0.11059549408E+02  0.38801244246E+02  0.15992889345E+02  0.43400722318E+02  0.00000000000E+00 0. -1.
         11    1    3    3    0    0  0.41276940029E+01 -0.75164193263E+01  0.25740370728E+00  0.85790835292E+01  0.51100000000E-03 0. -1.
        -11    1    3    3    0    0 -0.27316497490E+01 -0.12771037653E+02 -0.85202503307E+01  0.15593459495E+02  0.51100000000E-03 0.  1.
         12    1    3    3    0    0 -0.12455593662E+02 -0.18513787267E+02 -0.77300427217E+01  0.23614734657E+02  0.00000000000E+00 0. -1.
</event>
<event>
 7    1  0.5504027E-010  0.4778727E+02  0.7816164E-02  0.1312668E+00
        -11   -1    0    0    0    0  0.00000000000E+00  0.00000000000E+00  0.45593999997E+02  0.45594000000E+02  0.51100000000E-03 0. -1.
         11   -1    0    0    0    0 -0.00000000000E+00 -0.00000000000E+00 -0.45593999997E+02  0.45594000000E+02  0.51100000000E-03 0.  1.
    9900012    2    1    2    0    0 -0.34847307313E+02  0.24805135261E+02  0.73480198022E+01  0.47787274692E+02  0.20000016629E+02 0.  0.
         12    1    1    2    0    0  0.34847307313E+02 -0.24805135261E+02 -0.73480198022E+01  0.43400725308E+02  0.00000000000E+00 0. -1.
         11    1    3    3    0    0 -0.28860289805E+02  0.18844840333E+02  0.11895013148E+02  0.36462798478E+02  0.51100000000E-03 0. -1.
        -11    1    3    3    0    0 -0.27988210400E+01  0.93454668711E-01 -0.36299935879E+01  0.45846468456E+01  0.51100000000E-03 0.  1.
         12    1    3    3    0    0 -0.31881964672E+01  0.58668402600E+01 -0.91699975796E+00  0.67398293677E+01  0.00000000000E+00 0. -1.
</event>
<event>
 7    1  0.5504027E-010  0.4778727E+02  0.7816164E-02  0.1312668E+00
        -11   -1    0    0    0    0  0.00000000000E+00  0.00000000000E+00  0.45593999997E+02  0.45594000000E+02  0.51100000000E-03 0.  1.
         11   -1    0    0    0    0 -0.00000000000E+00 -0.00000000000E+00 -0.45593999997E+02  0.45594000000E+02  0.51100000000E-03 0. -1.
    9900012    2    1    2    0    0 -0.15317014735E+02 -0.17428640713E+02  0.36677713759E+02  0.47787272540E+02  0.20000006817E+02 0.  0.
         12    1    1    2    0    0  0.15317014735E+02  0.17428640713E+02 -0.36677713759E+02  0.43400727460E+02  0.00000000000E+00 0. -1.
         11    1    3    3    0    0 -0.15683768788E+02 -0.10833760111E+02  0.17396439287E+02  0.25806725124E+02  0.51100000000E-03 0. -1.
        -11    1    3    3    0    0  0.20200982734E+00 -0.74010192228E+01  0.89450425233E+01  0.11611618299E+02  0.51100000000E-03 0.  1.
         12    1    3    3    0    0  0.16474422470E+00  0.80613862037E+00  0.10336231949E+02  0.10368929117E+02  0.00000000000E+00 0. -1.
</event>
<event>
 7    1  0.5504027E-010  0.4778727E+02  0.7816164E-02  0.1312668E+00
        -11   -1    0    0    0    0  0.00000000000E+00  0.00000000000E+00  0.45593999997E+02  0.45594000000E+02  0.51100000000E-03 0. -1.
         11   -1    0    0    0    0 -0.00000000000E+00 -0.00000000000E+00 -0.45593999997E+02  0.45594000000E+02  0.51100000000E-03 0.  1.
    9900012    2    1    2    0    0  0.25801224762E+02  0.86481512809E+01 -0.33810205180E+02  0.47787266203E+02  0.19999977926E+02 0.  0.
         12    1    1    2    0    0 -0.25801224762E+02 -0.86481512809E+01  0.33810205180E+02  0.43400733797E+02  0.00000000000E+00 0. -1.
         11    1    3    3    0    0  0.70042185624E+00  0.19010900187E+01 -0.23756712528E+01  0.31222665162E+01  0.51100000000E-03 0. -1.
        -11    1    3    3    0    0  0.23641827291E+01  0.85971714707E+01 -0.85811925045E+01  0.12374877063E+02  0.51100000000E-03 0.  1.
        -12    1    3    3    0    0  0.22736620177E+02 -0.18501102085E+01 -0.22853341423E+02  0.32290122623E+02  0.00000000000E+00 0.  1.
</event>
<event>
 7    1  0.5504027E-010  0.4778727E+02  0.7816164E-02  0.1312668E+00
        -11   -1    0    0    0    0  0.00000000000E+00  0.00000000000E+00  0.45593999997E+02  0.45594000000E+02  0.51100000000E-03 0. -1.
         11   -1    0    0    0    0 -0.00000000000E+00 -0.00000000000E+00 -0.45593999997E+02  0.45594000000E+02  0.51100000000E-03 0.  1.
    9900012    2    1    2    0    0  0.25489227715E+02 -0.33643149844E+02  0.10102524218E+02  0.47787271245E+02  0.20000000915E+02 0.  0.
         12    1    1    2    0    0 -0.25489227715E+02  0.33643149844E+02 -0.10102524218E+02  0.43400728755E+02  0.00000000000E+00 0. -1.
         11    1    3    3    0    0  0.40045299844E+01 -0.15843349984E+02  0.64600439115E+01  0.17572141779E+02  0.51100000000E-03 0. -1.
        -11    1    3    3    0    0  0.21198144924E+02 -0.19069062005E+02  0.27672515108E+01  0.28646957171E+02  0.51100000000E-03 0.  1.
         12    1    3    3    0    0  0.28655280681E+00  0.12692621450E+01  0.87522879540E+00  0.15681722955E+01  0.00000000000E+00 0. -1.
</event>
<event>
 7    1  0.5504027E-010  0.4778726E+02  0.7816164E-02  0.1312668E+00
        -11   -1    0    0    0    0  0.00000000000E+00  0.00000000000E+00  0.45593999997E+02  0.45594000000E+02  0.51100000000E-03 0.  1.
         11   -1    0    0    0    0 -0.00000000000E+00 -0.00000000000E+00 -0.45593999997E+02  0.45594000000E+02  0.51100000000E-03 0. -1.
    9900012    2    1    2    0    0 -0.37592820780E+02  0.11185801429E+02  0.18581754548E+02  0.47787263486E+02  0.19999965540E+02 0.  0.
         12    1    1    2    0    0  0.37592820780E+02 -0.11185801429E+02 -0.18581754548E+02  0.43400736514E+02  0.00000000000E+00 0. -1.
         11    1    3    3    0    0 -0.49122061953E+01  0.47623954146E+01  0.46378033240E+00  0.68574975208E+01  0.51100000000E-03 0. -1.
        -11    1    3    3    0    0 -0.17948183443E+02  0.11194950674E+02  0.11630975912E+02  0.24140087208E+02  0.51100000000E-03 0.  1.
        -12    1    3    3    0    0 -0.14732431142E+02 -0.47715446590E+01  0.64869983043E+01  0.16789678757E+02  0.00000000000E+00 0.  1.
</event>
<event>
 7    1  0.5504027E-010  0.4778728E+02  0.7816164E-02  0.1312668E+00
        -11   -1    0    0    0    0  0.00000000000E+00  0.00000000000E+00  0.45593999997E+02  0.45594000000E+02  0.51100000000E-03 0.  1.
         11   -1    0    0    0    0 -0.00000000000E+00 -0.00000000000E+00 -0.45593999997E+02  0.45594000000E+02  0.51100000000E-03 0. -1.
    9900012    2    1    2    0    0  0.14135190421E+01  0.35330053010E+02  0.25167670197E+02  0.47787282208E+02  0.20000050897E+02 0.  0.
         12    1    1    2    0    0 -0.14135190421E+01 -0.35330053010E+02 -0.25167670197E+02  0.43400717792E+02  0.00000000000E+00 0. -1.
         11    1    3    3    0    0 -0.58710223232E+01  0.73812911584E+01  0.91860156504E+01  0.13165684413E+02  0.51100000000E-03 0. -1.
        -11    1    3    3    0    0  0.75726065644E+01  0.96346908964E+01  0.47940290459E+01  0.13158812773E+02  0.51100000000E-03 0.  1.
         12    1    3    3    0    0 -0.28806519908E+00  0.18314070955E+02  0.11187625500E+02  0.21462785021E+02  0.00000000000E+00 0. -1.
</event>
<event>
 7    1  0.6394562E-010  0.4778728E+02  0.7816164E-02  0.1312668E+00
        -11   -1    0    0    0    0  0.00000000000E+00  0.00000000000E+00  0.45593999997E+02  0.45594000000E+02  0.51100000000E-03 0. -1.
         11   -1    0    0    0    0 -0.00000000000E+00 -0.00000000000E+00 -0.45593999997E+02  0.45594000000E+02  0.51100000000E-03 0.  1.
    9900012    2    1    2    0    0  0.83269155448E+00  0.42378691244E+02 -0.93260927163E+01  0.47787275903E+02  0.20000022153E+02 0.  0.
         12    1    1    2    0    0 -0.83269155448E+00 -0.42378691244E+02  0.93260927163E+01  0.43400724097E+02  0.00000000000E+00 0. -1.
         11    1    3    3    0    0 -0.93540303017E+00  0.64808147481E-01  0.19541157752E+01  0.21674288106E+01  0.51100000000E-03 0. -1.
        -11    1    3    3    0    0 -0.23973909206E+01  0.37755392912E+02 -0.11161819509E+02  0.39443673665E+02  0.51100000000E-03 0.  1.
        -12    1    3    3    0    0  0.41654855053E+01  0.45584901841E+01 -0.11838898282E+00  0.61761734273E+01  0.00000000000E+00 0.  1.
</event>
<event>
 7    1  0.5504027E-010  0.4778727E+02  0.7816164E-02  0.1312668E+00
        -11   -1    0    0    0    0  0.00000000000E+00  0.00000000000E+00  0.45593999997E+02  0.45594000000E+02  0.51100000000E-03 0.  1.
         11   -1    0    0    0    0 -0.00000000000E+00 -0.00000000000E+00 -0.45593999997E+02  0.45594000000E+02  0.51100000000E-03 0. -1.
    9900012    2    1    2    0    0  0.34231734275E+02  0.77790002787E+01  0.25520553260E+02  0.47787272869E+02  0.20000008320E+02 0.  0.
         12    1    1    2    0    0 -0.34231734275E+02 -0.77790002787E+01 -0.25520553260E+02  0.43400727131E+02  0.00000000000E+00 0. -1.
         11    1    3    3    0    0  0.29997029224E+02  0.40600142683E+01  0.22729782806E+02  0.37854306292E+02  0.51100000000E-03 0. -1.
        -11    1    3    3    0    0  0.57202391955E+01  0.64053385022E+00  0.30331202946E+01  0.65062461566E+01  0.51100000000E-03 0.  1.
         12    1    3    3    0    0 -0.14855341450E+01  0.30784521602E+01 -0.24234984105E+00  0.34267204210E+01  0.00000000000E+00 0. -1.
</event>
<event>
 7    1  0.5504027E-010  0.4778728E+02  0.7816164E-02  0.1312668E+00
        -11   -1    0    0    0    0  0.00000000000E+00  0.00000000000E+00  0.45593999997E+02  0.45594000000E+02  0.51100000000E-03 0.  1.
         11   -1    0    0    0    0 -0.00000000000E+00 -0.00000000000E+00 -0.45593999997E+02  0.45594000000E+02  0.51100000000E-03 0. -1.
    9900012    2    1    2    0    0  0.40234967841E+02 -0.49734225332E+01  0.15493072600E+02  0.47787275727E+02  0.20000021349E+02 0.  0.
         12    1    1    2    0    0 -0.40234967841E+02  0.49734225332E+01 -0.15493072600E+02  0.43400724273E+02  0.00000000000E+00 0. -1.
         11    1    3    3    0    0  0.21037511292E+02 -0.29565317171E+01  0.15775264419E+02  0.26460856541E+02  0.51100000000E-03 0. -1.
        -11    1    3    3    0    0  0.32772511337E+01 -0.41030095861E+01 -0.43724432689E+00  0.52693686073E+01  0.51100000000E-03 0.  1.
         12    1    3    3    0    0  0.15920205415E+02  0.20861187700E+01  0.15505250721E+00  0.16057050578E+02  0.00000000000E+00 0. -1.
</event>
<event>
 7    1  0.5504027E-010  0.4778727E+02  0.7816164E-02  0.1312668E+00
        -11   -1    0    0    0    0  0.00000000000E+00  0.00000000000E+00  0.45593999997E+02  0.45594000000E+02  0.51100000000E-03 0. -1.
         11   -1    0    0    0    0 -0.00000000000E+00 -0.00000000000E+00 -0.45593999997E+02  0.45594000000E+02  0.51100000000E-03 0.  1.
    9900012    2    1    2    0    0  0.21817867964E+02 -0.35987147590E+02 -0.10607958886E+02  0.47787274823E+02  0.20000017227E+02 0.  0.
         12    1    1    2    0    0 -0.21817867964E+02  0.35987147590E+02  0.10607958886E+02  0.43400725177E+02  0.00000000000E+00 0. -1.
         11    1    3    3    0    0  0.46348353430E+01 -0.50521834569E+01  0.52398491085E+01  0.86291526397E+01  0.51100000000E-03 0. -1.
        -11    1    3    3    0    0  0.14285107811E+02 -0.23028776742E+02 -0.14137498241E+02  0.30565629720E+02  0.51100000000E-03 0.  1.
        -12    1    3    3    0    0  0.28979248101E+01 -0.79061873913E+01 -0.17103097536E+01  0.85924924629E+01  0.00000000000E+00 0.  1.
</event>
<event>
 7    1  0.5504027E-010  0.4778726E+02  0.7816164E-02  0.1312668E+00
        -11   -1    0    0    0    0  0.00000000000E+00  0.00000000000E+00  0.45593999997E+02  0.45594000000E+02  0.51100000000E-03 0.  1.
         11   -1    0    0    0    0 -0.00000000000E+00 -0.00000000000E+00 -0.45593999997E+02  0.45594000000E+02  0.51100000000E-03 0. -1.
    9900012    2    1    2    0    0  0.17770940159E+02  0.10146664222E+02  0.38273530133E+02  0.47787260169E+02  0.19999950416E+02 0.  0.
         12    1    1    2    0    0 -0.17770940159E+02 -0.10146664222E+02 -0.38273530133E+02  0.43400739831E+02  0.00000000000E+00 0. -1.
         11    1    3    3    0    0 -0.16514537448E+01  0.68883387429E+00  0.71069941743E+00  0.19253273749E+01  0.51100000000E-03 0. -1.
        -11    1    3    3    0    0  0.18341697078E+02  0.32426204298E+01  0.33584507871E+02  0.38403796794E+02  0.51100000000E-03 0.  1.
        -12    1    3    3    0    0  0.10806968263E+01  0.62152099177E+01  0.39783228445E+01  0.74581360008E+01  0.00000000000E+00 0.  1.
</event>
<event>
 7    1  0.5504027E-010  0.4778727E+02  0.7816164E-02  0.1312668E+00
        -11   -1    0    0    0    0  0.00000000000E+00  0.00000000000E+00  0.45593999997E+02  0.45594000000E+02  0.51100000000E-03 0. -1.
         11   -1    0    0    0    0 -0.00000000000E+00 -0.00000000000E+00 -0.45593999997E+02  0.45594000000E+02  0.51100000000E-03 0.  1.
    9900012    2    1    2    0    0 -0.21064251086E+02  0.19095383529E+02 -0.32791574845E+02  0.47787265827E+02  0.19999976211E+02 0.  0.
         12    1    1    2    0    0  0.21064251086E+02 -0.19095383529E+02  0.32791574845E+02  0.43400734173E+02  0.00000000000E+00 0. -1.
         11    1    3    3    0    0 -0.11865477256E+01 -0.20099710914E+01 -0.69673720621E+01  0.73479352886E+01  0.51100000000E-03 0. -1.
        -11    1    3    3    0    0 -0.17719309827E+02  0.15719986625E+02 -0.14658129988E+02  0.27855927470E+02  0.51100000000E-03 0.  1.
        -12    1    3    3    0    0 -0.21583935328E+01  0.53853679960E+01 -0.11166072796E+02  0.12583403068E+02  0.00000000000E+00 0.  1.
</event>
<event>
 7    1  0.5504027E-010  0.4778727E+02  0.7816164E-02  0.1312668E+00
        -11   -1    0    0    0    0  0.00000000000E+00  0.00000000000E+00  0.45593999997E+02  0.45594000000E+02  0.51100000000E-03 0.  1.
         11   -1    0    0    0    0 -0.00000000000E+00 -0.00000000000E+00 -0.45593999997E+02  0.45594000000E+02  0.51100000000E-03 0. -1.
    9900012    2    1    2    0    0 -0.33618775333E+02 -0.27429215945E+02  0.10194980777E+01  0.47787270529E+02  0.19999997652E+02 0.  0.
         12    1    1    2    0    0  0.33618775333E+02  0.27429215945E+02 -0.10194980777E+01  0.43400729471E+02  0.00000000000E+00 0. -1.
         11    1    3    3    0    0  0.81245827201E+00  0.71266779626E+00  0.63788399871E+00  0.12549422650E+01  0.51100000000E-03 0. -1.
        -11    1    3    3    0    0 -0.33852644364E+02 -0.29208529970E+02  0.16954146740E+01  0.44743873152E+02  0.51100000000E-03 0.  1.
        -12    1    3    3    0    0 -0.57858924113E+00  0.10666462287E+01 -0.13138005951E+01  0.17884551129E+01  0.00000000000E+00 0.  1.
</event>
<event>
 7    1  0.5504027E-010  0.4778727E+02  0.7816164E-02  0.1312668E+00
        -11   -1    0    0    0    0  0.00000000000E+00  0.00000000000E+00  0.45593999997E+02  0.45594000000E+02  0.51100000000E-03 0.  1.
         11   -1    0    0    0    0 -0.00000000000E+00 -0.00000000000E+00 -0.45593999997E+02  0.45594000000E+02  0.51100000000E-03 0. -1.
    9900012    2    1    2    0    0  0.17602993389E+02  0.32895567824E+02 -0.22172945628E+02  0.47787271014E+02  0.19999999860E+02 0.  0.
         12    1    1    2    0    0 -0.17602993389E+02 -0.32895567824E+02  0.22172945628E+02  0.43400728986E+02  0.00000000000E+00 0. -1.
         11    1    3    3    0    0  0.32072987483E+01  0.41321435373E+01 -0.76678798904E+01  0.92821203261E+01  0.51100000000E-03 0. -1.
        -11    1    3    3    0    0 -0.30427731328E+01  0.25564599402E+01 -0.30402298636E+01  0.50036940003E+01  0.51100000000E-03 0.  1.
         12    1    3    3    0    0  0.17438467773E+02  0.26206964347E+02 -0.11464835874E+02  0.33501456687E+02  0.00000000000E+00 0. -1.
</event>
<event>
 7    1  0.5504027E-010  0.4778728E+02  0.7816164E-02  0.1312668E+00
        -11   -1    0    0    0    0  0.00000000000E+00  0.00000000000E+00  0.45593999997E+02  0.45594000000E+02  0.51100000000E-03 0.  1.
         11   -1    0    0    0    0 -0.00000000000E+00 -0.00000000000E+00 -0.45593999997E+02  0.45594000000E+02  0.51100000000E-03 0. -1.
    9900012    2    1    2    0    0  0.38169597657E+01 -0.36826528528E+02  0.22646410890E+02  0.47787282131E+02  0.20000050550E+02 0.  0.
         12    1    1    2    0    0 -0.38169597657E+01  0.36826528528E+02 -0.22646410890E+02  0.43400717869E+02  0.00000000000E+00 0. -1.
         11    1    3    3    0    0 -0.47552427098E+01 -0.24264950164E+01  0.21487071719E+01  0.57547505650E+01  0.51100000000E-03 0. -1.
        -11    1    3    3    0    0  0.43089972645E+01 -0.20942356518E+02  0.17432031316E+02  0.27586690088E+02  0.51100000000E-03 0.  1.
        -12    1    3    3    0    0  0.42632052110E+01 -0.13457676994E+02  0.30656724021E+01  0.14445841478E+02  0.00000000000E+00 0.  1.
</event>
<event>
 7    1  0.5504027E-010  0.4778727E+02  0.7816164E-02  0.1312668E+00
        -11   -1    0    0    0    0  0.00000000000E+00  0.00000000000E+00  0.45593999997E+02  0.45594000000E+02  0.51100000000E-03 0.  1.
         11   -1    0    0    0    0 -0.00000000000E+00 -0.00000000000E+00 -0.45593999997E+02  0.45594000000E+02  0.51100000000E-03 0. -1.
    9900012    2    1    2    0    0  0.28762166919E+02 -0.29255577074E+02  0.14158819832E+02  0.47787271724E+02  0.20000003099E+02 0.  0.
         12    1    1    2    0    0 -0.28762166919E+02  0.29255577074E+02 -0.14158819832E+02  0.43400728276E+02  0.00000000000E+00 0. -1.
         11    1    3    3    0    0 -0.30683134079E+00 -0.10729126524E+01 -0.12709346163E+01  0.16913196302E+01  0.51100000000E-03 0. -1.
        -11    1    3    3    0    0  0.30423672572E+02 -0.26393607162E+02  0.12053150710E+02  0.42041655463E+02  0.51100000000E-03 0.  1.
        -12    1    3    3    0    0 -0.13546743115E+01 -0.17890572601E+01  0.33766037381E+01  0.40542966313E+01  0.00000000000E+00 0.  1.
</event>
<event>
 7    1  0.5504027E-010  0.4778727E+02  0.7816164E-02  0.1312668E+00
        -11   -1    0    0    0    0  0.00000000000E+00  0.00000000000E+00  0.45593999997E+02  0.45594000000E+02  0.51100000000E-03 0. -1.
         11   -1    0    0    0    0 -0.00000000000E+00 -0.00000000000E+00 -0.45593999997E+02  0.45594000000E+02  0.51100000000E-03 0.  1.
    9900012    2    1    2    0    0 -0.16014350421E+01  0.39725352930E+02 -0.17405608333E+02  0.47787268888E+02  0.19999990169E+02 0.  0.
         12    1    1    2    0    0  0.16014350421E+01 -0.39725352930E+02  0.17405608333E+02  0.43400731112E+02  0.00000000000E+00 0. -1.
         11    1    3    3    0    0 -0.34770859024E+01  0.33632915665E+02 -0.68888994888E+01  0.34506812066E+02  0.51100000000E-03 0.  1.
        -11    1    3    3    0    0  0.35165615799E+01  0.40529482424E+01 -0.59142342047E+01  0.79856597280E+01  0.51100000000E-03 0. -1.
        -12    1    3    3    0    0 -0.16409107196E+01  0.20394890221E+01 -0.46024746399E+01  0.52947970945E+01  0.00000000000E+00 0.  1.
</event>
<event>
 7    1  0.5504027E-010  0.4778727E+02  0.7816164E-02  0.1312668E+00
        -11   -1    0    0    0    0  0.00000000000E+00  0.00000000000E+00  0.45593999997E+02  0.45594000000E+02  0.51100000000E-03 0.  1.
         11   -1    0    0    0    0 -0.00000000000E+00 -0.00000000000E+00 -0.45593999997E+02  0.45594000000E+02  0.51100000000E-03 0. -1.
    9900012    2    1    2    0    0 -0.20059257996E+02  0.33566707112E+02  0.18828848282E+02  0.47787272065E+02  0.20000004653E+02 0.  0.
         12    1    1    2    0    0  0.20059257996E+02 -0.33566707112E+02 -0.18828848282E+02  0.43400727935E+02  0.00000000000E+00 0. -1.
         11    1    3    3    0    0 -0.27323663614E+01  0.42944031845E+01 -0.17982544899E+01  0.53982815892E+01  0.51100000000E-03 0. -1.
        -11    1    3    3    0    0 -0.85900543142E+01  0.12565318570E+02  0.17642060236E+02  0.23300612729E+02  0.51100000000E-03 0.  1.
        -12    1    3    3    0    0 -0.87368373201E+01  0.16706985357E+02  0.29850425361E+01  0.19088377747E+02  0.00000000000E+00 0.  1.
</event>
<event>
 7    1  0.5504027E-010  0.4778727E+02  0.7816164E-02  0.1312668E+00
        -11   -1    0    0    0    0  0.00000000000E+00  0.00000000000E+00  0.45593999997E+02  0.45594000000E+02  0.51100000000E-03 0.  1.
         11   -1    0    0    0    0 -0.00000000000E+00 -0.00000000000E+00 -0.45593999997E+02  0.45594000000E+02  0.51100000000E-03 0. -1.
    9900012    2    1    2    0    0  0.47899965226E+01 -0.24649070465E+02  0.35399188665E+02  0.47787270748E+02  0.19999998646E+02 0.  0.
         12    1    1    2    0    0 -0.47899965226E+01  0.24649070465E+02 -0.35399188665E+02  0.43400729252E+02  0.00000000000E+00 0. -1.
         11    1    3    3    0    0  0.36555852269E+01 -0.20026222181E+02  0.31952797997E+02  0.37886596288E+02  0.51100000000E-03 0. -1.
        -11    1    3    3    0    0 -0.17467771038E+01 -0.27269866463E+01  0.51268981804E+01  0.60640557083E+01  0.51100000000E-03 0.  1.
         12    1    3    3    0    0  0.28811883995E+01 -0.18958616377E+01 -0.16805075122E+01  0.38366187511E+01  0.00000000000E+00 0. -1.
</event>
<event>
 7    1  0.5504027E-010  0.4778727E+02  0.7816164E-02  0.1312668E+00
        -11   -1    0    0    0    0  0.00000000000E+00  0.00000000000E+00  0.45593999997E+02  0.45594000000E+02  0.51100000000E-03 0. -1.
         11   -1    0    0    0    0 -0.00000000000E+00 -0.00000000000E+00 -0.45593999997E+02  0.45594000000E+02  0.51100000000E-03 0.  1.
    9900012    2    1    2    0    0  0.32491277600E+02 -0.95347177517E+01 -0.27148278434E+02  0.47787274376E+02  0.20000015192E+02 0.  0.
         12    1    1    2    0    0 -0.32491277600E+02  0.95347177517E+01  0.27148278434E+02  0.43400725624E+02  0.00000000000E+00 0. -1.
         11    1    3    3    0    0  0.20556091143E+02 -0.73700325141E+01 -0.12678278263E+02  0.25250920821E+02  0.51100000000E-03 0. -1.
        -11    1    3    3    0    0  0.43791512551E+01  0.51456144817E+01 -0.53490801268E+01  0.86178287622E+01  0.51100000000E-03 0.  1.
        -12    1    3    3    0    0  0.75560352026E+01 -0.73102997194E+01 -0.91209200443E+01  0.13918524793E+02  0.00000000000E+00 0.  1.
</event>
<event>
 7    1  0.5504027E-010  0.4778727E+02  0.7816164E-02  0.1312668E+00
        -11   -1    0    0    0    0  0.00000000000E+00  0.00000000000E+00  0.45593999997E+02  0.45594000000E+02  0.51100000000E-03 0.  1.
         11   -1    0    0    0    0 -0.00000000000E+00 -0.00000000000E+00 -0.45593999997E+02  0.45594000000E+02  0.51100000000E-03 0. -1.
    9900012    2    1    2    0    0 -0.71245918073E+01 -0.58817056757E+01  0.42405999308E+02  0.47787273654E+02  0.20000011898E+02 0.  0.
         12    1    1    2    0    0  0.71245918073E+01  0.58817056757E+01 -0.42405999308E+02  0.43400726346E+02  0.00000000000E+00 0. -1.
         11    1    3    3    0    0 -0.56106612248E+01  0.17605380171E+01  0.19089869140E+02  0.19975037360E+02  0.51100000000E-03 0. -1.
        -11    1    3    3    0    0  0.54897715952E+01 -0.56542150233E+01  0.12005930697E+02  0.14361410510E+02  0.51100000000E-03 0.  1.
        -12    1    3    3    0    0 -0.70037021778E+01 -0.19880286695E+01  0.11310199472E+02  0.13450825784E+02  0.00000000000E+00 0.  1.
</event>
<event>
 7    1  0.5504027E-010  0.4778727E+02  0.7816164E-02  0.1312668E+00
        -11   -1    0    0    0    0  0.00000000000E+00  0.00000000000E+00  0.45593999997E+02  0.45594000000E+02  0.51100000000E-03 0. -1.
         11   -1    0    0    0    0 -0.00000000000E+00 -0.00000000000E+00 -0.45593999997E+02  0.45594000000E+02  0.51100000000E-03 0.  1.
    9900012    2    1    2    0    0  0.31247709182E+02  0.22175807783E+02  0.20382283367E+02  0.47787271259E+02  0.20000000979E+02 0.  0.
         12    1    1    2    0    0 -0.31247709182E+02 -0.22175807783E+02 -0.20382283367E+02  0.43400728741E+02  0.00000000000E+00 0. -1.
         11    1    3    3    0    0 -0.16967975673E+01  0.36743174083E+01  0.23494230291E+00  0.40540015477E+01  0.51100000000E-03 0. -1.
        -11    1    3    3    0    0  0.27721586180E+02  0.15301475904E+02  0.12764308625E+02  0.34140138841E+02  0.51100000000E-03 0.  1.
        -12    1    3    3    0    0  0.52229205697E+01  0.32000144712E+01  0.73830324396E+01  0.95931308704E+01  0.00000000000E+00 0.  1.
</event>
<event>
 7    1  0.5504027E-010  0.4778727E+02  0.7816164E-02  0.1312668E+00
        -11   -1    0    0    0    0  0.00000000000E+00  0.00000000000E+00  0.45593999997E+02  0.45594000000E+02  0.51100000000E-03 0.  1.
         11   -1    0    0    0    0 -0.00000000000E+00 -0.00000000000E+00 -0.45593999997E+02  0.45594000000E+02  0.51100000000E-03 0. -1.
    9900012    2    1    2    0    0  0.40680552020E+02 -0.18580960530E+01  0.15008782557E+02  0.47787269736E+02  0.19999994036E+02 0.  0.
         12    1    1    2    0    0 -0.40680552020E+02  0.18580960530E+01 -0.15008782557E+02  0.43400730264E+02  0.00000000000E+00 0. -1.
         11    1    3    3    0    0  0.59195533794E+01  0.20213512995E+01 -0.37783511137E+01  0.73077295166E+01  0.51100000000E-03 0. -1.
        -11    1    3    3    0    0  0.33134769509E+02 -0.17992647867E+01  0.17834501992E+02  0.37672533307E+02  0.51100000000E-03 0.  1.
         12    1    3    3    0    0  0.16262291311E+01 -0.20801825658E+01  0.95263167905E+00  0.28070069130E+01  0.00000000000E+00 0. -1.
</event>
<event>
 7    1  0.5504027E-010  0.4778727E+02  0.7816164E-02  0.1312668E+00
        -11   -1    0    0    0    0  0.00000000000E+00  0.00000000000E+00  0.45593999997E+02  0.45594000000E+02  0.51100000000E-03 0.  1.
         11   -1    0    0    0    0 -0.00000000000E+00 -0.00000000000E+00 -0.45593999997E+02  0.45594000000E+02  0.51100000000E-03 0. -1.
    9900012    2    1    2    0    0 -0.11222859527E+02 -0.37672600879E+02  0.18396905435E+02  0.47787267719E+02  0.19999984837E+02 0.  0.
         12    1    1    2    0    0  0.11222859527E+02  0.37672600879E+02 -0.18396905435E+02  0.43400732281E+02  0.00000000000E+00 0. -1.
         11    1    3    3    0    0 -0.70622267759E+00 -0.22843431935E+02  0.15941689362E+02  0.27865006604E+02  0.51100000000E-03 0. -1.
        -11    1    3    3    0    0 -0.38761513353E+01 -0.44248567413E+01 -0.27906552950E+01  0.65108880801E+01  0.51100000000E-03 0.  1.
        -12    1    3    3    0    0 -0.66404855145E+01 -0.10404312203E+02  0.52458713680E+01  0.13411373035E+02  0.00000000000E+00 0.  1.
</event>
<event>
 7    1  0.5504027E-010  0.4778727E+02  0.7816164E-02  0.1312668E+00
        -11   -1    0    0    0    0  0.00000000000E+00  0.00000000000E+00  0.45593999997E+02  0.45594000000E+02  0.51100000000E-03 0.  1.
         11   -1    0    0    0    0 -0.00000000000E+00 -0.00000000000E+00 -0.45593999997E+02  0.45594000000E+02  0.51100000000E-03 0. -1.
    9900012    2    1    2    0    0  0.23464450450E+02 -0.25763549188E+02  0.25870492993E+02  0.47787270635E+02  0.19999998135E+02 0.  0.
         12    1    1    2    0    0 -0.23464450450E+02  0.25763549188E+02 -0.25870492993E+02  0.43400729365E+02  0.00000000000E+00 0. -1.
         11    1    3    3    0    0  0.45076861170E+01 -0.36699398362E+01  0.10027176101E+02  0.11590166235E+02  0.51100000000E-03 0. -1.
        -11    1    3    3    0    0  0.68408423476E+01 -0.12152842650E+02  0.47839404794E-01  0.13946002917E+02  0.51100000000E-03 0.  1.
        -12    1    3    3    0    0  0.12115921985E+02 -0.99407667016E+01  0.15795477487E+02  0.22251101483E+02  0.00000000000E+00 0.  1.
</event>
<event>
 7    1  0.5504027E-010  0.4778722E+02  0.7816164E-02  0.1312668E+00
        -11   -1    0    0    0    0  0.00000000000E+00  0.00000000000E+00  0.45593999997E+02  0.45594000000E+02  0.51100000000E-03 0.  1.
         11   -1    0    0    0    0 -0.00000000000E+00 -0.00000000000E+00 -0.45593999997E+02  0.45594000000E+02  0.51100000000E-03 0. -1.
    9900012    2    1    2    0    0 -0.19999843870E+02 -0.21830227382E+01  0.38456057576E+02  0.47787219968E+02  0.19999767120E+02 0.  0.
         12    1    1    2    0    0  0.19999843870E+02  0.21830227382E+01 -0.38456057576E+02  0.43400780032E+02  0.00000000000E+00 0. -1.
         11    1    3    3    0    0 -0.17550675190E+02  0.34315473615E-01  0.17899049727E+02  0.25067974760E+02  0.51100000000E-03 0. -1.
        -11    1    3    3    0    0 -0.53972395261E+01 -0.20223658002E+01  0.17678447576E+02  0.18594291245E+02  0.51100000000E-03 0.  1.
         12    1    3    3    0    0  0.29480708459E+01 -0.19497241163E+00  0.28785602729E+01  0.41249539631E+01  0.00000000000E+00 0. -1.
</event>
<event>
 7    1  0.5504027E-010  0.4778727E+02  0.7816164E-02  0.1312668E+00
        -11   -1    0    0    0    0  0.00000000000E+00  0.00000000000E+00  0.45593999997E+02  0.45594000000E+02  0.51100000000E-03 0.  1.
         11   -1    0    0    0    0 -0.00000000000E+00 -0.00000000000E+00 -0.45593999997E+02  0.45594000000E+02  0.51100000000E-03 0. -1.
    9900012    2    1    2    0    0 -0.23418946458E+02 -0.23858868781E+02  0.27675448795E+02  0.47787272602E+02  0.20000007101E+02 0.  0.
         12    1    1    2    0    0  0.23418946458E+02  0.23858868781E+02 -0.27675448795E+02  0.43400727398E+02  0.00000000000E+00 0. -1.
         11    1    3    3    0    0 -0.17866506069E+01  0.27825677589E+01  0.10865595425E+01  0.34807205611E+01  0.51100000000E-03 0. -1.
        -11    1    3    3    0    0 -0.43665959787E+01 -0.18624709269E+01  0.64423726599E+01  0.80025073661E+01  0.51100000000E-03 0.  1.
         12    1    3    3    0    0 -0.17265699872E+02 -0.24778965613E+02  0.20146516593E+02  0.36304044675E+02  0.00000000000E+00 0. -1.
</event>
<event>
 7    1  0.5504027E-010  0.4778727E+02  0.7816164E-02  0.1312668E+00
        -11   -1    0    0    0    0  0.00000000000E+00  0.00000000000E+00  0.45593999997E+02  0.45594000000E+02  0.51100000000E-03 0. -1.
         11   -1    0    0    0    0 -0.00000000000E+00 -0.00000000000E+00 -0.45593999997E+02  0.45594000000E+02  0.51100000000E-03 0.  1.
    9900012    2    1    2    0    0 -0.13346096082E+02 -0.30988698869E+01 -0.41181331632E+02  0.47787270165E+02  0.19999995992E+02 0.  0.
         12    1    1    2    0    0  0.13346096082E+02  0.30988698869E+01  0.41181331632E+02  0.43400729835E+02  0.00000000000E+00 0. -1.
         11    1    3    3    0    0  0.15911892045E+01  0.14085307904E+01 -0.20833896261E+02  0.20941993117E+02  0.51100000000E-03 0.  1.
        -11    1    3    3    0    0 -0.10093381581E+02 -0.64299619791E+01 -0.11622670108E+02  0.16682542477E+02  0.51100000000E-03 0. -1.
        -12    1    3    3    0    0 -0.48439037062E+01  0.19225613018E+01 -0.87247652631E+01  0.10162734571E+02  0.00000000000E+00 0.  1.
</event>
<event>
 7    1  0.5504027E-010  0.4778727E+02  0.7816164E-02  0.1312668E+00
        -11   -1    0    0    0    0  0.00000000000E+00  0.00000000000E+00  0.45593999997E+02  0.45594000000E+02  0.51100000000E-03 0.  1.
         11   -1    0    0    0    0 -0.00000000000E+00 -0.00000000000E+00 -0.45593999997E+02  0.45594000000E+02  0.51100000000E-03 0. -1.
    9900012    2    1    2    0    0 -0.30223182450E+02  0.40081803197E+01  0.30888783301E+02  0.47787271888E+02  0.20000003845E+02 0.  0.
         12    1    1    2    0    0  0.30223182450E+02 -0.40081803197E+01 -0.30888783301E+02  0.43400728112E+02  0.00000000000E+00 0. -1.
         11    1    3    3    0    0 -0.18106094871E+02  0.46889308734E+01  0.52920059996E+01  0.19437645742E+02  0.51100000000E-03 0. -1.
        -11    1    3    3    0    0 -0.11883845800E+02 -0.66960680012E+00  0.24633159999E+02  0.27358120112E+02  0.51100000000E-03 0.  1.
         12    1    3    3    0    0 -0.23324177891E+00 -0.11143753567E-01  0.96361730220E+00  0.99150603416E+00  0.00000000000E+00 0. -1.
</event>
<event>
 7    1  0.5504027E-010  0.4778727E+02  0.7816164E-02  0.1312668E+00
        -11   -1    0    0    0    0  0.00000000000E+00  0.00000000000E+00  0.45593999997E+02  0.45594000000E+02  0.51100000000E-03 0.  1.
         11   -1    0    0    0    0 -0.00000000000E+00 -0.00000000000E+00 -0.45593999997E+02  0.45594000000E+02  0.51100000000E-03 0. -1.
    9900012    2    1    2    0    0  0.21276570859E+02  0.28089738668E+02  0.25335694797E+02  0.47787270549E+02  0.19999997743E+02 0.  0.
         12    1    1    2    0    0 -0.21276570859E+02 -0.28089738668E+02 -0.25335694797E+02  0.43400729451E+02  0.00000000000E+00 0. -1.
         11    1    3    3    0    0  0.28918658833E+00  0.10818096346E+02  0.11337499990E+01  0.10881186826E+02  0.51100000000E-03 0. -1.
        -11    1    3    3    0    0  0.19256736813E+02  0.13158749415E+02  0.21279980350E+02  0.31572332236E+02  0.51100000000E-03 0.  1.
        -12    1    3    3    0    0  0.17306474577E+01  0.41128929078E+01  0.29219644484E+01  0.53337514876E+01  0.00000000000E+00 0.  1.
</event>
<event>
 7    1  0.5504027E-010  0.4778726E+02  0.7816164E-02  0.1312668E+00
        -11   -1    0    0    0    0  0.00000000000E+00  0.00000000000E+00  0.45593999997E+02  0.45594000000E+02  0.51100000000E-03 0.  1.
         11   -1    0    0    0    0 -0.00000000000E+00 -0.00000000000E+00 -0.45593999997E+02  0.45594000000E+02  0.51100000000E-03 0. -1.
    9900012    2    1    2    0    0  0.64694977679E+01  0.39326651970E+02  0.17180922569E+02  0.47787262024E+02  0.19999958871E+02 0.  0.
         12    1    1    2    0    0 -0.64694977679E+01 -0.39326651970E+02 -0.17180922569E+02  0.43400737976E+02  0.00000000000E+00 0. -1.
         11    1    3    3    0    0  0.47947389051E+01  0.53115429438E+01 -0.26825601625E+01  0.76418675007E+01  0.51100000000E-03 0. -1.
        -11    1    3    3    0    0  0.95865466346E+00  0.47260466549E+00  0.16618376317E+01  0.19758741126E+01  0.51100000000E-03 0.  1.
         12    1    3    3    0    0  0.71610419940E+00  0.33542504361E+02  0.18201645100E+02  0.38169520410E+02  0.00000000000E+00 0. -1.
</event>
<event>
 7    1  0.5504027E-010  0.4778727E+02  0.7816164E-02  0.1312668E+00
        -11   -1    0    0    0    0  0.00000000000E+00  0.00000000000E+00  0.45593999997E+02  0.45594000000E+02  0.51100000000E-03 0. -1.
         11   -1    0    0    0    0 -0.00000000000E+00 -0.00000000000E+00 -0.45593999997E+02  0.45594000000E+02  0.51100000000E-03 0.  1.
    9900012    2    1    2    0    0  0.10419206948E+02  0.11229471731E+02 -0.40607417873E+02  0.47787270800E+02  0.19999998885E+02 0.  0.
         12    1    1    2    0    0 -0.10419206948E+02 -0.11229471731E+02  0.40607417873E+02  0.43400729200E+02  0.00000000000E+00 0. -1.
         11    1    3    3    0    0 -0.26999017940E+01  0.62574087460E+01 -0.65041421280E+01  0.94206421752E+01  0.51100000000E-03 0.  1.
        -11    1    3    3    0    0  0.78959581688E+00 -0.95315741810E+00  0.35895778253E+00  0.12887286636E+01  0.51100000000E-03 0. -1.
         12    1    3    3    0    0  0.12329512925E+02  0.59252204030E+01 -0.34462233528E+02  0.37077899961E+02  0.00000000000E+00 0. -1.
</event>
<event>
 7    1  0.5504027E-010  0.4778727E+02  0.7816164E-02  0.1312668E+00
        -11   -1    0    0    0    0  0.00000000000E+00  0.00000000000E+00  0.45593999997E+02  0.45594000000E+02  0.51100000000E-03 0.  1.
         11   -1    0    0    0    0 -0.00000000000E+00 -0.00000000000E+00 -0.45593999997E+02  0.45594000000E+02  0.51100000000E-03 0. -1.
    9900012    2    1    2    0    0  0.41762476300E+02 -0.10154705256E+02  0.60333470970E+01  0.47787265643E+02  0.19999975373E+02 0.  0.
         12    1    1    2    0    0 -0.41762476300E+02  0.10154705256E+02 -0.60333470970E+01  0.43400734357E+02  0.00000000000E+00 0. -1.
         11    1    3    3    0    0  0.21860491175E+02  0.80788998619E+00 -0.26563402117E+01  0.22036104561E+02  0.51100000000E-03 0. -1.
        -11    1    3    3    0    0  0.14097810876E+02 -0.52287148255E+01  0.91115572133E+01  0.17581473355E+02  0.51100000000E-03 0.  1.
         12    1    3    3    0    0  0.58041742483E+01 -0.57338804164E+01 -0.42186990458E+00  0.81696877267E+01  0.00000000000E+00 0. -1.
</event>
<event>
 7    1  0.5504027E-010  0.4778727E+02  0.7816164E-02  0.1312668E+00
        -11   -1    0    0    0    0  0.00000000000E+00  0.00000000000E+00  0.45593999997E+02  0.45594000000E+02  0.51100000000E-03 0.  1.
         11   -1    0    0    0    0 -0.00000000000E+00 -0.00000000000E+00 -0.45593999997E+02  0.45594000000E+02  0.51100000000E-03 0. -1.
    9900012    2    1    2    0    0  0.84216449049E+01 -0.78606842691E+01  0.41843868078E+02  0.47787265492E+02  0.19999974684E+02 0.  0.
         12    1    1    2    0    0 -0.84216449049E+01  0.78606842691E+01 -0.41843868078E+02  0.43400734508E+02  0.00000000000E+00 0. -1.
         11    1    3    3    0    0 -0.31393999730E+01 -0.40834587042E+01  0.18339233015E+02  0.19048830279E+02  0.51100000000E-03 0. -1.
        -11    1    3    3    0    0  0.78482658621E+01 -0.43001198780E+01  0.58534389858E+01  0.10693411814E+02  0.51100000000E-03 0.  1.
        -12    1    3    3    0    0  0.37127790159E+01  0.52289431303E+00  0.17651196078E+02  0.18045023399E+02  0.00000000000E+00 0.  1.
</event>
<event>
 7    1  0.5504027E-010  0.4778727E+02  0.7816164E-02  0.1312668E+00
        -11   -1    0    0    0    0  0.00000000000E+00  0.00000000000E+00  0.45593999997E+02  0.45594000000E+02  0.51100000000E-03 0. -1.
         11   -1    0    0    0    0 -0.00000000000E+00 -0.00000000000E+00 -0.45593999997E+02  0.45594000000E+02  0.51100000000E-03 0.  1.
    9900012    2    1    2    0    0  0.11252478477E+02 -0.39045686406E+02 -0.15245974060E+02  0.47787267012E+02  0.19999981615E+02 0.  0.
         12    1    1    2    0    0 -0.11252478477E+02  0.39045686406E+02  0.15245974060E+02  0.43400732988E+02  0.00000000000E+00 0. -1.
         11    1    3    3    0    0  0.99159229237E+01 -0.54021562573E+01 -0.22026081939E+01  0.11504794773E+02  0.51100000000E-03 0. -1.
        -11    1    3    3    0    0  0.25077578258E+01 -0.26390326911E+02 -0.10130041524E+02  0.28378793937E+02  0.51100000000E-03 0.  1.
         12    1    3    3    0    0 -0.11712022722E+01 -0.72532032379E+01 -0.29133243424E+01  0.79036783017E+01  0.00000000000E+00 0. -1.
</event>
<event>
 7    1  0.5504027E-010  0.4778727E+02  0.7816164E-02  0.1312668E+00
        -11   -1    0    0    0    0  0.00000000000E+00  0.00000000000E+00  0.45593999997E+02  0.45594000000E+02  0.51100000000E-03 0.  1.
         11   -1    0    0    0    0 -0.00000000000E+00 -0.00000000000E+00 -0.45593999997E+02  0.45594000000E+02  0.51100000000E-03 0. -1.
    9900012    2    1    2    0    0  0.28753563138E+02  0.31884982228E+02  0.63406282469E+01  0.47787273608E+02  0.20000011687E+02 0.  0.
         12    1    1    2    0    0 -0.28753563138E+02 -0.31884982228E+02 -0.63406282469E+01  0.43400726392E+02  0.00000000000E+00 0. -1.
         11    1    3    3    0    0  0.30565788813E+01  0.11845883708E+02  0.59627465141E+00  0.12248394956E+02  0.51100000000E-03 0. -1.
        -11    1    3    3    0    0  0.19366462642E+02  0.73181081006E+01  0.50647080598E+01  0.21313513306E+02  0.51100000000E-03 0.  1.
        -12    1    3    3    0    0  0.63305216147E+01  0.12720990419E+02  0.67964553565E+00  0.14225365346E+02  0.00000000000E+00 0.  1.
</event>
<event>
 7    1  0.5504027E-010  0.4778727E+02  0.7816164E-02  0.1312668E+00
        -11   -1    0    0    0    0  0.00000000000E+00  0.00000000000E+00  0.45593999997E+02  0.45594000000E+02  0.51100000000E-03 0.  1.
         11   -1    0    0    0    0 -0.00000000000E+00 -0.00000000000E+00 -0.45593999997E+02  0.45594000000E+02  0.51100000000E-03 0. -1.
    9900012    2    1    2    0    0 -0.41569290751E+02  0.20077302573E+01  0.12312047890E+02  0.47787269158E+02  0.19999991400E+02 0.  0.
         12    1    1    2    0    0  0.41569290751E+02 -0.20077302573E+01 -0.12312047890E+02  0.43400730842E+02  0.00000000000E+00 0. -1.
         11    1    3    3    0    0 -0.52755606101E+01 -0.19723461581E+01  0.84479272992E+01  0.10153283461E+02  0.51100000000E-03 0. -1.
        -11    1    3    3    0    0 -0.24009323249E+02  0.55638857297E+01 -0.45176071425E-01  0.24645617631E+02  0.51100000000E-03 0.  1.
         12    1    3    3    0    0 -0.12284406892E+02 -0.15838093143E+01  0.39092966623E+01  0.12988368067E+02  0.00000000000E+00 0. -1.
</event>
<event>
 7    1  0.5504027E-010  0.4778731E+02  0.7816164E-02  0.1312668E+00
        -11   -1    0    0    0    0  0.00000000000E+00  0.00000000000E+00  0.45593999997E+02  0.45594000000E+02  0.51100000000E-03 0.  1.
         11   -1    0    0    0    0 -0.00000000000E+00 -0.00000000000E+00 -0.45593999997E+02  0.45594000000E+02  0.51100000000E-03 0. -1.
    9900012    2    1    2    0    0 -0.69627192646E+01  0.19897971719E+02  0.37936938695E+02  0.47787308121E+02  0.20000169044E+02 0.  0.
         12    1    1    2    0    0  0.69627192646E+01 -0.19897971719E+02 -0.37936938695E+02  0.43400691879E+02  0.00000000000E+00 0. -1.
         11    1    3    3    0    0 -0.81341680753E+00  0.36711810434E+01  0.61735103233E+01  0.72285162467E+01  0.51100000000E-03 0. -1.
        -11    1    3    3    0    0 -0.13194628277E+01  0.10882937086E+02  0.31497590402E+02  0.33350824625E+02  0.51100000000E-03 0.  1.
         12    1    3    3    0    0 -0.48298396293E+01  0.53438535896E+01  0.26583796910E+00  0.72079672486E+01  0.00000000000E+00 0. -1.
</event>
<event>
 7    1  0.5504027E-010  0.4778727E+02  0.7816164E-02  0.1312668E+00
        -11   -1    0    0    0    0  0.00000000000E+00  0.00000000000E+00  0.45593999997E+02  0.45594000000E+02  0.51100000000E-03 0.  1.
         11   -1    0    0    0    0 -0.00000000000E+00 -0.00000000000E+00 -0.45593999997E+02  0.45594000000E+02  0.51100000000E-03 0. -1.
    9900012    2    1    2    0    0 -0.21209954509E+02 -0.13293301950E+02  0.35454890695E+02  0.47787270499E+02  0.19999997513E+02 0.  0.
         12    1    1    2    0    0  0.21209954509E+02  0.13293301950E+02 -0.35454890695E+02  0.43400729501E+02  0.00000000000E+00 0. -1.
         11    1    3    3    0    0  0.61142879262E+00 -0.45164348885E+01  0.23767577776E+01  0.51401368722E+01  0.51100000000E-03 0. -1.
        -11    1    3    3    0    0 -0.12050591707E+02 -0.52704250513E+01  0.28324996910E+02  0.31229786918E+02  0.51100000000E-03 0.  1.
         12    1    3    3    0    0 -0.97707915951E+01 -0.35064420106E+01  0.47531360075E+01  0.11417346709E+02  0.00000000000E+00 0. -1.
</event>
<event>
 7    1  0.5504027E-010  0.4778727E+02  0.7816164E-02  0.1312668E+00
        -11   -1    0    0    0    0  0.00000000000E+00  0.00000000000E+00  0.45593999997E+02  0.45594000000E+02  0.51100000000E-03 0.  1.
         11   -1    0    0    0    0 -0.00000000000E+00 -0.00000000000E+00 -0.45593999997E+02  0.45594000000E+02  0.51100000000E-03 0. -1.
    9900012    2    1    2    0    0 -0.25868661963E+02 -0.28656483719E+02  0.19830310198E+02  0.47787274966E+02  0.20000017880E+02 0.  0.
         12    1    1    2    0    0  0.25868661963E+02  0.28656483719E+02 -0.19830310198E+02  0.43400725034E+02  0.00000000000E+00 0. -1.
         11    1    3    3    0    0 -0.39854599766E+01 -0.68956293421E+01  0.13171417698E+02  0.15392200612E+02  0.51100000000E-03 0. -1.
        -11    1    3    3    0    0 -0.13837162999E+02 -0.15018085181E+02  0.77472511353E+01  0.21841013319E+02  0.51100000000E-03 0.  1.
         12    1    3    3    0    0 -0.80460389876E+01 -0.67427691963E+01 -0.10883586350E+01  0.10554061036E+02  0.00000000000E+00 0. -1.
</event>
<event>
 7    1  0.5504027E-010  0.4778727E+02  0.7816164E-02  0.1312668E+00
        -11   -1    0    0    0    0  0.00000000000E+00  0.00000000000E+00  0.45593999997E+02  0.45594000000E+02  0.51100000000E-03 0. -1.
         11   -1    0    0    0    0 -0.00000000000E+00 -0.00000000000E+00 -0.45593999997E+02  0.45594000000E+02  0.51100000000E-03 0.  1.
    9900012    2    1    2    0    0  0.25554499204E+02  0.33115439092E+02  0.11574042098E+02  0.47787272053E+02  0.20000004599E+02 0.  0.
         12    1    1    2    0    0 -0.25554499204E+02 -0.33115439092E+02 -0.11574042098E+02  0.43400727947E+02  0.00000000000E+00 0. -1.
         11    1    3    3    0    0  0.33611426975E+01  0.18753698264E+02  0.83506591924E+01  0.20802211133E+02  0.51100000000E-03 0. -1.
        -11    1    3    3    0    0  0.21937253043E+02  0.13484090272E+02  0.26053095996E+01  0.25881487591E+02  0.51100000000E-03 0.  1.
        -12    1    3    3    0    0  0.25610346382E+00  0.87765055509E+00  0.61807330558E+00  0.11035733288E+01  0.00000000000E+00 0.  1.
</event>
<event>
 7    1  0.5504027E-010  0.4778727E+02  0.7816164E-02  0.1312668E+00
        -11   -1    0    0    0    0  0.00000000000E+00  0.00000000000E+00  0.45593999997E+02  0.45594000000E+02  0.51100000000E-03 0.  1.
         11   -1    0    0    0    0 -0.00000000000E+00 -0.00000000000E+00 -0.45593999997E+02  0.45594000000E+02  0.51100000000E-03 0. -1.
    9900012    2    1    2    0    0 -0.57584444150E+01 -0.14225195301E+02  0.40596889705E+02  0.47787270546E+02  0.19999997726E+02 0.  0.
         12    1    1    2    0    0  0.57584444150E+01  0.14225195301E+02 -0.40596889705E+02  0.43400729454E+02  0.00000000000E+00 0. -1.
         11    1    3    3    0    0 -0.12881941579E+01  0.40417497082E+01  0.81165309580E+01  0.91582345431E+01  0.51100000000E-03 0. -1.
        -11    1    3    3    0    0 -0.22033530255E+01 -0.39034864368E+01  0.16161000503E+02  0.16771103375E+02  0.51100000000E-03 0.  1.
         12    1    3    3    0    0 -0.22668972316E+01 -0.14363458573E+02  0.16319358244E+02  0.21857932627E+02  0.00000000000E+00 0. -1.
</event>
<event>
 7    1  0.5504027E-010  0.4778726E+02  0.7816164E-02  0.1312668E+00
        -11   -1    0    0    0    0  0.00000000000E+00  0.00000000000E+00  0.45593999997E+02  0.45594000000E+02  0.51100000000E-03 0.  1.
         11   -1    0    0    0    0 -0.00000000000E+00 -0.00000000000E+00 -0.45593999997E+02  0.45594000000E+02  0.51100000000E-03 0. -1.
    9900012    2    1    2    0    0  0.93243726897E+01 -0.42179374315E+02 -0.41928894465E+01  0.47787264227E+02  0.19999968918E+02 0.  0.
         12    1    1    2    0    0 -0.93243726897E+01  0.42179374315E+02  0.41928894465E+01  0.43400735773E+02  0.00000000000E+00 0. -1.
         11    1    3    3    0    0 -0.45475278554E+00 -0.44280925061E+00 -0.68515440548E+00  0.93397909444E+00  0.51100000000E-03 0. -1.
        -11    1    3    3    0    0  0.70958991282E+01 -0.34179526840E+02 -0.10243800713E+02  0.36380314632E+02  0.51100000000E-03 0.  1.
        -12    1    3    3    0    0  0.26832263471E+01 -0.75570382251E+01  0.67360656722E+01  0.10472970501E+02  0.00000000000E+00 0.  1.
</event>
<event>
 7    1  0.5504027E-010  0.4778726E+02  0.7816164E-02  0.1312668E+00
        -11   -1    0    0    0    0  0.00000000000E+00  0.00000000000E+00  0.45593999997E+02  0.45594000000E+02  0.51100000000E-03 0. -1.
         11   -1    0    0    0    0 -0.00000000000E+00 -0.00000000000E+00 -0.45593999997E+02  0.45594000000E+02  0.51100000000E-03 0.  1.
    9900012    2    1    2    0    0 -0.21892324040E+02 -0.65453892659E+01 -0.36898626192E+02  0.47787255912E+02  0.19999931005E+02 0.  0.
         12    1    1    2    0    0  0.21892324040E+02  0.65453892659E+01  0.36898626192E+02  0.43400744088E+02  0.00000000000E+00 0. -1.
         11    1    3    3    0    0 -0.94254247019E+01  0.22329759503E+01 -0.61389111523E+01  0.11467826420E+02  0.51100000000E-03 0. -1.
        -11    1    3    3    0    0 -0.12207385705E+02 -0.74854299368E+01 -0.31642960835E+02  0.34732245792E+02  0.51100000000E-03 0.  1.
        -12    1    3    3    0    0 -0.25951363297E+00 -0.12929352794E+01  0.88324579505E+00  0.15871836998E+01  0.00000000000E+00 0.  1.
</event>
<event>
 7    1  0.5504027E-010  0.4778727E+02  0.7816164E-02  0.1312668E+00
        -11   -1    0    0    0    0  0.00000000000E+00  0.00000000000E+00  0.45593999997E+02  0.45594000000E+02  0.51100000000E-03 0.  1.
         11   -1    0    0    0    0 -0.00000000000E+00 -0.00000000000E+00 -0.45593999997E+02  0.45594000000E+02  0.51100000000E-03 0. -1.
    9900012    2    1    2    0    0 -0.78514985655E+01  0.20176957822E+02  0.37614724656E+02  0.47787272268E+02  0.20000005580E+02 0.  0.
         12    1    1    2    0    0  0.78514985655E+01 -0.20176957822E+02 -0.37614724656E+02  0.43400727732E+02  0.00000000000E+00 0. -1.
         11    1    3    3    0    0 -0.52028385683E+01  0.10608911673E+02  0.26620839094E+02  0.29125377429E+02  0.51100000000E-03 0. -1.
        -11    1    3    3    0    0 -0.14621702861E+01  0.71121874791E+01 -0.75619625529E-01  0.72613271013E+01  0.51100000000E-03 0.  1.
         12    1    3    3    0    0 -0.11864897111E+01  0.24558586702E+01  0.11069505188E+02  0.11400567738E+02  0.00000000000E+00 0. -1.
</event>
<event>
 7    1  0.5504027E-010  0.4778727E+02  0.7816164E-02  0.1312668E+00
        -11   -1    0    0    0    0  0.00000000000E+00  0.00000000000E+00  0.45593999997E+02  0.45594000000E+02  0.51100000000E-03 0.  1.
         11   -1    0    0    0    0 -0.00000000000E+00 -0.00000000000E+00 -0.45593999997E+02  0.45594000000E+02  0.51100000000E-03 0. -1.
    9900012    2    1    2    0    0  0.32317424103E+02 -0.27858687083E+02  0.79436118737E+01  0.47787270557E+02  0.19999997776E+02 0.  0.
         12    1    1    2    0    0 -0.32317424103E+02  0.27858687083E+02 -0.79436118737E+01  0.43400729443E+02  0.00000000000E+00 0. -1.
         11    1    3    3    0    0  0.24344543622E+01 -0.89520309207E+01  0.17529087813E+01  0.94412983802E+01  0.51100000000E-03 0. -1.
        -11    1    3    3    0    0  0.31187182387E+02 -0.16964058085E+02  0.57492336133E+01  0.35964889814E+02  0.51100000000E-03 0.  1.
        -12    1    3    3    0    0 -0.13042126460E+01 -0.19425980770E+01  0.44146947913E+00  0.23810823622E+01  0.00000000000E+00 0.  1.
</event>
<event>
 7    1  0.5504027E-010  0.4778727E+02  0.7816164E-02  0.1312668E+00
        -11   -1    0    0    0    0  0.00000000000E+00  0.00000000000E+00  0.45593999997E+02  0.45594000000E+02  0.51100000000E-03 0.  1.
         11   -1    0    0    0    0 -0.00000000000E+00 -0.00000000000E+00 -0.45593999997E+02  0.45594000000E+02  0.51100000000E-03 0. -1.
    9900012    2    1    2    0    0  0.36229881161E+02  0.13018684197E+02  0.20038283805E+02  0.47787271377E+02  0.20000001516E+02 0.  0.
         12    1    1    2    0    0 -0.36229881161E+02 -0.13018684197E+02 -0.20038283805E+02  0.43400728623E+02  0.00000000000E+00 0. -1.
         11    1    3    3    0    0  0.17607216659E+01 -0.26418691389E+01  0.51685291690E+00  0.32166365245E+01  0.51100000000E-03 0. -1.
        -11    1    3    3    0    0  0.15016149307E+02  0.13951484424E+02  0.11030203520E+02  0.23276469827E+02  0.51100000000E-03 0.  1.
        -12    1    3    3    0    0  0.19453010188E+02  0.17090689120E+01  0.84912273681E+01  0.21294165026E+02  0.00000000000E+00 0.  1.
</event>
<event>
 7    1  0.5504027E-010  0.4778727E+02  0.7816164E-02  0.1312668E+00
        -11   -1    0    0    0    0  0.00000000000E+00  0.00000000000E+00  0.45593999997E+02  0.45594000000E+02  0.51100000000E-03 0.  1.
         11   -1    0    0    0    0 -0.00000000000E+00 -0.00000000000E+00 -0.45593999997E+02  0.45594000000E+02  0.51100000000E-03 0. -1.
    9900012    2    1    2    0    0 -0.22281881682E+02  0.34950127862E+02  0.12869723474E+02  0.47787268772E+02  0.19999989637E+02 0.  0.
         12    1    1    2    0    0  0.22281881682E+02 -0.34950127862E+02 -0.12869723474E+02  0.43400731228E+02  0.00000000000E+00 0. -1.
         11    1    3    3    0    0  0.21337988279E+01  0.39548325626E+01  0.51509074323E+01  0.68356159688E+01  0.51100000000E-03 0. -1.
        -11    1    3    3    0    0 -0.21156835773E+02  0.27737755279E+02  0.92590215123E+01  0.36093271498E+02  0.51100000000E-03 0.  1.
        -12    1    3    3    0    0 -0.32588447375E+01  0.32575400202E+01 -0.15402054706E+01  0.48583813043E+01  0.00000000000E+00 0.  1.
</event>
<event>
 7    1  0.5504027E-010  0.4778727E+02  0.7816164E-02  0.1312668E+00
        -11   -1    0    0    0    0  0.00000000000E+00  0.00000000000E+00  0.45593999997E+02  0.45594000000E+02  0.51100000000E-03 0. -1.
         11   -1    0    0    0    0 -0.00000000000E+00 -0.00000000000E+00 -0.45593999997E+02  0.45594000000E+02  0.51100000000E-03 0.  1.
    9900012    2    1    2    0    0 -0.23537424468E+02 -0.35236545188E+02  0.93807697468E+01  0.47787270647E+02  0.19999998186E+02 0.  0.
         12    1    1    2    0    0  0.23537424468E+02  0.35236545188E+02 -0.93807697468E+01  0.43400729353E+02  0.00000000000E+00 0. -1.
         11    1    3    3    0    0 -0.15712583263E+02 -0.13278976063E+02  0.11994863622E+02  0.23813719400E+02  0.51100000000E-03 0. -1.
        -11    1    3    3    0    0 -0.72481192809E+01 -0.14174304214E+02 -0.28120467896E+01  0.16166438707E+02  0.51100000000E-03 0.  1.
         12    1    3    3    0    0 -0.57672192367E+00 -0.77832649108E+01  0.19795291478E+00  0.78071125396E+01  0.00000000000E+00 0. -1.
</event>
<event>
 7    1  0.5504027E-010  0.4778727E+02  0.7816164E-02  0.1312668E+00
        -11   -1    0    0    0    0  0.00000000000E+00  0.00000000000E+00  0.45593999997E+02  0.45594000000E+02  0.51100000000E-03 0.  1.
         11   -1    0    0    0    0 -0.00000000000E+00 -0.00000000000E+00 -0.45593999997E+02  0.45594000000E+02  0.51100000000E-03 0. -1.
    9900012    2    1    2    0    0 -0.27463958982E-01  0.39513860656E+02  0.17952090556E+02  0.47787268514E+02  0.19999988462E+02 0.  0.
         12    1    1    2    0    0  0.27463958982E-01 -0.39513860656E+02 -0.17952090556E+02  0.43400731486E+02  0.00000000000E+00 0. -1.
         11    1    3    3    0    0  0.26994795487E+01  0.15068066848E+02  0.14032371861E+02  0.20766349912E+02  0.51100000000E-03 0. -1.
        -11    1    3    3    0    0 -0.54181789822E+01  0.21336052042E+02  0.53723384533E+01  0.22659342465E+02  0.51100000000E-03 0.  1.
         12    1    3    3    0    0  0.26912354746E+01  0.31097417659E+01 -0.14526197587E+01  0.43615761364E+01  0.00000000000E+00 0. -1.
</event>
<event>
 7    1  0.5504027E-010  0.4778725E+02  0.7816164E-02  0.1312668E+00
        -11   -1    0    0    0    0  0.00000000000E+00  0.00000000000E+00  0.45593999997E+02  0.45594000000E+02  0.51100000000E-03 0.  1.
         11   -1    0    0    0    0 -0.00000000000E+00 -0.00000000000E+00 -0.45593999997E+02  0.45594000000E+02  0.51100000000E-03 0. -1.
    9900012    2    1    2    0    0  0.16991227700E+01  0.41577668178E+02 -0.12330257700E+02  0.47787253875E+02  0.19999921717E+02 0.  0.
         12    1    1    2    0    0 -0.16991227700E+01 -0.41577668178E+02  0.12330257700E+02  0.43400746125E+02  0.00000000000E+00 0. -1.
         11    1    3    3    0    0  0.19914828020E+01  0.80990258452E+01 -0.85732620584E+01  0.11960812931E+02  0.51100000000E-03 0. -1.
        -11    1    3    3    0    0 -0.39342878002E+01  0.25953394524E+02  0.88334428464E+00  0.26264759759E+02  0.51100000000E-03 0.  1.
        -12    1    3    3    0    0  0.36419277682E+01  0.75252478086E+01 -0.46403399264E+01  0.95616811849E+01  0.00000000000E+00 0.  1.
</event>
<event>
 7    1  0.5504027E-010  0.4778727E+02  0.7816164E-02  0.1312668E+00
        -11   -1    0    0    0    0  0.00000000000E+00  0.00000000000E+00  0.45593999997E+02  0.45594000000E+02  0.51100000000E-03 0. -1.
         11   -1    0    0    0    0 -0.00000000000E+00 -0.00000000000E+00 -0.45593999997E+02  0.45594000000E+02  0.51100000000E-03 0.  1.
    9900012    2    1    2    0    0  0.16926334937E+02 -0.13445154259E+02 -0.37634430278E+02  0.47787270400E+02  0.19999997063E+02 0.  0.
         12    1    1    2    0    0 -0.16926334937E+02  0.13445154259E+02  0.37634430278E+02  0.43400729600E+02  0.00000000000E+00 0. -1.
         11    1    3    3    0    0 -0.25280650074E+01 -0.69430201261E+01 -0.56209725436E+01  0.92839632566E+01  0.51100000000E-03 0. -1.
        -11    1    3    3    0    0  0.17205816367E+02 -0.47325790403E+01 -0.23405336868E+02  0.29432078000E+02  0.51100000000E-03 0.  1.
         12    1    3    3    0    0  0.22485835773E+01 -0.17695550923E+01 -0.86081208665E+01  0.90712291439E+01  0.00000000000E+00 0. -1.
</event>
<event>
 7    1  0.5504027E-010  0.4778727E+02  0.7816164E-02  0.1312668E+00
        -11   -1    0    0    0    0  0.00000000000E+00  0.00000000000E+00  0.45593999997E+02  0.45594000000E+02  0.51100000000E-03 0.  1.
         11   -1    0    0    0    0 -0.00000000000E+00 -0.00000000000E+00 -0.45593999997E+02  0.45594000000E+02  0.51100000000E-03 0. -1.
    9900012    2    1    2    0    0 -0.13268107870E+02 -0.16283843165E+02  0.37979169219E+02  0.47787268102E+02  0.19999986585E+02 0.  0.
         12    1    1    2    0    0  0.13268107870E+02  0.16283843165E+02 -0.37979169219E+02  0.43400731898E+02  0.00000000000E+00 0. -1.
         11    1    3    3    0    0 -0.26347568246E+01 -0.17893274112E+01  0.21581337265E+02  0.21815080896E+02  0.51100000000E-03 0. -1.
        -11    1    3    3    0    0 -0.89081285207E+01 -0.57168688274E+01  0.12009217990E+02  0.16008081082E+02  0.51100000000E-03 0.  1.
         12    1    3    3    0    0 -0.17252225246E+01 -0.87776469266E+01  0.43886139646E+01  0.99641061244E+01  0.00000000000E+00 0. -1.
</event>
<event>
 7    1  0.5504027E-010  0.4778727E+02  0.7816164E-02  0.1312668E+00
        -11   -1    0    0    0    0  0.00000000000E+00  0.00000000000E+00  0.45593999997E+02  0.45594000000E+02  0.51100000000E-03 0.  1.
         11   -1    0    0    0    0 -0.00000000000E+00 -0.00000000000E+00 -0.45593999997E+02  0.45594000000E+02  0.51100000000E-03 0. -1.
    9900012    2    1    2    0    0  0.30723481748E+02 -0.16645986276E+02  0.25741063631E+02  0.47787267902E+02  0.19999985671E+02 0.  0.
         12    1    1    2    0    0 -0.30723481748E+02  0.16645986276E+02 -0.25741063631E+02  0.43400732098E+02  0.00000000000E+00 0. -1.
         11    1    3    3    0    0  0.66299319623E+01  0.36015813470E+01  0.35011964323E+01  0.83177979503E+01  0.51100000000E-03 0. -1.
        -11    1    3    3    0    0  0.10800997082E+02 -0.13283577641E+02  0.15197864353E+02  0.22893013215E+02  0.51100000000E-03 0.  1.
         12    1    3    3    0    0  0.13292552704E+02 -0.69639899819E+01  0.70420028459E+01  0.16576456736E+02  0.00000000000E+00 0. -1.
</event>
<event>
 7    1  0.5504027E-010  0.4778727E+02  0.7816164E-02  0.1312668E+00
        -11   -1    0    0    0    0  0.00000000000E+00  0.00000000000E+00  0.45593999997E+02  0.45594000000E+02  0.51100000000E-03 0.  1.
         11   -1    0    0    0    0 -0.00000000000E+00 -0.00000000000E+00 -0.45593999997E+02  0.45594000000E+02  0.51100000000E-03 0. -1.
    9900012    2    1    2    0    0 -0.37272236078E+01  0.12676423683E+02  0.41340530490E+02  0.47787269886E+02  0.19999994719E+02 0.  0.
         12    1    1    2    0    0  0.37272236078E+01 -0.12676423683E+02 -0.41340530490E+02  0.43400730114E+02  0.00000000000E+00 0. -1.
         11    1    3    3    0    0 -0.67519113800E+01  0.12005157991E+02  0.21480915057E+02  0.25517481020E+02  0.51100000000E-03 0. -1.
        -11    1    3    3    0    0  0.58698389169E+01 -0.28407723830E-01  0.17648784903E+02  0.18599339362E+02  0.51100000000E-03 0.  1.
        -12    1    3    3    0    0 -0.28451511448E+01  0.69967341632E+00  0.22108305306E+01  0.36704495040E+01  0.00000000000E+00 0.  1.
</event>
<event>
 7    1  0.5504027E-010  0.4778727E+02  0.7816164E-02  0.1312668E+00
        -11   -1    0    0    0    0  0.00000000000E+00  0.00000000000E+00  0.45593999997E+02  0.45594000000E+02  0.51100000000E-03 0.  1.
         11   -1    0    0    0    0 -0.00000000000E+00 -0.00000000000E+00 -0.45593999997E+02  0.45594000000E+02  0.51100000000E-03 0. -1.
    9900012    2    1    2    0    0 -0.58245723446E+00  0.24951268821E+02  0.35506594904E+02  0.47787270122E+02  0.19999995795E+02 0.  0.
         12    1    1    2    0    0  0.58245723446E+00 -0.24951268821E+02 -0.35506594904E+02  0.43400729878E+02  0.00000000000E+00 0. -1.
         11    1    3    3    0    0  0.21172018359E+01  0.18416994556E+02  0.33787507956E+02  0.38539122022E+02  0.51100000000E-03 0.  1.
        -11    1    3    3    0    0 -0.31813047399E+00  0.63801215949E+01  0.14580499036E+00  0.63897118809E+01  0.51100000000E-03 0. -1.
         12    1    3    3    0    0 -0.23815285964E+01  0.15415267060E+00  0.15732819584E+01  0.28584362196E+01  0.00000000000E+00 0. -1.
</event>
<event>
 7    1  0.5504027E-010  0.4778727E+02  0.7816164E-02  0.1312668E+00
        -11   -1    0    0    0    0  0.00000000000E+00  0.00000000000E+00  0.45593999997E+02  0.45594000000E+02  0.51100000000E-03 0.  1.
         11   -1    0    0    0    0 -0.00000000000E+00 -0.00000000000E+00 -0.45593999997E+02  0.45594000000E+02  0.51100000000E-03 0. -1.
    9900012    2    1    2    0    0 -0.98418576852E+01  0.40167639409E+02  0.13165169352E+02  0.47787273020E+02  0.20000009005E+02 0.  0.
         12    1    1    2    0    0  0.98418576852E+01 -0.40167639409E+02 -0.13165169352E+02  0.43400726980E+02  0.00000000000E+00 0. -1.
         11    1    3    3    0    0  0.28670950212E+01  0.57893144222E+01  0.47986360882E+01  0.80475650918E+01  0.51100000000E-03 0. -1.
        -11    1    3    3    0    0 -0.83027530749E+01  0.32709736175E+02  0.91452255959E+01  0.34964234594E+02  0.51100000000E-03 0.  1.
        -12    1    3    3    0    0 -0.44061996315E+01  0.16685888115E+01 -0.77869233212E+00  0.47754733338E+01  0.00000000000E+00 0.  1.
</event>
<event>
 7    1  0.5504027E-010  0.4778731E+02  0.7816164E-02  0.1312668E+00
        -11   -1    0    0    0    0  0.00000000000E+00  0.00000000000E+00  0.45593999997E+02  0.45594000000E+02  0.51100000000E-03 0.  1.
         11   -1    0    0    0    0 -0.00000000000E+00 -0.00000000000E+00 -0.45593999997E+02  0.45594000000E+02  0.51100000000E-03 0. -1.
    9900012    2    1    2    0    0 -0.36424997842E+02 -0.10942969538E+02  0.20906711587E+02  0.47787312914E+02  0.20000190901E+02 0.  0.
         12    1    1    2    0    0  0.36424997842E+02  0.10942969538E+02 -0.20906711587E+02  0.43400687086E+02  0.00000000000E+00 0. -1.
         11    1    3    3    0    0 -0.12280847321E+02 -0.10465248230E+02  0.21676943643E+01  0.16280034722E+02  0.51100000000E-03 0. -1.
        -11    1    3    3    0    0 -0.12576604922E+02  0.13922085096E+01  0.54141592867E+01  0.13763079486E+02  0.51100000000E-03 0.  1.
         12    1    3    3    0    0 -0.11567545599E+02 -0.18699298181E+01  0.13324857936E+02  0.17744198707E+02  0.00000000000E+00 0. -1.
</event>
<event>
 7    1  0.5504027E-010  0.4778727E+02  0.7816164E-02  0.1312668E+00
        -11   -1    0    0    0    0  0.00000000000E+00  0.00000000000E+00  0.45593999997E+02  0.45594000000E+02  0.51100000000E-03 0.  1.
         11   -1    0    0    0    0 -0.00000000000E+00 -0.00000000000E+00 -0.45593999997E+02  0.45594000000E+02  0.51100000000E-03 0. -1.
    9900012    2    1    2    0    0 -0.43227402413E+02 -0.12634319232E+01  0.36631511534E+01  0.47787271250E+02  0.20000000939E+02 0.  0.
         12    1    1    2    0    0  0.43227402413E+02  0.12634319232E+01 -0.36631511534E+01  0.43400728750E+02  0.00000000000E+00 0. -1.
         11    1    3    3    0    0 -0.28880731830E+01 -0.16976563027E+01  0.13917244394E+01  0.36276577579E+01  0.51100000000E-03 0. -1.
        -11    1    3    3    0    0 -0.21635427054E+02  0.29441567808E+01  0.96820362974E+01  0.23885175111E+02  0.51100000000E-03 0.  1.
        -12    1    3    3    0    0 -0.18703902176E+02 -0.25099324013E+01 -0.74106095834E+01  0.20274438381E+02  0.00000000000E+00 0.  1.
</event>
<event>
 7    1  0.5504027E-010  0.4778727E+02  0.7816164E-02  0.1312668E+00
        -11   -1    0    0    0    0  0.00000000000E+00  0.00000000000E+00  0.45593999997E+02  0.45594000000E+02  0.51100000000E-03 0. -1.
         11   -1    0    0    0    0 -0.00000000000E+00 -0.00000000000E+00 -0.45593999997E+02  0.45594000000E+02  0.51100000000E-03 0.  1.
    9900012    2    1    2    0    0 -0.17513478282E+02 -0.10900927677E+02 -0.38184697344E+02  0.47787271238E+02  0.20000000885E+02 0.  0.
         12    1    1    2    0    0  0.17513478282E+02  0.10900927677E+02  0.38184697344E+02  0.43400728762E+02  0.00000000000E+00 0. -1.
         11    1    3    3    0    0  0.19157454095E+01 -0.11823131276E+01 -0.14230295537E+02  0.14407264006E+02  0.51100000000E-03 0.  1.
        -11    1    3    3    0    0 -0.18614568142E+02 -0.61929562304E+01 -0.20580144436E+02  0.28432326660E+02  0.51100000000E-03 0. -1.
        -12    1    3    3    0    0 -0.81465554908E+00 -0.35256583188E+01 -0.33742573709E+01  0.49476805728E+01  0.00000000000E+00 0.  1.
</event>
<event>
 7    1  0.5504027E-010  0.4778727E+02  0.7816164E-02  0.1312668E+00
        -11   -1    0    0    0    0  0.00000000000E+00  0.00000000000E+00  0.45593999997E+02  0.45594000000E+02  0.51100000000E-03 0. -1.
         11   -1    0    0    0    0 -0.00000000000E+00 -0.00000000000E+00 -0.45593999997E+02  0.45594000000E+02  0.51100000000E-03 0.  1.
    9900012    2    1    2    0    0  0.12247958953E+02 -0.41132767070E+02  0.64580756280E+01  0.47787265373E+02  0.19999974141E+02 0.  0.
         12    1    1    2    0    0 -0.12247958953E+02  0.41132767070E+02 -0.64580756280E+01  0.43400734627E+02  0.00000000000E+00 0. -1.
         11    1    3    3    0    0 -0.11658172164E+01 -0.17527972316E+02  0.95664149753E+01  0.20002630803E+02  0.51100000000E-03 0. -1.
        -11    1    3    3    0    0  0.12041295031E+02 -0.19165483207E+02 -0.93154664775E+00  0.22653395154E+02  0.51100000000E-03 0.  1.
        -12    1    3    3    0    0  0.13724811384E+01 -0.44393115472E+01 -0.21767926996E+01  0.51312394161E+01  0.00000000000E+00 0.  1.
</event>
<event>
 7    1  0.5504027E-010  0.4778727E+02  0.7816164E-02  0.1312668E+00
        -11   -1    0    0    0    0  0.00000000000E+00  0.00000000000E+00  0.45593999997E+02  0.45594000000E+02  0.51100000000E-03 0.  1.
         11   -1    0    0    0    0 -0.00000000000E+00 -0.00000000000E+00 -0.45593999997E+02  0.45594000000E+02  0.51100000000E-03 0. -1.
    9900012    2    1    2    0    0 -0.11787357926E+02 -0.41712308174E+02  0.21828624542E+01  0.47787270184E+02  0.19999996077E+02 0.  0.
         12    1    1    2    0    0  0.11787357926E+02  0.41712308174E+02 -0.21828624542E+01  0.43400729816E+02  0.00000000000E+00 0. -1.
         11    1    3    3    0    0 -0.53674788420E+00 -0.95260755166E+01 -0.50139795025E+01  0.10778413786E+02  0.51100000000E-03 0. -1.
        -11    1    3    3    0    0 -0.13749759726E+02 -0.29910557449E+02  0.66595817114E+01  0.33586416424E+02  0.51100000000E-03 0.  1.
        -12    1    3    3    0    0  0.24991496840E+01 -0.22756752089E+01  0.53726024538E+00  0.34224399733E+01  0.00000000000E+00 0.  1.
</event>
<event>
 7    1  0.5504027E-010  0.4778727E+02  0.7816164E-02  0.1312668E+00
        -11   -1    0    0    0    0  0.00000000000E+00  0.00000000000E+00  0.45593999997E+02  0.45594000000E+02  0.51100000000E-03 0. -1.
         11   -1    0    0    0    0 -0.00000000000E+00 -0.00000000000E+00 -0.45593999997E+02  0.45594000000E+02  0.51100000000E-03 0.  1.
    9900012    2    1    2    0    0 -0.29055266529E+02  0.24569094042E+02 -0.20875207570E+02  0.47787272054E+02  0.20000004602E+02 0.  0.
         12    1    1    2    0    0  0.29055266529E+02 -0.24569094042E+02  0.20875207570E+02  0.43400727946E+02  0.00000000000E+00 0. -1.
         11    1    3    3    0    0 -0.69423753478E+01  0.14265820924E+02 -0.58080462046E+01  0.16895076889E+02  0.51100000000E-03 0. -1.
        -11    1    3    3    0    0 -0.18899964221E+02  0.76020239187E+01 -0.16746368433E+02  0.26371201550E+02  0.51100000000E-03 0.  1.
        -12    1    3    3    0    0 -0.32129269602E+01  0.27012492000E+01  0.16792070675E+01  0.45209936151E+01  0.00000000000E+00 0.  1.
</event>
<event>
 7    1  0.5504027E-010  0.4778727E+02  0.7816164E-02  0.1312668E+00
        -11   -1    0    0    0    0  0.00000000000E+00  0.00000000000E+00  0.45593999997E+02  0.45594000000E+02  0.51100000000E-03 0.  1.
         11   -1    0    0    0    0 -0.00000000000E+00 -0.00000000000E+00 -0.45593999997E+02  0.45594000000E+02  0.51100000000E-03 0. -1.
    9900012    2    1    2    0    0  0.14294653151E+02 -0.29884110347E+02 -0.28039726999E+02  0.47787269014E+02  0.19999990742E+02 0.  0.
         12    1    1    2    0    0 -0.14294653151E+02  0.29884110347E+02  0.28039726999E+02  0.43400730986E+02  0.00000000000E+00 0. -1.
         11    1    3    3    0    0  0.34804627888E+01  0.32418340336E+00 -0.88005913132E+01  0.94693782175E+01  0.51100000000E-03 0. -1.
        -11    1    3    3    0    0  0.12065319272E+02 -0.25242690458E+02 -0.15573254629E+02  0.32020175057E+02  0.51100000000E-03 0.  1.
        -12    1    3    3    0    0 -0.12511289099E+01 -0.49656032919E+01 -0.36658810576E+01  0.62977157391E+01  0.00000000000E+00 0.  1.
</event>
<event>
 7    1  0.5504027E-010  0.4778727E+02  0.7816164E-02  0.1312668E+00
        -11   -1    0    0    0    0  0.00000000000E+00  0.00000000000E+00  0.45593999997E+02  0.45594000000E+02  0.51100000000E-03 0.  1.
         11   -1    0    0    0    0 -0.00000000000E+00 -0.00000000000E+00 -0.45593999997E+02  0.45594000000E+02  0.51100000000E-03 0. -1.
    9900012    2    1    2    0    0  0.37744160420E+02  0.14313692093E+02  0.15941131570E+02  0.47787273014E+02  0.20000008981E+02 0.  0.
         12    1    1    2    0    0 -0.37744160420E+02 -0.14313692093E+02 -0.15941131570E+02  0.43400726986E+02  0.00000000000E+00 0. -1.
         11    1    3    3    0    0 -0.18601630054E+01 -0.44233882469E+00  0.63459566479E-01  0.19130858371E+01  0.51100000000E-03 0. -1.
        -11    1    3    3    0    0  0.27083711255E+01 -0.67748264647E+00 -0.13220594485E+00  0.27949482218E+01  0.51100000000E-03 0.  1.
         12    1    3    3    0    0  0.36895952300E+02  0.15433513564E+02  0.16009877948E+02  0.43079238955E+02  0.00000000000E+00 0. -1.
</event>
<event>
 7    1  0.5504027E-010  0.4778727E+02  0.7816164E-02  0.1312668E+00
        -11   -1    0    0    0    0  0.00000000000E+00  0.00000000000E+00  0.45593999997E+02  0.45594000000E+02  0.51100000000E-03 0.  1.
         11   -1    0    0    0    0 -0.00000000000E+00 -0.00000000000E+00 -0.45593999997E+02  0.45594000000E+02  0.51100000000E-03 0. -1.
    9900012    2    1    2    0    0  0.37300103956E+02 -0.83959773713E+01  0.20538573678E+02  0.47787271897E+02  0.20000003888E+02 0.  0.
         12    1    1    2    0    0 -0.37300103956E+02  0.83959773713E+01 -0.20538573678E+02  0.43400728103E+02  0.00000000000E+00 0. -1.
         11    1    3    3    0    0  0.27199342003E+02 -0.62850101670E+01  0.92847033205E+01  0.29419572978E+02  0.51100000000E-03 0. -1.
        -11    1    3    3    0    0  0.71463440387E+01 -0.18293754385E+00  0.12684947583E+02  0.14560617937E+02  0.51100000000E-03 0.  1.
         12    1    3    3    0    0  0.29544179142E+01 -0.19280296604E+01 -0.14310772253E+01  0.38070809826E+01  0.00000000000E+00 0. -1.
</event>
<event>
 7    1  0.5504027E-010  0.4778727E+02  0.7816164E-02  0.1312668E+00
        -11   -1    0    0    0    0  0.00000000000E+00  0.00000000000E+00  0.45593999997E+02  0.45594000000E+02  0.51100000000E-03 0. -1.
         11   -1    0    0    0    0 -0.00000000000E+00 -0.00000000000E+00 -0.45593999997E+02  0.45594000000E+02  0.51100000000E-03 0.  1.
    9900012    2    1    2    0    0  0.38647165913E+02  0.35507129381E+01 -0.19427110211E+02  0.47787267211E+02  0.19999982523E+02 0.  0.
         12    1    1    2    0    0 -0.38647165913E+02 -0.35507129381E+01  0.19427110211E+02  0.43400732789E+02  0.00000000000E+00 0. -1.
         11    1    3    3    0    0 -0.74488053653E+00  0.95606750302E+00  0.66162052064E+00  0.13808164463E+01  0.51100000000E-03 0. -1.
        -11    1    3    3    0    0  0.31914126527E+02  0.55333011177E+01 -0.20548934090E+02  0.38358670281E+02  0.51100000000E-03 0.  1.
        -12    1    3    3    0    0  0.74779199219E+01 -0.29386556826E+01  0.46020335851E+00  0.80477804835E+01  0.00000000000E+00 0.  1.
</event>
<event>
 7    1  0.5504027E-010  0.4778727E+02  0.7816164E-02  0.1312668E+00
        -11   -1    0    0    0    0  0.00000000000E+00  0.00000000000E+00  0.45593999997E+02  0.45594000000E+02  0.51100000000E-03 0.  1.
         11   -1    0    0    0    0 -0.00000000000E+00 -0.00000000000E+00 -0.45593999997E+02  0.45594000000E+02  0.51100000000E-03 0. -1.
    9900012    2    1    2    0    0  0.12979808395E+02  0.31886308277E+02  0.26427469546E+02  0.47787271572E+02  0.20000002405E+02 0.  0.
         12    1    1    2    0    0 -0.12979808395E+02 -0.31886308277E+02 -0.26427469546E+02  0.43400728428E+02  0.00000000000E+00 0. -1.
         11    1    3    3    0    0  0.28296704831E+01  0.34926853667E+01  0.35556401092E+01  0.57313578637E+01  0.51100000000E-03 0.  1.
        -11    1    3    3    0    0  0.97294818211E+01  0.65203622406E+01  0.14481100556E+02  0.18624720504E+02  0.51100000000E-03 0. -1.
        -12    1    3    3    0    0  0.42065609065E+00  0.21873260669E+02  0.83907288804E+01  0.23431193205E+02  0.00000000000E+00 0.  1.
</event>
<event>
 7    1  0.5504027E-010  0.4778727E+02  0.7816164E-02  0.1312668E+00
        -11   -1    0    0    0    0  0.00000000000E+00  0.00000000000E+00  0.45593999997E+02  0.45594000000E+02  0.51100000000E-03 0. -1.
         11   -1    0    0    0    0 -0.00000000000E+00 -0.00000000000E+00 -0.45593999997E+02  0.45594000000E+02  0.51100000000E-03 0.  1.
    9900012    2    1    2    0    0  0.20590114033E+02 -0.38134992808E+02 -0.23221682832E+01  0.47787274915E+02  0.20000017649E+02 0.  0.
         12    1    1    2    0    0 -0.20590114033E+02  0.38134992808E+02  0.23221682832E+01  0.43400725085E+02  0.00000000000E+00 0. -1.
         11    1    3    3    0    0  0.79383110791E+01 -0.17912770421E+02  0.73509690652E+01  0.20926559043E+02  0.51100000000E-03 0. -1.
        -11    1    3    3    0    0  0.13002369568E+02 -0.15397065511E+02 -0.85666683592E+01  0.21897923366E+02  0.51100000000E-03 0.  1.
         12    1    3    3    0    0 -0.35056661412E+00 -0.48251568761E+01 -0.11064689892E+01  0.49627925056E+01  0.00000000000E+00 0. -1.
</event>
<event>
 7    1  0.5504027E-010  0.4778728E+02  0.7816164E-02  0.1312668E+00
        -11   -1    0    0    0    0  0.00000000000E+00  0.00000000000E+00  0.45593999997E+02  0.45594000000E+02  0.51100000000E-03 0.  1.
         11   -1    0    0    0    0 -0.00000000000E+00 -0.00000000000E+00 -0.45593999997E+02  0.45594000000E+02  0.51100000000E-03 0. -1.
    9900012    2    1    2    0    0  0.20520495295E+02  0.23775732792E+02  0.29954070684E+02  0.47787279412E+02  0.20000038153E+02 0.  0.
         12    1    1    2    0    0 -0.20520495295E+02 -0.23775732792E+02 -0.29954070684E+02  0.43400720588E+02  0.00000000000E+00 0. -1.
         11    1    3    3    0    0  0.11709607005E+02  0.88560457742E+01  0.21031166965E+02  0.25648673009E+02  0.51100000000E-03 0.  1.
        -11    1    3    3    0    0  0.45977276700E+01  0.30017393151E+01 -0.15693382311E+01  0.57107233681E+01  0.51100000000E-03 0. -1.
        -12    1    3    3    0    0  0.42131606205E+01  0.11917947703E+02  0.10492241950E+02  0.16427883035E+02  0.00000000000E+00 0.  1.
</event>
<event>
 7    1  0.5504027E-010  0.4778724E+02  0.7816164E-02  0.1312668E+00
        -11   -1    0    0    0    0  0.00000000000E+00  0.00000000000E+00  0.45593999997E+02  0.45594000000E+02  0.51100000000E-03 0.  1.
         11   -1    0    0    0    0 -0.00000000000E+00 -0.00000000000E+00 -0.45593999997E+02  0.45594000000E+02  0.51100000000E-03 0. -1.
    9900012    2    1    2    0    0  0.84069226634E+01 -0.32223408634E+02  0.27831662715E+02  0.47787241226E+02  0.19999864046E+02 0.  0.
         12    1    1    2    0    0 -0.84069226634E+01  0.32223408634E+02 -0.27831662715E+02  0.43400758774E+02  0.00000000000E+00 0. -1.
         11    1    3    3    0    0  0.57949768264E-01  0.68718944989E+00  0.37948115330E+00  0.78714275866E+00  0.51100000000E-03 0. -1.
        -11    1    3    3    0    0  0.88965584797E+01 -0.23274044509E+02  0.27812600399E+02  0.37341272633E+02  0.51100000000E-03 0.  1.
        -12    1    3    3    0    0 -0.54758558458E+00 -0.96365535747E+01 -0.36041883768E+00  0.96588258350E+01  0.00000000000E+00 0.  1.
</event>
<event>
 7    1  0.5504027E-010  0.4778727E+02  0.7816164E-02  0.1312668E+00
        -11   -1    0    0    0    0  0.00000000000E+00  0.00000000000E+00  0.45593999997E+02  0.45594000000E+02  0.51100000000E-03 0.  1.
         11   -1    0    0    0    0 -0.00000000000E+00 -0.00000000000E+00 -0.45593999997E+02  0.45594000000E+02  0.51100000000E-03 0. -1.
    9900012    2    1    2    0    0 -0.20946966156E+02 -0.26122673168E+02  0.27612566611E+02  0.47787270980E+02  0.19999999707E+02 0.  0.
         12    1    1    2    0    0  0.20946966156E+02  0.26122673168E+02 -0.27612566611E+02  0.43400729020E+02  0.00000000000E+00 0. -1.
         11    1    3    3    0    0  0.14628835591E+01 -0.80446176656E+01  0.19384186596E+01  0.84031761171E+01  0.51100000000E-03 0. -1.
        -11    1    3    3    0    0 -0.15641212619E+02 -0.13722301779E+02  0.22724641794E+02  0.30811660832E+02  0.51100000000E-03 0.  1.
        -12    1    3    3    0    0 -0.67686370969E+01 -0.43557537239E+01  0.29495061576E+01  0.85724340316E+01  0.00000000000E+00 0.  1.
</event>
<event>
 7    1  0.5504027E-010  0.4778727E+02  0.7816164E-02  0.1312668E+00
        -11   -1    0    0    0    0  0.00000000000E+00  0.00000000000E+00  0.45593999997E+02  0.45594000000E+02  0.51100000000E-03 0. -1.
         11   -1    0    0    0    0 -0.00000000000E+00 -0.00000000000E+00 -0.45593999997E+02  0.45594000000E+02  0.51100000000E-03 0.  1.
    9900012    2    1    2    0    0 -0.14795197952E+02 -0.27577237067E+02 -0.30070271684E+02  0.47787272750E+02  0.20000007777E+02 0.  0.
         12    1    1    2    0    0  0.14795197952E+02  0.27577237067E+02  0.30070271684E+02  0.43400727250E+02  0.00000000000E+00 0. -1.
         11    1    3    3    0    0 -0.28183050054E+01 -0.23943601544E+01 -0.14680820249E+02  0.15139428229E+02  0.51100000000E-03 0. -1.
        -11    1    3    3    0    0 -0.10273075938E+02 -0.25058110220E+02 -0.14578728295E+02  0.30756857706E+02  0.51100000000E-03 0.  1.
         12    1    3    3    0    0 -0.17038170085E+01 -0.12476669307E+00 -0.81072313946E+00  0.18909868151E+01  0.00000000000E+00 0. -1.
</event>
<event>
 7    1  0.5504027E-010  0.4778728E+02  0.7816164E-02  0.1312668E+00
        -11   -1    0    0    0    0  0.00000000000E+00  0.00000000000E+00  0.45593999997E+02  0.45594000000E+02  0.51100000000E-03 0.  1.
         11   -1    0    0    0    0 -0.00000000000E+00 -0.00000000000E+00 -0.45593999997E+02  0.45594000000E+02  0.51100000000E-03 0. -1.
    9900012    2    1    2    0    0 -0.12602436800E+02 -0.24297247551E+02  0.33681524087E+02  0.47787277464E+02  0.20000029270E+02 0.  0.
         12    1    1    2    0    0  0.12602436800E+02  0.24297247551E+02 -0.33681524087E+02  0.43400722536E+02  0.00000000000E+00 0. -1.
         11    1    3    3    0    0 -0.57374116932E+01  0.13842860594E+01  0.35114575138E+01  0.68676396938E+01  0.51100000000E-03 0. -1.
        -11    1    3    3    0    0 -0.66601365130E+01 -0.17331991583E+02  0.24836752872E+02  0.31009992650E+02  0.51100000000E-03 0.  1.
         12    1    3    3    0    0 -0.20488859359E+00 -0.83495420265E+01  0.53333137007E+01  0.99096451207E+01  0.00000000000E+00 0. -1.
</event>
<event>
 7    1  0.5504027E-010  0.4778727E+02  0.7816164E-02  0.1312668E+00
        -11   -1    0    0    0    0  0.00000000000E+00  0.00000000000E+00  0.45593999997E+02  0.45594000000E+02  0.51100000000E-03 0.  1.
         11   -1    0    0    0    0 -0.00000000000E+00 -0.00000000000E+00 -0.45593999997E+02  0.45594000000E+02  0.51100000000E-03 0. -1.
    9900012    2    1    2    0    0  0.18425992461E+02 -0.32686193273E+02  0.21810979833E+02  0.47787271088E+02  0.20000000197E+02 0.  0.
         12    1    1    2    0    0 -0.18425992461E+02  0.32686193273E+02 -0.21810979833E+02  0.43400728912E+02  0.00000000000E+00 0. -1.
         11    1    3    3    0    0  0.13315166571E+02 -0.65718027394E+01  0.72956839645E+01  0.16544160808E+02  0.51100000000E-03 0. -1.
        -11    1    3    3    0    0  0.64658760859E+01 -0.17907274447E+02  0.78905429055E+01  0.20609189681E+02  0.51100000000E-03 0.  1.
         12    1    3    3    0    0 -0.13550501961E+01 -0.82071160862E+01  0.66247529626E+01  0.10633920599E+02  0.00000000000E+00 0. -1.
</event>
<event>
 7    1  0.5504027E-010  0.4778728E+02  0.7816164E-02  0.1312668E+00
        -11   -1    0    0    0    0  0.00000000000E+00  0.00000000000E+00  0.45593999997E+02  0.45594000000E+02  0.51100000000E-03 0. -1.
         11   -1    0    0    0    0 -0.00000000000E+00 -0.00000000000E+00 -0.45593999997E+02  0.45594000000E+02  0.51100000000E-03 0.  1.
    9900012    2    1    2    0    0 -0.12546306701E+02  0.11233259190E+02 -0.40000331722E+02  0.47787280401E+02  0.20000042658E+02 0.  0.
         12    1    1    2    0    0  0.12546306701E+02 -0.11233259190E+02  0.40000331722E+02  0.43400719599E+02  0.00000000000E+00 0. -1.
         11    1    3    3    0    0 -0.43410371841E+01 -0.44806450809E+01 -0.54601123964E+01  0.82905736724E+01  0.51100000000E-03 0. -1.
        -11    1    3    3    0    0 -0.57832390450E+01  0.57945620365E+01 -0.10045413966E+02  0.12958902155E+02  0.51100000000E-03 0.  1.
         12    1    3    3    0    0 -0.24220304723E+01  0.99193422340E+01 -0.24494805360E+02  0.26537804573E+02  0.00000000000E+00 0. -1.
</event>
<event>
 7    1  0.5504027E-010  0.4778727E+02  0.7816164E-02  0.1312668E+00
        -11   -1    0    0    0    0  0.00000000000E+00  0.00000000000E+00  0.45593999997E+02  0.45594000000E+02  0.51100000000E-03 0.  1.
         11   -1    0    0    0    0 -0.00000000000E+00 -0.00000000000E+00 -0.45593999997E+02  0.45594000000E+02  0.51100000000E-03 0. -1.
    9900012    2    1    2    0    0 -0.41988763011E+02  0.94936034126E+01  0.55171248806E+01  0.47787269685E+02  0.19999993800E+02 0.  0.
         12    1    1    2    0    0  0.41988763011E+02 -0.94936034126E+01 -0.55171248806E+01  0.43400730315E+02  0.00000000000E+00 0. -1.
         11    1    3    3    0    0 -0.30849774145E+02  0.58703063574E+01 -0.25053549726E+01  0.31503108820E+02  0.51100000000E-03 0. -1.
        -11    1    3    3    0    0 -0.47086094906E+01  0.56634734944E+01  0.34415320633E+01  0.81295804665E+01  0.51100000000E-03 0.  1.
         12    1    3    3    0    0 -0.64303793755E+01 -0.20401764392E+01  0.45809477900E+01  0.81545803982E+01  0.00000000000E+00 0. -1.
</event>
<event>
 7    1  0.5504027E-010  0.4778731E+02  0.7816164E-02  0.1312668E+00
        -11   -1    0    0    0    0  0.00000000000E+00  0.00000000000E+00  0.45593999997E+02  0.45594000000E+02  0.51100000000E-03 0.  1.
         11   -1    0    0    0    0 -0.00000000000E+00 -0.00000000000E+00 -0.45593999997E+02  0.45594000000E+02  0.51100000000E-03 0. -1.
    9900012    2    1    2    0    0 -0.37258358548E+02  0.22227981449E+02  0.11626565122E+01  0.47787306329E+02  0.20000160875E+02 0.  0.
         12    1    1    2    0    0  0.37258358548E+02 -0.22227981449E+02 -0.11626565122E+01  0.43400693671E+02  0.00000000000E+00 0. -1.
         11    1    3    3    0    0 -0.33462265614E+00  0.63562392516E+01  0.31465835577E+01  0.71003336606E+01  0.51100000000E-03 0. -1.
        -11    1    3    3    0    0 -0.18529207172E+02  0.10471524370E+02 -0.29759884749E+01  0.21490482747E+02  0.51100000000E-03 0.  1.
        -12    1    3    3    0    0 -0.18394528720E+02  0.54002178274E+01  0.99206142940E+00  0.19196489921E+02  0.00000000000E+00 0.  1.
</event>
<event>
 7    1  0.5504027E-010  0.4778727E+02  0.7816164E-02  0.1312668E+00
        -11   -1    0    0    0    0  0.00000000000E+00  0.00000000000E+00  0.45593999997E+02  0.45594000000E+02  0.51100000000E-03 0.  1.
         11   -1    0    0    0    0 -0.00000000000E+00 -0.00000000000E+00 -0.45593999997E+02  0.45594000000E+02  0.51100000000E-03 0. -1.
    9900012    2    1    2    0    0  0.39896977040E+02  0.16020372097E+02 -0.59331383275E+01  0.47787271556E+02  0.20000002333E+02 0.  0.
         12    1    1    2    0    0 -0.39896977040E+02 -0.16020372097E+02  0.59331383275E+01  0.43400728444E+02  0.00000000000E+00 0. -1.
         11    1    3    3    0    0  0.81368732377E+01  0.24180923505E+01 -0.95940591153E+01  0.12810224326E+02  0.51100000000E-03 0. -1.
        -11    1    3    3    0    0  0.21359641422E+02  0.77130052605E+01  0.99581378857E+00  0.22731396288E+02  0.51100000000E-03 0.  1.
         12    1    3    3    0    0  0.10400462380E+02  0.58892744864E+01  0.26651069993E+01  0.12245650943E+02  0.00000000000E+00 0. -1.
</event>
<event>
 7    1  0.5504027E-010  0.4778727E+02  0.7816164E-02  0.1312668E+00
        -11   -1    0    0    0    0  0.00000000000E+00  0.00000000000E+00  0.45593999997E+02  0.45594000000E+02  0.51100000000E-03 0.  1.
         11   -1    0    0    0    0 -0.00000000000E+00 -0.00000000000E+00 -0.45593999997E+02  0.45594000000E+02  0.51100000000E-03 0. -1.
    9900012    2    1    2    0    0  0.88727609338E+01 -0.24282518808E+02  0.34860531255E+02  0.47787271370E+02  0.20000001484E+02 0.  0.
         12    1    1    2    0    0 -0.88727609338E+01  0.24282518808E+02 -0.34860531255E+02  0.43400728630E+02  0.00000000000E+00 0. -1.
         11    1    3    3    0    0  0.68609513976E+01 -0.88000528009E+01  0.42122129430E+01  0.11927125451E+02  0.51100000000E-03 0. -1.
        -11    1    3    3    0    0 -0.72933135667E+00 -0.15821538794E+02  0.26632406039E+02  0.30986094715E+02  0.51100000000E-03 0.  1.
        -12    1    3    3    0    0  0.27411408928E+01  0.33907278750E+00  0.40159122734E+01  0.48740512038E+01  0.00000000000E+00 0.  1.
</event>
<event>
 7    1  0.5504027E-010  0.4778727E+02  0.7816164E-02  0.1312668E+00
        -11   -1    0    0    0    0  0.00000000000E+00  0.00000000000E+00  0.45593999997E+02  0.45594000000E+02  0.51100000000E-03 0.  1.
         11   -1    0    0    0    0 -0.00000000000E+00 -0.00000000000E+00 -0.45593999997E+02  0.45594000000E+02  0.51100000000E-03 0. -1.
    9900012    2    1    2    0    0  0.29853827225E+02 -0.14283607344E+02  0.28077592931E+02  0.47787266556E+02  0.19999979533E+02 0.  0.
         12    1    1    2    0    0 -0.29853827225E+02  0.14283607344E+02 -0.28077592931E+02  0.43400733444E+02  0.00000000000E+00 0. -1.
         11    1    3    3    0    0  0.96491540073E+01 -0.60145145076E+01  0.13013487158E+01  0.11444390179E+02  0.51100000000E-03 0. -1.
        -11    1    3    3    0    0  0.12344938929E+02 -0.10098387346E+02  0.21218917954E+02  0.26544630786E+02  0.51100000000E-03 0.  1.
        -12    1    3    3    0    0  0.78597342884E+01  0.18292945100E+01  0.55573262611E+01  0.97982455910E+01  0.00000000000E+00 0.  1.
</event>
<event>
 7    1  0.5504027E-010  0.4778727E+02  0.7816164E-02  0.1312668E+00
        -11   -1    0    0    0    0  0.00000000000E+00  0.00000000000E+00  0.45593999997E+02  0.45594000000E+02  0.51100000000E-03 0.  1.
         11   -1    0    0    0    0 -0.00000000000E+00 -0.00000000000E+00 -0.45593999997E+02  0.45594000000E+02  0.51100000000E-03 0. -1.
    9900012    2    1    2    0    0  0.17002973382E+02 -0.11928659236E+02  0.38108123656E+02  0.47787273007E+02  0.20000008946E+02 0.  0.
         12    1    1    2    0    0 -0.17002973382E+02  0.11928659236E+02 -0.38108123656E+02  0.43400726993E+02  0.00000000000E+00 0. -1.
         11    1    3    3    0    0  0.87346279365E+01 -0.11177862177E+02  0.15276608747E+02  0.20847376408E+02  0.51100000000E-03 0. -1.
        -11    1    3    3    0    0  0.62497337124E+01 -0.59543562748E+01  0.12394241626E+02  0.15103998009E+02  0.51100000000E-03 0.  1.
         12    1    3    3    0    0  0.20186117333E+01  0.52035592150E+01  0.10437273283E+02  0.11835898589E+02  0.00000000000E+00 0. -1.
</event>
<event>
 7    1  0.5504027E-010  0.4778727E+02  0.7816164E-02  0.1312668E+00
        -11   -1    0    0    0    0  0.00000000000E+00  0.00000000000E+00  0.45593999997E+02  0.45594000000E+02  0.51100000000E-03 0.  1.
         11   -1    0    0    0    0 -0.00000000000E+00 -0.00000000000E+00 -0.45593999997E+02  0.45594000000E+02  0.51100000000E-03 0. -1.
    9900012    2    1    2    0    0 -0.18596059294E+02 -0.10053085348E+02  0.37904425950E+02  0.47787268982E+02  0.19999990596E+02 0.  0.
         12    1    1    2    0    0  0.18596059294E+02  0.10053085348E+02 -0.37904425950E+02  0.43400731018E+02  0.00000000000E+00 0. -1.
         11    1    3    3    0    0 -0.15431660052E+01 -0.55465602819E+01  0.23621360759E+02  0.24312843862E+02  0.51100000000E-03 0.  1.
        -11    1    3    3    0    0 -0.42214951055E+01 -0.26752453844E+01  0.13786192232E+01  0.51844527210E+01  0.51100000000E-03 0. -1.
        -12    1    3    3    0    0 -0.12831398184E+02 -0.18312796813E+01  0.12904445968E+02  0.18289972399E+02  0.00000000000E+00 0.  1.
</event>
<event>
 7    1  0.5504027E-010  0.4778727E+02  0.7816164E-02  0.1312668E+00
        -11   -1    0    0    0    0  0.00000000000E+00  0.00000000000E+00  0.45593999997E+02  0.45594000000E+02  0.51100000000E-03 0. -1.
         11   -1    0    0    0    0 -0.00000000000E+00 -0.00000000000E+00 -0.45593999997E+02  0.45594000000E+02  0.51100000000E-03 0.  1.
    9900012    2    1    2    0    0 -0.17496780068E+02  0.34402964421E+02 -0.19847466135E+02  0.47787272060E+02  0.20000004632E+02 0.  0.
         12    1    1    2    0    0  0.17496780068E+02 -0.34402964421E+02  0.19847466135E+02  0.43400727940E+02  0.00000000000E+00 0. -1.
         11    1    3    3    0    0 -0.59933803225E+01  0.20217217118E+01 -0.98167579043E+01  0.11678043603E+02  0.51100000000E-03 0. -1.
        -11    1    3    3    0    0 -0.40248836984E+01  0.14229963926E+02 -0.65397528181E+01  0.16169722610E+02  0.51100000000E-03 0.  1.
         12    1    3    3    0    0 -0.74785160472E+01  0.18151278784E+02 -0.34909554121E+01  0.19939505848E+02  0.00000000000E+00 0. -1.
</event>
<event>
 7    1  0.5504027E-010  0.4778726E+02  0.7816164E-02  0.1312668E+00
        -11   -1    0    0    0    0  0.00000000000E+00  0.00000000000E+00  0.45593999997E+02  0.45594000000E+02  0.51100000000E-03 0. -1.
         11   -1    0    0    0    0 -0.00000000000E+00 -0.00000000000E+00 -0.45593999997E+02  0.45594000000E+02  0.51100000000E-03 0.  1.
    9900012    2    1    2    0    0 -0.18353738795E+02 -0.74542176323E+01 -0.38616044424E+02  0.47787262965E+02  0.19999963161E+02 0.  0.
         12    1    1    2    0    0  0.18353738795E+02  0.74542176323E+01  0.38616044424E+02  0.43400737035E+02  0.00000000000E+00 0. -1.
         11    1    3    3    0    0 -0.12997705707E+01 -0.89358367930E-01 -0.18690464160E+01  0.22783158738E+01  0.51100000000E-03 0. -1.
        -11    1    3    3    0    0 -0.10511511201E+02 -0.97106248710E+01 -0.90012714003E+01  0.16905945410E+02  0.51100000000E-03 0.  1.
        -12    1    3    3    0    0 -0.65424570230E+01  0.23457656066E+01 -0.27745726608E+02  0.28603001681E+02  0.00000000000E+00 0.  1.
</event>
<event>
 7    1  0.5504027E-010  0.4778727E+02  0.7816164E-02  0.1312668E+00
        -11   -1    0    0    0    0  0.00000000000E+00  0.00000000000E+00  0.45593999997E+02  0.45594000000E+02  0.51100000000E-03 0.  1.
         11   -1    0    0    0    0 -0.00000000000E+00 -0.00000000000E+00 -0.45593999997E+02  0.45594000000E+02  0.51100000000E-03 0. -1.
    9900012    2    1    2    0    0  0.41206353173E+02  0.82679933201E+01  0.10830510861E+02  0.47787271655E+02  0.20000002782E+02 0.  0.
         12    1    1    2    0    0 -0.41206353173E+02 -0.82679933201E+01 -0.10830510861E+02  0.43400728345E+02  0.00000000000E+00 0. -1.
         11    1    3    3    0    0  0.55047879587E+00  0.10920935602E+01  0.30159308071E+01  0.32544637259E+01  0.51100000000E-03 0. -1.
        -11    1    3    3    0    0  0.35667293305E+02  0.28177882000E+01  0.10646298828E+02  0.37328801495E+02  0.51100000000E-03 0.  1.
        -12    1    3    3    0    0  0.49885810720E+01  0.43581115599E+01 -0.28317187738E+01  0.72040064335E+01  0.00000000000E+00 0.  1.
</event>
<event>
 7    1  0.5504027E-010  0.4778727E+02  0.7816164E-02  0.1312668E+00
        -11   -1    0    0    0    0  0.00000000000E+00  0.00000000000E+00  0.45593999997E+02  0.45594000000E+02  0.51100000000E-03 0.  1.
         11   -1    0    0    0    0 -0.00000000000E+00 -0.00000000000E+00 -0.45593999997E+02  0.45594000000E+02  0.51100000000E-03 0. -1.
    9900012    2    1    2    0    0  0.14652617968E+02  0.21138038329E+01  0.40797745619E+02  0.47787269274E+02  0.19999991926E+02 0.  0.
         12    1    1    2    0    0 -0.14652617968E+02 -0.21138038329E+01 -0.40797745619E+02  0.43400730726E+02  0.00000000000E+00 0. -1.
         11    1    3    3    0    0  0.16675709859E+01  0.20886380292E+01  0.27108012831E+02  0.27239448631E+02  0.51100000000E-03 0. -1.
        -11    1    3    3    0    0  0.20997904336E+01  0.33280680709E+01  0.38923125356E+01  0.55349122925E+01  0.51100000000E-03 0.  1.
         12    1    3    3    0    0  0.10885256549E+02 -0.33029022671E+01  0.97974202526E+01  0.15012908350E+02  0.00000000000E+00 0. -1.
</event>
<event>
 7    1  0.5504027E-010  0.4778728E+02  0.7816164E-02  0.1312668E+00
        -11   -1    0    0    0    0  0.00000000000E+00  0.00000000000E+00  0.45593999997E+02  0.45594000000E+02  0.51100000000E-03 0. -1.
         11   -1    0    0    0    0 -0.00000000000E+00 -0.00000000000E+00 -0.45593999997E+02  0.45594000000E+02  0.51100000000E-03 0.  1.
    9900012    2    1    2    0    0  0.38844857125E+02  0.14505938440E+02 -0.12817087544E+02  0.47787275257E+02  0.20000019208E+02 0.  0.
         12    1    1    2    0    0 -0.38844857125E+02 -0.14505938440E+02  0.12817087544E+02  0.43400724743E+02  0.00000000000E+00 0. -1.
         11    1    3    3    0    0  0.17689891450E+02  0.10510283256E+02 -0.19560169398E+01  0.20669405317E+02  0.51100000000E-03 0. -1.
        -11    1    3    3    0    0  0.15357325163E+02 -0.30707959366E+01 -0.60563958447E+01  0.16791579876E+02  0.51100000000E-03 0.  1.
        -12    1    3    3    0    0  0.57976405125E+01  0.70664511198E+01 -0.48046747597E+01  0.10326290064E+02  0.00000000000E+00 0.  1.
</event>
<event>
 7    1  0.5504027E-010  0.4778727E+02  0.7816164E-02  0.1312668E+00
        -11   -1    0    0    0    0  0.00000000000E+00  0.00000000000E+00  0.45593999997E+02  0.45594000000E+02  0.51100000000E-03 0.  1.
         11   -1    0    0    0    0 -0.00000000000E+00 -0.00000000000E+00 -0.45593999997E+02  0.45594000000E+02  0.51100000000E-03 0. -1.
    9900012    2    1    2    0    0 -0.45243483214E+01  0.42796351816E+02 -0.56236597636E+01  0.47787274135E+02  0.20000014091E+02 0.  0.
         12    1    1    2    0    0  0.45243483214E+01 -0.42796351816E+02  0.56236597636E+01  0.43400725865E+02  0.00000000000E+00 0. -1.
         11    1    3    3    0    0 -0.55692172581E+01  0.21048390164E+02  0.32712448448E+01  0.22017083196E+02  0.51100000000E-03 0. -1.
        -11    1    3    3    0    0  0.66528902300E+00  0.65791193870E+01 -0.82633056210E+01  0.10583460750E+02  0.51100000000E-03 0.  1.
        -12    1    3    3    0    0  0.37957991373E+00  0.15168842265E+02 -0.63159898733E+00  0.15186730190E+02  0.00000000000E+00 0.  1.
</event>
<event>
 7    1  0.5504027E-010  0.4778729E+02  0.7816164E-02  0.1312668E+00
        -11   -1    0    0    0    0  0.00000000000E+00  0.00000000000E+00  0.45593999997E+02  0.45594000000E+02  0.51100000000E-03 0.  1.
         11   -1    0    0    0    0 -0.00000000000E+00 -0.00000000000E+00 -0.45593999997E+02  0.45594000000E+02  0.51100000000E-03 0. -1.
    9900012    2    1    2    0    0 -0.69651792640E+01  0.26500087959E+02  0.33657891374E+02  0.47787285309E+02  0.20000065036E+02 0.  0.
         12    1    1    2    0    0  0.69651792640E+01 -0.26500087959E+02 -0.33657891374E+02  0.43400714691E+02  0.00000000000E+00 0. -1.
         11    1    3    3    0    0  0.19815094613E+01  0.77448055927E+01  0.17236791464E-01  0.79942911370E+01  0.51100000000E-03 0. -1.
        -11    1    3    3    0    0 -0.42106141636E+01  0.72533412756E+01  0.97717842630E+01  0.12877422073E+02  0.51100000000E-03 0.  1.
         12    1    3    3    0    0 -0.47360745617E+01  0.11501941090E+02  0.23868870319E+02  0.26915572099E+02  0.00000000000E+00 0. -1.
</event>
<event>
 7    1  0.5504027E-010  0.4778727E+02  0.7816164E-02  0.1312668E+00
        -11   -1    0    0    0    0  0.00000000000E+00  0.00000000000E+00  0.45593999997E+02  0.45594000000E+02  0.51100000000E-03 0.  1.
         11   -1    0    0    0    0 -0.00000000000E+00 -0.00000000000E+00 -0.45593999997E+02  0.45594000000E+02  0.51100000000E-03 0. -1.
    9900012    2    1    2    0    0  0.18143622279E+02  0.28160030328E+02  0.27594293064E+02  0.47787270200E+02  0.19999996149E+02 0.  0.
         12    1    1    2    0    0 -0.18143622279E+02 -0.28160030328E+02 -0.27594293064E+02  0.43400729800E+02  0.00000000000E+00 0. -1.
         11    1    3    3    0    0  0.51181381807E+01  0.11081203381E+01  0.38613433957E-01  0.52368655109E+01  0.51100000000E-03 0. -1.
        -11    1    3    3    0    0  0.11429834940E+02  0.25483979872E+02  0.28691984942E+02  0.40041283159E+02  0.51100000000E-03 0.  1.
        -12    1    3    3    0    0  0.15956491579E+01  0.15679301178E+01 -0.11363053115E+01  0.25091215296E+01  0.00000000000E+00 0.  1.
</event>
<event>
 7    1  0.5504027E-010  0.4778727E+02  0.7816164E-02  0.1312668E+00
        -11   -1    0    0    0    0  0.00000000000E+00  0.00000000000E+00  0.45593999997E+02  0.45594000000E+02  0.51100000000E-03 0.  1.
         11   -1    0    0    0    0 -0.00000000000E+00 -0.00000000000E+00 -0.45593999997E+02  0.45594000000E+02  0.51100000000E-03 0. -1.
    9900012    2    1    2    0    0  0.15419568693E+02  0.24154184966E+02  0.32595018582E+02  0.47787274356E+02  0.20000015098E+02 0.  0.
         12    1    1    2    0    0 -0.15419568693E+02 -0.24154184966E+02 -0.32595018582E+02  0.43400725644E+02  0.00000000000E+00 0. -1.
         11    1    3    3    0    0  0.70108328907E+00  0.71312998944E+01  0.15916144158E+02  0.17454815986E+02  0.51100000000E-03 0. -1.
        -11    1    3    3    0    0  0.74921372915E+01  0.39992123785E+01  0.75115760765E+00  0.85258465184E+01  0.51100000000E-03 0.  1.
        -12    1    3    3    0    0  0.72263481124E+01  0.13023672694E+02  0.15927716816E+02  0.21806611852E+02  0.00000000000E+00 0.  1.
</event>
<event>
 7    1  0.5504027E-010  0.4778728E+02  0.7816164E-02  0.1312668E+00
        -11   -1    0    0    0    0  0.00000000000E+00  0.00000000000E+00  0.45593999997E+02  0.45594000000E+02  0.51100000000E-03 0.  1.
         11   -1    0    0    0    0 -0.00000000000E+00 -0.00000000000E+00 -0.45593999997E+02  0.45594000000E+02  0.51100000000E-03 0. -1.
    9900012    2    1    2    0    0 -0.24470826257E+02  0.13962908993E+02  0.33012703063E+02  0.47787277324E+02  0.20000028632E+02 0.  0.
         12    1    1    2    0    0  0.24470826257E+02 -0.13962908993E+02 -0.33012703063E+02  0.43400722676E+02  0.00000000000E+00 0. -1.
         11    1    3    3    0    0 -0.82477691451E+01  0.44168531480E+01  0.47258141531E+00  0.93679037707E+01  0.51100000000E-03 0. -1.
        -11    1    3    3    0    0 -0.87982936045E+01  0.52589359227E+01  0.24931957259E+02  0.26956796368E+02  0.51100000000E-03 0.  1.
        -12    1    3    3    0    0 -0.74247635078E+01  0.42871199221E+01  0.76081643883E+01  0.11462577185E+02  0.00000000000E+00 0.  1.
</event>
<event>
 7    1  0.5504027E-010  0.4778727E+02  0.7816164E-02  0.1312668E+00
        -11   -1    0    0    0    0  0.00000000000E+00  0.00000000000E+00  0.45593999997E+02  0.45594000000E+02  0.51100000000E-03 0.  1.
         11   -1    0    0    0    0 -0.00000000000E+00 -0.00000000000E+00 -0.45593999997E+02  0.45594000000E+02  0.51100000000E-03 0. -1.
    9900012    2    1    2    0    0 -0.13484409119E+02 -0.12733710882E+02  0.39238328334E+02  0.47787273133E+02  0.20000009525E+02 0.  0.
         12    1    1    2    0    0  0.13484409119E+02  0.12733710882E+02 -0.39238328334E+02  0.43400726867E+02  0.00000000000E+00 0. -1.
         11    1    3    3    0    0 -0.62182315171E+01 -0.13265042402E+02  0.32761487478E+02  0.35887920184E+02  0.51100000000E-03 0. -1.
        -11    1    3    3    0    0 -0.48601797674E+01 -0.82135374504E+00  0.77033562389E-01  0.49296961141E+01  0.51100000000E-03 0.  1.
        -12    1    3    3    0    0 -0.24059978341E+01  0.13526852652E+01  0.63998072936E+01  0.69696568351E+01  0.00000000000E+00 0.  1.
</event>
<event>
 7    1  0.5504027E-010  0.4778727E+02  0.7816164E-02  0.1312668E+00
        -11   -1    0    0    0    0  0.00000000000E+00  0.00000000000E+00  0.45593999997E+02  0.45594000000E+02  0.51100000000E-03 0.  1.
         11   -1    0    0    0    0 -0.00000000000E+00 -0.00000000000E+00 -0.45593999997E+02  0.45594000000E+02  0.51100000000E-03 0. -1.
    9900012    2    1    2    0    0 -0.12644423703E+02 -0.26274370502E+02  0.32146527740E+02  0.47787271414E+02  0.20000001685E+02 0.  0.
         12    1    1    2    0    0  0.12644423703E+02  0.26274370502E+02 -0.32146527740E+02  0.43400728586E+02  0.00000000000E+00 0. -1.
         11    1    3    3    0    0 -0.18289851787E+01  0.73849138834E+00  0.53480380457E+01  0.57001813579E+01  0.51100000000E-03 0. -1.
        -11    1    3    3    0    0 -0.13640725567E+02 -0.24754247308E+02  0.20838333864E+02  0.35115214826E+02  0.51100000000E-03 0.  1.
         12    1    3    3    0    0  0.28252870427E+01 -0.22586145822E+01  0.59601558307E+01  0.69718752306E+01  0.00000000000E+00 0. -1.
</event>
<event>
 7    1  0.5504027E-010  0.4778727E+02  0.7816164E-02  0.1312668E+00
        -11   -1    0    0    0    0  0.00000000000E+00  0.00000000000E+00  0.45593999997E+02  0.45594000000E+02  0.51100000000E-03 0.  1.
         11   -1    0    0    0    0 -0.00000000000E+00 -0.00000000000E+00 -0.45593999997E+02  0.45594000000E+02  0.51100000000E-03 0. -1.
    9900012    2    1    2    0    0 -0.93313021917E+01 -0.29739886303E+02  0.30200818123E+02  0.47787268978E+02  0.19999990578E+02 0.  0.
         12    1    1    2    0    0  0.93313021917E+01  0.29739886303E+02 -0.30200818123E+02  0.43400731022E+02  0.00000000000E+00 0. -1.
         11    1    3    3    0    0 -0.39758533346E+01 -0.29484992733E+01  0.47380168637E+01  0.68519969181E+01  0.51100000000E-03 0.  1.
        -11    1    3    3    0    0 -0.11064112310E+02 -0.19958297612E+02  0.15569954528E+02  0.27625562601E+02  0.51100000000E-03 0. -1.
        -12    1    3    3    0    0  0.57086634528E+01 -0.68330894177E+01  0.98928467320E+01  0.13309709458E+02  0.00000000000E+00 0.  1.
</event>
<event>
 7    1  0.5504027E-010  0.4778727E+02  0.7816164E-02  0.1312668E+00
        -11   -1    0    0    0    0  0.00000000000E+00  0.00000000000E+00  0.45593999997E+02  0.45594000000E+02  0.51100000000E-03 0. -1.
         11   -1    0    0    0    0 -0.00000000000E+00 -0.00000000000E+00 -0.45593999997E+02  0.45594000000E+02  0.51100000000E-03 0.  1.
    9900012    2    1    2    0    0 -0.99134439389E+01  0.20786147045E+02 -0.36786996897E+02  0.47787269357E+02  0.19999992306E+02 0.  0.
         12    1    1    2    0    0  0.99134439389E+01 -0.20786147045E+02  0.36786996897E+02  0.43400730643E+02  0.00000000000E+00 0. -1.
         11    1    3    3    0    0  0.11077098781E+01 -0.68895662448E+00  0.15678549569E+01  0.20395714823E+01  0.51100000000E-03 0. -1.
        -11    1    3    3    0    0 -0.81079939846E+01  0.10234424444E+02 -0.16949550698E+02  0.21395566814E+02  0.51100000000E-03 0.  1.
         12    1    3    3    0    0 -0.29131598324E+01  0.11240679225E+02 -0.21405301156E+02  0.24352131061E+02  0.00000000000E+00 0. -1.
</event>
<event>
 7    1  0.5504027E-010  0.4778727E+02  0.7816164E-02  0.1312668E+00
        -11   -1    0    0    0    0  0.00000000000E+00  0.00000000000E+00  0.45593999997E+02  0.45594000000E+02  0.51100000000E-03 0.  1.
         11   -1    0    0    0    0 -0.00000000000E+00 -0.00000000000E+00 -0.45593999997E+02  0.45594000000E+02  0.51100000000E-03 0. -1.
    9900012    2    1    2    0    0  0.37908481967E+02  0.10480782716E+02 -0.18350026434E+02  0.47787270957E+02  0.19999999600E+02 0.  0.
         12    1    1    2    0    0 -0.37908481967E+02 -0.10480782716E+02  0.18350026434E+02  0.43400729043E+02  0.00000000000E+00 0. -1.
         11    1    3    3    0    0  0.67031790419E+01  0.10700106764E+02 -0.31390998455E+01  0.13010720277E+02  0.51100000000E-03 0. -1.
        -11    1    3    3    0    0  0.23092200695E+02  0.71342048210E+00 -0.11475877688E+02  0.25796404220E+02  0.51100000000E-03 0.  1.
         12    1    3    3    0    0  0.81131022301E+01 -0.93274453002E+00 -0.37350489008E+01  0.89801464602E+01  0.00000000000E+00 0. -1.
</event>
<event>
 7    1  0.5504027E-010  0.4778727E+02  0.7816164E-02  0.1312668E+00
        -11   -1    0    0    0    0  0.00000000000E+00  0.00000000000E+00  0.45593999997E+02  0.45594000000E+02  0.51100000000E-03 0.  1.
         11   -1    0    0    0    0 -0.00000000000E+00 -0.00000000000E+00 -0.45593999997E+02  0.45594000000E+02  0.51100000000E-03 0. -1.
    9900012    2    1    2    0    0 -0.10996608836E+02  0.20295431560E+02  0.36753139065E+02  0.47787272135E+02  0.20000004971E+02 0.  0.
         12    1    1    2    0    0  0.10996608836E+02 -0.20295431560E+02 -0.36753139065E+02  0.43400727865E+02  0.00000000000E+00 0. -1.
         11    1    3    3    0    0 -0.16258664240E+01  0.10363539972E+01  0.73725290874E+01  0.76204761427E+01  0.51100000000E-03 0. -1.
        -11    1    3    3    0    0  0.20448720571E+00  0.17476954036E+02  0.20964892484E+02  0.27294916276E+02  0.51100000000E-03 0.  1.
        -12    1    3    3    0    0 -0.95752296174E+01  0.17821235268E+01  0.84157174938E+01  0.12871879716E+02  0.00000000000E+00 0.  1.
</event>
<event>
 7    1  0.5504027E-010  0.4778727E+02  0.7816164E-02  0.1312668E+00
        -11   -1    0    0    0    0  0.00000000000E+00  0.00000000000E+00  0.45593999997E+02  0.45594000000E+02  0.51100000000E-03 0.  1.
         11   -1    0    0    0    0 -0.00000000000E+00 -0.00000000000E+00 -0.45593999997E+02  0.45594000000E+02  0.51100000000E-03 0. -1.
    9900012    2    1    2    0    0 -0.36694234752E+02 -0.41191233045E+01  0.22807653979E+02  0.47787272808E+02  0.20000008039E+02 0.  0.
         12    1    1    2    0    0  0.36694234752E+02  0.41191233045E+01 -0.22807653979E+02  0.43400727192E+02  0.00000000000E+00 0. -1.
         11    1    3    3    0    0 -0.15327818692E+01  0.39659333325E+00 -0.11493742934E+01  0.19564682615E+01  0.51100000000E-03 0. -1.
        -11    1    3    3    0    0 -0.19655952276E+02 -0.33145476600E+01  0.36698346070E+01  0.20268457573E+02  0.51100000000E-03 0.  1.
        -12    1    3    3    0    0 -0.15505500606E+02 -0.12011689777E+01  0.20287193666E+02  0.25562346973E+02  0.00000000000E+00 0.  1.
</event>
<event>
 7    1  0.5504027E-010  0.4778727E+02  0.7816164E-02  0.1312668E+00
        -11   -1    0    0    0    0  0.00000000000E+00  0.00000000000E+00  0.45593999997E+02  0.45594000000E+02  0.51100000000E-03 0.  1.
         11   -1    0    0    0    0 -0.00000000000E+00 -0.00000000000E+00 -0.45593999997E+02  0.45594000000E+02  0.51100000000E-03 0. -1.
    9900012    2    1    2    0    0  0.32192056514E+02  0.29055997280E+02 -0.17446522363E+01  0.47787270836E+02  0.19999999049E+02 0.  0.
         12    1    1    2    0    0 -0.32192056514E+02 -0.29055997280E+02  0.17446522363E+01  0.43400729164E+02  0.00000000000E+00 0. -1.
         11    1    3    3    0    0  0.22252230223E+02  0.12872518038E+02 -0.50249118640E+01  0.26193762807E+02  0.51100000000E-03 0. -1.
        -11    1    3    3    0    0  0.55319306749E+01  0.84277850039E+01 -0.31894215632E+01  0.10573657231E+02  0.51100000000E-03 0.  1.
         12    1    3    3    0    0  0.44078956166E+01  0.77556942388E+01  0.64696811909E+01  0.11019850798E+02  0.00000000000E+00 0. -1.
</event>
<event>
 7    1  0.5504027E-010  0.4778727E+02  0.7816164E-02  0.1312668E+00
        -11   -1    0    0    0    0  0.00000000000E+00  0.00000000000E+00  0.45593999997E+02  0.45594000000E+02  0.51100000000E-03 0.  1.
         11   -1    0    0    0    0 -0.00000000000E+00 -0.00000000000E+00 -0.45593999997E+02  0.45594000000E+02  0.51100000000E-03 0. -1.
    9900012    2    1    2    0    0  0.50432285515E+01 -0.37820164567E+02 -0.20683922280E+02  0.47787266792E+02  0.19999980611E+02 0.  0.
         12    1    1    2    0    0 -0.50432285515E+01  0.37820164567E+02  0.20683922280E+02  0.43400733208E+02  0.00000000000E+00 0. -1.
         11    1    3    3    0    0 -0.56877203137E+01 -0.36628432640E+01 -0.59835119708E+01  0.90315557303E+01  0.51100000000E-03 0. -1.
        -11    1    3    3    0    0  0.51896362153E+01 -0.14233237465E+02 -0.54430777310E+01  0.16097964723E+02  0.51100000000E-03 0.  1.
         12    1    3    3    0    0  0.55413126500E+01 -0.19924083839E+02 -0.92573325777E+01  0.22657746339E+02  0.00000000000E+00 0. -1.
</event>
<event>
 7    1  0.5504027E-010  0.4778727E+02  0.7816164E-02  0.1312668E+00
        -11   -1    0    0    0    0  0.00000000000E+00  0.00000000000E+00  0.45593999997E+02  0.45594000000E+02  0.51100000000E-03 0.  1.
         11   -1    0    0    0    0 -0.00000000000E+00 -0.00000000000E+00 -0.45593999997E+02  0.45594000000E+02  0.51100000000E-03 0. -1.
    9900012    2    1    2    0    0 -0.77546773796E+01  0.39721177914E+02  0.15675347528E+02  0.47787268252E+02  0.19999987268E+02 0.  0.
         12    1    1    2    0    0  0.77546773796E+01 -0.39721177914E+02 -0.15675347528E+02  0.43400731748E+02  0.00000000000E+00 0. -1.
         11    1    3    3    0    0 -0.62036480263E+01  0.43890969369E+01  0.38463705749E+01  0.85172758330E+01  0.51100000000E-03 0. -1.
        -11    1    3    3    0    0 -0.27609823874E+01  0.24334763241E+02  0.21763298074E+01  0.24587397940E+02  0.51100000000E-03 0.  1.
        -12    1    3    3    0    0  0.12099530341E+01  0.10997317736E+02  0.96526471456E+01  0.14682594479E+02  0.00000000000E+00 0.  1.
</event>
<event>
 7    1  0.5504027E-010  0.4778728E+02  0.7816164E-02  0.1312668E+00
        -11   -1    0    0    0    0  0.00000000000E+00  0.00000000000E+00  0.45593999997E+02  0.45594000000E+02  0.51100000000E-03 0.  1.
         11   -1    0    0    0    0 -0.00000000000E+00 -0.00000000000E+00 -0.45593999997E+02  0.45594000000E+02  0.51100000000E-03 0. -1.
    9900012    2    1    2    0    0  0.13905334521E+02 -0.37809509441E+02  0.16146373024E+02  0.47787277724E+02  0.20000030453E+02 0.  0.
         12    1    1    2    0    0 -0.13905334521E+02  0.37809509441E+02 -0.16146373024E+02  0.43400722276E+02  0.00000000000E+00 0. -1.
         11    1    3    3    0    0  0.11069453571E+02 -0.15001913258E+02  0.56838565983E+01  0.19490931991E+02  0.51100000000E-03 0. -1.
        -11    1    3    3    0    0 -0.36380973158E+00 -0.78079654277E+01  0.10335935895E+02  0.12958713390E+02  0.51100000000E-03 0.  1.
        -12    1    3    3    0    0  0.31996906810E+01 -0.14999630755E+02  0.12658053020E+00  0.15337632343E+02  0.00000000000E+00 0.  1.
</event>
<event>
 7    1  0.5504027E-010  0.4778728E+02  0.7816164E-02  0.1312668E+00
        -11   -1    0    0    0    0  0.00000000000E+00  0.00000000000E+00  0.45593999997E+02  0.45594000000E+02  0.51100000000E-03 0.  1.
         11   -1    0    0    0    0 -0.00000000000E+00 -0.00000000000E+00 -0.45593999997E+02  0.45594000000E+02  0.51100000000E-03 0. -1.
    9900012    2    1    2    0    0  0.35655751750E+02 -0.70507661918E+01  0.23718701584E+02  0.47787277177E+02  0.20000027959E+02 0.  0.
         12    1    1    2    0    0 -0.35655751750E+02  0.70507661918E+01 -0.23718701584E+02  0.43400722823E+02  0.00000000000E+00 0. -1.
         11    1    3    3    0    0  0.84234295566E-01 -0.17559767353E+01  0.65079242334E+01  0.67411889011E+01  0.51100000000E-03 0. -1.
        -11    1    3    3    0    0  0.25748617958E+02 -0.22680036525E+00  0.14913677451E+02  0.29756689005E+02  0.51100000000E-03 0.  1.
         12    1    3    3    0    0  0.98228994967E+01 -0.50679890912E+01  0.22970998995E+01  0.11289399271E+02  0.00000000000E+00 0. -1.
</event>
<event>
 7    1  0.5504027E-010  0.4778727E+02  0.7816164E-02  0.1312668E+00
        -11   -1    0    0    0    0  0.00000000000E+00  0.00000000000E+00  0.45593999997E+02  0.45594000000E+02  0.51100000000E-03 0.  1.
         11   -1    0    0    0    0 -0.00000000000E+00 -0.00000000000E+00 -0.45593999997E+02  0.45594000000E+02  0.51100000000E-03 0. -1.
    9900012    2    1    2    0    0  0.28807487537E+02 -0.31821205101E+02  0.64158327806E+01  0.47787270253E+02  0.19999996393E+02 0.  0.
         12    1    1    2    0    0 -0.28807487537E+02  0.31821205101E+02 -0.64158327806E+01  0.43400729747E+02  0.00000000000E+00 0. -1.
         11    1    3    3    0    0  0.10197728816E+02 -0.39545037281E+01  0.72642227367E+00  0.10961727160E+02  0.51100000000E-03 0. -1.
        -11    1    3    3    0    0 -0.43654292745E+00 -0.79891237436E+01 -0.19901951046E+01  0.82448495883E+01  0.51100000000E-03 0.  1.
        -12    1    3    3    0    0  0.19046301648E+02 -0.19877577629E+02  0.76796056115E+01  0.28580693505E+02  0.00000000000E+00 0.  1.
</event>
<event>
 7    1  0.5504027E-010  0.4778727E+02  0.7816164E-02  0.1312668E+00
        -11   -1    0    0    0    0  0.00000000000E+00  0.00000000000E+00  0.45593999997E+02  0.45594000000E+02  0.51100000000E-03 0. -1.
         11   -1    0    0    0    0 -0.00000000000E+00 -0.00000000000E+00 -0.45593999997E+02  0.45594000000E+02  0.51100000000E-03 0.  1.
    9900012    2    1    2    0    0 -0.19672962609E+02 -0.15427330037E+02 -0.35476687993E+02  0.47787270043E+02  0.19999995433E+02 0.  0.
         12    1    1    2    0    0  0.19672962609E+02  0.15427330037E+02  0.35476687993E+02  0.43400729957E+02  0.00000000000E+00 0. -1.
         11    1    3    3    0    0 -0.13516212090E+02 -0.69370472530E+00 -0.24561805096E+02  0.28043742357E+02  0.51100000000E-03 0. -1.
        -11    1    3    3    0    0 -0.63306900083E+01 -0.11233250579E+02 -0.79113194283E+01  0.15127872616E+02  0.51100000000E-03 0.  1.
         12    1    3    3    0    0  0.17393948879E+00 -0.35003747327E+01 -0.30035634681E+01  0.46156550697E+01  0.00000000000E+00 0. -1.
</event>
<event>
 7    1  0.5504027E-010  0.4778727E+02  0.7816164E-02  0.1312668E+00
        -11   -1    0    0    0    0  0.00000000000E+00  0.00000000000E+00  0.45593999997E+02  0.45594000000E+02  0.51100000000E-03 0.  1.
         11   -1    0    0    0    0 -0.00000000000E+00 -0.00000000000E+00 -0.45593999997E+02  0.45594000000E+02  0.51100000000E-03 0. -1.
    9900012    2    1    2    0    0  0.26478109604E+02  0.64775500607E+01  0.33772392758E+02  0.47787268951E+02  0.19999990456E+02 0.  0.
         12    1    1    2    0    0 -0.26478109604E+02 -0.64775500607E+01 -0.33772392758E+02  0.43400731049E+02  0.00000000000E+00 0. -1.
         11    1    3    3    0    0  0.15041469328E+02  0.46710159841E+01  0.79484765309E+01  0.17642065335E+02  0.51100000000E-03 0. -1.
        -11    1    3    3    0    0  0.40929091998E+01 -0.43457386750E+01  0.10142046264E+02  0.11768536572E+02  0.51100000000E-03 0.  1.
         12    1    3    3    0    0  0.73437310762E+01  0.61522727517E+01  0.15681869963E+02  0.18376667044E+02  0.00000000000E+00 0. -1.
</event>
<event>
 7    1  0.5504027E-010  0.4778727E+02  0.7816164E-02  0.1312668E+00
        -11   -1    0    0    0    0  0.00000000000E+00  0.00000000000E+00  0.45593999997E+02  0.45594000000E+02  0.51100000000E-03 0.  1.
         11   -1    0    0    0    0 -0.00000000000E+00 -0.00000000000E+00 -0.45593999997E+02  0.45594000000E+02  0.51100000000E-03 0. -1.
    9900012    2    1    2    0    0  0.22386900856E+02  0.54196857196E+01  0.36784191765E+02  0.47787273197E+02  0.20000009814E+02 0.  0.
         12    1    1    2    0    0 -0.22386900856E+02 -0.54196857196E+01 -0.36784191765E+02  0.43400726803E+02  0.00000000000E+00 0. -1.
         11    1    3    3    0    0 -0.85948486611E+00  0.53470946738E+01  0.47658969857E+01  0.72141465209E+01  0.51100000000E-03 0. -1.
        -11    1    3    3    0    0  0.18255181658E+02 -0.47498936883E+00  0.30083213605E+02  0.35192002121E+02  0.51100000000E-03 0.  1.
         12    1    3    3    0    0  0.49912040640E+01  0.54758041464E+00  0.19350811749E+01  0.53811245546E+01  0.00000000000E+00 0. -1.
</event>
<event>
 7    1  0.5504027E-010  0.4778728E+02  0.7816164E-02  0.1312668E+00
        -11   -1    0    0    0    0  0.00000000000E+00  0.00000000000E+00  0.45593999997E+02  0.45594000000E+02  0.51100000000E-03 0.  1.
         11   -1    0    0    0    0 -0.00000000000E+00 -0.00000000000E+00 -0.45593999997E+02  0.45594000000E+02  0.51100000000E-03 0. -1.
    9900012    2    1    2    0    0  0.28029673213E+02 -0.29239933647E+02  0.15588023423E+02  0.47787276799E+02  0.20000026239E+02 0.  0.
         12    1    1    2    0    0 -0.28029673213E+02  0.29239933647E+02 -0.15588023423E+02  0.43400723201E+02  0.00000000000E+00 0. -1.
         11    1    3    3    0    0  0.21208364924E+01  0.72692691799E+00  0.59396884986E+01  0.63487219102E+01  0.51100000000E-03 0. -1.
        -11    1    3    3    0    0  0.19079237331E+02 -0.25489065907E+02  0.96596974955E+01  0.33271903071E+02  0.51100000000E-03 0.  1.
         12    1    3    3    0    0  0.68295993896E+01 -0.44777946575E+01 -0.11362571245E-01  0.81666518185E+01  0.00000000000E+00 0. -1.
</event>
<event>
 7    1  0.5504027E-010  0.4778727E+02  0.7816164E-02  0.1312668E+00
        -11   -1    0    0    0    0  0.00000000000E+00  0.00000000000E+00  0.45593999997E+02  0.45594000000E+02  0.51100000000E-03 0.  1.
         11   -1    0    0    0    0 -0.00000000000E+00 -0.00000000000E+00 -0.45593999997E+02  0.45594000000E+02  0.51100000000E-03 0. -1.
    9900012    2    1    2    0    0  0.21786549399E+02 -0.17406959814E+02  0.33256085124E+02  0.47787272097E+02  0.20000004800E+02 0.  0.
         12    1    1    2    0    0 -0.21786549399E+02  0.17406959814E+02 -0.33256085124E+02  0.43400727903E+02  0.00000000000E+00 0. -1.
         11    1    3    3    0    0  0.88774840166E+01 -0.11421961200E+02  0.61251154542E+01  0.15709486297E+02  0.51100000000E-03 0. -1.
        -11    1    3    3    0    0  0.32227564060E+01 -0.57355003103E+01  0.63250480874E+01  0.91262454619E+01  0.51100000000E-03 0.  1.
         12    1    3    3    0    0  0.96863089764E+01 -0.24949830371E+00  0.20805921583E+02  0.22951540338E+02  0.00000000000E+00 0. -1.
</event>
<event>
 7    1  0.5504027E-010  0.4778727E+02  0.7816164E-02  0.1312668E+00
        -11   -1    0    0    0    0  0.00000000000E+00  0.00000000000E+00  0.45593999997E+02  0.45594000000E+02  0.51100000000E-03 0.  1.
         11   -1    0    0    0    0 -0.00000000000E+00 -0.00000000000E+00 -0.45593999997E+02  0.45594000000E+02  0.51100000000E-03 0. -1.
    9900012    2    1    2    0    0 -0.49631023854E+01  0.43114307120E+02  0.38401636175E+00  0.47787270371E+02  0.19999996929E+02 0.  0.
         12    1    1    2    0    0  0.49631023854E+01 -0.43114307120E+02 -0.38401636175E+00  0.43400729629E+02  0.00000000000E+00 0. -1.
         11    1    3    3    0    0 -0.30413326808E+01  0.47364080351E+01  0.54051243953E+01  0.78037577833E+01  0.51100000000E-03 0. -1.
        -11    1    3    3    0    0 -0.15044993742E+01  0.26338234444E+02 -0.80118634608E+01  0.27570927956E+02  0.51100000000E-03 0.  1.
        -12    1    3    3    0    0 -0.41727033040E+00  0.12039664642E+02  0.29907554272E+01  0.12412584632E+02  0.00000000000E+00 0.  1.
</event>
<event>
 7    1  0.5504027E-010  0.4778727E+02  0.7816164E-02  0.1312668E+00
        -11   -1    0    0    0    0  0.00000000000E+00  0.00000000000E+00  0.45593999997E+02  0.45594000000E+02  0.51100000000E-03 0.  1.
         11   -1    0    0    0    0 -0.00000000000E+00 -0.00000000000E+00 -0.45593999997E+02  0.45594000000E+02  0.51100000000E-03 0. -1.
    9900012    2    1    2    0    0 -0.40545956868E+02 -0.14465113540E+01  0.15412862686E+02  0.47787270172E+02  0.19999996023E+02 0.  0.
         12    1    1    2    0    0  0.40545956868E+02  0.14465113540E+01 -0.15412862686E+02  0.43400729828E+02  0.00000000000E+00 0. -1.
         11    1    3    3    0    0 -0.12895105430E+02  0.80466973003E+01  0.30149013247E+01  0.15495893384E+02  0.51100000000E-03 0. -1.
        -11    1    3    3    0    0 -0.26910064828E+02 -0.91365298159E+01  0.10630374265E+02  0.30341928472E+02  0.51100000000E-03 0.  1.
        -12    1    3    3    0    0 -0.74078660918E+00 -0.35667883836E+00  0.17675870968E+01  0.19494483165E+01  0.00000000000E+00 0.  1.
</event>
<event>
 7    1  0.5504027E-010  0.4778727E+02  0.7816164E-02  0.1312668E+00
        -11   -1    0    0    0    0  0.00000000000E+00  0.00000000000E+00  0.45593999997E+02  0.45594000000E+02  0.51100000000E-03 0. -1.
         11   -1    0    0    0    0 -0.00000000000E+00 -0.00000000000E+00 -0.45593999997E+02  0.45594000000E+02  0.51100000000E-03 0.  1.
    9900012    2    1    2    0    0 -0.32765539314E+02 -0.25015917816E+02 -0.13573737659E+02  0.47787273454E+02  0.20000010984E+02 0.  0.
         12    1    1    2    0    0  0.32765539314E+02  0.25015917816E+02  0.13573737659E+02  0.43400726546E+02  0.00000000000E+00 0. -1.
         11    1    3    3    0    0  0.21235221195E+00 -0.27229356507E+01  0.31928683493E+01  0.42016521247E+01  0.51100000000E-03 0. -1.
        -11    1    3    3    0    0 -0.20390434575E+02 -0.10509811481E+02 -0.10644678598E+02  0.25289032055E+02  0.51100000000E-03 0.  1.
         12    1    3    3    0    0 -0.12587456951E+02 -0.11783170684E+02 -0.61219274105E+01  0.18296589274E+02  0.00000000000E+00 0. -1.
</event>
<event>
 7    1  0.5504027E-010  0.4778727E+02  0.7816164E-02  0.1312668E+00
        -11   -1    0    0    0    0  0.00000000000E+00  0.00000000000E+00  0.45593999997E+02  0.45594000000E+02  0.51100000000E-03 0. -1.
         11   -1    0    0    0    0 -0.00000000000E+00 -0.00000000000E+00 -0.45593999997E+02  0.45594000000E+02  0.51100000000E-03 0.  1.
    9900012    2    1    2    0    0 -0.11622819547E+02 -0.24392005068E+02 -0.33964144240E+02  0.47787274897E+02  0.20000017566E+02 0.  0.
         12    1    1    2    0    0  0.11622819547E+02  0.24392005068E+02  0.33964144240E+02  0.43400725103E+02  0.00000000000E+00 0. -1.
         11    1    3    3    0    0 -0.39156407201E+01 -0.16046254191E+02 -0.24468676548E+02  0.29521697920E+02  0.51100000000E-03 0. -1.
        -11    1    3    3    0    0  0.18704358225E+01 -0.48102576756E+01 -0.47224337356E+01  0.69956050289E+01  0.51100000000E-03 0.  1.
         12    1    3    3    0    0 -0.95776146498E+01 -0.35354932012E+01 -0.47730339572E+01  0.11269971948E+02  0.00000000000E+00 0. -1.
</event>
<event>
 7    1  0.5504027E-010  0.4778727E+02  0.7816164E-02  0.1312668E+00
        -11   -1    0    0    0    0  0.00000000000E+00  0.00000000000E+00  0.45593999997E+02  0.45594000000E+02  0.51100000000E-03 0. -1.
         11   -1    0    0    0    0 -0.00000000000E+00 -0.00000000000E+00 -0.45593999997E+02  0.45594000000E+02  0.51100000000E-03 0.  1.
    9900012    2    1    2    0    0  0.73066758681E+01  0.11517454791E+01 -0.42765747583E+02  0.47787271939E+02  0.20000004078E+02 0.  0.
         12    1    1    2    0    0 -0.73066758681E+01 -0.11517454791E+01  0.42765747583E+02  0.43400728061E+02  0.00000000000E+00 0. -1.
         11    1    3    3    0    0 -0.20596570431E+01  0.23439792120E+01  0.16935980042E+00  0.31249173885E+01  0.51100000000E-03 0. -1.
        -11    1    3    3    0    0  0.22078956029E+01 -0.33270433505E+01 -0.23581410563E+02  0.23917084790E+02  0.51100000000E-03 0.  1.
         12    1    3    3    0    0  0.71584373083E+01  0.21348096176E+01 -0.19353696820E+02  0.20745269760E+02  0.00000000000E+00 0. -1.
</event>
<event>
 7    1  0.5504027E-010  0.4778727E+02  0.7816164E-02  0.1312668E+00
        -11   -1    0    0    0    0  0.00000000000E+00  0.00000000000E+00  0.45593999997E+02  0.45594000000E+02  0.51100000000E-03 0. -1.
         11   -1    0    0    0    0 -0.00000000000E+00 -0.00000000000E+00 -0.45593999997E+02  0.45594000000E+02  0.51100000000E-03 0.  1.
    9900012    2    1    2    0    0 -0.36669157039E+02  0.42798258520E+01 -0.22818405018E+02  0.47787267346E+02  0.19999983139E+02 0.  0.
         12    1    1    2    0    0  0.36669157039E+02 -0.42798258520E+01  0.22818405018E+02  0.43400732654E+02  0.00000000000E+00 0. -1.
         11    1    3    3    0    0 -0.43135775595E+01  0.33514274114E+00  0.18723583992E+01  0.47143396415E+01  0.51100000000E-03 0. -1.
        -11    1    3    3    0    0 -0.22070431242E+02 -0.12876852407E+01 -0.22071929677E+02  0.31239912747E+02  0.51100000000E-03 0.  1.
        -12    1    3    3    0    0 -0.10285148238E+02  0.52323683516E+01 -0.26188337404E+01  0.11833014958E+02  0.00000000000E+00 0.  1.
</event>
<event>
 7    1  0.5504027E-010  0.4778730E+02  0.7816164E-02  0.1312668E+00
        -11   -1    0    0    0    0  0.00000000000E+00  0.00000000000E+00  0.45593999997E+02  0.45594000000E+02  0.51100000000E-03 0. -1.
         11   -1    0    0    0    0 -0.00000000000E+00 -0.00000000000E+00 -0.45593999997E+02  0.45594000000E+02  0.51100000000E-03 0.  1.
    9900012    2    1    2    0    0 -0.11528481679E+02  0.41724199852E+02  0.31314228891E+01  0.47787302397E+02  0.20000142949E+02 0.  0.
         12    1    1    2    0    0  0.11528481679E+02 -0.41724199852E+02 -0.31314228891E+01  0.43400697603E+02  0.00000000000E+00 0. -1.
         11    1    3    3    0    0 -0.11913856829E+01  0.30634106037E+01  0.65188710299E+01  0.73006550485E+01  0.51100000000E-03 0. -1.
        -11    1    3    3    0    0 -0.67871790126E+01  0.26822924423E+02  0.14442889598E-01  0.27668308268E+02  0.51100000000E-03 0.  1.
         12    1    3    3    0    0 -0.35499169831E+01  0.11837864825E+02 -0.34018910303E+01  0.12818339081E+02  0.00000000000E+00 0. -1.
</event>
<event>
 7    1  0.5504027E-010  0.4778727E+02  0.7816164E-02  0.1312668E+00
        -11   -1    0    0    0    0  0.00000000000E+00  0.00000000000E+00  0.45593999997E+02  0.45594000000E+02  0.51100000000E-03 0. -1.
         11   -1    0    0    0    0 -0.00000000000E+00 -0.00000000000E+00 -0.45593999997E+02  0.45594000000E+02  0.51100000000E-03 0.  1.
    9900012    2    1    2    0    0 -0.30554917663E+01  0.42449249370E+02 -0.85057778139E+01  0.47787273528E+02  0.20000011326E+02 0.  0.
         12    1    1    2    0    0  0.30554917663E+01 -0.42449249370E+02  0.85057778139E+01  0.43400726472E+02  0.00000000000E+00 0. -1.
         11    1    3    3    0    0 -0.15666210791E+01 -0.48206539400E+00 -0.16700638132E+01  0.23400431728E+01  0.51100000000E-03 0. -1.
        -11    1    3    3    0    0 -0.30191209436E+01  0.42551927318E+02 -0.81064415335E+01  0.43422298469E+02  0.51100000000E-03 0.  1.
        -12    1    3    3    0    0  0.15302502564E+01  0.37938744611E+00  0.12707275327E+01  0.20249318863E+01  0.00000000000E+00 0.  1.
</event>
<event>
 7    1  0.5504027E-010  0.4778727E+02  0.7816164E-02  0.1312668E+00
        -11   -1    0    0    0    0  0.00000000000E+00  0.00000000000E+00  0.45593999997E+02  0.45594000000E+02  0.51100000000E-03 0. -1.
         11   -1    0    0    0    0 -0.00000000000E+00 -0.00000000000E+00 -0.45593999997E+02  0.45594000000E+02  0.51100000000E-03 0.  1.
    9900012    2    1    2    0    0 -0.27475165430E+02  0.27849379389E+02 -0.18792298907E+02  0.47787272518E+02  0.20000006717E+02 0.  0.
         12    1    1    2    0    0  0.27475165430E+02 -0.27849379389E+02  0.18792298907E+02  0.43400727482E+02  0.00000000000E+00 0. -1.
         11    1    3    3    0    0 -0.84337731555E+01  0.15182172318E+01 -0.10022270972E+02  0.13186334930E+02  0.51100000000E-03 0. -1.
        -11    1    3    3    0    0 -0.10028631776E+02  0.19876556345E+02 -0.72361037249E+01  0.23409659220E+02  0.51100000000E-03 0.  1.
        -12    1    3    3    0    0 -0.90127604991E+01  0.64546058120E+01 -0.15339242101E+01  0.11191278367E+02  0.00000000000E+00 0.  1.
</event>
<event>
 7    1  0.5504027E-010  0.4778727E+02  0.7816164E-02  0.1312668E+00
        -11   -1    0    0    0    0  0.00000000000E+00  0.00000000000E+00  0.45593999997E+02  0.45594000000E+02  0.51100000000E-03 0. -1.
         11   -1    0    0    0    0 -0.00000000000E+00 -0.00000000000E+00 -0.45593999997E+02  0.45594000000E+02  0.51100000000E-03 0.  1.
    9900012    2    1    2    0    0 -0.39844121740E+02  0.16676136442E+01 -0.17125664241E+02  0.47787270189E+02  0.19999996098E+02 0.  0.
         12    1    1    2    0    0  0.39844121740E+02 -0.16676136442E+01  0.17125664241E+02  0.43400729811E+02  0.00000000000E+00 0. -1.
         11    1    3    3    0    0 -0.12273108915E+01 -0.43403345330E+01 -0.17136813290E+00  0.45137748262E+01  0.51100000000E-03 0. -1.
        -11    1    3    3    0    0 -0.19984292822E+01 -0.10825802485E+01  0.68880627783E-01  0.22738611199E+01  0.51100000000E-03 0.  1.
         12    1    3    3    0    0 -0.36618381566E+02  0.70905284258E+01 -0.17023176736E+02  0.40999634243E+02  0.00000000000E+00 0. -1.
</event>
<event>
 7    1  0.5504027E-010  0.4778727E+02  0.7816164E-02  0.1312668E+00
        -11   -1    0    0    0    0  0.00000000000E+00  0.00000000000E+00  0.45593999997E+02  0.45594000000E+02  0.51100000000E-03 0.  1.
         11   -1    0    0    0    0 -0.00000000000E+00 -0.00000000000E+00 -0.45593999997E+02  0.45594000000E+02  0.51100000000E-03 0. -1.
    9900012    2    1    2    0    0 -0.32287443977E+01  0.33099848604E+02  0.27885456788E+02  0.47787268805E+02  0.19999989790E+02 0.  0.
         12    1    1    2    0    0  0.32287443977E+01 -0.33099848604E+02 -0.27885456788E+02  0.43400731195E+02  0.00000000000E+00 0. -1.
         11    1    3    3    0    0  0.56947056184E+00  0.14910623628E+01  0.97052965642E+01  0.98356670008E+01  0.51100000000E-03 0. -1.
        -11    1    3    3    0    0 -0.54529885558E+01  0.20547182457E+02  0.76589624476E+01  0.22596050477E+02  0.51100000000E-03 0.  1.
        -12    1    3    3    0    0  0.16547735963E+01  0.11061603784E+02  0.10521197776E+02  0.15355551328E+02  0.00000000000E+00 0.  1.
</event>
<event>
 7    1  0.5504027E-010  0.4778727E+02  0.7816164E-02  0.1312668E+00
        -11   -1    0    0    0    0  0.00000000000E+00  0.00000000000E+00  0.45593999997E+02  0.45594000000E+02  0.51100000000E-03 0. -1.
         11   -1    0    0    0    0 -0.00000000000E+00 -0.00000000000E+00 -0.45593999997E+02  0.45594000000E+02  0.51100000000E-03 0.  1.
    9900012    2    1    2    0    0 -0.20657571389E+02  0.51870234143E+01 -0.37815108981E+02  0.47787274950E+02  0.20000017809E+02 0.  0.
         12    1    1    2    0    0  0.20657571389E+02 -0.51870234143E+01  0.37815108981E+02  0.43400725050E+02  0.00000000000E+00 0. -1.
         11    1    3    3    0    0 -0.15818466502E+01  0.28627103014E+01 -0.22359694248E+01  0.39619324356E+01  0.51100000000E-03 0. -1.
        -11    1    3    3    0    0 -0.12955413587E+02  0.94923148646E+01 -0.24277609839E+02  0.29109261798E+02  0.51100000000E-03 0.  1.
        -12    1    3    3    0    0 -0.61203111519E+01 -0.71680017517E+01 -0.11301529717E+02  0.14716080717E+02  0.00000000000E+00 0.  1.
</event>
<event>
 7    1  0.6112751E-010  0.4778727E+02  0.7816164E-02  0.1312668E+00
        -11   -1    0    0    0    0  0.00000000000E+00  0.00000000000E+00  0.45593999997E+02  0.45594000000E+02  0.51100000000E-03 0. -1.
         11   -1    0    0    0    0 -0.00000000000E+00 -0.00000000000E+00 -0.45593999997E+02  0.45594000000E+02  0.51100000000E-03 0.  1.
    9900012    2    1    2    0    0 -0.11287952907E+02 -0.37599997281E+02 -0.18505288545E+02  0.47787269817E+02  0.19999994402E+02 0.  0.
         12    1    1    2    0    0  0.11287952907E+02  0.37599997281E+02  0.18505288545E+02  0.43400730183E+02  0.00000000000E+00 0. -1.
         11    1    3    3    0    0 -0.29615720567E+00 -0.11781135413E+02  0.22520905002E+01  0.11998115377E+02  0.51100000000E-03 0. -1.
        -11    1    3    3    0    0 -0.62312232778E+01 -0.71780150495E+01 -0.97818134541E+01  0.13639498462E+02  0.51100000000E-03 0.  1.
        -12    1    3    3    0    0 -0.47605724230E+01 -0.18640846818E+02 -0.10975565591E+02  0.22149655978E+02  0.00000000000E+00 0.  1.
</event>
<event>
 7    1  0.5504027E-010  0.4778727E+02  0.7816164E-02  0.1312668E+00
        -11   -1    0    0    0    0  0.00000000000E+00  0.00000000000E+00  0.45593999997E+02  0.45594000000E+02  0.51100000000E-03 0. -1.
         11   -1    0    0    0    0 -0.00000000000E+00 -0.00000000000E+00 -0.45593999997E+02  0.45594000000E+02  0.51100000000E-03 0.  1.
    9900012    2    1    2    0    0  0.18376509108E+02  0.17947102768E+02 -0.34983260677E+02  0.47787272905E+02  0.20000008482E+02 0.  0.
         12    1    1    2    0    0 -0.18376509108E+02 -0.17947102768E+02  0.34983260677E+02  0.43400727095E+02  0.00000000000E+00 0. -1.
         11    1    3    3    0    0  0.45041768702E+01  0.70216389939E+01 -0.25688782221E+00  0.83460778245E+01  0.51100000000E-03 0. -1.
        -11    1    3    3    0    0  0.11307519125E+02  0.81194119140E+01 -0.31559688534E+02  0.34493459949E+02  0.51100000000E-03 0.  1.
         12    1    3    3    0    0  0.25648131129E+01  0.28060518600E+01 -0.31666843209E+01  0.49477351317E+01  0.00000000000E+00 0. -1.
</event>
<event>
 7    1  0.5504027E-010  0.4778727E+02  0.7816164E-02  0.1312668E+00
        -11   -1    0    0    0    0  0.00000000000E+00  0.00000000000E+00  0.45593999997E+02  0.45594000000E+02  0.51100000000E-03 0.  1.
         11   -1    0    0    0    0 -0.00000000000E+00 -0.00000000000E+00 -0.45593999997E+02  0.45594000000E+02  0.51100000000E-03 0. -1.
    9900012    2    1    2    0    0 -0.18542875122E+02  0.35290779181E+02  0.17156520968E+02  0.47787268155E+02  0.19999986824E+02 0.  0.
         12    1    1    2    0    0  0.18542875122E+02 -0.35290779181E+02 -0.17156520968E+02  0.43400731845E+02  0.00000000000E+00 0. -1.
         11    1    3    3    0    0 -0.20765423727E+01  0.30508275234E+00  0.22415765551E+01  0.30707929635E+01  0.51100000000E-03 0. -1.
        -11    1    3    3    0    0 -0.20677273593E+01  0.17310559160E+02  0.13176027334E+02  0.21852657766E+02  0.51100000000E-03 0.  1.
        -12    1    3    3    0    0 -0.14398605390E+02  0.17675137269E+02  0.17389170788E+01  0.22863817425E+02  0.00000000000E+00 0.  1.
</event>
<event>
 7    1  0.5504027E-010  0.4778727E+02  0.7816164E-02  0.1312668E+00
        -11   -1    0    0    0    0  0.00000000000E+00  0.00000000000E+00  0.45593999997E+02  0.45594000000E+02  0.51100000000E-03 0. -1.
         11   -1    0    0    0    0 -0.00000000000E+00 -0.00000000000E+00 -0.45593999997E+02  0.45594000000E+02  0.51100000000E-03 0.  1.
    9900012    2    1    2    0    0 -0.40653059702E+02  0.14399899181E+02 -0.48574968935E+01  0.47787266877E+02  0.19999980998E+02 0.  0.
         12    1    1    2    0    0  0.40653059702E+02 -0.14399899181E+02  0.48574968935E+01  0.43400733123E+02  0.00000000000E+00 0. -1.
         11    1    3    3    0    0 -0.12446137989E+02  0.12698589956E+02 -0.44992906664E+01  0.18341323684E+02  0.51100000000E-03 0. -1.
        -11    1    3    3    0    0 -0.89079585011E+01 -0.13137630568E+01  0.32682323509E+01  0.95790939544E+01  0.51100000000E-03 0.  1.
         12    1    3    3    0    0 -0.19298963211E+02  0.30150722819E+01 -0.36264385780E+01  0.19866849238E+02  0.00000000000E+00 0. -1.
</event>
<event>
 7    1  0.5504027E-010  0.4778727E+02  0.7816164E-02  0.1312668E+00
        -11   -1    0    0    0    0  0.00000000000E+00  0.00000000000E+00  0.45593999997E+02  0.45594000000E+02  0.51100000000E-03 0. -1.
         11   -1    0    0    0    0 -0.00000000000E+00 -0.00000000000E+00 -0.45593999997E+02  0.45594000000E+02  0.51100000000E-03 0.  1.
    9900012    2    1    2    0    0  0.11358134838E+02  0.26062779524E+02 -0.32792496051E+02  0.47787268430E+02  0.19999988080E+02 0.  0.
         12    1    1    2    0    0 -0.11358134838E+02 -0.26062779524E+02  0.32792496051E+02  0.43400731570E+02  0.00000000000E+00 0. -1.
         11    1    3    3    0    0  0.11530278367E+02  0.70504041168E+01 -0.15154438321E+02  0.20305480012E+02  0.51100000000E-03 0. -1.
        -11    1    3    3    0    0  0.27810796206E+01  0.11715205324E+02 -0.14877887337E+02  0.19139800718E+02  0.51100000000E-03 0.  1.
         12    1    3    3    0    0 -0.29532231493E+01  0.72971700836E+01 -0.27601703930E+01  0.83419877006E+01  0.00000000000E+00 0. -1.
</event>
<event>
 7    1  0.5504027E-010  0.4778727E+02  0.7816164E-02  0.1312668E+00
        -11   -1    0    0    0    0  0.00000000000E+00  0.00000000000E+00  0.45593999997E+02  0.45594000000E+02  0.51100000000E-03 0.  1.
         11   -1    0    0    0    0 -0.00000000000E+00 -0.00000000000E+00 -0.45593999997E+02  0.45594000000E+02  0.51100000000E-03 0. -1.
    9900012    2    1    2    0    0  0.40640866962E+02  0.13833524752E+02 -0.63699901000E+01  0.47787271338E+02  0.20000001340E+02 0.  0.
         12    1    1    2    0    0 -0.40640866962E+02 -0.13833524752E+02  0.63699901000E+01  0.43400728662E+02  0.00000000000E+00 0. -1.
         11    1    3    3    0    0  0.13971674591E+02  0.75565709740E+01 -0.10716711028E+02  0.19161350456E+02  0.51100000000E-03 0. -1.
        -11    1    3    3    0    0  0.16754699928E+02  0.13308016789E+01  0.49750882098E+01  0.17528334368E+02  0.51100000000E-03 0.  1.
        -12    1    3    3    0    0  0.99144924433E+01  0.49461520992E+01 -0.62836728139E+00  0.11097586514E+02  0.00000000000E+00 0.  1.
</event>
<event>
 7    1  0.5504027E-010  0.4778727E+02  0.7816164E-02  0.1312668E+00
        -11   -1    0    0    0    0  0.00000000000E+00  0.00000000000E+00  0.45593999997E+02  0.45594000000E+02  0.51100000000E-03 0. -1.
         11   -1    0    0    0    0 -0.00000000000E+00 -0.00000000000E+00 -0.45593999997E+02  0.45594000000E+02  0.51100000000E-03 0.  1.
    9900012    2    1    2    0    0  0.79059594704E+01  0.38424695836E+02  0.18565072335E+02  0.47787270098E+02  0.19999995685E+02 0.  0.
         12    1    1    2    0    0 -0.79059594704E+01 -0.38424695836E+02 -0.18565072335E+02  0.43400729902E+02  0.00000000000E+00 0. -1.
         11    1    3    3    0    0 -0.31778055012E+01  0.19913288520E+01 -0.55500319755E-01  0.37505891466E+01  0.51100000000E-03 0. -1.
        -11    1    3    3    0    0  0.11521147601E+02  0.35685634590E+02  0.15123917639E+02  0.40434320115E+02  0.51100000000E-03 0.  1.
        -12    1    3    3    0    0 -0.43738262903E+00  0.74773239353E+00  0.34966550162E+01  0.36023608368E+01  0.00000000000E+00 0.  1.
</event>
<event>
 7    1  0.5504027E-010  0.4778727E+02  0.7816164E-02  0.1312668E+00
        -11   -1    0    0    0    0  0.00000000000E+00  0.00000000000E+00  0.45593999997E+02  0.45594000000E+02  0.51100000000E-03 0.  1.
         11   -1    0    0    0    0 -0.00000000000E+00 -0.00000000000E+00 -0.45593999997E+02  0.45594000000E+02  0.51100000000E-03 0. -1.
    9900012    2    1    2    0    0 -0.31222877664E+02  0.28539604751E+02  0.97080471406E+01  0.47787270649E+02  0.19999998197E+02 0.  0.
         12    1    1    2    0    0  0.31222877664E+02 -0.28539604751E+02 -0.97080471406E+01  0.43400729351E+02  0.00000000000E+00 0. -1.
         11    1    3    3    0    0  0.14585085788E+01  0.25372019401E+01  0.35432787404E+01  0.45955919588E+01  0.51100000000E-03 0. -1.
        -11    1    3    3    0    0 -0.33296468123E+02  0.25632778892E+02  0.61899724865E+01  0.42473637740E+02  0.51100000000E-03 0.  1.
        -12    1    3    3    0    0  0.61508188038E+00  0.36962391844E+00 -0.25204086255E-01  0.71804095052E+00  0.00000000000E+00 0.  1.
</event>
<event>
 7    1  0.5504027E-010  0.4778727E+02  0.7816164E-02  0.1312668E+00
        -11   -1    0    0    0    0  0.00000000000E+00  0.00000000000E+00  0.45593999997E+02  0.45594000000E+02  0.51100000000E-03 0. -1.
         11   -1    0    0    0    0 -0.00000000000E+00 -0.00000000000E+00 -0.45593999997E+02  0.45594000000E+02  0.51100000000E-03 0.  1.
    9900012    2    1    2    0    0 -0.34391602258E+02  0.57811121886E+01 -0.25834465461E+02  0.47787272245E+02  0.20000005474E+02 0.  0.
         12    1    1    2    0    0  0.34391602258E+02 -0.57811121886E+01  0.25834465461E+02  0.43400727755E+02  0.00000000000E+00 0. -1.
         11    1    3    3    0    0 -0.92656205802E+00  0.62501431866E+01 -0.37156077242E+01  0.73299759974E+01  0.51100000000E-03 0. -1.
        -11    1    3    3    0    0 -0.17937854732E+02 -0.25215241779E+01 -0.10316058103E+02  0.20845761479E+02  0.51100000000E-03 0.  1.
        -12    1    3    3    0    0 -0.15527185467E+02  0.20524931798E+01 -0.11802799634E+02  0.19611534769E+02  0.00000000000E+00 0.  1.
</event>
<event>
 7    1  0.5504027E-010  0.4778727E+02  0.7816164E-02  0.1312668E+00
        -11   -1    0    0    0    0  0.00000000000E+00  0.00000000000E+00  0.45593999997E+02  0.45594000000E+02  0.51100000000E-03 0.  1.
         11   -1    0    0    0    0 -0.00000000000E+00 -0.00000000000E+00 -0.45593999997E+02  0.45594000000E+02  0.51100000000E-03 0. -1.
    9900012    2    1    2    0    0  0.11364232048E+02 -0.35428744170E+02 -0.22344610373E+02  0.47787270786E+02  0.19999998824E+02 0.  0.
         12    1    1    2    0    0 -0.11364232048E+02  0.35428744170E+02  0.22344610373E+02  0.43400729214E+02  0.00000000000E+00 0. -1.
         11    1    3    3    0    0  0.61815513321E+01 -0.12151688261E+01 -0.44081401260E+01  0.76889473779E+01  0.51100000000E-03 0. -1.
        -11    1    3    3    0    0  0.71075270342E+01 -0.22265964826E+02 -0.14550348435E+02  0.27531850102E+02  0.51100000000E-03 0.  1.
         12    1    3    3    0    0 -0.19248463182E+01 -0.11947610518E+02 -0.33861218120E+01  0.12566473307E+02  0.00000000000E+00 0. -1.
</event>
<event>
 7    1  0.5504027E-010  0.4778727E+02  0.7816164E-02  0.1312668E+00
        -11   -1    0    0    0    0  0.00000000000E+00  0.00000000000E+00  0.45593999997E+02  0.45594000000E+02  0.51100000000E-03 0. -1.
         11   -1    0    0    0    0 -0.00000000000E+00 -0.00000000000E+00 -0.45593999997E+02  0.45594000000E+02  0.51100000000E-03 0.  1.
    9900012    2    1    2    0    0  0.15357146493E+02  0.37580127559E+02 -0.15346520671E+02  0.47787266913E+02  0.19999981165E+02 0.  0.
         12    1    1    2    0    0 -0.15357146493E+02 -0.37580127559E+02  0.15346520671E+02  0.43400733087E+02  0.00000000000E+00 0. -1.
         11    1    3    3    0    0  0.25289492627E+01  0.32520804793E+01 -0.31084261345E+01  0.51608066338E+01  0.51100000000E-03 0. -1.
        -11    1    3    3    0    0  0.12111396195E+02  0.24021581048E+02 -0.16379224156E+02  0.31496051468E+02  0.51100000000E-03 0.  1.
        -12    1    3    3    0    0  0.71680103584E+00  0.10306466032E+02  0.41411296203E+01  0.11130408812E+02  0.00000000000E+00 0.  1.
</event>
<event>
 7    1  0.5504027E-010  0.4778726E+02  0.7816164E-02  0.1312668E+00
        -11   -1    0    0    0    0  0.00000000000E+00  0.00000000000E+00  0.45593999997E+02  0.45594000000E+02  0.51100000000E-03 0. -1.
         11   -1    0    0    0    0 -0.00000000000E+00 -0.00000000000E+00 -0.45593999997E+02  0.45594000000E+02  0.51100000000E-03 0.  1.
    9900012    2    1    2    0    0 -0.22357048928E+02 -0.36886008422E+02  0.48175679014E+01  0.47787260207E+02  0.19999950587E+02 0.  0.
         12    1    1    2    0    0  0.22357048928E+02  0.36886008422E+02 -0.48175679014E+01  0.43400739793E+02  0.00000000000E+00 0. -1.
         11    1    3    3    0    0 -0.10659682766E+02 -0.11530183455E+02  0.62947169385E+01  0.16917370622E+02  0.51100000000E-03 0. -1.
        -11    1    3    3    0    0  0.15007023626E+01 -0.34018400985E+01 -0.35883505745E+01  0.51672897871E+01  0.51100000000E-03 0.  1.
        -12    1    3    3    0    0 -0.13198068525E+02 -0.21953984869E+02  0.21112015374E+01  0.25702599797E+02  0.00000000000E+00 0.  1.
</event>
<event>
 7    1  0.5504027E-010  0.4778726E+02  0.7816164E-02  0.1312668E+00
        -11   -1    0    0    0    0  0.00000000000E+00  0.00000000000E+00  0.45593999997E+02  0.45594000000E+02  0.51100000000E-03 0.  1.
         11   -1    0    0    0    0 -0.00000000000E+00 -0.00000000000E+00 -0.45593999997E+02  0.45594000000E+02  0.51100000000E-03 0. -1.
    9900012    2    1    2    0    0  0.14211931154E+02 -0.17978939767E+02  0.36856515044E+02  0.47787263100E+02  0.19999963777E+02 0.  0.
         12    1    1    2    0    0 -0.14211931154E+02  0.17978939767E+02 -0.36856515044E+02  0.43400736900E+02  0.00000000000E+00 0. -1.
         11    1    3    3    0    0 -0.12179087120E+01  0.26660061107E+00 -0.59796078303E+00  0.13827273324E+01  0.51100000000E-03 0. -1.
        -11    1    3    3    0    0  0.15533172459E+02 -0.88353771264E+01  0.26506685843E+02  0.31967917202E+02  0.51100000000E-03 0.  1.
        -12    1    3    3    0    0 -0.10333259295E+00 -0.94101632522E+01  0.10947789984E+02  0.14436618565E+02  0.00000000000E+00 0.  1.
</event>
<event>
 7    1  0.5504027E-010  0.4778727E+02  0.7816164E-02  0.1312668E+00
        -11   -1    0    0    0    0  0.00000000000E+00  0.00000000000E+00  0.45593999997E+02  0.45594000000E+02  0.51100000000E-03 0.  1.
         11   -1    0    0    0    0 -0.00000000000E+00 -0.00000000000E+00 -0.45593999997E+02  0.45594000000E+02  0.51100000000E-03 0. -1.
    9900012    2    1    2    0    0 -0.23101067949E+02  0.25379813291E+02  0.26567452280E+02  0.47787265170E+02  0.19999973218E+02 0.  0.
         12    1    1    2    0    0  0.23101067949E+02 -0.25379813291E+02 -0.26567452280E+02  0.43400734830E+02  0.00000000000E+00 0. -1.
         11    1    3    3    0    0 -0.70825533824E+01  0.20378634295E+01  0.12749252840E+01  0.74793639110E+01  0.51100000000E-03 0. -1.
        -11    1    3    3    0    0 -0.10983262332E+02  0.21188254574E+02  0.13777991239E+02  0.27557344324E+02  0.51100000000E-03 0.  1.
        -12    1    3    3    0    0 -0.50352522349E+01  0.21536952877E+01  0.11514535757E+02  0.12750556936E+02  0.00000000000E+00 0.  1.
</event>
<event>
 7    1  0.5504027E-010  0.4778727E+02  0.7816164E-02  0.1312668E+00
        -11   -1    0    0    0    0  0.00000000000E+00  0.00000000000E+00  0.45593999997E+02  0.45594000000E+02  0.51100000000E-03 0.  1.
         11   -1    0    0    0    0 -0.00000000000E+00 -0.00000000000E+00 -0.45593999997E+02  0.45594000000E+02  0.51100000000E-03 0. -1.
    9900012    2    1    2    0    0  0.28018375885E+02  0.30213377228E+02  0.13628853947E+02  0.47787271773E+02  0.20000003321E+02 0.  0.
         12    1    1    2    0    0 -0.28018375885E+02 -0.30213377228E+02 -0.13628853947E+02  0.43400728227E+02  0.00000000000E+00 0. -1.
         11    1    3    3    0    0  0.78557172288E+01  0.15169567149E+01 -0.10956246588E+01  0.80755089318E+01  0.51100000000E-03 0. -1.
        -11    1    3    3    0    0  0.13790205748E+02  0.25818389787E+02  0.88492629167E+01  0.30578889453E+02  0.51100000000E-03 0.  1.
        -12    1    3    3    0    0  0.63724529079E+01  0.28780307260E+01  0.58752156895E+01  0.91328733880E+01  0.00000000000E+00 0.  1.
</event>
<event>
 7    1  0.5504027E-010  0.4778727E+02  0.7816164E-02  0.1312668E+00
        -11   -1    0    0    0    0  0.00000000000E+00  0.00000000000E+00  0.45593999997E+02  0.45594000000E+02  0.51100000000E-03 0.  1.
         11   -1    0    0    0    0 -0.00000000000E+00 -0.00000000000E+00 -0.45593999997E+02  0.45594000000E+02  0.51100000000E-03 0. -1.
    9900012    2    1    2    0    0  0.26647819104E+02 -0.22175332331E+02  0.26110756306E+02  0.47787271644E+02  0.20000002732E+02 0.  0.
         12    1    1    2    0    0 -0.26647819104E+02  0.22175332331E+02 -0.26110756306E+02  0.43400728356E+02  0.00000000000E+00 0. -1.
         11    1    3    3    0    0  0.16695510232E+02 -0.10342330000E+02  0.22045568292E+02  0.29524751198E+02  0.51100000000E-03 0. -1.
        -11    1    3    3    0    0  0.10568291240E+02 -0.70764346244E+01  0.43906487790E+01  0.13455203592E+02  0.51100000000E-03 0.  1.
         12    1    3    3    0    0 -0.61598236742E+00 -0.47565677069E+01 -0.32546076519E+00  0.48073168542E+01  0.00000000000E+00 0. -1.
</event>
<event>
 7    1  0.5504027E-010  0.4778728E+02  0.7816164E-02  0.1312668E+00
        -11   -1    0    0    0    0  0.00000000000E+00  0.00000000000E+00  0.45593999997E+02  0.45594000000E+02  0.51100000000E-03 0.  1.
         11   -1    0    0    0    0 -0.00000000000E+00 -0.00000000000E+00 -0.45593999997E+02  0.45594000000E+02  0.51100000000E-03 0. -1.
    9900012    2    1    2    0    0  0.23268197231E+02 -0.21365302367E+02  0.29761340398E+02  0.47787279616E+02  0.20000039080E+02 0.  0.
         12    1    1    2    0    0 -0.23268197231E+02  0.21365302367E+02 -0.29761340398E+02  0.43400720384E+02  0.00000000000E+00 0. -1.
         11    1    3    3    0    0  0.10048679435E+02  0.16922802767E-01  0.72182618103E+01  0.12372532021E+02  0.51100000000E-03 0. -1.
        -11    1    3    3    0    0  0.92778164645E+01 -0.17640790988E+02  0.22392087401E+02  0.29978007997E+02  0.51100000000E-03 0.  1.
        -12    1    3    3    0    0  0.39417013312E+01 -0.37414341817E+01  0.15099118649E+00  0.54367395983E+01  0.00000000000E+00 0.  1.
</event>
<event>
 7    1  0.5504027E-010  0.4778727E+02  0.7816164E-02  0.1312668E+00
        -11   -1    0    0    0    0  0.00000000000E+00  0.00000000000E+00  0.45593999997E+02  0.45594000000E+02  0.51100000000E-03 0.  1.
         11   -1    0    0    0    0 -0.00000000000E+00 -0.00000000000E+00 -0.45593999997E+02  0.45594000000E+02  0.51100000000E-03 0. -1.
    9900012    2    1    2    0    0  0.28549229672E+02 -0.24666834157E+02 -0.21450225378E+02  0.47787269696E+02  0.19999993853E+02 0.  0.
         12    1    1    2    0    0 -0.28549229672E+02  0.24666834157E+02  0.21450225378E+02  0.43400730304E+02  0.00000000000E+00 0. -1.
         11    1    3    3    0    0  0.11843600887E+02 -0.41485755209E+01 -0.89086737527E+01  0.15389802764E+02  0.51100000000E-03 0. -1.
        -11    1    3    3    0    0  0.41059033958E+01 -0.14587878231E+02 -0.28215995392E+01  0.15415124333E+02  0.51100000000E-03 0.  1.
        -12    1    3    3    0    0  0.12599725389E+02 -0.59303804051E+01 -0.97199520857E+01  0.16982342600E+02  0.00000000000E+00 0.  1.
</event>
<event>
 7    1  0.5504027E-010  0.4778727E+02  0.7816164E-02  0.1312668E+00
        -11   -1    0    0    0    0  0.00000000000E+00  0.00000000000E+00  0.45593999997E+02  0.45594000000E+02  0.51100000000E-03 0.  1.
         11   -1    0    0    0    0 -0.00000000000E+00 -0.00000000000E+00 -0.45593999997E+02  0.45594000000E+02  0.51100000000E-03 0. -1.
    9900012    2    1    2    0    0 -0.46962115288E+01  0.43032197164E+02  0.31302955955E+01  0.47787272517E+02  0.20000006716E+02 0.  0.
         12    1    1    2    0    0  0.46962115288E+01 -0.43032197164E+02 -0.31302955955E+01  0.43400727483E+02  0.00000000000E+00 0. -1.
         11    1    3    3    0    0 -0.84503811513E+01  0.22736298931E+02 -0.29953630817E+01  0.24440139749E+02  0.51100000000E-03 0. -1.
        -11    1    3    3    0    0  0.41913546889E+01  0.20888084830E+02  0.67851367913E+01  0.22358837706E+02  0.51100000000E-03 0.  1.
        -12    1    3    3    0    0 -0.43718506643E+00 -0.59218659743E+00 -0.65947811407E+00  0.98829506293E+00  0.00000000000E+00 0.  1.
</event>
<event>
 7    1  0.5504027E-010  0.4778727E+02  0.7816164E-02  0.1312668E+00
        -11   -1    0    0    0    0  0.00000000000E+00  0.00000000000E+00  0.45593999997E+02  0.45594000000E+02  0.51100000000E-03 0. -1.
         11   -1    0    0    0    0 -0.00000000000E+00 -0.00000000000E+00 -0.45593999997E+02  0.45594000000E+02  0.51100000000E-03 0.  1.
    9900012    2    1    2    0    0 -0.32639284889E+02  0.24689583023E+02 -0.14447313335E+02  0.47787270853E+02  0.19999999127E+02 0.  0.
         12    1    1    2    0    0  0.32639284889E+02 -0.24689583023E+02  0.14447313335E+02  0.43400729147E+02  0.00000000000E+00 0. -1.
         11    1    3    3    0    0 -0.12685335993E+01  0.62665648290E+01 -0.18233506716E+01  0.66485803132E+01  0.51100000000E-03 0. -1.
        -11    1    3    3    0    0 -0.74297613915E+01 -0.19834136355E+01 -0.27705128938E+01  0.81738011929E+01  0.51100000000E-03 0.  1.
        -12    1    3    3    0    0 -0.23940989898E+02  0.20406431829E+02 -0.98534497695E+01  0.32964889347E+02  0.00000000000E+00 0.  1.
</event>
<event>
 7    1  0.5504027E-010  0.4778727E+02  0.7816164E-02  0.1312668E+00
        -11   -1    0    0    0    0  0.00000000000E+00  0.00000000000E+00  0.45593999997E+02  0.45594000000E+02  0.51100000000E-03 0.  1.
         11   -1    0    0    0    0 -0.00000000000E+00 -0.00000000000E+00 -0.45593999997E+02  0.45594000000E+02  0.51100000000E-03 0. -1.
    9900012    2    1    2    0    0 -0.10990847138E+02  0.41638703534E+02  0.53891467401E+01  0.47787271257E+02  0.20000000970E+02 0.  0.
         12    1    1    2    0    0  0.10990847138E+02 -0.41638703534E+02 -0.53891467401E+01  0.43400728743E+02  0.00000000000E+00 0. -1.
         11    1    3    3    0    0  0.43505122758E+01  0.49998892090E+01  0.29314149934E+01  0.72470023657E+01  0.51100000000E-03 0. -1.
        -11    1    3    3    0    0 -0.14974175992E+02  0.28361800091E+02  0.31491938251E+01  0.32226310261E+02  0.51100000000E-03 0.  1.
         12    1    3    3    0    0 -0.36718342203E+00  0.82770142347E+01 -0.69146207835E+00  0.83139586307E+01  0.00000000000E+00 0. -1.
</event>
<event>
 7    1  0.5504027E-010  0.4778727E+02  0.7816164E-02  0.1312668E+00
        -11   -1    0    0    0    0  0.00000000000E+00  0.00000000000E+00  0.45593999997E+02  0.45594000000E+02  0.51100000000E-03 0.  1.
         11   -1    0    0    0    0 -0.00000000000E+00 -0.00000000000E+00 -0.45593999997E+02  0.45594000000E+02  0.51100000000E-03 0. -1.
    9900012    2    1    2    0    0  0.30434775585E+02  0.30713707424E+02  0.37437597784E+01  0.47787272748E+02  0.20000007769E+02 0.  0.
         12    1    1    2    0    0 -0.30434775585E+02 -0.30713707424E+02 -0.37437597784E+01  0.43400727252E+02  0.00000000000E+00 0. -1.
         11    1    3    3    0    0  0.65092642003E+01  0.13739183399E+02  0.72648184195E+01  0.16849726046E+02  0.51100000000E-03 0. -1.
        -11    1    3    3    0    0  0.22266450755E+02  0.17479940689E+02 -0.16054942583E+01  0.28353496571E+02  0.51100000000E-03 0.  1.
         12    1    3    3    0    0  0.16590606305E+01 -0.50541666348E+00 -0.19155643828E+01  0.25840501319E+01  0.00000000000E+00 0. -1.
</event>
<event>
 7    1  0.5504027E-010  0.4778727E+02  0.7816164E-02  0.1312668E+00
        -11   -1    0    0    0    0  0.00000000000E+00  0.00000000000E+00  0.45593999997E+02  0.45594000000E+02  0.51100000000E-03 0.  1.
         11   -1    0    0    0    0 -0.00000000000E+00 -0.00000000000E+00 -0.45593999997E+02  0.45594000000E+02  0.51100000000E-03 0. -1.
    9900012    2    1    2    0    0  0.35673816735E+01  0.17574192290E+02  0.39522712016E+02  0.47787271760E+02  0.20000003264E+02 0.  0.
         12    1    1    2    0    0 -0.35673816735E+01 -0.17574192290E+02 -0.39522712016E+02  0.43400728240E+02  0.00000000000E+00 0. -1.
         11    1    3    3    0    0 -0.49210221296E+01  0.29370394159E+01  0.40711887457E+01  0.70297394970E+01  0.51100000000E-03 0. -1.
        -11    1    3    3    0    0  0.37781060525E+01  0.13783881787E+02  0.31348320551E+02  0.34452673105E+02  0.51100000000E-03 0.  1.
        -12    1    3    3    0    0  0.47102977506E+01  0.85327108676E+00  0.41032027190E+01  0.63048591578E+01  0.00000000000E+00 0.  1.
</event>
<event>
 7    1  0.5504027E-010  0.4778727E+02  0.7816164E-02  0.1312668E+00
        -11   -1    0    0    0    0  0.00000000000E+00  0.00000000000E+00  0.45593999997E+02  0.45594000000E+02  0.51100000000E-03 0.  1.
         11   -1    0    0    0    0 -0.00000000000E+00 -0.00000000000E+00 -0.45593999997E+02  0.45594000000E+02  0.51100000000E-03 0. -1.
    9900012    2    1    2    0    0  0.26391110394E+02  0.47595776730E+01  0.34124465251E+02  0.47787269405E+02  0.19999992527E+02 0.  0.
         12    1    1    2    0    0 -0.26391110394E+02 -0.47595776730E+01 -0.34124465251E+02  0.43400730595E+02  0.00000000000E+00 0. -1.
         11    1    3    3    0    0  0.12423783039E+02  0.44087749526E+01  0.47835953253E+01  0.14023924775E+02  0.51100000000E-03 0. -1.
        -11    1    3    3    0    0  0.97066050123E+01 -0.28850508875E+01  0.12465769125E+02  0.16060420282E+02  0.51100000000E-03 0.  1.
         12    1    3    3    0    0  0.42607223423E+01  0.32358536079E+01  0.16875100801E+02  0.17702924348E+02  0.00000000000E+00 0. -1.
</event>
<event>
 7    1  0.5504027E-010  0.4778726E+02  0.7816164E-02  0.1312668E+00
        -11   -1    0    0    0    0  0.00000000000E+00  0.00000000000E+00  0.45593999997E+02  0.45594000000E+02  0.51100000000E-03 0.  1.
         11   -1    0    0    0    0 -0.00000000000E+00 -0.00000000000E+00 -0.45593999997E+02  0.45594000000E+02  0.51100000000E-03 0. -1.
    9900012    2    1    2    0    0 -0.47135141869E+00  0.16878533068E+02  0.39981460833E+02  0.47787259672E+02  0.19999948148E+02 0.  0.
         12    1    1    2    0    0  0.47135141869E+00 -0.16878533068E+02 -0.39981460833E+02  0.43400740328E+02  0.00000000000E+00 0. -1.
         11    1    3    3    0    0 -0.53964590182E+01  0.58293456547E+01  0.54063663350E+01  0.96089457230E+01  0.51100000000E-03 0. -1.
        -11    1    3    3    0    0  0.10683492291E+01  0.43592327054E+01  0.26967059231E+02  0.27338005847E+02  0.51100000000E-03 0.  1.
        -12    1    3    3    0    0  0.38567583704E+01  0.66899547082E+01  0.76080352665E+01  0.10840308102E+02  0.00000000000E+00 0.  1.
</event>
<event>
 7    1  0.5504027E-010  0.4778727E+02  0.7816164E-02  0.1312668E+00
        -11   -1    0    0    0    0  0.00000000000E+00  0.00000000000E+00  0.45593999997E+02  0.45594000000E+02  0.51100000000E-03 0.  1.
         11   -1    0    0    0    0 -0.00000000000E+00 -0.00000000000E+00 -0.45593999997E+02  0.45594000000E+02  0.51100000000E-03 0. -1.
    9900012    2    1    2    0    0  0.37788981639E+02 -0.41696672979E+01  0.20933948743E+02  0.47787268800E+02  0.19999989769E+02 0.  0.
         12    1    1    2    0    0 -0.37788981639E+02  0.41696672979E+01 -0.20933948743E+02  0.43400731200E+02  0.00000000000E+00 0. -1.
         11    1    3    3    0    0  0.24320889170E+02  0.28536529643E+01  0.16740839861E+02  0.29663187704E+02  0.51100000000E-03 0. -1.
        -11    1    3    3    0    0  0.37970692510E+01 -0.64197373495E+01  0.39300709428E+01  0.84306714092E+01  0.51100000000E-03 0.  1.
         12    1    3    3    0    0  0.96710232174E+01 -0.60358291278E+00  0.26303793982E+00  0.96934096871E+01  0.00000000000E+00 0. -1.
</event>
<event>
 7    1  0.5504027E-010  0.4778728E+02  0.7816164E-02  0.1312668E+00
        -11   -1    0    0    0    0  0.00000000000E+00  0.00000000000E+00  0.45593999997E+02  0.45594000000E+02  0.51100000000E-03 0.  1.
         11   -1    0    0    0    0 -0.00000000000E+00 -0.00000000000E+00 -0.45593999997E+02  0.45594000000E+02  0.51100000000E-03 0. -1.
    9900012    2    1    2    0    0  0.14717306699E+02  0.11452384290E+02  0.39190132143E+02  0.47787277889E+02  0.20000031207E+02 0.  0.
         12    1    1    2    0    0 -0.14717306699E+02 -0.11452384290E+02 -0.39190132143E+02  0.43400722111E+02  0.00000000000E+00 0. -1.
         11    1    3    3    0    0 -0.11374810358E+00  0.79231735727E+00 -0.18790445859E-01  0.80066145635E+00  0.51100000000E-03 0. -1.
        -11    1    3    3    0    0  0.94934830767E+01  0.15808998406E+02  0.26829018846E+02  0.32555289955E+02  0.51100000000E-03 0.  1.
        -12    1    3    3    0    0  0.53375717263E+01 -0.51489314730E+01  0.12379903742E+02  0.14431326478E+02  0.00000000000E+00 0.  1.
</event>
<event>
 7    1  0.5504027E-010  0.4778727E+02  0.7816164E-02  0.1312668E+00
        -11   -1    0    0    0    0  0.00000000000E+00  0.00000000000E+00  0.45593999997E+02  0.45594000000E+02  0.51100000000E-03 0.  1.
         11   -1    0    0    0    0 -0.00000000000E+00 -0.00000000000E+00 -0.45593999997E+02  0.45594000000E+02  0.51100000000E-03 0. -1.
    9900012    2    1    2    0    0  0.19808944924E+02  0.33182985961E+02  0.19751417242E+02  0.47787270290E+02  0.19999996561E+02 0.  0.
         12    1    1    2    0    0 -0.19808944924E+02 -0.33182985961E+02 -0.19751417242E+02  0.43400729710E+02  0.00000000000E+00 0. -1.
         11    1    3    3    0    0  0.95555022816E+01  0.44310362015E+01  0.12358203202E+02  0.16237822893E+02  0.51100000000E-03 0. -1.
        -11    1    3    3    0    0  0.75350706339E+01  0.17219741307E+02  0.38946168058E+01  0.19195437491E+02  0.51100000000E-03 0.  1.
         12    1    3    3    0    0  0.27183720086E+01  0.11532208452E+02  0.34985972349E+01  0.12354009906E+02  0.00000000000E+00 0. -1.
</event>
<event>
 7    1  0.5504027E-010  0.4778734E+02  0.7816164E-02  0.1312667E+00
        -11   -1    0    0    0    0  0.00000000000E+00  0.00000000000E+00  0.45593999997E+02  0.45594000000E+02  0.51100000000E-03 0.  1.
         11   -1    0    0    0    0 -0.00000000000E+00 -0.00000000000E+00 -0.45593999997E+02  0.45594000000E+02  0.51100000000E-03 0. -1.
    9900012    2    1    2    0    0 -0.30243115752E+02  0.24163326559E+02  0.19624099389E+02  0.47787335516E+02  0.20000293949E+02 0.  0.
         12    1    1    2    0    0  0.30243115752E+02 -0.24163326559E+02 -0.19624099389E+02  0.43400664484E+02  0.00000000000E+00 0. -1.
         11    1    3    3    0    0  0.38765342254E+00  0.46580689055E+01 -0.20257569286E+01  0.50942685931E+01  0.51100000000E-03 0. -1.
        -11    1    3    3    0    0 -0.28141615966E+02  0.15999706490E+02  0.20192689387E+02  0.38153451507E+02  0.51100000000E-03 0.  1.
         12    1    3    3    0    0 -0.24891532090E+01  0.35055511638E+01  0.14571669303E+01  0.45396154158E+01  0.00000000000E+00 0. -1.
</event>
<event>
 7    1  0.5504027E-010  0.4778727E+02  0.7816164E-02  0.1312668E+00
        -11   -1    0    0    0    0  0.00000000000E+00  0.00000000000E+00  0.45593999997E+02  0.45594000000E+02  0.51100000000E-03 0.  1.
         11   -1    0    0    0    0 -0.00000000000E+00 -0.00000000000E+00 -0.45593999997E+02  0.45594000000E+02  0.51100000000E-03 0. -1.
    9900012    2    1    2    0    0  0.21261791397E+02  0.36813569361E+02  0.87361665757E+01  0.47787271101E+02  0.20000000259E+02 0.  0.
         12    1    1    2    0    0 -0.21261791397E+02 -0.36813569361E+02 -0.87361665757E+01  0.43400728899E+02  0.00000000000E+00 0. -1.
         11    1    3    3    0    0  0.18746938344E+02  0.22061123303E+02  0.36399890868E+01  0.29178594542E+02  0.51100000000E-03 0. -1.
        -11    1    3    3    0    0 -0.42613491931E+00  0.13225689790E+02  0.90174437716E+00  0.13263242612E+02  0.51100000000E-03 0.  1.
         12    1    3    3    0    0  0.29409879727E+01  0.15267562676E+01  0.41944331117E+01  0.53454339473E+01  0.00000000000E+00 0. -1.
</event>
<event>
 7    1  0.5504027E-010  0.4778727E+02  0.7816164E-02  0.1312668E+00
        -11   -1    0    0    0    0  0.00000000000E+00  0.00000000000E+00  0.45593999997E+02  0.45594000000E+02  0.51100000000E-03 0. -1.
         11   -1    0    0    0    0 -0.00000000000E+00 -0.00000000000E+00 -0.45593999997E+02  0.45594000000E+02  0.51100000000E-03 0.  1.
    9900012    2    1    2    0    0 -0.10117197040E+02  0.39350653563E+02 -0.15257510733E+02  0.47787271370E+02  0.20000001486E+02 0.  0.
         12    1    1    2    0    0  0.10117197040E+02 -0.39350653563E+02  0.15257510733E+02  0.43400728630E+02  0.00000000000E+00 0. -1.
         11    1    3    3    0    0  0.32738800955E+01  0.44480895601E+01 -0.12213777602E+01  0.56564613947E+01  0.51100000000E-03 0. -1.
        -11    1    3    3    0    0 -0.15464157744E+02  0.25665711419E+02 -0.84257104100E+01  0.31126540341E+02  0.51100000000E-03 0.  1.
        -12    1    3    3    0    0  0.20730806087E+01  0.92368525837E+01 -0.56104225632E+01  0.11004269635E+02  0.00000000000E+00 0.  1.
</event>
<event>
 7    1  0.5504027E-010  0.4778727E+02  0.7816164E-02  0.1312668E+00
        -11   -1    0    0    0    0  0.00000000000E+00  0.00000000000E+00  0.45593999997E+02  0.45594000000E+02  0.51100000000E-03 0. -1.
         11   -1    0    0    0    0 -0.00000000000E+00 -0.00000000000E+00 -0.45593999997E+02  0.45594000000E+02  0.51100000000E-03 0.  1.
    9900012    2    1    2    0    0 -0.79363050711E-01 -0.30278404070E+02 -0.31093974115E+02  0.47787270999E+02  0.19999999793E+02 0.  0.
         12    1    1    2    0    0  0.79363050711E-01  0.30278404070E+02  0.31093974115E+02  0.43400729001E+02  0.00000000000E+00 0. -1.
         11    1    3    3    0    0  0.32281479132E+01 -0.35074355498E+01 -0.10718783799E+02  0.11730957739E+02  0.51100000000E-03 0. -1.
        -11    1    3    3    0    0 -0.86090407574E+00 -0.16300686001E+02 -0.45890879335E+01  0.16956215623E+02  0.51100000000E-03 0.  1.
        -12    1    3    3    0    0 -0.24466068881E+01 -0.10470282520E+02 -0.15786102383E+02  0.19100097637E+02  0.00000000000E+00 0.  1.
</event>
<event>
 7    1  0.5504027E-010  0.4778725E+02  0.7816164E-02  0.1312668E+00
        -11   -1    0    0    0    0  0.00000000000E+00  0.00000000000E+00  0.45593999997E+02  0.45594000000E+02  0.51100000000E-03 0.  1.
         11   -1    0    0    0    0 -0.00000000000E+00 -0.00000000000E+00 -0.45593999997E+02  0.45594000000E+02  0.51100000000E-03 0. -1.
    9900012    2    1    2    0    0  0.99408537858E+01 -0.87391279509E+01  0.41333183447E+02  0.47787251329E+02  0.19999910108E+02 0.  0.
         12    1    1    2    0    0 -0.99408537858E+01  0.87391279509E+01 -0.41333183447E+02  0.43400748671E+02  0.00000000000E+00 0. -1.
         11    1    3    3    0    0  0.13535279804E+02 -0.28866571944E+01  0.34416707156E+02  0.37095098340E+02  0.51100000000E-03 0. -1.
        -11    1    3    3    0    0 -0.29649027977E+01 -0.54216823752E+01  0.75100991337E+01  0.97255785245E+01  0.51100000000E-03 0.  1.
         12    1    3    3    0    0 -0.62952322079E+00 -0.43078838130E+00 -0.59362284257E+00  0.96657446387E+00  0.00000000000E+00 0. -1.
</event>
<event>
 7    1  0.5504027E-010  0.4778727E+02  0.7816164E-02  0.1312668E+00
        -11   -1    0    0    0    0  0.00000000000E+00  0.00000000000E+00  0.45593999997E+02  0.45594000000E+02  0.51100000000E-03 0.  1.
         11   -1    0    0    0    0 -0.00000000000E+00 -0.00000000000E+00 -0.45593999997E+02  0.45594000000E+02  0.51100000000E-03 0. -1.
    9900012    2    1    2    0    0  0.25211369116E+01  0.28753270031E+02  0.32411669133E+02  0.47787274605E+02  0.20000016236E+02 0.  0.
         12    1    1    2    0    0 -0.25211369116E+01 -0.28753270031E+02 -0.32411669133E+02  0.43400725395E+02  0.00000000000E+00 0. -1.
         11    1    3    3    0    0  0.39506881495E+01  0.31600900139E+01  0.10001900140E+02  0.11208573166E+02  0.51100000000E-03 0.  1.
        -11    1    3    3    0    0 -0.48116972333E+01  0.24791743226E+02  0.18252616082E+02  0.31159925490E+02  0.51100000000E-03 0. -1.
         12    1    3    3    0    0  0.33821459954E+01  0.80143679133E+00  0.41571529108E+01  0.54187759493E+01  0.00000000000E+00 0. -1.
</event>
<event>
 7    1  0.5504027E-010  0.4778727E+02  0.7816164E-02  0.1312668E+00
        -11   -1    0    0    0    0  0.00000000000E+00  0.00000000000E+00  0.45593999997E+02  0.45594000000E+02  0.51100000000E-03 0.  1.
         11   -1    0    0    0    0 -0.00000000000E+00 -0.00000000000E+00 -0.45593999997E+02  0.45594000000E+02  0.51100000000E-03 0. -1.
    9900012    2    1    2    0    0  0.39666956321E+02 -0.30596789914E+01  0.17343411382E+02  0.47787274456E+02  0.20000015557E+02 0.  0.
         12    1    1    2    0    0 -0.39666956321E+02  0.30596789914E+01 -0.17343411382E+02  0.43400725544E+02  0.00000000000E+00 0. -1.
         11    1    3    3    0    0  0.31959018606E+01 -0.17371282829E+01 -0.85510684069E+00  0.37366577772E+01  0.51100000000E-03 0. -1.
        -11    1    3    3    0    0  0.19459125158E+02 -0.49179785277E+01  0.18027270993E+01  0.20151771386E+02  0.51100000000E-03 0.  1.
        -12    1    3    3    0    0  0.17011929303E+02  0.35954278191E+01  0.16395791124E+02  0.23898845294E+02  0.00000000000E+00 0.  1.
</event>
<event>
 7    1  0.5504027E-010  0.4778727E+02  0.7816164E-02  0.1312668E+00
        -11   -1    0    0    0    0  0.00000000000E+00  0.00000000000E+00  0.45593999997E+02  0.45594000000E+02  0.51100000000E-03 0.  1.
         11   -1    0    0    0    0 -0.00000000000E+00 -0.00000000000E+00 -0.45593999997E+02  0.45594000000E+02  0.51100000000E-03 0. -1.
    9900012    2    1    2    0    0 -0.29290134590E+02 -0.13873769850E+02  0.28865714801E+02  0.47787274601E+02  0.20000016218E+02 0.  0.
         12    1    1    2    0    0  0.29290134590E+02  0.13873769850E+02 -0.28865714801E+02  0.43400725399E+02  0.00000000000E+00 0. -1.
         11    1    3    3    0    0 -0.85686401898E+00 -0.85412988609E+00  0.55708052290E+01  0.57006688177E+01  0.51100000000E-03 0. -1.
        -11    1    3    3    0    0 -0.19610412493E+02 -0.93799449823E+00  0.16542861467E+02  0.25673222969E+02  0.51100000000E-03 0.  1.
        -12    1    3    3    0    0 -0.88228580781E+01 -0.12081645465E+02  0.67520481048E+01  0.16413382815E+02  0.00000000000E+00 0.  1.
</event>
<event>
 7    1  0.5504027E-010  0.4778729E+02  0.7816164E-02  0.1312668E+00
        -11   -1    0    0    0    0  0.00000000000E+00  0.00000000000E+00  0.45593999997E+02  0.45594000000E+02  0.51100000000E-03 0.  1.
         11   -1    0    0    0    0 -0.00000000000E+00 -0.00000000000E+00 -0.45593999997E+02  0.45594000000E+02  0.51100000000E-03 0. -1.
    9900012    2    1    2    0    0  0.36364740853E+01  0.42740509793E+02 -0.66065294310E+01  0.47787293183E+02  0.20000100937E+02 0.  0.
         12    1    1    2    0    0 -0.36364740853E+01 -0.42740509793E+02  0.66065294310E+01  0.43400706817E+02  0.00000000000E+00 0. -1.
         11    1    3    3    0    0  0.59742451987E+00  0.25828089098E+02 -0.60942977047E+01  0.26544068401E+02  0.51100000000E-03 0. -1.
        -11    1    3    3    0    0  0.10325073939E+01 -0.12362906948E+01  0.22593934915E+01  0.27747694338E+01  0.51100000000E-03 0.  1.
         12    1    3    3    0    0  0.20065421715E+01  0.18148711389E+02 -0.27716252178E+01  0.18468455348E+02  0.00000000000E+00 0. -1.
</event>
<event>
 7    1  0.5504027E-010  0.4778727E+02  0.7816164E-02  0.1312668E+00
        -11   -1    0    0    0    0  0.00000000000E+00  0.00000000000E+00  0.45593999997E+02  0.45594000000E+02  0.51100000000E-03 0.  1.
         11   -1    0    0    0    0 -0.00000000000E+00 -0.00000000000E+00 -0.45593999997E+02  0.45594000000E+02  0.51100000000E-03 0. -1.
    9900012    2    1    2    0    0 -0.21550118369E+02 -0.34473102839E+02  0.15192795286E+02  0.47787269019E+02  0.19999990766E+02 0.  0.
         12    1    1    2    0    0  0.21550118369E+02  0.34473102839E+02 -0.15192795286E+02  0.43400730981E+02  0.00000000000E+00 0. -1.
         11    1    3    3    0    0  0.11808522185E+01 -0.40246329318E+01  0.69223378244E+01  0.80938769088E+01  0.51100000000E-03 0. -1.
        -11    1    3    3    0    0 -0.49292391141E+01 -0.12110360674E+02  0.46670862601E+01  0.13883080649E+02  0.51100000000E-03 0.  1.
         12    1    3    3    0    0 -0.17801731474E+02 -0.18338109233E+02  0.36033712012E+01  0.25810311461E+02  0.00000000000E+00 0. -1.
</event>
<event>
 7    1  0.5504027E-010  0.4778727E+02  0.7816164E-02  0.1312668E+00
        -11   -1    0    0    0    0  0.00000000000E+00  0.00000000000E+00  0.45593999997E+02  0.45594000000E+02  0.51100000000E-03 0.  1.
         11   -1    0    0    0    0 -0.00000000000E+00 -0.00000000000E+00 -0.45593999997E+02  0.45594000000E+02  0.51100000000E-03 0. -1.
    9900012    2    1    2    0    0 -0.24640802172E+02 -0.34783138141E+02  0.81600922378E+01  0.47787274938E+02  0.20000017750E+02 0.  0.
         12    1    1    2    0    0  0.24640802172E+02  0.34783138141E+02 -0.81600922378E+01  0.43400725062E+02  0.00000000000E+00 0. -1.
         11    1    3    3    0    0 -0.35700432475E+01 -0.91878870625E+00 -0.26248076070E+01  0.45253725494E+01  0.51100000000E-03 0.  1.
        -11    1    3    3    0    0 -0.21534679668E+02 -0.26328350980E+02  0.66640002085E+01  0.34660256675E+02  0.51100000000E-03 0. -1.
        -12    1    3    3    0    0  0.46392074315E+00 -0.75359984544E+01  0.41208996363E+01  0.86016457131E+01  0.00000000000E+00 0.  1.
</event>
<event>
 7    1  0.5504027E-010  0.4778727E+02  0.7816164E-02  0.1312668E+00
        -11   -1    0    0    0    0  0.00000000000E+00  0.00000000000E+00  0.45593999997E+02  0.45594000000E+02  0.51100000000E-03 0.  1.
         11   -1    0    0    0    0 -0.00000000000E+00 -0.00000000000E+00 -0.45593999997E+02  0.45594000000E+02  0.51100000000E-03 0. -1.
    9900012    2    1    2    0    0  0.33288618936E+01  0.29965830059E+02  0.31218440869E+02  0.47787270249E+02  0.19999996372E+02 0.  0.
         12    1    1    2    0    0 -0.33288618936E+01 -0.29965830059E+02 -0.31218440869E+02  0.43400729751E+02  0.00000000000E+00 0. -1.
         11    1    3    3    0    0  0.26689798290E+01  0.88482577638E+01  0.19160684520E-01  0.92420498903E+01  0.51100000000E-03 0. -1.
        -11    1    3    3    0    0 -0.10242463159E+01  0.20620411364E+02  0.30004080073E+02  0.36421082721E+02  0.51100000000E-03 0.  1.
        -12    1    3    3    0    0  0.16841283805E+01  0.49716093179E+00  0.11952001120E+01  0.21241376372E+01  0.00000000000E+00 0.  1.
</event>
<event>
 7    1  0.5504027E-010  0.4778727E+02  0.7816164E-02  0.1312668E+00
        -11   -1    0    0    0    0  0.00000000000E+00  0.00000000000E+00  0.45593999997E+02  0.45594000000E+02  0.51100000000E-03 0.  1.
         11   -1    0    0    0    0 -0.00000000000E+00 -0.00000000000E+00 -0.45593999997E+02  0.45594000000E+02  0.51100000000E-03 0. -1.
    9900012    2    1    2    0    0 -0.42292773429E+01  0.62519460671E+01  0.42739322192E+02  0.47787270998E+02  0.19999999788E+02 0.  0.
         12    1    1    2    0    0  0.42292773429E+01 -0.62519460671E+01 -0.42739322192E+02  0.43400729002E+02  0.00000000000E+00 0. -1.
         11    1    3    3    0    0 -0.68154827681E+01 -0.29919318851E+01  0.26217923257E+02  0.27254026527E+02  0.51100000000E-03 0.  1.
        -11    1    3    3    0    0  0.42287908559E+01  0.95099985607E+01  0.15130444050E+02  0.18364451588E+02  0.51100000000E-03 0. -1.
         12    1    3    3    0    0 -0.16425854307E+01 -0.26612060848E+00  0.13909548856E+01  0.21687928830E+01  0.00000000000E+00 0. -1.
</event>
<event>
 7    1  0.5504027E-010  0.4778728E+02  0.7816164E-02  0.1312668E+00
        -11   -1    0    0    0    0  0.00000000000E+00  0.00000000000E+00  0.45593999997E+02  0.45594000000E+02  0.51100000000E-03 0.  1.
         11   -1    0    0    0    0 -0.00000000000E+00 -0.00000000000E+00 -0.45593999997E+02  0.45594000000E+02  0.51100000000E-03 0. -1.
    9900012    2    1    2    0    0 -0.13381683373E+02 -0.38969947388E+02  0.13634385573E+02  0.47787277433E+02  0.20000029130E+02 0.  0.
         12    1    1    2    0    0  0.13381683373E+02  0.38969947388E+02 -0.13634385573E+02  0.43400722567E+02  0.00000000000E+00 0. -1.
         11    1    3    3    0    0  0.18180700864E+01  0.83736655924E+00 -0.42309892560E+00  0.20458676780E+01  0.51100000000E-03 0. -1.
        -11    1    3    3    0    0 -0.78209106246E+01 -0.20111240771E+02  0.11782911624E+02  0.24585883245E+02  0.51100000000E-03 0.  1.
        -12    1    3    3    0    0 -0.73788428345E+01 -0.19696073177E+02  0.22745728740E+01  0.21155526510E+02  0.00000000000E+00 0.  1.
</event>
<event>
 7    1  0.5504027E-010  0.4778727E+02  0.7816164E-02  0.1312668E+00
        -11   -1    0    0    0    0  0.00000000000E+00  0.00000000000E+00  0.45593999997E+02  0.45594000000E+02  0.51100000000E-03 0.  1.
         11   -1    0    0    0    0 -0.00000000000E+00 -0.00000000000E+00 -0.45593999997E+02  0.45594000000E+02  0.51100000000E-03 0. -1.
    9900012    2    1    2    0    0 -0.15671938375E+02 -0.78952734223E+01  0.39694817239E+02  0.47787268319E+02  0.19999987574E+02 0.  0.
         12    1    1    2    0    0  0.15671938375E+02  0.78952734223E+01 -0.39694817239E+02  0.43400731681E+02  0.00000000000E+00 0. -1.
         11    1    3    3    0    0  0.15316494934E+01 -0.99588714825E+00  0.11504465984E+02  0.11648625637E+02  0.51100000000E-03 0. -1.
        -11    1    3    3    0    0  0.12020795445E+01 -0.20187011097E+01  0.82027290886E+01  0.85325795727E+01  0.51100000000E-03 0.  1.
        -12    1    3    3    0    0 -0.18405667412E+02 -0.48806851644E+01  0.19987622166E+02  0.27606063110E+02  0.00000000000E+00 0.  1.
</event>
<event>
 7    1  0.5504027E-010  0.4778727E+02  0.7816164E-02  0.1312668E+00
        -11   -1    0    0    0    0  0.00000000000E+00  0.00000000000E+00  0.45593999997E+02  0.45594000000E+02  0.51100000000E-03 0.  1.
         11   -1    0    0    0    0 -0.00000000000E+00 -0.00000000000E+00 -0.45593999997E+02  0.45594000000E+02  0.51100000000E-03 0. -1.
    9900012    2    1    2    0    0  0.24864473841E+02 -0.17150660611E+02  0.31164660840E+02  0.47787270697E+02  0.19999998417E+02 0.  0.
         12    1    1    2    0    0 -0.24864473841E+02  0.17150660611E+02 -0.31164660840E+02  0.43400729303E+02  0.00000000000E+00 0. -1.
         11    1    3    3    0    0  0.10968589648E+01 -0.31056155368E+01  0.99020975532E+01  0.10435491539E+02  0.51100000000E-03 0. -1.
        -11    1    3    3    0    0  0.23325468586E+02 -0.13435420239E+02  0.23033215860E+02  0.35427630952E+02  0.51100000000E-03 0.  1.
        -12    1    3    3    0    0  0.44214629003E+00 -0.60962483455E+00 -0.17706525737E+01  0.19241482057E+01  0.00000000000E+00 0.  1.
</event>
<event>
 7    1  0.5504027E-010  0.4778728E+02  0.7816164E-02  0.1312668E+00
        -11   -1    0    0    0    0  0.00000000000E+00  0.00000000000E+00  0.45593999997E+02  0.45594000000E+02  0.51100000000E-03 0.  1.
         11   -1    0    0    0    0 -0.00000000000E+00 -0.00000000000E+00 -0.45593999997E+02  0.45594000000E+02  0.51100000000E-03 0. -1.
    9900012    2    1    2    0    0 -0.20220475034E+02 -0.13502343512E+02  0.35950549405E+02  0.47787275428E+02  0.20000019984E+02 0.  0.
         12    1    1    2    0    0  0.20220475034E+02  0.13502343512E+02 -0.35950549405E+02  0.43400724572E+02  0.00000000000E+00 0. -1.
         11    1    3    3    0    0  0.26720098105E+01 -0.50065944543E+01  0.54023911533E+01  0.78352699310E+01  0.51100000000E-03 0. -1.
        -11    1    3    3    0    0 -0.15452634845E+01 -0.52290095856E+00  0.69833614561E+01  0.71713737970E+01  0.51100000000E-03 0.  1.
         12    1    3    3    0    0 -0.21347221361E+02 -0.79728480989E+01  0.23564796795E+02  0.32780631700E+02  0.00000000000E+00 0. -1.
</event>
<event>
 7    1  0.5504027E-010  0.4778729E+02  0.7816164E-02  0.1312668E+00
        -11   -1    0    0    0    0  0.00000000000E+00  0.00000000000E+00  0.45593999997E+02  0.45594000000E+02  0.51100000000E-03 0.  1.
         11   -1    0    0    0    0 -0.00000000000E+00 -0.00000000000E+00 -0.45593999997E+02  0.45594000000E+02  0.51100000000E-03 0. -1.
    9900012    2    1    2    0    0 -0.43104151823E+02 -0.29795096575E-01  0.50649032090E+01  0.47787285298E+02  0.20000064989E+02 0.  0.
         12    1    1    2    0    0  0.43104151823E+02  0.29795096575E-01 -0.50649032090E+01  0.43400714702E+02  0.00000000000E+00 0. -1.
         11    1    3    3    0    0 -0.27768722066E+02 -0.50949387661E+00 -0.64203631928E+00  0.27780815685E+02  0.51100000000E-03 0. -1.
        -11    1    3    3    0    0 -0.12563058405E+02 -0.50538773459E+00  0.90959938118E+01  0.15518471475E+02  0.51100000000E-03 0.  1.
        -12    1    3    3    0    0 -0.27723713516E+01  0.98508651462E+00 -0.33890542835E+01  0.44879981383E+01  0.00000000000E+00 0.  1.
</event>
<event>
 7    1  0.5504027E-010  0.4778727E+02  0.7816164E-02  0.1312668E+00
        -11   -1    0    0    0    0  0.00000000000E+00  0.00000000000E+00  0.45593999997E+02  0.45594000000E+02  0.51100000000E-03 0.  1.
         11   -1    0    0    0    0 -0.00000000000E+00 -0.00000000000E+00 -0.45593999997E+02  0.45594000000E+02  0.51100000000E-03 0. -1.
    9900012    2    1    2    0    0  0.92505403365E+01 -0.15504128527E+02  0.39467360536E+02  0.47787273675E+02  0.20000011994E+02 0.  0.
         12    1    1    2    0    0 -0.92505403365E+01  0.15504128527E+02 -0.39467360536E+02  0.43400726325E+02  0.00000000000E+00 0. -1.
         11    1    3    3    0    0  0.11216870320E+02 -0.74460933116E+01  0.34552916094E+02  0.37083237402E+02  0.51100000000E-03 0. -1.
        -11    1    3    3    0    0 -0.20914579607E+01 -0.56868097511E+01  0.55809131009E+01  0.82377541143E+01  0.51100000000E-03 0.  1.
         12    1    3    3    0    0  0.12512797707E+00 -0.23712254639E+01 -0.66646865914E+00  0.24662821584E+01  0.00000000000E+00 0. -1.
</event>
<event>
 7    1  0.5504027E-010  0.4778733E+02  0.7816164E-02  0.1312667E+00
        -11   -1    0    0    0    0  0.00000000000E+00  0.00000000000E+00  0.45593999997E+02  0.45594000000E+02  0.51100000000E-03 0. -1.
         11   -1    0    0    0    0 -0.00000000000E+00 -0.00000000000E+00 -0.45593999997E+02  0.45594000000E+02  0.51100000000E-03 0.  1.
    9900012    2    1    2    0    0  0.14092122296E+02  0.36073356425E+02 -0.19589360516E+02  0.47787331802E+02  0.20000277017E+02 0.  0.
         12    1    1    2    0    0 -0.14092122296E+02 -0.36073356425E+02  0.19589360516E+02  0.43400668198E+02  0.00000000000E+00 0. -1.
         11    1    3    3    0    0  0.42128123029E+01  0.30084254117E+01 -0.15639201171E+01  0.54077959790E+01  0.51100000000E-03 0. -1.
        -11    1    3    3    0    0 -0.17093437304E+01 -0.11516812889E+01 -0.19539961071E+01  0.28401279597E+01  0.51100000000E-03 0.  1.
        -12    1    3    3    0    0  0.11588653724E+02  0.34216612302E+02 -0.16071444292E+02  0.39539407864E+02  0.00000000000E+00 0.  1.
</event>
<event>
 7    1  0.5504027E-010  0.4778727E+02  0.7816164E-02  0.1312668E+00
        -11   -1    0    0    0    0  0.00000000000E+00  0.00000000000E+00  0.45593999997E+02  0.45594000000E+02  0.51100000000E-03 0.  1.
         11   -1    0    0    0    0 -0.00000000000E+00 -0.00000000000E+00 -0.45593999997E+02  0.45594000000E+02  0.51100000000E-03 0. -1.
    9900012    2    1    2    0    0 -0.16224836620E+02  0.20173361909E+00  0.40253413418E+02  0.47787270610E+02  0.19999998017E+02 0.  0.
         12    1    1    2    0    0  0.16224836620E+02 -0.20173361909E+00 -0.40253413418E+02  0.43400729390E+02  0.00000000000E+00 0. -1.
         11    1    3    3    0    0 -0.13740333032E+02 -0.44423759227E+01  0.23163966735E+02  0.27296534777E+02  0.51100000000E-03 0.  1.
        -11    1    3    3    0    0  0.15812589019E+01  0.10858896950E+01  0.14266357412E+02  0.14394738282E+02  0.51100000000E-03 0. -1.
         12    1    3    3    0    0 -0.40657624894E+01  0.35582198468E+01  0.28230892714E+01  0.60959975503E+01  0.00000000000E+00 0. -1.
</event>
<event>
 7    1  0.5504027E-010  0.4778727E+02  0.7816164E-02  0.1312668E+00
        -11   -1    0    0    0    0  0.00000000000E+00  0.00000000000E+00  0.45593999997E+02  0.45594000000E+02  0.51100000000E-03 0. -1.
         11   -1    0    0    0    0 -0.00000000000E+00 -0.00000000000E+00 -0.45593999997E+02  0.45594000000E+02  0.51100000000E-03 0.  1.
    9900012    2    1    2    0    0 -0.30151012230E+02  0.27239386800E+02 -0.15249780078E+02  0.47787268160E+02  0.19999986851E+02 0.  0.
         12    1    1    2    0    0  0.30151012230E+02 -0.27239386800E+02  0.15249780078E+02  0.43400731840E+02  0.00000000000E+00 0. -1.
         11    1    3    3    0    0 -0.76031685028E+01  0.18299108496E+01 -0.76296668286E+00  0.78574081872E+01  0.51100000000E-03 0. -1.
        -11    1    3    3    0    0 -0.13406153586E+02  0.99477232010E+01 -0.14277523044E+02  0.21966561301E+02  0.51100000000E-03 0.  1.
        -12    1    3    3    0    0 -0.91416901420E+01  0.15461752750E+02 -0.20929035143E+00  0.17963298673E+02  0.00000000000E+00 0.  1.
</event>
<event>
 7    1  0.5504027E-010  0.4778727E+02  0.7816164E-02  0.1312668E+00
        -11   -1    0    0    0    0  0.00000000000E+00  0.00000000000E+00  0.45593999997E+02  0.45594000000E+02  0.51100000000E-03 0.  1.
         11   -1    0    0    0    0 -0.00000000000E+00 -0.00000000000E+00 -0.45593999997E+02  0.45594000000E+02  0.51100000000E-03 0. -1.
    9900012    2    1    2    0    0 -0.25724533907E+02  0.15901601388E+02  0.31128937748E+02  0.47787270320E+02  0.19999996697E+02 0.  0.
         12    1    1    2    0    0  0.25724533907E+02 -0.15901601388E+02 -0.31128937748E+02  0.43400729680E+02  0.00000000000E+00 0. -1.
         11    1    3    3    0    0 -0.54670842079E+01  0.79825433855E+01  0.30175289484E+01  0.10134865063E+02  0.51100000000E-03 0. -1.
        -11    1    3    3    0    0 -0.16144620365E+02  0.65983299751E+01  0.28394796962E+02  0.33323433496E+02  0.51100000000E-03 0.  1.
        -12    1    3    3    0    0 -0.41128293343E+01  0.13207280272E+01 -0.28338816195E+00  0.43289717608E+01  0.00000000000E+00 0.  1.
</event>
<event>
 7    1  0.5504027E-010  0.4778726E+02  0.7816164E-02  0.1312668E+00
        -11   -1    0    0    0    0  0.00000000000E+00  0.00000000000E+00  0.45593999997E+02  0.45594000000E+02  0.51100000000E-03 0.  1.
         11   -1    0    0    0    0 -0.00000000000E+00 -0.00000000000E+00 -0.45593999997E+02  0.45594000000E+02  0.51100000000E-03 0. -1.
    9900012    2    1    2    0    0  0.27430118818E+01  0.33589582730E+02  0.27346658075E+02  0.47787263946E+02  0.19999967636E+02 0.  0.
         12    1    1    2    0    0 -0.27430118818E+01 -0.33589582730E+02 -0.27346658075E+02  0.43400736054E+02  0.00000000000E+00 0. -1.
         11    1    3    3    0    0  0.15470576546E+00  0.38905682549E+01 -0.24274005715E+01  0.45883252952E+01  0.51100000000E-03 0. -1.
        -11    1    3    3    0    0 -0.11436840324E+01  0.23942028443E+02  0.19782055115E+02  0.31078263207E+02  0.51100000000E-03 0.  1.
         12    1    3    3    0    0  0.37319901487E+01  0.57569860319E+01  0.99920035318E+01  0.12120675444E+02  0.00000000000E+00 0. -1.
</event>
<event>
 7    1  0.5504027E-010  0.4778727E+02  0.7816164E-02  0.1312668E+00
        -11   -1    0    0    0    0  0.00000000000E+00  0.00000000000E+00  0.45593999997E+02  0.45594000000E+02  0.51100000000E-03 0.  1.
         11   -1    0    0    0    0 -0.00000000000E+00 -0.00000000000E+00 -0.45593999997E+02  0.45594000000E+02  0.51100000000E-03 0. -1.
    9900012    2    1    2    0    0 -0.15479007629E+02 -0.36108307632E+02  0.18444887896E+02  0.47787269053E+02  0.19999990921E+02 0.  0.
         12    1    1    2    0    0  0.15479007629E+02  0.36108307632E+02 -0.18444887896E+02  0.43400730947E+02  0.00000000000E+00 0. -1.
         11    1    3    3    0    0 -0.56508109600E+01 -0.19387508839E+02  0.64691822597E-01  0.20194339523E+02  0.51100000000E-03 0.  1.
        -11    1    3    3    0    0 -0.48960857135E+01 -0.11086490438E+02  0.15243970309E+02  0.19474613131E+02  0.51100000000E-03 0. -1.
         12    1    3    3    0    0 -0.49321109554E+01 -0.56343083549E+01  0.31362257649E+01  0.81183163995E+01  0.00000000000E+00 0. -1.
</event>
<event>
 7    1  0.5504027E-010  0.4778727E+02  0.7816164E-02  0.1312668E+00
        -11   -1    0    0    0    0  0.00000000000E+00  0.00000000000E+00  0.45593999997E+02  0.45594000000E+02  0.51100000000E-03 0. -1.
         11   -1    0    0    0    0 -0.00000000000E+00 -0.00000000000E+00 -0.45593999997E+02  0.45594000000E+02  0.51100000000E-03 0.  1.
    9900012    2    1    2    0    0  0.21947235703E+02 -0.37432790236E+02 -0.85331661432E+00  0.47787273174E+02  0.20000009707E+02 0.  0.
         12    1    1    2    0    0 -0.21947235703E+02  0.37432790236E+02  0.85331661432E+00  0.43400726826E+02  0.00000000000E+00 0. -1.
         11    1    3    3    0    0  0.65054232640E+01 -0.15426610188E+02 -0.83613089779E+01  0.18713960613E+02  0.51100000000E-03 0. -1.
        -11    1    3    3    0    0  0.14056374380E+02 -0.22479397767E+02  0.76721167094E+01  0.27600115212E+02  0.51100000000E-03 0.  1.
         12    1    3    3    0    0  0.13854380595E+01  0.47321771936E+00 -0.16412434581E+00  0.14731973484E+01  0.00000000000E+00 0. -1.
</event>
<event>
 7    1  0.5504027E-010  0.4778727E+02  0.7816164E-02  0.1312668E+00
        -11   -1    0    0    0    0  0.00000000000E+00  0.00000000000E+00  0.45593999997E+02  0.45594000000E+02  0.51100000000E-03 0.  1.
         11   -1    0    0    0    0 -0.00000000000E+00 -0.00000000000E+00 -0.45593999997E+02  0.45594000000E+02  0.51100000000E-03 0. -1.
    9900012    2    1    2    0    0  0.39666885588E+02 -0.13226184609E+02  0.11628825675E+02  0.47787270074E+02  0.19999995575E+02 0.  0.
         12    1    1    2    0    0 -0.39666885588E+02  0.13226184609E+02 -0.11628825675E+02  0.43400729926E+02  0.00000000000E+00 0. -1.
         11    1    3    3    0    0  0.12756518354E+02 -0.51471828755E+01  0.66437915592E+01  0.15276197780E+02  0.51100000000E-03 0. -1.
        -11    1    3    3    0    0  0.18515012834E+02 -0.12601684511E+02  0.51185562349E+01  0.22974067357E+02  0.51100000000E-03 0.  1.
         12    1    3    3    0    0  0.83953543998E+01  0.45226827773E+01 -0.13352211888E+00  0.95370049365E+01  0.00000000000E+00 0. -1.
</event>
<event>
 7    1  0.5504027E-010  0.4778727E+02  0.7816164E-02  0.1312668E+00
        -11   -1    0    0    0    0  0.00000000000E+00  0.00000000000E+00  0.45593999997E+02  0.45594000000E+02  0.51100000000E-03 0. -1.
         11   -1    0    0    0    0 -0.00000000000E+00 -0.00000000000E+00 -0.45593999997E+02  0.45594000000E+02  0.51100000000E-03 0.  1.
    9900012    2    1    2    0    0 -0.40427154564E+02 -0.15763141306E+02 -0.88982755132E+00  0.47787271399E+02  0.20000001618E+02 0.  0.
         12    1    1    2    0    0  0.40427154564E+02  0.15763141306E+02  0.88982755132E+00  0.43400728601E+02  0.00000000000E+00 0. -1.
         11    1    3    3    0    0 -0.93972099432E+01 -0.90784399736E+01 -0.60521604312E+01  0.14399801152E+02  0.51100000000E-03 0.  1.
        -11    1    3    3    0    0 -0.12726481390E+02 -0.28054165957E+01 -0.23197136613E+01  0.13236871329E+02  0.51100000000E-03 0. -1.
         12    1    3    3    0    0 -0.18303463231E+02 -0.38792847370E+01  0.74820465412E+01  0.20150598918E+02  0.00000000000E+00 0. -1.
</event>
<event>
 7    1  0.5504027E-010  0.4778726E+02  0.7816164E-02  0.1312668E+00
        -11   -1    0    0    0    0  0.00000000000E+00  0.00000000000E+00  0.45593999997E+02  0.45594000000E+02  0.51100000000E-03 0.  1.
         11   -1    0    0    0    0 -0.00000000000E+00 -0.00000000000E+00 -0.45593999997E+02  0.45594000000E+02  0.51100000000E-03 0. -1.
    9900012    2    1    2    0    0  0.24438489054E+02 -0.11500773289E+02  0.33972287877E+02  0.47787264095E+02  0.19999968316E+02 0.  0.
         12    1    1    2    0    0 -0.24438489054E+02  0.11500773289E+02 -0.33972287877E+02  0.43400735905E+02  0.00000000000E+00 0. -1.
         11    1    3    3    0    0  0.64141379460E+01  0.12799693776E+01  0.20962193794E+00  0.65439612480E+01  0.51100000000E-03 0. -1.
        -11    1    3    3    0    0  0.62318683661E+01 -0.59849251457E-01  0.72504570116E+01  0.95607997785E+01  0.51100000000E-03 0.  1.
         12    1    3    3    0    0  0.11792482742E+02 -0.12720893416E+02  0.26512208927E+02  0.31682503069E+02  0.00000000000E+00 0. -1.
</event>
<event>
 7    1  0.5504027E-010  0.4778728E+02  0.7816164E-02  0.1312668E+00
        -11   -1    0    0    0    0  0.00000000000E+00  0.00000000000E+00  0.45593999997E+02  0.45594000000E+02  0.51100000000E-03 0.  1.
         11   -1    0    0    0    0 -0.00000000000E+00 -0.00000000000E+00 -0.45593999997E+02  0.45594000000E+02  0.51100000000E-03 0. -1.
    9900012    2    1    2    0    0  0.18151386424E+02  0.46902803677E+01  0.39142704489E+02  0.47787275654E+02  0.20000021016E+02 0.  0.
         12    1    1    2    0    0 -0.18151386424E+02 -0.46902803677E+01 -0.39142704489E+02  0.43400724346E+02  0.00000000000E+00 0. -1.
         11    1    3    3    0    0  0.43566773900E+01 -0.28569374543E+01  0.42048226049E+01  0.66950177668E+01  0.51100000000E-03 0. -1.
        -11    1    3    3    0    0 -0.23592205332E+01  0.28299736045E+01  0.22237623676E+01  0.43034627284E+01  0.51100000000E-03 0.  1.
        -12    1    3    3    0    0  0.16153929567E+02  0.47172442176E+01  0.32714119517E+02  0.36788795159E+02  0.00000000000E+00 0.  1.
</event>
<event>
 7    1  0.5504027E-010  0.4778728E+02  0.7816164E-02  0.1312668E+00
        -11   -1    0    0    0    0  0.00000000000E+00  0.00000000000E+00  0.45593999997E+02  0.45594000000E+02  0.51100000000E-03 0. -1.
         11   -1    0    0    0    0 -0.00000000000E+00 -0.00000000000E+00 -0.45593999997E+02  0.45594000000E+02  0.51100000000E-03 0.  1.
    9900012    2    1    2    0    0  0.40005511257E+02  0.52262709170E+01  0.15995862221E+02  0.47787280572E+02  0.20000043442E+02 0.  0.
         12    1    1    2    0    0 -0.40005511257E+02 -0.52262709170E+01 -0.15995862221E+02  0.43400719428E+02  0.00000000000E+00 0. -1.
         11    1    3    3    0    0  0.20464982570E+02  0.95079301045E+01  0.42095260494E+01  0.22955094343E+02  0.51100000000E-03 0. -1.
        -11    1    3    3    0    0  0.13351956305E+02 -0.62262474881E+01  0.52943952221E+01  0.15654760170E+02  0.51100000000E-03 0.  1.
        -12    1    3    3    0    0  0.61885723822E+01  0.19445883006E+01  0.64919409498E+01  0.91774260599E+01  0.00000000000E+00 0.  1.
</event>
<event>
 7    1  0.5504027E-010  0.4778727E+02  0.7816164E-02  0.1312668E+00
        -11   -1    0    0    0    0  0.00000000000E+00  0.00000000000E+00  0.45593999997E+02  0.45594000000E+02  0.51100000000E-03 0.  1.
         11   -1    0    0    0    0 -0.00000000000E+00 -0.00000000000E+00 -0.45593999997E+02  0.45594000000E+02  0.51100000000E-03 0. -1.
    9900012    2    1    2    0    0  0.17974204584E-01  0.36264769377E+02  0.23843017153E+02  0.47787270882E+02  0.19999999260E+02 0.  0.
         12    1    1    2    0    0 -0.17974204584E-01 -0.36264769377E+02 -0.23843017153E+02  0.43400729118E+02  0.00000000000E+00 0. -1.
         11    1    3    3    0    0  0.76340381359E+01  0.10258883480E+02  0.10565034526E+02  0.16587440529E+02  0.51100000000E-03 0.  1.
        -11    1    3    3    0    0 -0.19242512567E+01  0.55296766645E+01  0.68184328968E+01  0.89872740217E+01  0.51100000000E-03 0. -1.
         12    1    3    3    0    0 -0.56918126746E+01  0.20476209233E+02  0.64595497302E+01  0.22212556331E+02  0.00000000000E+00 0. -1.
</event>
<event>
 7    1  0.5504027E-010  0.4778727E+02  0.7816164E-02  0.1312668E+00
        -11   -1    0    0    0    0  0.00000000000E+00  0.00000000000E+00  0.45593999997E+02  0.45594000000E+02  0.51100000000E-03 0.  1.
         11   -1    0    0    0    0 -0.00000000000E+00 -0.00000000000E+00 -0.45593999997E+02  0.45594000000E+02  0.51100000000E-03 0. -1.
    9900012    2    1    2    0    0 -0.24027338512E+02 -0.90618386410E+01  0.34988472533E+02  0.47787272751E+02  0.20000007783E+02 0.  0.
         12    1    1    2    0    0  0.24027338512E+02  0.90618386410E+01 -0.34988472533E+02  0.43400727249E+02  0.00000000000E+00 0. -1.
         11    1    3    3    0    0 -0.89735848144E+01 -0.11276433732E+02  0.15476271433E+02  0.21147060312E+02  0.51100000000E-03 0. -1.
        -11    1    3    3    0    0 -0.89530185953E+01  0.11980549710E+01  0.18199175927E+02  0.20317526482E+02  0.51100000000E-03 0.  1.
         12    1    3    3    0    0 -0.61007351021E+01  0.10165401204E+01  0.13130251739E+01  0.63226859569E+01  0.00000000000E+00 0. -1.
</event>
<event>
 7    1  0.5504027E-010  0.4778727E+02  0.7816164E-02  0.1312668E+00
        -11   -1    0    0    0    0  0.00000000000E+00  0.00000000000E+00  0.45593999997E+02  0.45594000000E+02  0.51100000000E-03 0. -1.
         11   -1    0    0    0    0 -0.00000000000E+00 -0.00000000000E+00 -0.45593999997E+02  0.45594000000E+02  0.51100000000E-03 0.  1.
    9900012    2    1    2    0    0 -0.36901603063E+02  0.21017985728E+02  0.89520786565E+01  0.47787265617E+02  0.19999975255E+02 0.  0.
         12    1    1    2    0    0  0.36901603063E+02 -0.21017985728E+02 -0.89520786565E+01  0.43400734383E+02  0.00000000000E+00 0. -1.
         11    1    3    3    0    0 -0.70558314054E+01  0.77145995159E+01  0.64519475497E+01  0.12285252539E+02  0.51100000000E-03 0. -1.
        -11    1    3    3    0    0 -0.28634270356E+02  0.13657747822E+02 -0.10419006665E+01  0.31741787468E+02  0.51100000000E-03 0.  1.
        -12    1    3    3    0    0 -0.12115013015E+01 -0.35436160991E+00  0.35420317734E+01  0.37602256099E+01  0.00000000000E+00 0.  1.
</event>
<event>
 7    1  0.5504027E-010  0.4778723E+02  0.7816164E-02  0.1312668E+00
        -11   -1    0    0    0    0  0.00000000000E+00  0.00000000000E+00  0.45593999997E+02  0.45594000000E+02  0.51100000000E-03 0.  1.
         11   -1    0    0    0    0 -0.00000000000E+00 -0.00000000000E+00 -0.45593999997E+02  0.45594000000E+02  0.51100000000E-03 0. -1.
    9900012    2    1    2    0    0  0.11955353524E+02 -0.16318287853E+02  0.38398041949E+02  0.47787232474E+02  0.19999824141E+02 0.  0.
         12    1    1    2    0    0 -0.11955353524E+02  0.16318287853E+02 -0.38398041949E+02  0.43400767526E+02  0.00000000000E+00 0. -1.
         11    1    3    3    0    0  0.13219448952E+02 -0.96842779694E+01  0.19525143745E+02  0.25490592557E+02  0.51100000000E-03 0. -1.
        -11    1    3    3    0    0 -0.36270266209E+01 -0.26889426328E+01  0.22408156928E+01  0.50405346762E+01  0.51100000000E-03 0.  1.
        -12    1    3    3    0    0  0.23629311938E+01 -0.39450672503E+01  0.16632082511E+02  0.17256105241E+02  0.00000000000E+00 0.  1.
</event>
<event>
 7    1  0.5504027E-010  0.4778727E+02  0.7816164E-02  0.1312668E+00
        -11   -1    0    0    0    0  0.00000000000E+00  0.00000000000E+00  0.45593999997E+02  0.45594000000E+02  0.51100000000E-03 0.  1.
         11   -1    0    0    0    0 -0.00000000000E+00 -0.00000000000E+00 -0.45593999997E+02  0.45594000000E+02  0.51100000000E-03 0. -1.
    9900012    2    1    2    0    0  0.28073283453E+02 -0.20057199094E+02  0.26329124251E+02  0.47787271168E+02  0.20000000563E+02 0.  0.
         12    1    1    2    0    0 -0.28073283453E+02  0.20057199094E+02 -0.26329124251E+02  0.43400728832E+02  0.00000000000E+00 0. -1.
         11    1    3    3    0    0  0.79451195908E+01 -0.87560360943E+01 -0.21983155318E+00  0.11825456421E+02  0.51100000000E-03 0. -1.
        -11    1    3    3    0    0  0.16881893228E+02 -0.12205084349E+02  0.21964536586E+02  0.30272153386E+02  0.51100000000E-03 0.  1.
         12    1    3    3    0    0  0.32462706338E+01  0.90392134873E+00  0.45844192179E+01  0.56896613606E+01  0.00000000000E+00 0. -1.
</event>
<event>
 7    1  0.5504027E-010  0.4778727E+02  0.7816164E-02  0.1312668E+00
        -11   -1    0    0    0    0  0.00000000000E+00  0.00000000000E+00  0.45593999997E+02  0.45594000000E+02  0.51100000000E-03 0. -1.
         11   -1    0    0    0    0 -0.00000000000E+00 -0.00000000000E+00 -0.45593999997E+02  0.45594000000E+02  0.51100000000E-03 0.  1.
    9900012    2    1    2    0    0  0.55940016279E+00 -0.43127540680E+01 -0.43182294261E+02  0.47787270585E+02  0.19999997903E+02 0.  0.
         12    1    1    2    0    0 -0.55940016279E+00  0.43127540680E+01  0.43182294261E+02  0.43400729415E+02  0.00000000000E+00 0. -1.
         11    1    3    3    0    0  0.13554654096E+01 -0.78368124127E+01 -0.12631600052E+02  0.14926829382E+02  0.51100000000E-03 0. -1.
        -11    1    3    3    0    0 -0.25937552604E+01  0.73925745565E+01 -0.19492189470E+02  0.21007693246E+02  0.51100000000E-03 0.  1.
        -12    1    3    3    0    0  0.17976900135E+01 -0.38685162118E+01 -0.11058504738E+02  0.11852747956E+02  0.00000000000E+00 0.  1.
</event>
<event>
 7    1  0.5504027E-010  0.4778727E+02  0.7816164E-02  0.1312668E+00
        -11   -1    0    0    0    0  0.00000000000E+00  0.00000000000E+00  0.45593999997E+02  0.45594000000E+02  0.51100000000E-03 0.  1.
         11   -1    0    0    0    0 -0.00000000000E+00 -0.00000000000E+00 -0.45593999997E+02  0.45594000000E+02  0.51100000000E-03 0. -1.
    9900012    2    1    2    0    0 -0.11485028908E+02  0.12302096747E+02  0.40004702114E+02  0.47787266543E+02  0.19999979475E+02 0.  0.
         12    1    1    2    0    0  0.11485028908E+02 -0.12302096747E+02 -0.40004702114E+02  0.43400733457E+02  0.00000000000E+00 0. -1.
         11    1    3    3    0    0 -0.67772724019E+00  0.94113783922E+01  0.76581908505E+01  0.12152417242E+02  0.51100000000E-03 0. -1.
        -11    1    3    3    0    0  0.80369140908E+00  0.29016679790E+01  0.40322841860E+01  0.50323864080E+01  0.51100000000E-03 0.  1.
         12    1    3    3    0    0 -0.11610993077E+02 -0.10949623983E-01  0.28314227078E+02  0.30602462893E+02  0.00000000000E+00 0. -1.
</event>
<event>
 7    1  0.5504027E-010  0.4778726E+02  0.7816164E-02  0.1312668E+00
        -11   -1    0    0    0    0  0.00000000000E+00  0.00000000000E+00  0.45593999997E+02  0.45594000000E+02  0.51100000000E-03 0.  1.
         11   -1    0    0    0    0 -0.00000000000E+00 -0.00000000000E+00 -0.45593999997E+02  0.45594000000E+02  0.51100000000E-03 0. -1.
    9900012    2    1    2    0    0  0.37018509897E+02 -0.21169660115E+02 -0.80684252252E+01  0.47787261873E+02  0.19999958183E+02 0.  0.
         12    1    1    2    0    0 -0.37018509897E+02  0.21169660115E+02  0.80684252252E+01  0.43400738127E+02  0.00000000000E+00 0. -1.
         11    1    3    3    0    0  0.24224826059E+02 -0.72621858416E+01 -0.12713679355E+02  0.28305815370E+02  0.51100000000E-03 0. -1.
        -11    1    3    3    0    0  0.89489448385E+01 -0.93342449953E+01  0.35223537870E+01  0.13402190859E+02  0.51100000000E-03 0.  1.
         12    1    3    3    0    0  0.38447389998E+01 -0.45732292778E+01  0.11229003426E+01  0.60792556439E+01  0.00000000000E+00 0. -1.
</event>
<event>
 7    1  0.5504027E-010  0.4778727E+02  0.7816164E-02  0.1312668E+00
        -11   -1    0    0    0    0  0.00000000000E+00  0.00000000000E+00  0.45593999997E+02  0.45594000000E+02  0.51100000000E-03 0.  1.
         11   -1    0    0    0    0 -0.00000000000E+00 -0.00000000000E+00 -0.45593999997E+02  0.45594000000E+02  0.51100000000E-03 0. -1.
    9900012    2    1    2    0    0 -0.41836762368E+02 -0.54239263817E+01  0.10192632272E+02  0.47787269413E+02  0.19999992562E+02 0.  0.
         12    1    1    2    0    0  0.41836762368E+02  0.54239263817E+01 -0.10192632272E+02  0.43400730587E+02  0.00000000000E+00 0. -1.
         11    1    3    3    0    0 -0.19575155785E+01  0.15231029405E+01  0.56500460126E+01  0.61704724303E+01  0.51100000000E-03 0. -1.
        -11    1    3    3    0    0 -0.37547322191E+02 -0.44058391856E+01  0.50131017970E+01  0.38135862551E+02  0.51100000000E-03 0.  1.
         12    1    3    3    0    0 -0.23319245986E+01 -0.25411901367E+01 -0.47051553735E+00  0.34809344314E+01  0.00000000000E+00 0. -1.
</event>
<event>
 7    1  0.5504027E-010  0.4778728E+02  0.7816164E-02  0.1312668E+00
        -11   -1    0    0    0    0  0.00000000000E+00  0.00000000000E+00  0.45593999997E+02  0.45594000000E+02  0.51100000000E-03 0. -1.
         11   -1    0    0    0    0 -0.00000000000E+00 -0.00000000000E+00 -0.45593999997E+02  0.45594000000E+02  0.51100000000E-03 0.  1.
    9900012    2    1    2    0    0 -0.33066087630E+02  0.10578127855E+01  0.28091595286E+02  0.47787275989E+02  0.20000022543E+02 0.  0.
         12    1    1    2    0    0  0.33066087630E+02 -0.10578127855E+01 -0.28091595286E+02  0.43400724011E+02  0.00000000000E+00 0. -1.
         11    1    3    3    0    0 -0.35776427297E+01 -0.38076708683E+01  0.11663105886E+02  0.12779903134E+02  0.51100000000E-03 0. -1.
        -11    1    3    3    0    0 -0.26326589750E+02  0.21306266330E+01  0.12315427910E+02  0.29142729154E+02  0.51100000000E-03 0.  1.
         12    1    3    3    0    0 -0.31618551503E+01  0.27348570209E+01  0.41130614890E+01  0.58646437000E+01  0.00000000000E+00 0. -1.
</event>
<event>
 7    1  0.5504027E-010  0.4778728E+02  0.7816164E-02  0.1312668E+00
        -11   -1    0    0    0    0  0.00000000000E+00  0.00000000000E+00  0.45593999997E+02  0.45594000000E+02  0.51100000000E-03 0.  1.
         11   -1    0    0    0    0 -0.00000000000E+00 -0.00000000000E+00 -0.45593999997E+02  0.45594000000E+02  0.51100000000E-03 0. -1.
    9900012    2    1    2    0    0  0.27867289702E+02  0.72989679882E+01  0.32461702004E+02  0.47787275743E+02  0.20000021423E+02 0.  0.
         12    1    1    2    0    0 -0.27867289702E+02 -0.72989679882E+01 -0.32461702004E+02  0.43400724257E+02  0.00000000000E+00 0. -1.
         11    1    3    3    0    0  0.64584820675E+01  0.93150116951E+01  0.15893065227E+02  0.19521038806E+02  0.51100000000E-03 0. -1.
        -11    1    3    3    0    0  0.16522353066E+02  0.13985363307E+01  0.98594067310E+01  0.19291240397E+02  0.51100000000E-03 0.  1.
        -12    1    3    3    0    0  0.48864545687E+01 -0.34145800376E+01  0.67092300456E+01  0.89749965398E+01  0.00000000000E+00 0.  1.
</event>
<event>
 7    1  0.5504027E-010  0.4778728E+02  0.7816164E-02  0.1312668E+00
        -11   -1    0    0    0    0  0.00000000000E+00  0.00000000000E+00  0.45593999997E+02  0.45594000000E+02  0.51100000000E-03 0.  1.
         11   -1    0    0    0    0 -0.00000000000E+00 -0.00000000000E+00 -0.45593999997E+02  0.45594000000E+02  0.51100000000E-03 0. -1.
    9900012    2    1    2    0    0  0.27095874575E+02 -0.27010500384E+02  0.20490710157E+02  0.47787277048E+02  0.20000027374E+02 0.  0.
         12    1    1    2    0    0 -0.27095874575E+02  0.27010500384E+02 -0.20490710157E+02  0.43400722952E+02  0.00000000000E+00 0. -1.
         11    1    3    3    0    0  0.24358853157E+01 -0.58403361948E+01  0.42358918785E+01  0.76148436889E+01  0.51100000000E-03 0. -1.
        -11    1    3    3    0    0  0.16368904357E+02 -0.18224333841E+02  0.36001206806E+01  0.24759407161E+02  0.51100000000E-03 0.  1.
        -12    1    3    3    0    0  0.82910849020E+01 -0.29458303485E+01  0.12654697598E+02  0.15413026198E+02  0.00000000000E+00 0.  1.
</event>
<event>
 7    1  0.5504027E-010  0.4778727E+02  0.7816164E-02  0.1312668E+00
        -11   -1    0    0    0    0  0.00000000000E+00  0.00000000000E+00  0.45593999997E+02  0.45594000000E+02  0.51100000000E-03 0. -1.
         11   -1    0    0    0    0 -0.00000000000E+00 -0.00000000000E+00 -0.45593999997E+02  0.45594000000E+02  0.51100000000E-03 0.  1.
    9900012    2    1    2    0    0 -0.24456645355E+02  0.33048976486E+02 -0.13901835175E+02  0.47787269937E+02  0.19999994949E+02 0.  0.
         12    1    1    2    0    0  0.24456645355E+02 -0.33048976486E+02  0.13901835175E+02  0.43400730063E+02  0.00000000000E+00 0. -1.
         11    1    3    3    0    0 -0.93382741353E+01  0.25617530497E+02 -0.88760955922E+01  0.28674837502E+02  0.51100000000E-03 0. -1.
        -11    1    3    3    0    0 -0.12135154715E+02  0.61211949589E+01 -0.70147653265E+01  0.15295029929E+02  0.51100000000E-03 0.  1.
         12    1    3    3    0    0 -0.29832165048E+01  0.13102510306E+01  0.19890257435E+01  0.38174025051E+01  0.00000000000E+00 0. -1.
</event>
<event>
 7    1  0.5504027E-010  0.4778727E+02  0.7816164E-02  0.1312668E+00
        -11   -1    0    0    0    0  0.00000000000E+00  0.00000000000E+00  0.45593999997E+02  0.45594000000E+02  0.51100000000E-03 0.  1.
         11   -1    0    0    0    0 -0.00000000000E+00 -0.00000000000E+00 -0.45593999997E+02  0.45594000000E+02  0.51100000000E-03 0. -1.
    9900012    2    1    2    0    0  0.58294958634E+01  0.32521752437E+02  0.28142061792E+02  0.47787273675E+02  0.20000011995E+02 0.  0.
         12    1    1    2    0    0 -0.58294958634E+01 -0.32521752437E+02 -0.28142061792E+02  0.43400726325E+02  0.00000000000E+00 0. -1.
         11    1    3    3    0    0 -0.19152271369E+01  0.96168761449E+01  0.22955582476E+01  0.10070848509E+02  0.51100000000E-03 0. -1.
        -11    1    3    3    0    0  0.33483205197E+01  0.51403671991E+01  0.15554224982E+02  0.16720303236E+02  0.51100000000E-03 0.  1.
        -12    1    3    3    0    0  0.43964024806E+01  0.17764509093E+02  0.10292278562E+02  0.20996121930E+02  0.00000000000E+00 0.  1.
</event>
<event>
 7    1  0.5504027E-010  0.4778727E+02  0.7816164E-02  0.1312668E+00
        -11   -1    0    0    0    0  0.00000000000E+00  0.00000000000E+00  0.45593999997E+02  0.45594000000E+02  0.51100000000E-03 0.  1.
         11   -1    0    0    0    0 -0.00000000000E+00 -0.00000000000E+00 -0.45593999997E+02  0.45594000000E+02  0.51100000000E-03 0. -1.
    9900012    2    1    2    0    0 -0.13151162315E+02 -0.12356385400E+02  0.39471383629E+02  0.47787268947E+02  0.19999990435E+02 0.  0.
         12    1    1    2    0    0  0.13151162315E+02  0.12356385400E+02 -0.39471383629E+02  0.43400731053E+02  0.00000000000E+00 0. -1.
         11    1    3    3    0    0  0.11848491039E+01 -0.40640398191E+01  0.25378738617E+01  0.49356955994E+01  0.51100000000E-03 0. -1.
        -11    1    3    3    0    0 -0.14973058144E+02 -0.36477173669E+01  0.33978130074E+02  0.37309672147E+02  0.51100000000E-03 0.  1.
        -12    1    3    3    0    0  0.63704672525E+00 -0.46446282142E+01  0.29553796934E+01  0.55419012000E+01  0.00000000000E+00 0.  1.
</event>
<event>
 7    1  0.5504027E-010  0.4778728E+02  0.7816164E-02  0.1312668E+00
        -11   -1    0    0    0    0  0.00000000000E+00  0.00000000000E+00  0.45593999997E+02  0.45594000000E+02  0.51100000000E-03 0. -1.
         11   -1    0    0    0    0 -0.00000000000E+00 -0.00000000000E+00 -0.45593999997E+02  0.45594000000E+02  0.51100000000E-03 0.  1.
    9900012    2    1    2    0    0 -0.21611527542E+02  0.36073174864E+02  0.10737335661E+02  0.47787280598E+02  0.20000043560E+02 0.  0.
         12    1    1    2    0    0  0.21611527542E+02 -0.36073174864E+02 -0.10737335661E+02  0.43400719402E+02  0.00000000000E+00 0. -1.
         11    1    3    3    0    0 -0.35847014414E+01  0.15815098855E+00 -0.30101687582E+01  0.46836110399E+01  0.51100000000E-03 0. -1.
        -11    1    3    3    0    0 -0.94838636224E+01  0.20763917115E+02  0.11515635855E+02  0.25567436175E+02  0.51100000000E-03 0.  1.
         12    1    3    3    0    0 -0.85429624783E+01  0.15151106761E+02  0.22318685636E+01  0.17536233383E+02  0.00000000000E+00 0. -1.
</event>
<event>
 7    1  0.5504027E-010  0.4778727E+02  0.7816164E-02  0.1312668E+00
        -11   -1    0    0    0    0  0.00000000000E+00  0.00000000000E+00  0.45593999997E+02  0.45594000000E+02  0.51100000000E-03 0. -1.
         11   -1    0    0    0    0 -0.00000000000E+00 -0.00000000000E+00 -0.45593999997E+02  0.45594000000E+02  0.51100000000E-03 0.  1.
    9900012    2    1    2    0    0  0.20745233487E+02  0.27569037345E+02 -0.26328818175E+02  0.47787271907E+02  0.20000003933E+02 0.  0.
         12    1    1    2    0    0 -0.20745233487E+02 -0.27569037345E+02  0.26328818175E+02  0.43400728093E+02  0.00000000000E+00 0. -1.
         11    1    3    3    0    0  0.11425640704E+02  0.16831619934E+02 -0.57765818614E+01  0.21147519793E+02  0.51100000000E-03 0. -1.
        -11    1    3    3    0    0  0.92682214594E+01  0.38776200271E+01 -0.13131540332E+02  0.16534001870E+02  0.51100000000E-03 0.  1.
         12    1    3    3    0    0  0.51371323393E-01  0.68597973831E+01 -0.74206959814E+01  0.10105750244E+02  0.00000000000E+00 0. -1.
</event>
<event>
 7    1  0.5504027E-010  0.4778726E+02  0.7816164E-02  0.1312668E+00
        -11   -1    0    0    0    0  0.00000000000E+00  0.00000000000E+00  0.45593999997E+02  0.45594000000E+02  0.51100000000E-03 0.  1.
         11   -1    0    0    0    0 -0.00000000000E+00 -0.00000000000E+00 -0.45593999997E+02  0.45594000000E+02  0.51100000000E-03 0. -1.
    9900012    2    1    2    0    0 -0.17864566720E+02 -0.12054465586E+02  0.37671891934E+02  0.47787258917E+02  0.19999944705E+02 0.  0.
         12    1    1    2    0    0  0.17864566720E+02  0.12054465586E+02 -0.37671891934E+02  0.43400741083E+02  0.00000000000E+00 0. -1.
         11    1    3    3    0    0 -0.11982775365E+02 -0.57702811785E+01  0.10232510475E+02  0.16780563793E+02  0.51100000000E-03 0. -1.
        -11    1    3    3    0    0 -0.47823886473E+01 -0.70438411516E+01  0.28208156911E+02  0.29465014100E+02  0.51100000000E-03 0.  1.
        -12    1    3    3    0    0 -0.10994027083E+01  0.75965674433E+00 -0.76877545183E+00  0.15416810239E+01  0.00000000000E+00 0.  1.
</event>
<event>
 7    1  0.5504027E-010  0.4778728E+02  0.7816164E-02  0.1312668E+00
        -11   -1    0    0    0    0  0.00000000000E+00  0.00000000000E+00  0.45593999997E+02  0.45594000000E+02  0.51100000000E-03 0. -1.
         11   -1    0    0    0    0 -0.00000000000E+00 -0.00000000000E+00 -0.45593999997E+02  0.45594000000E+02  0.51100000000E-03 0.  1.
    9900012    2    1    2    0    0  0.19789935104E+01  0.33811574427E+01 -0.43223535250E+02  0.47787278342E+02  0.20000033271E+02 0.  0.
         12    1    1    2    0    0 -0.19789935104E+01 -0.33811574427E+01  0.43223535250E+02  0.43400721658E+02  0.00000000000E+00 0. -1.
         11    1    3    3    0    0 -0.43897886038E+01 -0.30286755519E+01 -0.26820967518E+02  0.27346067697E+02  0.51100000000E-03 0. -1.
        -11    1    3    3    0    0  0.20797565558E+01  0.72738548985E+01 -0.12318138485E+02  0.14455825414E+02  0.51100000000E-03 0.  1.
         12    1    3    3    0    0  0.42890255584E+01 -0.86402190387E+00 -0.40844292469E+01  0.59853852310E+01  0.00000000000E+00 0. -1.
</event>
<event>
 7    1  0.5504027E-010  0.4778727E+02  0.7816164E-02  0.1312668E+00
        -11   -1    0    0    0    0  0.00000000000E+00  0.00000000000E+00  0.45593999997E+02  0.45594000000E+02  0.51100000000E-03 0.  1.
         11   -1    0    0    0    0 -0.00000000000E+00 -0.00000000000E+00 -0.45593999997E+02  0.45594000000E+02  0.51100000000E-03 0. -1.
    9900012    2    1    2    0    0 -0.29507176759E+00  0.19992007331E+02  0.38520847211E+02  0.47787273113E+02  0.20000009431E+02 0.  0.
         12    1    1    2    0    0  0.29507176759E+00 -0.19992007331E+02 -0.38520847211E+02  0.43400726887E+02  0.00000000000E+00 0. -1.
         11    1    3    3    0    0 -0.51970724892E+01 -0.15210174873E+00  0.47678617589E+01  0.70544456489E+01  0.51100000000E-03 0. -1.
        -11    1    3    3    0    0  0.76416367411E+01  0.12200720996E+02  0.21602166883E+02  0.25959696054E+02  0.51100000000E-03 0.  1.
         12    1    3    3    0    0 -0.27396360195E+01  0.79433880838E+01  0.12150818569E+02  0.14773131410E+02  0.00000000000E+00 0. -1.
</event>
<event>
 7    1  0.5504027E-010  0.4778727E+02  0.7816164E-02  0.1312668E+00
        -11   -1    0    0    0    0  0.00000000000E+00  0.00000000000E+00  0.45593999997E+02  0.45594000000E+02  0.51100000000E-03 0.  1.
         11   -1    0    0    0    0 -0.00000000000E+00 -0.00000000000E+00 -0.45593999997E+02  0.45594000000E+02  0.51100000000E-03 0. -1.
    9900012    2    1    2    0    0 -0.33360895262E+02  0.23793883511E+02  0.14301223684E+02  0.47787271618E+02  0.20000002615E+02 0.  0.
         12    1    1    2    0    0  0.33360895262E+02 -0.23793883511E+02 -0.14301223684E+02  0.43400728382E+02  0.00000000000E+00 0. -1.
         11    1    3    3    0    0 -0.37260428311E+01  0.11940320087E+02  0.49814589830E+01  0.13463638914E+02  0.51100000000E-03 0. -1.
        -11    1    3    3    0    0 -0.12058536686E+02  0.25771369852E+01 -0.97581099761E-01  0.12331239369E+02  0.51100000000E-03 0.  1.
         12    1    3    3    0    0 -0.17576315746E+02  0.92764264387E+01  0.94173458003E+01  0.21992393335E+02  0.00000000000E+00 0. -1.
</event>
<event>
 7    1  0.5504027E-010  0.4778727E+02  0.7816164E-02  0.1312668E+00
        -11   -1    0    0    0    0  0.00000000000E+00  0.00000000000E+00  0.45593999997E+02  0.45594000000E+02  0.51100000000E-03 0.  1.
         11   -1    0    0    0    0 -0.00000000000E+00 -0.00000000000E+00 -0.45593999997E+02  0.45594000000E+02  0.51100000000E-03 0. -1.
    9900012    2    1    2    0    0  0.10480854724E+02  0.21048924500E+02  0.36479005864E+02  0.47787269509E+02  0.19999992998E+02 0.  0.
         12    1    1    2    0    0 -0.10480854724E+02 -0.21048924500E+02 -0.36479005864E+02  0.43400730491E+02  0.00000000000E+00 0. -1.
         11    1    3    3    0    0 -0.20309723027E+01  0.35284292941E+01  0.72592545206E+01  0.83229464875E+01  0.51100000000E-03 0. -1.
        -11    1    3    3    0    0  0.13669577942E+02  0.11550827894E+02  0.12935684488E+02  0.22081913857E+02  0.51100000000E-03 0.  1.
        -12    1    3    3    0    0 -0.11577509155E+01  0.59696673121E+01  0.16284066855E+02  0.17382409164E+02  0.00000000000E+00 0.  1.
</event>
<event>
 7    1  0.5504027E-010  0.4778725E+02  0.7816164E-02  0.1312668E+00
        -11   -1    0    0    0    0  0.00000000000E+00  0.00000000000E+00  0.45593999997E+02  0.45594000000E+02  0.51100000000E-03 0.  1.
         11   -1    0    0    0    0 -0.00000000000E+00 -0.00000000000E+00 -0.45593999997E+02  0.45594000000E+02  0.51100000000E-03 0. -1.
    9900012    2    1    2    0    0 -0.20646960598E+02 -0.27956188868E+02  0.25995753412E+02  0.47787254921E+02  0.19999926487E+02 0.  0.
         12    1    1    2    0    0  0.20646960598E+02  0.27956188868E+02 -0.25995753412E+02  0.43400745079E+02  0.00000000000E+00 0. -1.
         11    1    3    3    0    0 -0.61376816187E+01  0.12974667470E+00 -0.64028073457E+00  0.61723520259E+01  0.51100000000E-03 0. -1.
        -11    1    3    3    0    0 -0.92062255114E+01 -0.21495539585E+02  0.21171291706E+02  0.31544197612E+02  0.51100000000E-03 0.  1.
         12    1    3    3    0    0 -0.53030534680E+01 -0.65903959573E+01  0.54647424405E+01  0.10070705283E+02  0.00000000000E+00 0. -1.
</event>
<event>
 7    1  0.5504027E-010  0.4778727E+02  0.7816164E-02  0.1312668E+00
        -11   -1    0    0    0    0  0.00000000000E+00  0.00000000000E+00  0.45593999997E+02  0.45594000000E+02  0.51100000000E-03 0.  1.
         11   -1    0    0    0    0 -0.00000000000E+00 -0.00000000000E+00 -0.45593999997E+02  0.45594000000E+02  0.51100000000E-03 0. -1.
    9900012    2    1    2    0    0 -0.16875919179E+02  0.37514460781E+02 -0.13838060376E+02  0.47787270389E+02  0.19999997011E+02 0.  0.
         12    1    1    2    0    0  0.16875919179E+02 -0.37514460781E+02  0.13838060376E+02  0.43400729611E+02  0.00000000000E+00 0. -1.
         11    1    3    3    0    0 -0.26236540192E+01  0.20687298371E+02 -0.12757561489E+02  0.24445925012E+02  0.51100000000E-03 0. -1.
        -11    1    3    3    0    0 -0.75486436563E+01  0.85737723787E+01  0.32251333511E+01  0.11869839057E+02  0.51100000000E-03 0.  1.
         12    1    3    3    0    0 -0.67036215034E+01  0.82533900310E+01 -0.43056322385E+01  0.11471506320E+02  0.00000000000E+00 0. -1.
</event>
<event>
 7    1  0.5504027E-010  0.4778727E+02  0.7816164E-02  0.1312668E+00
        -11   -1    0    0    0    0  0.00000000000E+00  0.00000000000E+00  0.45593999997E+02  0.45594000000E+02  0.51100000000E-03 0.  1.
         11   -1    0    0    0    0 -0.00000000000E+00 -0.00000000000E+00 -0.45593999997E+02  0.45594000000E+02  0.51100000000E-03 0. -1.
    9900012    2    1    2    0    0 -0.37215517444E+02  0.14730457268E+02  0.16782201166E+02  0.47787269754E+02  0.19999994115E+02 0.  0.
         12    1    1    2    0    0  0.37215517444E+02 -0.14730457268E+02 -0.16782201166E+02  0.43400730246E+02  0.00000000000E+00 0. -1.
         11    1    3    3    0    0 -0.13177228318E+02  0.57463879317E+01  0.15797511738E+02  0.21359346848E+02  0.51100000000E-03 0. -1.
        -11    1    3    3    0    0 -0.13561247572E+02  0.83113813357E+01  0.85486619818E+00  0.15928505639E+02  0.51100000000E-03 0.  1.
         12    1    3    3    0    0 -0.10477041554E+02  0.67268800014E+00  0.12982323070E+00  0.10499417267E+02  0.00000000000E+00 0. -1.
</event>
<event>
 7    1  0.5504027E-010  0.4778727E+02  0.7816164E-02  0.1312668E+00
        -11   -1    0    0    0    0  0.00000000000E+00  0.00000000000E+00  0.45593999997E+02  0.45594000000E+02  0.51100000000E-03 0. -1.
         11   -1    0    0    0    0 -0.00000000000E+00 -0.00000000000E+00 -0.45593999997E+02  0.45594000000E+02  0.51100000000E-03 0.  1.
    9900012    2    1    2    0    0 -0.15339276944E+02  0.35838791769E+02 -0.19076445194E+02  0.47787272197E+02  0.20000005253E+02 0.  0.
         12    1    1    2    0    0  0.15339276944E+02 -0.35838791769E+02  0.19076445194E+02  0.43400727803E+02  0.00000000000E+00 0. -1.
         11    1    3    3    0    0 -0.42394561446E+00  0.17125492309E+00 -0.89047719472E+00  0.10010035106E+01  0.51100000000E-03 0. -1.
        -11    1    3    3    0    0  0.14024502435E+01  0.16559585020E+02 -0.16379649778E+01  0.16699390775E+02  0.51100000000E-03 0.  1.
        -12    1    3    3    0    0 -0.16317781573E+02  0.19107951826E+02 -0.16548003022E+02  0.30086877911E+02  0.00000000000E+00 0.  1.
</event>
<event>
 7    1  0.5504027E-010  0.4778727E+02  0.7816164E-02  0.1312668E+00
        -11   -1    0    0    0    0  0.00000000000E+00  0.00000000000E+00  0.45593999997E+02  0.45594000000E+02  0.51100000000E-03 0.  1.
         11   -1    0    0    0    0 -0.00000000000E+00 -0.00000000000E+00 -0.45593999997E+02  0.45594000000E+02  0.51100000000E-03 0. -1.
    9900012    2    1    2    0    0 -0.54602823718E+01 -0.36747321642E+02  0.22437531637E+02  0.47787272386E+02  0.20000006117E+02 0.  0.
         12    1    1    2    0    0  0.54602823718E+01  0.36747321642E+02 -0.22437531637E+02  0.43400727614E+02  0.00000000000E+00 0. -1.
         11    1    3    3    0    0  0.33669145337E+01 -0.41515659818E+01  0.94096029114E+01  0.10821840915E+02  0.51100000000E-03 0. -1.
        -11    1    3    3    0    0 -0.65886609401E+01 -0.29868189164E+02  0.13447756881E+02  0.33411993989E+02  0.51100000000E-03 0.  1.
         12    1    3    3    0    0 -0.22385359654E+01 -0.27275664963E+01 -0.41982815507E+00  0.35534374822E+01  0.00000000000E+00 0. -1.
</event>
<event>
 7    1  0.5504027E-010  0.4778726E+02  0.7816164E-02  0.1312668E+00
        -11   -1    0    0    0    0  0.00000000000E+00  0.00000000000E+00  0.45593999997E+02  0.45594000000E+02  0.51100000000E-03 0. -1.
         11   -1    0    0    0    0 -0.00000000000E+00 -0.00000000000E+00 -0.45593999997E+02  0.45594000000E+02  0.51100000000E-03 0.  1.
    9900012    2    1    2    0    0  0.74941496874E+01  0.56038015656E+01 -0.42379942465E+02  0.47787258130E+02  0.19999941117E+02 0.  0.
         12    1    1    2    0    0 -0.74941496874E+01 -0.56038015656E+01  0.42379942465E+02  0.43400741870E+02  0.00000000000E+00 0. -1.
         11    1    3    3    0    0 -0.39607895958E+01  0.45860548679E+01 -0.57074400187E+01  0.83243393312E+01  0.51100000000E-03 0. -1.
        -11    1    3    3    0    0  0.12433564184E+02  0.19829519196E+01 -0.35463860321E+02  0.37632579047E+02  0.51100000000E-03 0.  1.
         12    1    3    3    0    0 -0.97862490074E+00 -0.96520522191E+00 -0.12086421259E+01  0.18303397513E+01  0.00000000000E+00 0. -1.
</event>
<event>
 7    1  0.5504027E-010  0.4778727E+02  0.7816164E-02  0.1312668E+00
        -11   -1    0    0    0    0  0.00000000000E+00  0.00000000000E+00  0.45593999997E+02  0.45594000000E+02  0.51100000000E-03 0. -1.
         11   -1    0    0    0    0 -0.00000000000E+00 -0.00000000000E+00 -0.45593999997E+02  0.45594000000E+02  0.51100000000E-03 0.  1.
    9900012    2    1    2    0    0 -0.15319519632E+02  0.39643401997E+02 -0.87941051820E+01  0.47787270863E+02  0.19999999175E+02 0.  0.
         12    1    1    2    0    0  0.15319519632E+02 -0.39643401997E+02  0.87941051820E+01  0.43400729137E+02  0.00000000000E+00 0. -1.
         11    1    3    3    0    0  0.23118203271E+01  0.13489163228E+02  0.95901672099E+00  0.13719393250E+02  0.51100000000E-03 0. -1.
        -11    1    3    3    0    0 -0.77615724189E+01  0.61821369908E+01 -0.47141734582E+00  0.99339347069E+01  0.51100000000E-03 0.  1.
         12    1    3    3    0    0 -0.98697675402E+01  0.19972101778E+02 -0.92817045572E+01  0.24133942907E+02  0.00000000000E+00 0. -1.
</event>
<event>
 7    1  0.5504027E-010  0.4778727E+02  0.7816164E-02  0.1312668E+00
        -11   -1    0    0    0    0  0.00000000000E+00  0.00000000000E+00  0.45593999997E+02  0.45594000000E+02  0.51100000000E-03 0.  1.
         11   -1    0    0    0    0 -0.00000000000E+00 -0.00000000000E+00 -0.45593999997E+02  0.45594000000E+02  0.51100000000E-03 0. -1.
    9900012    2    1    2    0    0  0.28579386771E+01 -0.31360988456E+02  0.29865430065E+02  0.47787270474E+02  0.19999997397E+02 0.  0.
         12    1    1    2    0    0 -0.28579386771E+01  0.31360988456E+02 -0.29865430065E+02  0.43400729526E+02  0.00000000000E+00 0. -1.
         11    1    3    3    0    0 -0.52434527196E+01 -0.11600508299E+02  0.31631349855E+01  0.13117584092E+02  0.51100000000E-03 0. -1.
        -11    1    3    3    0    0  0.32955450694E+01 -0.12508452906E+02  0.19370078240E+02  0.23292100436E+02  0.51100000000E-03 0.  1.
         12    1    3    3    0    0  0.48058463273E+01 -0.72520272513E+01  0.73322168396E+01  0.11377585946E+02  0.00000000000E+00 0. -1.
</event>
<event>
 7    1  0.5504027E-010  0.4778727E+02  0.7816164E-02  0.1312668E+00
        -11   -1    0    0    0    0  0.00000000000E+00  0.00000000000E+00  0.45593999997E+02  0.45594000000E+02  0.51100000000E-03 0.  1.
         11   -1    0    0    0    0 -0.00000000000E+00 -0.00000000000E+00 -0.45593999997E+02  0.45594000000E+02  0.51100000000E-03 0. -1.
    9900012    2    1    2    0    0  0.31202183704E+02  0.26322671317E+01  0.30051922975E+02  0.47787272211E+02  0.20000005317E+02 0.  0.
         12    1    1    2    0    0 -0.31202183704E+02 -0.26322671317E+01 -0.30051922975E+02  0.43400727789E+02  0.00000000000E+00 0. -1.
         11    1    3    3    0    0  0.21163312514E+02  0.13325223359E+01  0.11454581485E+02  0.24101220915E+02  0.51100000000E-03 0. -1.
        -11    1    3    3    0    0  0.73423907686E+01  0.42847949260E+01  0.17593989902E+02  0.19540180416E+02  0.51100000000E-03 0.  1.
        -12    1    3    3    0    0  0.26964804215E+01 -0.29850501302E+01  0.10033515881E+01  0.41458708799E+01  0.00000000000E+00 0.  1.
</event>
<event>
 7    1  0.5504027E-010  0.4778727E+02  0.7816164E-02  0.1312668E+00
        -11   -1    0    0    0    0  0.00000000000E+00  0.00000000000E+00  0.45593999997E+02  0.45594000000E+02  0.51100000000E-03 0.  1.
         11   -1    0    0    0    0 -0.00000000000E+00 -0.00000000000E+00 -0.45593999997E+02  0.45594000000E+02  0.51100000000E-03 0. -1.
    9900012    2    1    2    0    0 -0.82625321366E+01 -0.13785320929E+02  0.40315245739E+02  0.47787267870E+02  0.19999985527E+02 0.  0.
         12    1    1    2    0    0  0.82625321366E+01  0.13785320929E+02 -0.40315245739E+02  0.43400732130E+02  0.00000000000E+00 0. -1.
         11    1    3    3    0    0 -0.84586513524E+01 -0.14507412037E+02  0.26535733739E+02  0.31403167866E+02  0.51100000000E-03 0. -1.
        -11    1    3    3    0    0 -0.32312748067E+01  0.32227024191E+01  0.62081625165E+01  0.77050781859E+01  0.51100000000E-03 0.  1.
         12    1    3    3    0    0  0.34273940225E+01 -0.25006113117E+01  0.75713494835E+01  0.86790218181E+01  0.00000000000E+00 0. -1.
</event>
<event>
 7    1  0.5504027E-010  0.4778731E+02  0.7816164E-02  0.1312668E+00
        -11   -1    0    0    0    0  0.00000000000E+00  0.00000000000E+00  0.45593999997E+02  0.45594000000E+02  0.51100000000E-03 0. -1.
         11   -1    0    0    0    0 -0.00000000000E+00 -0.00000000000E+00 -0.45593999997E+02  0.45594000000E+02  0.51100000000E-03 0.  1.
    9900012    2    1    2    0    0  0.19412119057E+02 -0.32748075449E+02 -0.20841129705E+02  0.47787314530E+02  0.20000198267E+02 0.  0.
         12    1    1    2    0    0 -0.19412119057E+02  0.32748075449E+02  0.20841129705E+02  0.43400685470E+02  0.00000000000E+00 0. -1.
         11    1    3    3    0    0  0.15207615137E+02 -0.10976477561E+02 -0.63931362554E+01  0.19814812874E+02  0.51100000000E-03 0. -1.
        -11    1    3    3    0    0  0.29809869601E+00 -0.16660949839E+02 -0.68485131593E+01  0.18016055204E+02  0.51100000000E-03 0.  1.
        -12    1    3    3    0    0  0.39064052241E+01 -0.51106480490E+01 -0.75994802905E+01  0.99564464515E+01  0.00000000000E+00 0.  1.
</event>
<event>
 7    1  0.5504027E-010  0.4778727E+02  0.7816164E-02  0.1312668E+00
        -11   -1    0    0    0    0  0.00000000000E+00  0.00000000000E+00  0.45593999997E+02  0.45594000000E+02  0.51100000000E-03 0.  1.
         11   -1    0    0    0    0 -0.00000000000E+00 -0.00000000000E+00 -0.45593999997E+02  0.45594000000E+02  0.51100000000E-03 0. -1.
    9900012    2    1    2    0    0  0.26702469698E+02 -0.92841648532E+01  0.32930315778E+02  0.47787270718E+02  0.19999998512E+02 0.  0.
         12    1    1    2    0    0 -0.26702469698E+02  0.92841648532E+01 -0.32930315778E+02  0.43400729282E+02  0.00000000000E+00 0. -1.
         11    1    3    3    0    0  0.83487824360E+00 -0.42199884306E+00 -0.71580160400E+00  0.11779120946E+01  0.51100000000E-03 0. -1.
        -11    1    3    3    0    0  0.17530343258E+02 -0.88317460346E+01  0.11053762265E+02  0.22527723659E+02  0.51100000000E-03 0.  1.
        -12    1    3    3    0    0  0.83372481959E+01 -0.30419975474E-01  0.22592355117E+02  0.24081634965E+02  0.00000000000E+00 0.  1.
</event>
<event>
 7    1  0.5504027E-010  0.4778727E+02  0.7816164E-02  0.1312668E+00
        -11   -1    0    0    0    0  0.00000000000E+00  0.00000000000E+00  0.45593999997E+02  0.45594000000E+02  0.51100000000E-03 0.  1.
         11   -1    0    0    0    0 -0.00000000000E+00 -0.00000000000E+00 -0.45593999997E+02  0.45594000000E+02  0.51100000000E-03 0. -1.
    9900012    2    1    2    0    0  0.27482769433E+02 -0.22724542958E+01  0.33513528478E+02  0.47787271259E+02  0.20000000977E+02 0.  0.
         12    1    1    2    0    0 -0.27482769433E+02  0.22724542958E+01 -0.33513528478E+02  0.43400728741E+02  0.00000000000E+00 0. -1.
         11    1    3    3    0    0  0.21266564154E+02  0.15101121734E+01  0.13900970752E+02  0.25451604621E+02  0.51100000000E-03 0. -1.
        -11    1    3    3    0    0  0.45042341854E+01  0.16956442126E+01  0.72007589012E+01  0.86610775258E+01  0.51100000000E-03 0.  1.
         12    1    3    3    0    0  0.17119710936E+01 -0.54782106819E+01  0.12411798825E+02  0.13674589111E+02  0.00000000000E+00 0. -1.
</event>
<event>
 7    1  0.5504027E-010  0.4778727E+02  0.7816164E-02  0.1312668E+00
        -11   -1    0    0    0    0  0.00000000000E+00  0.00000000000E+00  0.45593999997E+02  0.45594000000E+02  0.51100000000E-03 0. -1.
         11   -1    0    0    0    0 -0.00000000000E+00 -0.00000000000E+00 -0.45593999997E+02  0.45594000000E+02  0.51100000000E-03 0.  1.
    9900012    2    1    2    0    0  0.29007472142E+02 -0.11358962277E+02 -0.30218600467E+02  0.47787270994E+02  0.19999999768E+02 0.  0.
         12    1    1    2    0    0 -0.29007472142E+02  0.11358962277E+02  0.30218600467E+02  0.43400729006E+02  0.00000000000E+00 0. -1.
         11    1    3    3    0    0  0.15111325303E+01 -0.29094872884E+01 -0.45311788774E+01  0.55928722572E+01  0.51100000000E-03 0. -1.
        -11    1    3    3    0    0  0.21341311501E+02 -0.54159249364E+01 -0.27372179877E+02  0.35128621535E+02  0.51100000000E-03 0.  1.
        -12    1    3    3    0    0  0.61550281114E+01 -0.30335500522E+01  0.16847582871E+01  0.70657772012E+01  0.00000000000E+00 0.  1.
</event>
<event>
 7    1  0.5504027E-010  0.4778727E+02  0.7816164E-02  0.1312668E+00
        -11   -1    0    0    0    0  0.00000000000E+00  0.00000000000E+00  0.45593999997E+02  0.45594000000E+02  0.51100000000E-03 0.  1.
         11   -1    0    0    0    0 -0.00000000000E+00 -0.00000000000E+00 -0.45593999997E+02  0.45594000000E+02  0.51100000000E-03 0. -1.
    9900012    2    1    2    0    0  0.29172119911E+01  0.32000055860E+02  0.29173780844E+02  0.47787272016E+02  0.20000004429E+02 0.  0.
         12    1    1    2    0    0 -0.29172119911E+01 -0.32000055860E+02 -0.29173780844E+02  0.43400727984E+02  0.00000000000E+00 0. -1.
         11    1    3    3    0    0 -0.11411443809E+01  0.29057756215E+01 -0.19859084513E+01  0.36999425805E+01  0.51100000000E-03 0. -1.
        -11    1    3    3    0    0  0.43449853213E+01  0.29837521581E+02  0.29207978039E+02  0.41979311249E+02  0.51100000000E-03 0.  1.
        -12    1    3    3    0    0 -0.28662894924E+00 -0.74324134269E+00  0.19517112554E+01  0.21080181860E+01  0.00000000000E+00 0.  1.
</event>
<event>
 7    1  0.5504027E-010  0.4778727E+02  0.7816164E-02  0.1312668E+00
        -11   -1    0    0    0    0  0.00000000000E+00  0.00000000000E+00  0.45593999997E+02  0.45594000000E+02  0.51100000000E-03 0. -1.
         11   -1    0    0    0    0 -0.00000000000E+00 -0.00000000000E+00 -0.45593999997E+02  0.45594000000E+02  0.51100000000E-03 0.  1.
    9900012    2    1    2    0    0 -0.26418597815E+02  0.17172229052E+01 -0.34390867522E+02  0.47787274960E+02  0.20000017854E+02 0.  0.
         12    1    1    2    0    0  0.26418597815E+02 -0.17172229052E+01  0.34390867522E+02  0.43400725040E+02  0.00000000000E+00 0. -1.
         11    1    3    3    0    0 -0.74871793863E+01 -0.33898200652E+01 -0.42047510759E+01  0.92319373432E+01  0.51100000000E-03 0. -1.
        -11    1    3    3    0    0 -0.80003207162E+01  0.81984782557E+01 -0.92010509586E+01  0.14692838945E+02  0.51100000000E-03 0.  1.
        -12    1    3    3    0    0 -0.10931097712E+02 -0.30914352854E+01 -0.20985065488E+02  0.23862498672E+02  0.00000000000E+00 0.  1.
</event>
<event>
 7    1  0.5504027E-010  0.4778727E+02  0.7816164E-02  0.1312668E+00
        -11   -1    0    0    0    0  0.00000000000E+00  0.00000000000E+00  0.45593999997E+02  0.45594000000E+02  0.51100000000E-03 0. -1.
         11   -1    0    0    0    0 -0.00000000000E+00 -0.00000000000E+00 -0.45593999997E+02  0.45594000000E+02  0.51100000000E-03 0.  1.
    9900012    2    1    2    0    0  0.23085785792E+01 -0.55601562689E+00 -0.43335720363E+02  0.47787270193E+02  0.19999996116E+02 0.  0.
         12    1    1    2    0    0 -0.23085785792E+01  0.55601562689E+00  0.43335720363E+02  0.43400729807E+02  0.00000000000E+00 0. -1.
         11    1    3    3    0    0  0.21987119027E+01 -0.15589375346E+01  0.11523792720E+01  0.29313134454E+01  0.51100000000E-03 0. -1.
        -11    1    3    3    0    0  0.21759667913E+01  0.15935835122E+01 -0.12113788643E+02  0.12410407546E+02  0.51100000000E-03 0.  1.
         12    1    3    3    0    0 -0.20661001148E+01 -0.59066160447E+00 -0.32374310992E+02  0.32445549202E+02  0.00000000000E+00 0. -1.
</event>
<event>
 7    1  0.5504027E-010  0.4778721E+02  0.7816164E-02  0.1312668E+00
        -11   -1    0    0    0    0  0.00000000000E+00  0.00000000000E+00  0.45593999997E+02  0.45594000000E+02  0.51100000000E-03 0.  1.
         11   -1    0    0    0    0 -0.00000000000E+00 -0.00000000000E+00 -0.45593999997E+02  0.45594000000E+02  0.51100000000E-03 0. -1.
    9900012    2    1    2    0    0  0.43001351459E+02 -0.90245414110E+00 -0.58049689153E+01  0.47787212969E+02  0.19999735211E+02 0.  0.
         12    1    1    2    0    0 -0.43001351459E+02  0.90245414110E+00  0.58049689153E+01  0.43400787031E+02  0.00000000000E+00 0. -1.
         11    1    3    3    0    0  0.20873044786E+02 -0.74053004963E+01 -0.88092655229E+01  0.23835386160E+02  0.51100000000E-03 0. -1.
        -11    1    3    3    0    0  0.15169386573E+02  0.29439252166E+01 -0.32575477616E+00  0.15455843591E+02  0.51100000000E-03 0.  1.
         12    1    3    3    0    0  0.69589201002E+01  0.35589211386E+01  0.33300513837E+01  0.84959832185E+01  0.00000000000E+00 0. -1.
</event>
<event>
 7    1  0.5504027E-010  0.4778727E+02  0.7816164E-02  0.1312668E+00
        -11   -1    0    0    0    0  0.00000000000E+00  0.00000000000E+00  0.45593999997E+02  0.45594000000E+02  0.51100000000E-03 0.  1.
         11   -1    0    0    0    0 -0.00000000000E+00 -0.00000000000E+00 -0.45593999997E+02  0.45594000000E+02  0.51100000000E-03 0. -1.
    9900012    2    1    2    0    0  0.25915589767E+02 -0.13405151936E+02  0.32129548239E+02  0.47787265427E+02  0.19999974389E+02 0.  0.
         12    1    1    2    0    0 -0.25915589767E+02  0.13405151936E+02 -0.32129548239E+02  0.43400734573E+02  0.00000000000E+00 0. -1.
         11    1    3    3    0    0  0.14312699897E+02 -0.18010077137E+01  0.55751073971E+01  0.15465407524E+02  0.51100000000E-03 0. -1.
        -11    1    3    3    0    0  0.40878557642E+01  0.52009834519E+00  0.50741560231E+01  0.65366755040E+01  0.51100000000E-03 0.  1.
         12    1    3    3    0    0  0.75150341052E+01 -0.12124242568E+02  0.21480284819E+02  0.25785182399E+02  0.00000000000E+00 0. -1.
</event>
<event>
 7    1  0.5504027E-010  0.4778727E+02  0.7816164E-02  0.1312668E+00
        -11   -1    0    0    0    0  0.00000000000E+00  0.00000000000E+00  0.45593999997E+02  0.45594000000E+02  0.51100000000E-03 0.  1.
         11   -1    0    0    0    0 -0.00000000000E+00 -0.00000000000E+00 -0.45593999997E+02  0.45594000000E+02  0.51100000000E-03 0. -1.
    9900012    2    1    2    0    0 -0.42544481720E+02 -0.71262132948E+01  0.47757096056E+01  0.47787271400E+02  0.20000001620E+02 0.  0.
         12    1    1    2    0    0  0.42544481720E+02  0.71262132948E+01 -0.47757096056E+01  0.43400728600E+02  0.00000000000E+00 0. -1.
         11    1    3    3    0    0 -0.37900501412E+01 -0.57926918796E+01  0.34138859977E+01  0.77184439592E+01  0.51100000000E-03 0. -1.
        -11    1    3    3    0    0 -0.29372660543E+02 -0.42259824558E+01 -0.18675027505E+01  0.29733813779E+02  0.51100000000E-03 0.  1.
         12    1    3    3    0    0 -0.93817710363E+01  0.28924610405E+01  0.32293263583E+01  0.10335013661E+02  0.00000000000E+00 0. -1.
</event>
<event>
 7    1  0.5504027E-010  0.4778727E+02  0.7816164E-02  0.1312668E+00
        -11   -1    0    0    0    0  0.00000000000E+00  0.00000000000E+00  0.45593999997E+02  0.45594000000E+02  0.51100000000E-03 0.  1.
         11   -1    0    0    0    0 -0.00000000000E+00 -0.00000000000E+00 -0.45593999997E+02  0.45594000000E+02  0.51100000000E-03 0. -1.
    9900012    2    1    2    0    0 -0.63859165973E+01  0.34485443254E+01  0.42789610784E+02  0.47787272128E+02  0.20000004941E+02 0.  0.
         12    1    1    2    0    0  0.63859165973E+01 -0.34485443254E+01 -0.42789610784E+02  0.43400727872E+02  0.00000000000E+00 0. -1.
         11    1    3    3    0    0 -0.22491949907E+01  0.15707354694E+01  0.30694435076E+00  0.27604896516E+01  0.51100000000E-03 0. -1.
        -11    1    3    3    0    0 -0.44505016621E+01  0.10724851283E+01  0.43472408118E+02  0.43712783682E+02  0.51100000000E-03 0.  1.
        -12    1    3    3    0    0  0.31378005539E+00  0.80532372773E+00 -0.98974168456E+00  0.13139987944E+01  0.00000000000E+00 0.  1.
</event>
<event>
 7    1  0.5504027E-010  0.4778727E+02  0.7816164E-02  0.1312668E+00
        -11   -1    0    0    0    0  0.00000000000E+00  0.00000000000E+00  0.45593999997E+02  0.45594000000E+02  0.51100000000E-03 0. -1.
         11   -1    0    0    0    0 -0.00000000000E+00 -0.00000000000E+00 -0.45593999997E+02  0.45594000000E+02  0.51100000000E-03 0.  1.
    9900012    2    1    2    0    0  0.24813668903E+02 -0.15389627037E+02 -0.32110187877E+02  0.47787274772E+02  0.20000016997E+02 0.  0.
         12    1    1    2    0    0 -0.24813668903E+02  0.15389627037E+02  0.32110187877E+02  0.43400725228E+02  0.00000000000E+00 0. -1.
         11    1    3    3    0    0  0.86961359855E+00 -0.34729177810E+00 -0.11508743479E+02  0.11546775139E+02  0.51100000000E-03 0. -1.
        -11    1    3    3    0    0  0.59818313615E+01 -0.90842519776E+01 -0.80541609161E+01  0.13534232477E+02  0.51100000000E-03 0.  1.
         12    1    3    3    0    0  0.17962223943E+02 -0.59580832814E+01 -0.12547283482E+02  0.22706267156E+02  0.00000000000E+00 0. -1.
</event>
<event>
 7    1  0.5504027E-010  0.4778727E+02  0.7816164E-02  0.1312668E+00
        -11   -1    0    0    0    0  0.00000000000E+00  0.00000000000E+00  0.45593999997E+02  0.45594000000E+02  0.51100000000E-03 0.  1.
         11   -1    0    0    0    0 -0.00000000000E+00 -0.00000000000E+00 -0.45593999997E+02  0.45594000000E+02  0.51100000000E-03 0. -1.
    9900012    2    1    2    0    0 -0.22571457633E+02  0.36599103247E+02 -0.58871655054E+01  0.47787265261E+02  0.19999973632E+02 0.  0.
         12    1    1    2    0    0  0.22571457633E+02 -0.36599103247E+02  0.58871655054E+01  0.43400734739E+02  0.00000000000E+00 0. -1.
         11    1    3    3    0    0 -0.31601760271E+01  0.19991544926E+00  0.22079551184E+01  0.38602778106E+01  0.51100000000E-03 0. -1.
        -11    1    3    3    0    0 -0.15563565485E+02  0.29108541616E+02 -0.95632927265E+00  0.33021906843E+02  0.51100000000E-03 0.  1.
        -12    1    3    3    0    0 -0.38477161209E+01  0.72906461815E+01 -0.71387913512E+01  0.10905080607E+02  0.00000000000E+00 0.  1.
</event>
<event>
 7    1  0.5504027E-010  0.4778727E+02  0.7816164E-02  0.1312668E+00
        -11   -1    0    0    0    0  0.00000000000E+00  0.00000000000E+00  0.45593999997E+02  0.45594000000E+02  0.51100000000E-03 0. -1.
         11   -1    0    0    0    0 -0.00000000000E+00 -0.00000000000E+00 -0.45593999997E+02  0.45594000000E+02  0.51100000000E-03 0.  1.
    9900012    2    1    2    0    0 -0.55120494155E+01 -0.35558818677E+02  0.24265424525E+02  0.47787273026E+02  0.20000009036E+02 0.  0.
         12    1    1    2    0    0  0.55120494155E+01  0.35558818677E+02 -0.24265424525E+02  0.43400726974E+02  0.00000000000E+00 0. -1.
         11    1    3    3    0    0  0.10200599230E+01 -0.20064416409E+02  0.67635506391E+01  0.21198276949E+02  0.51100000000E-03 0. -1.
        -11    1    3    3    0    0  0.13482823733E+01 -0.10581556138E+02  0.10404081227E+02  0.14900741663E+02  0.51100000000E-03 0.  1.
         12    1    3    3    0    0 -0.78803917118E+01 -0.49128461293E+01  0.70977926586E+01  0.11688254414E+02  0.00000000000E+00 0. -1.
</event>
<event>
 7    1  0.5504027E-010  0.4778727E+02  0.7816164E-02  0.1312668E+00
        -11   -1    0    0    0    0  0.00000000000E+00  0.00000000000E+00  0.45593999997E+02  0.45594000000E+02  0.51100000000E-03 0.  1.
         11   -1    0    0    0    0 -0.00000000000E+00 -0.00000000000E+00 -0.45593999997E+02  0.45594000000E+02  0.51100000000E-03 0. -1.
    9900012    2    1    2    0    0 -0.28115721962E+01 -0.17096315380E+02  0.39792392008E+02  0.47787269597E+02  0.19999993401E+02 0.  0.
         12    1    1    2    0    0  0.28115721962E+01  0.17096315380E+02 -0.39792392008E+02  0.43400730403E+02  0.00000000000E+00 0. -1.
         11    1    3    3    0    0  0.23102534185E+01  0.12839924047E+01  0.71345217761E+01  0.76083709549E+01  0.51100000000E-03 0. -1.
        -11    1    3    3    0    0 -0.82664075916E+01 -0.18469899589E+02  0.27617304172E+02  0.34237204548E+02  0.51100000000E-03 0.  1.
        -12    1    3    3    0    0  0.31445819769E+01  0.89591803737E-01  0.50405660600E+01  0.59416940940E+01  0.00000000000E+00 0.  1.
</event>
<event>
 7    1  0.5504027E-010  0.4778725E+02  0.7816164E-02  0.1312668E+00
        -11   -1    0    0    0    0  0.00000000000E+00  0.00000000000E+00  0.45593999997E+02  0.45594000000E+02  0.51100000000E-03 0. -1.
         11   -1    0    0    0    0 -0.00000000000E+00 -0.00000000000E+00 -0.45593999997E+02  0.45594000000E+02  0.51100000000E-03 0.  1.
    9900012    2    1    2    0    0 -0.33173271090E+02  0.24000202713E+02  0.14392685009E+02  0.47787250850E+02  0.19999907924E+02 0.  0.
         12    1    1    2    0    0  0.33173271090E+02 -0.24000202713E+02 -0.14392685009E+02  0.43400749150E+02  0.00000000000E+00 0. -1.
         11    1    3    3    0    0 -0.11989666585E+02  0.14998061449E+02  0.13798729465E+02  0.23645271983E+02  0.51100000000E-03 0. -1.
        -11    1    3    3    0    0 -0.12880279119E+02  0.18236311547E+01  0.16597458844E+01  0.13114189927E+02  0.51100000000E-03 0.  1.
         12    1    3    3    0    0 -0.83033253858E+01  0.71785101091E+01 -0.10657903406E+01  0.11027788940E+02  0.00000000000E+00 0. -1.
</event>
<event>
 7    1  0.5504027E-010  0.4778727E+02  0.7816164E-02  0.1312668E+00
        -11   -1    0    0    0    0  0.00000000000E+00  0.00000000000E+00  0.45593999997E+02  0.45594000000E+02  0.51100000000E-03 0. -1.
         11   -1    0    0    0    0 -0.00000000000E+00 -0.00000000000E+00 -0.45593999997E+02  0.45594000000E+02  0.51100000000E-03 0.  1.
    9900012    2    1    2    0    0  0.49673819312E+01 -0.70091385769E+01 -0.42541988696E+02  0.47787266031E+02  0.19999977140E+02 0.  0.
         12    1    1    2    0    0 -0.49673819312E+01  0.70091385769E+01  0.42541988696E+02  0.43400733969E+02  0.00000000000E+00 0. -1.
         11    1    3    3    0    0  0.83961761728E+01 -0.85064366883E+01 -0.19611051148E+02  0.22966248428E+02  0.51100000000E-03 0. -1.
        -11    1    3    3    0    0  0.35811458409E+00  0.35343232765E+01 -0.17683488785E+02  0.18036780836E+02  0.51100000000E-03 0.  1.
         12    1    3    3    0    0 -0.37869088256E+01 -0.20370251652E+01 -0.52474487637E+01  0.67842367666E+01  0.00000000000E+00 0. -1.
</event>
<event>
 7    1  0.5504027E-010  0.4778726E+02  0.7816164E-02  0.1312668E+00
        -11   -1    0    0    0    0  0.00000000000E+00  0.00000000000E+00  0.45593999997E+02  0.45594000000E+02  0.51100000000E-03 0.  1.
         11   -1    0    0    0    0 -0.00000000000E+00 -0.00000000000E+00 -0.45593999997E+02  0.45594000000E+02  0.51100000000E-03 0. -1.
    9900012    2    1    2    0    0 -0.28080631287E+02 -0.22631220041E+02 -0.24143953158E+02  0.47787257516E+02  0.19999938320E+02 0.  0.
         12    1    1    2    0    0  0.28080631287E+02  0.22631220041E+02  0.24143953158E+02  0.43400742484E+02  0.00000000000E+00 0. -1.
         11    1    3    3    0    0 -0.12813016663E+02 -0.21696023237E+02 -0.12074878954E+02  0.27940893370E+02  0.51100000000E-03 0. -1.
        -11    1    3    3    0    0 -0.14813421231E+02 -0.16417732922E+01 -0.11252457139E+02  0.18674867068E+02  0.51100000000E-03 0.  1.
         12    1    3    3    0    0 -0.45419339240E+00  0.70657648780E+00 -0.81661706588E+00  0.11714970777E+01  0.00000000000E+00 0. -1.
</event>
<event>
 7    1  0.5504027E-010  0.4778727E+02  0.7816164E-02  0.1312668E+00
        -11   -1    0    0    0    0  0.00000000000E+00  0.00000000000E+00  0.45593999997E+02  0.45594000000E+02  0.51100000000E-03 0. -1.
         11   -1    0    0    0    0 -0.00000000000E+00 -0.00000000000E+00 -0.45593999997E+02  0.45594000000E+02  0.51100000000E-03 0.  1.
    9900012    2    1    2    0    0 -0.97884474582E+01  0.40741180279E+02 -0.11312219879E+02  0.47787265067E+02  0.19999972744E+02 0.  0.
         12    1    1    2    0    0  0.97884474582E+01 -0.40741180279E+02  0.11312219879E+02  0.43400734933E+02  0.00000000000E+00 0. -1.
         11    1    3    3    0    0 -0.10414636903E+02  0.19841603696E+02 -0.98118083492E+01  0.24462736609E+02  0.51100000000E-03 0.  1.
        -11    1    3    3    0    0 -0.17509962011E+01  0.18906012454E+02  0.14512214840E+01  0.19042303922E+02  0.51100000000E-03 0. -1.
         12    1    3    3    0    0  0.23771856455E+01  0.19935641295E+01 -0.29516330133E+01  0.42822245360E+01  0.00000000000E+00 0. -1.
</event>
<event>
 7    1  0.5504027E-010  0.4778727E+02  0.7816164E-02  0.1312668E+00
        -11   -1    0    0    0    0  0.00000000000E+00  0.00000000000E+00  0.45593999997E+02  0.45594000000E+02  0.51100000000E-03 0.  1.
         11   -1    0    0    0    0 -0.00000000000E+00 -0.00000000000E+00 -0.45593999997E+02  0.45594000000E+02  0.51100000000E-03 0. -1.
    9900012    2    1    2    0    0  0.85422109969E+01  0.42513425893E+02 -0.18062350632E+01  0.47787271493E+02  0.20000002044E+02 0.  0.
         12    1    1    2    0    0 -0.85422109969E+01 -0.42513425893E+02  0.18062350632E+01  0.43400728507E+02  0.00000000000E+00 0. -1.
         11    1    3    3    0    0  0.97289154693E+01  0.17973466088E+02 -0.37335410970E+01  0.20775866018E+02  0.51100000000E-03 0. -1.
        -11    1    3    3    0    0 -0.50356152926E+01  0.16113904683E+02 -0.18988152972E+01  0.16988844731E+02  0.51100000000E-03 0.  1.
         12    1    3    3    0    0  0.38489108202E+01  0.84260551221E+01  0.38261213310E+01  0.10022560744E+02  0.00000000000E+00 0. -1.
</event>
<event>
 7    1  0.5504027E-010  0.4778727E+02  0.7816164E-02  0.1312668E+00
        -11   -1    0    0    0    0  0.00000000000E+00  0.00000000000E+00  0.45593999997E+02  0.45594000000E+02  0.51100000000E-03 0.  1.
         11   -1    0    0    0    0 -0.00000000000E+00 -0.00000000000E+00 -0.45593999997E+02  0.45594000000E+02  0.51100000000E-03 0. -1.
    9900012    2    1    2    0    0 -0.88015188583E+01 -0.75906119255E+01  0.41815534597E+02  0.47787273540E+02  0.20000011380E+02 0.  0.
         12    1    1    2    0    0  0.88015188583E+01  0.75906119255E+01 -0.41815534597E+02  0.43400726460E+02  0.00000000000E+00 0. -1.
         11    1    3    3    0    0  0.27757988814E+01  0.14773568334E+01  0.17827921889E+02  0.18103105860E+02  0.51100000000E-03 0.  1.
        -11    1    3    3    0    0 -0.10741637675E+02 -0.47400819179E+01  0.11472514559E+02  0.16415533713E+02  0.51100000000E-03 0. -1.
         12    1    3    3    0    0 -0.83568006507E+00 -0.43278868410E+01  0.12515098149E+02  0.13268633967E+02  0.00000000000E+00 0. -1.
</event>
<event>
 7    1  0.5504027E-010  0.4778727E+02  0.7816164E-02  0.1312668E+00
        -11   -1    0    0    0    0  0.00000000000E+00  0.00000000000E+00  0.45593999997E+02  0.45594000000E+02  0.51100000000E-03 0.  1.
         11   -1    0    0    0    0 -0.00000000000E+00 -0.00000000000E+00 -0.45593999997E+02  0.45594000000E+02  0.51100000000E-03 0. -1.
    9900012    2    1    2    0    0  0.32377894296E+02  0.17341612228E+02  0.23120631610E+02  0.47787272359E+02  0.20000005994E+02 0.  0.
         12    1    1    2    0    0 -0.32377894296E+02 -0.17341612228E+02 -0.23120631610E+02  0.43400727641E+02  0.00000000000E+00 0. -1.
         11    1    3    3    0    0  0.14611995026E+01 -0.13603249741E+01  0.23490854355E+00  0.20101667360E+01  0.51100000000E-03 0. -1.
        -11    1    3    3    0    0  0.31634195902E+01  0.45346571529E+01  0.11213537816E+02  0.12502550525E+02  0.51100000000E-03 0.  1.
        -12    1    3    3    0    0  0.27753275203E+02  0.14167280050E+02  0.11672185250E+02  0.33274555099E+02  0.00000000000E+00 0.  1.
</event>
<event>
 7    1  0.5504027E-010  0.4778727E+02  0.7816164E-02  0.1312668E+00
        -11   -1    0    0    0    0  0.00000000000E+00  0.00000000000E+00  0.45593999997E+02  0.45594000000E+02  0.51100000000E-03 0.  1.
         11   -1    0    0    0    0 -0.00000000000E+00 -0.00000000000E+00 -0.45593999997E+02  0.45594000000E+02  0.51100000000E-03 0. -1.
    9900012    2    1    2    0    0 -0.25738245867E+02  0.12956458819E+02  0.32454525823E+02  0.47787269916E+02  0.19999994855E+02 0.  0.
         12    1    1    2    0    0  0.25738245867E+02 -0.12956458819E+02 -0.32454525823E+02  0.43400730084E+02  0.00000000000E+00 0. -1.
         11    1    3    3    0    0 -0.13305955706E+01 -0.32179177373E+01 -0.39930750292E+00  0.35049858601E+01  0.51100000000E-03 0. -1.
        -11    1    3    3    0    0 -0.18759897649E+02  0.13326806300E+02  0.22728802381E+02  0.32344025474E+02  0.51100000000E-03 0.  1.
         12    1    3    3    0    0 -0.56477526483E+01  0.28475702562E+01  0.10125030944E+02  0.11938258582E+02  0.00000000000E+00 0. -1.
</event>
<event>
 7    1  0.5504027E-010  0.4778727E+02  0.7816164E-02  0.1312668E+00
        -11   -1    0    0    0    0  0.00000000000E+00  0.00000000000E+00  0.45593999997E+02  0.45594000000E+02  0.51100000000E-03 0.  1.
         11   -1    0    0    0    0 -0.00000000000E+00 -0.00000000000E+00 -0.45593999997E+02  0.45594000000E+02  0.51100000000E-03 0. -1.
    9900012    2    1    2    0    0 -0.36061889377E+02 -0.18420475408E+02  0.15615677985E+02  0.47787272141E+02  0.20000005000E+02 0.  0.
         12    1    1    2    0    0  0.36061889377E+02  0.18420475408E+02 -0.15615677985E+02  0.43400727859E+02  0.00000000000E+00 0. -1.
         11    1    3    3    0    0 -0.13749201964E+02 -0.44702676492E+01  0.14025749569E+02  0.20143125347E+02  0.51100000000E-03 0.  1.
        -11    1    3    3    0    0 -0.19006960559E+02 -0.14542399325E+02  0.85749399799E-02  0.23932112352E+02  0.51100000000E-03 0. -1.
        -12    1    3    3    0    0 -0.33057268541E+01  0.59219156586E+00  0.15813534762E+01  0.37120344424E+01  0.00000000000E+00 0.  1.
</event>
<event>
 7    1  0.5504027E-010  0.4778727E+02  0.7816164E-02  0.1312668E+00
        -11   -1    0    0    0    0  0.00000000000E+00  0.00000000000E+00  0.45593999997E+02  0.45594000000E+02  0.51100000000E-03 0.  1.
         11   -1    0    0    0    0 -0.00000000000E+00 -0.00000000000E+00 -0.45593999997E+02  0.45594000000E+02  0.51100000000E-03 0. -1.
    9900012    2    1    2    0    0 -0.18668380718E+02 -0.15179358068E+02  0.36120658317E+02  0.47787270660E+02  0.19999998246E+02 0.  0.
         12    1    1    2    0    0  0.18668380718E+02  0.15179358068E+02 -0.36120658317E+02  0.43400729340E+02  0.00000000000E+00 0. -1.
         11    1    3    3    0    0 -0.14942965332E+00 -0.88754934751E+01  0.71610609397E+01  0.11405152682E+02  0.51100000000E-03 0. -1.
        -11    1    3    3    0    0 -0.13719187620E+02 -0.14462306611E+01  0.24820955889E+02  0.28396963633E+02  0.51100000000E-03 0.  1.
        -12    1    3    3    0    0 -0.47997634449E+01 -0.48576339316E+01  0.41386414884E+01  0.79851543448E+01  0.00000000000E+00 0.  1.
</event>
<event>
 7    1  0.5504027E-010  0.4778727E+02  0.7816164E-02  0.1312668E+00
        -11   -1    0    0    0    0  0.00000000000E+00  0.00000000000E+00  0.45593999997E+02  0.45594000000E+02  0.51100000000E-03 0.  1.
         11   -1    0    0    0    0 -0.00000000000E+00 -0.00000000000E+00 -0.45593999997E+02  0.45594000000E+02  0.51100000000E-03 0. -1.
    9900012    2    1    2    0    0  0.18715700220E+01  0.27498669983E+02  0.33525267661E+02  0.47787271931E+02  0.20000004043E+02 0.  0.
         12    1    1    2    0    0 -0.18715700220E+01 -0.27498669983E+02 -0.33525267661E+02  0.43400728069E+02  0.00000000000E+00 0. -1.
         11    1    3    3    0    0  0.45489602871E+01 -0.39474229128E+00  0.18199372620E+01  0.49153873773E+01  0.51100000000E-03 0. -1.
        -11    1    3    3    0    0 -0.61795649174E+00  0.18587459898E+02  0.16162432198E+02  0.24639394280E+02  0.51100000000E-03 0.  1.
        -12    1    3    3    0    0 -0.20594337734E+01  0.93059523759E+01  0.15542898201E+02  0.18232490274E+02  0.00000000000E+00 0.  1.
</event>
<event>
 7    1  0.5504027E-010  0.4778727E+02  0.7816164E-02  0.1312668E+00
        -11   -1    0    0    0    0  0.00000000000E+00  0.00000000000E+00  0.45593999997E+02  0.45594000000E+02  0.51100000000E-03 0. -1.
         11   -1    0    0    0    0 -0.00000000000E+00 -0.00000000000E+00 -0.45593999997E+02  0.45594000000E+02  0.51100000000E-03 0.  1.
    9900012    2    1    2    0    0 -0.16564174398E+02 -0.14668316391E+02 -0.37337537618E+02  0.47787273109E+02  0.20000009415E+02 0.  0.
         12    1    1    2    0    0  0.16564174398E+02  0.14668316391E+02  0.37337537618E+02  0.43400726891E+02  0.00000000000E+00 0. -1.
         11    1    3    3    0    0 -0.21282587199E+01  0.39917740801E+01 -0.14763597297E+01  0.47585064671E+01  0.51100000000E-03 0. -1.
        -11    1    3    3    0    0 -0.81821948366E+01 -0.11755207927E+02 -0.23968856909E+02  0.27922022267E+02  0.51100000000E-03 0.  1.
         12    1    3    3    0    0 -0.62537208415E+01 -0.69048825446E+01 -0.11892320980E+02  0.15106744375E+02  0.00000000000E+00 0. -1.
</event>
<event>
 7    1  0.5504027E-010  0.4778726E+02  0.7816164E-02  0.1312668E+00
        -11   -1    0    0    0    0  0.00000000000E+00  0.00000000000E+00  0.45593999997E+02  0.45594000000E+02  0.51100000000E-03 0.  1.
         11   -1    0    0    0    0 -0.00000000000E+00 -0.00000000000E+00 -0.45593999997E+02  0.45594000000E+02  0.51100000000E-03 0. -1.
    9900012    2    1    2    0    0  0.25787034100E+02 -0.15593126791E+02  0.31233110941E+02  0.47787263257E+02  0.19999964493E+02 0.  0.
         12    1    1    2    0    0 -0.25787034100E+02  0.15593126791E+02 -0.31233110941E+02  0.43400736743E+02  0.00000000000E+00 0. -1.
         11    1    3    3    0    0  0.71331455256E+01 -0.70432094413E+01  0.23635328742E+02  0.25673280455E+02  0.51100000000E-03 0. -1.
        -11    1    3    3    0    0  0.53645803588E+01 -0.33246893903E+01  0.10239540467E+01  0.63938067002E+01  0.51100000000E-03 0.  1.
         12    1    3    3    0    0  0.13289308216E+02 -0.52252279596E+01  0.65738281519E+01  0.15720176101E+02  0.00000000000E+00 0. -1.
</event>
<event>
 7    1  0.5504027E-010  0.4778728E+02  0.7816164E-02  0.1312668E+00
        -11   -1    0    0    0    0  0.00000000000E+00  0.00000000000E+00  0.45593999997E+02  0.45594000000E+02  0.51100000000E-03 0.  1.
         11   -1    0    0    0    0 -0.00000000000E+00 -0.00000000000E+00 -0.45593999997E+02  0.45594000000E+02  0.51100000000E-03 0. -1.
    9900012    2    1    2    0    0  0.42393981436E+02 -0.84697264225E+01 -0.38258273477E+01  0.47787275552E+02  0.20000020554E+02 0.  0.
         12    1    1    2    0    0 -0.42393981436E+02  0.84697264225E+01  0.38258273477E+01  0.43400724448E+02  0.00000000000E+00 0. -1.
         11    1    3    3    0    0  0.92887019421E+00 -0.30592921862E+01 -0.19585663487E+01  0.37494067426E+01  0.51100000000E-03 0. -1.
        -11    1    3    3    0    0  0.27652194455E+02  0.24052406239E+01 -0.39306154557E+01  0.28033529545E+02  0.51100000000E-03 0.  1.
        -12    1    3    3    0    0  0.13812916787E+02 -0.78156748602E+01  0.20633544567E+01  0.16004339264E+02  0.00000000000E+00 0.  1.
</event>
<event>
 7    1  0.5504027E-010  0.4778727E+02  0.7816164E-02  0.1312668E+00
        -11   -1    0    0    0    0  0.00000000000E+00  0.00000000000E+00  0.45593999997E+02  0.45594000000E+02  0.51100000000E-03 0.  1.
         11   -1    0    0    0    0 -0.00000000000E+00 -0.00000000000E+00 -0.45593999997E+02  0.45594000000E+02  0.51100000000E-03 0. -1.
    9900012    2    1    2    0    0 -0.22059539396E+02 -0.79694474613E+01  0.36516954490E+02  0.47787270324E+02  0.19999996714E+02 0.  0.
         12    1    1    2    0    0  0.22059539396E+02  0.79694474613E+01 -0.36516954490E+02  0.43400729676E+02  0.00000000000E+00 0. -1.
         11    1    3    3    0    0 -0.76048772011E+01 -0.37036433436E+01  0.85033652223E+01  0.11994096532E+02  0.51100000000E-03 0. -1.
        -11    1    3    3    0    0 -0.21372823116E+01 -0.45029589496E+00 -0.21030574573E+01  0.30320938314E+01  0.51100000000E-03 0.  1.
        -12    1    3    3    0    0 -0.12317379883E+02 -0.38155082227E+01  0.30116646725E+02  0.32761079960E+02  0.00000000000E+00 0.  1.
</event>
<event>
 7    1  0.5504027E-010  0.4778726E+02  0.7816164E-02  0.1312668E+00
        -11   -1    0    0    0    0  0.00000000000E+00  0.00000000000E+00  0.45593999997E+02  0.45594000000E+02  0.51100000000E-03 0.  1.
         11   -1    0    0    0    0 -0.00000000000E+00 -0.00000000000E+00 -0.45593999997E+02  0.45594000000E+02  0.51100000000E-03 0. -1.
    9900012    2    1    2    0    0 -0.39560065317E+02  0.99524397015E+01  0.14818045553E+02  0.47787259248E+02  0.19999946213E+02 0.  0.
         12    1    1    2    0    0  0.39560065317E+02 -0.99524397015E+01 -0.14818045553E+02  0.43400740752E+02  0.00000000000E+00 0. -1.
         11    1    3    3    0    0 -0.17565055310E+02  0.80634751987E+01  0.55288216819E+00  0.19335368610E+02  0.51100000000E-03 0. -1.
        -11    1    3    3    0    0 -0.93950194832E+01  0.20747424838E+00  0.12469449277E+02  0.15613987389E+02  0.51100000000E-03 0.  1.
        -12    1    3    3    0    0 -0.12599990523E+02  0.16814902544E+01  0.17957141072E+01  0.12837903248E+02  0.00000000000E+00 0.  1.
</event>
<event>
 7    1  0.5504027E-010  0.4778727E+02  0.7816164E-02  0.1312668E+00
        -11   -1    0    0    0    0  0.00000000000E+00  0.00000000000E+00  0.45593999997E+02  0.45594000000E+02  0.51100000000E-03 0. -1.
         11   -1    0    0    0    0 -0.00000000000E+00 -0.00000000000E+00 -0.45593999997E+02  0.45594000000E+02  0.51100000000E-03 0.  1.
    9900012    2    1    2    0    0 -0.11361189557E+02 -0.38724715978E+02 -0.15966927503E+02  0.47787273858E+02  0.20000012830E+02 0.  0.
         12    1    1    2    0    0  0.11361189557E+02  0.38724715978E+02  0.15966927503E+02  0.43400726142E+02  0.00000000000E+00 0. -1.
         11    1    3    3    0    0 -0.54777664977E+01 -0.10054280247E+02  0.32552710738E-01  0.11449695936E+02  0.51100000000E-03 0. -1.
        -11    1    3    3    0    0  0.41019860486E+01 -0.94463138225E+01 -0.86896215081E+01  0.13474741430E+02  0.51100000000E-03 0.  1.
        -12    1    3    3    0    0 -0.99854091077E+01 -0.19224121909E+02 -0.73098587058E+01  0.22862836493E+02  0.00000000000E+00 0.  1.
</event>
<event>
 7    1  0.5504027E-010  0.4778727E+02  0.7816164E-02  0.1312668E+00
        -11   -1    0    0    0    0  0.00000000000E+00  0.00000000000E+00  0.45593999997E+02  0.45594000000E+02  0.51100000000E-03 0.  1.
         11   -1    0    0    0    0 -0.00000000000E+00 -0.00000000000E+00 -0.45593999997E+02  0.45594000000E+02  0.51100000000E-03 0. -1.
    9900012    2    1    2    0    0 -0.66616318871E+01  0.81496094508E+01  0.42104990751E+02  0.47787265908E+02  0.19999976581E+02 0.  0.
         12    1    1    2    0    0  0.66616318871E+01 -0.81496094508E+01 -0.42104990751E+02  0.43400734092E+02  0.00000000000E+00 0. -1.
         11    1    3    3    0    0 -0.75194656618E+01 -0.68150575656E+00  0.27179273707E+02  0.28208504629E+02  0.51100000000E-03 0.  1.
        -11    1    3    3    0    0 -0.19406615873E+01  0.93771520270E+01  0.12966856640E+02  0.16119445366E+02  0.51100000000E-03 0. -1.
         12    1    3    3    0    0  0.27984953621E+01 -0.54603681961E+00  0.19588604040E+01  0.34593159125E+01  0.00000000000E+00 0. -1.
</event>
<event>
 7    1  0.5504027E-010  0.4778727E+02  0.7816164E-02  0.1312668E+00
        -11   -1    0    0    0    0  0.00000000000E+00  0.00000000000E+00  0.45593999997E+02  0.45594000000E+02  0.51100000000E-03 0.  1.
         11   -1    0    0    0    0 -0.00000000000E+00 -0.00000000000E+00 -0.45593999997E+02  0.45594000000E+02  0.51100000000E-03 0. -1.
    9900012    2    1    2    0    0 -0.59589802930E+01  0.26593920831E+02  0.33776874605E+02  0.47787270405E+02  0.19999997086E+02 0.  0.
         12    1    1    2    0    0  0.59589802930E+01 -0.26593920831E+02 -0.33776874605E+02  0.43400729595E+02  0.00000000000E+00 0. -1.
         11    1    3    3    0    0 -0.19118308705E+01 -0.18301325799E+01  0.56961475802E+00  0.27072022036E+01  0.51100000000E-03 0. -1.
        -11    1    3    3    0    0  0.28243072943E+01  0.13266215170E+02  0.17981961526E+02  0.22523767829E+02  0.51100000000E-03 0.  1.
         12    1    3    3    0    0 -0.68714567168E+01  0.15157838241E+02  0.15225298320E+02  0.22556300373E+02  0.00000000000E+00 0. -1.
</event>
<event>
 7    1  0.5504027E-010  0.4778728E+02  0.7816164E-02  0.1312668E+00
        -11   -1    0    0    0    0  0.00000000000E+00  0.00000000000E+00  0.45593999997E+02  0.45594000000E+02  0.51100000000E-03 0.  1.
         11   -1    0    0    0    0 -0.00000000000E+00 -0.00000000000E+00 -0.45593999997E+02  0.45594000000E+02  0.51100000000E-03 0. -1.
    9900012    2    1    2    0    0 -0.32080216955E+01 -0.10227919352E+02  0.42056164668E+02  0.47787277378E+02  0.20000028879E+02 0.  0.
         12    1    1    2    0    0  0.32080216955E+01  0.10227919352E+02 -0.42056164668E+02  0.43400722622E+02  0.00000000000E+00 0. -1.
         11    1    3    3    0    0 -0.18214439600E+01  0.97818888321E+00 -0.86615206878E+00  0.22415912335E+01  0.51100000000E-03 0. -1.
        -11    1    3    3    0    0 -0.55704572086E+01 -0.86062790786E+01  0.30775606372E+02  0.32438187078E+02  0.51100000000E-03 0.  1.
        -12    1    3    3    0    0  0.41838794731E+01 -0.25998291568E+01  0.12146710365E+02  0.13107499066E+02  0.00000000000E+00 0.  1.
</event>
<event>
 7    1  0.5504027E-010  0.4778727E+02  0.7816164E-02  0.1312668E+00
        -11   -1    0    0    0    0  0.00000000000E+00  0.00000000000E+00  0.45593999997E+02  0.45594000000E+02  0.51100000000E-03 0. -1.
         11   -1    0    0    0    0 -0.00000000000E+00 -0.00000000000E+00 -0.45593999997E+02  0.45594000000E+02  0.51100000000E-03 0.  1.
    9900012    2    1    2    0    0  0.13401181031E+02  0.43869637022E+01 -0.41046146603E+02  0.47787271268E+02  0.20000001017E+02 0.  0.
         12    1    1    2    0    0 -0.13401181031E+02 -0.43869637022E+01  0.41046146603E+02  0.43400728732E+02  0.00000000000E+00 0. -1.
         11    1    3    3    0    0  0.28191613213E+01  0.51961108987E+01 -0.72141826317E+01  0.93269325253E+01  0.51100000000E-03 0. -1.
        -11    1    3    3    0    0 -0.28346882906E+01 -0.24911755572E+01 -0.13689711863E+02  0.14200338887E+02  0.51100000000E-03 0.  1.
        -12    1    3    3    0    0  0.13416708000E+02  0.16820283607E+01 -0.20142252109E+02  0.24259999855E+02  0.00000000000E+00 0.  1.
</event>
<event>
 7    1  0.5504027E-010  0.4778727E+02  0.7816164E-02  0.1312668E+00
        -11   -1    0    0    0    0  0.00000000000E+00  0.00000000000E+00  0.45593999997E+02  0.45594000000E+02  0.51100000000E-03 0. -1.
         11   -1    0    0    0    0 -0.00000000000E+00 -0.00000000000E+00 -0.45593999997E+02  0.45594000000E+02  0.51100000000E-03 0.  1.
    9900012    2    1    2    0    0  0.34716748883E+02  0.25880000664E+02  0.29319299859E+01  0.47787270734E+02  0.19999998584E+02 0.  0.
         12    1    1    2    0    0 -0.34716748883E+02 -0.25880000664E+02 -0.29319299859E+01  0.43400729266E+02  0.00000000000E+00 0. -1.
         11    1    3    3    0    0  0.22470515705E+01  0.16696871101E+01 -0.53252228367E+01  0.60162358936E+01  0.51100000000E-03 0. -1.
        -11    1    3    3    0    0  0.18675859009E+02  0.11091481469E+02  0.23953167415E+01  0.21852830788E+02  0.51100000000E-03 0.  1.
         12    1    3    3    0    0  0.13793838304E+02  0.13118832085E+02  0.58618360811E+01  0.19918204053E+02  0.00000000000E+00 0. -1.
</event>
<event>
 7    1  0.5504027E-010  0.4778727E+02  0.7816164E-02  0.1312668E+00
        -11   -1    0    0    0    0  0.00000000000E+00  0.00000000000E+00  0.45593999997E+02  0.45594000000E+02  0.51100000000E-03 0.  1.
         11   -1    0    0    0    0 -0.00000000000E+00 -0.00000000000E+00 -0.45593999997E+02  0.45594000000E+02  0.51100000000E-03 0. -1.
    9900012    2    1    2    0    0  0.26774186502E+02 -0.30812438609E+02  0.14743133101E+02  0.47787269482E+02  0.19999992877E+02 0.  0.
         12    1    1    2    0    0 -0.26774186502E+02  0.30812438609E+02 -0.14743133101E+02  0.43400730518E+02  0.00000000000E+00 0. -1.
         11    1    3    3    0    0  0.23752850923E+02 -0.22576299530E+02  0.30578609096E+01  0.32912577247E+02  0.51100000000E-03 0. -1.
        -11    1    3    3    0    0  0.14253090859E+01 -0.33647779639E+01  0.71525825597E+01  0.80319782290E+01  0.51100000000E-03 0.  1.
         12    1    3    3    0    0  0.15960264930E+01 -0.48713611151E+01  0.45326896315E+01  0.68427140066E+01  0.00000000000E+00 0. -1.
</event>
<event>
 7    1  0.5504027E-010  0.4778727E+02  0.7816164E-02  0.1312668E+00
        -11   -1    0    0    0    0  0.00000000000E+00  0.00000000000E+00  0.45593999997E+02  0.45594000000E+02  0.51100000000E-03 0.  1.
         11   -1    0    0    0    0 -0.00000000000E+00 -0.00000000000E+00 -0.45593999997E+02  0.45594000000E+02  0.51100000000E-03 0. -1.
    9900012    2    1    2    0    0  0.14141504589E+02  0.28408648277E+02  0.29607264487E+02  0.47787267755E+02  0.19999985001E+02 0.  0.
         12    1    1    2    0    0 -0.14141504589E+02 -0.28408648277E+02 -0.29607264487E+02  0.43400732245E+02  0.00000000000E+00 0. -1.
         11    1    3    3    0    0  0.46870254908E+01  0.18099912026E+01 -0.28685487866E+00  0.50325502569E+01  0.51100000000E-03 0. -1.
        -11    1    3    3    0    0  0.10980796983E+02  0.13680858547E+02  0.17850805839E+02  0.25027885695E+02  0.51100000000E-03 0.  1.
         12    1    3    3    0    0 -0.15263178843E+01  0.12917798528E+02  0.12043313527E+02  0.17726831803E+02  0.00000000000E+00 0. -1.
</event>
<event>
 7    1  0.5504027E-010  0.4778727E+02  0.7816164E-02  0.1312668E+00
        -11   -1    0    0    0    0  0.00000000000E+00  0.00000000000E+00  0.45593999997E+02  0.45594000000E+02  0.51100000000E-03 0.  1.
         11   -1    0    0    0    0 -0.00000000000E+00 -0.00000000000E+00 -0.45593999997E+02  0.45594000000E+02  0.51100000000E-03 0. -1.
    9900012    2    1    2    0    0 -0.26048172928E+02 -0.10515669982E+02  0.33083781593E+02  0.47787271520E+02  0.20000002170E+02 0.  0.
         12    1    1    2    0    0  0.26048172928E+02  0.10515669982E+02 -0.33083781593E+02  0.43400728480E+02  0.00000000000E+00 0. -1.
         11    1    3    3    0    0 -0.66854724464E+01 -0.61992994067E+01  0.22048857290E+02  0.23859567537E+02  0.51100000000E-03 0. -1.
        -11    1    3    3    0    0 -0.26294885847E+01  0.19996924077E+01  0.11874699459E+01  0.35104223501E+01  0.51100000000E-03 0.  1.
         12    1    3    3    0    0 -0.16733211897E+02 -0.63160629832E+01  0.98474543566E+01  0.20417281634E+02  0.00000000000E+00 0. -1.
</event>
<event>
 7    1  0.5504027E-010  0.4778727E+02  0.7816164E-02  0.1312668E+00
        -11   -1    0    0    0    0  0.00000000000E+00  0.00000000000E+00  0.45593999997E+02  0.45594000000E+02  0.51100000000E-03 0.  1.
         11   -1    0    0    0    0 -0.00000000000E+00 -0.00000000000E+00 -0.45593999997E+02  0.45594000000E+02  0.51100000000E-03 0. -1.
    9900012    2    1    2    0    0 -0.40638019523E+02  0.13354425044E+02 -0.73371730204E+01  0.47787269511E+02  0.19999993009E+02 0.  0.
         12    1    1    2    0    0  0.40638019523E+02 -0.13354425044E+02  0.73371730204E+01  0.43400730489E+02  0.00000000000E+00 0. -1.
         11    1    3    3    0    0  0.13903345928E+01  0.11132179712E+01 -0.38407530354E+00  0.18220314572E+01  0.51100000000E-03 0. -1.
        -11    1    3    3    0    0 -0.29181372347E+02  0.60012629398E+01  0.62183177400E+00  0.29798562448E+02  0.51100000000E-03 0.  1.
        -12    1    3    3    0    0 -0.12846981769E+02  0.62399441333E+01 -0.75749294908E+01  0.16166675606E+02  0.00000000000E+00 0.  1.
</event>
<event>
 7    1  0.5504027E-010  0.4778727E+02  0.7816164E-02  0.1312668E+00
        -11   -1    0    0    0    0  0.00000000000E+00  0.00000000000E+00  0.45593999997E+02  0.45594000000E+02  0.51100000000E-03 0. -1.
         11   -1    0    0    0    0 -0.00000000000E+00 -0.00000000000E+00 -0.45593999997E+02  0.45594000000E+02  0.51100000000E-03 0.  1.
    9900012    2    1    2    0    0  0.40198801979E+02  0.14600739415E+02 -0.73822738842E+01  0.47787271438E+02  0.20000001794E+02 0.  0.
         12    1    1    2    0    0 -0.40198801979E+02 -0.14600739415E+02  0.73822738842E+01  0.43400728562E+02  0.00000000000E+00 0. -1.
         11    1    3    3    0    0  0.98469392363E+01  0.12009130132E+02 -0.25102487677E+01  0.15731585044E+02  0.51100000000E-03 0. -1.
        -11    1    3    3    0    0  0.29557865606E+02  0.18743093431E+01 -0.62914856456E+01  0.30278098464E+02  0.51100000000E-03 0.  1.
        -12    1    3    3    0    0  0.79399713725E+00  0.71729993992E+00  0.14194605290E+01  0.17775879307E+01  0.00000000000E+00 0.  1.
</event>
<event>
 7    1  0.5504027E-010  0.4778727E+02  0.7816164E-02  0.1312668E+00
        -11   -1    0    0    0    0  0.00000000000E+00  0.00000000000E+00  0.45593999997E+02  0.45594000000E+02  0.51100000000E-03 0.  1.
         11   -1    0    0    0    0 -0.00000000000E+00 -0.00000000000E+00 -0.45593999997E+02  0.45594000000E+02  0.51100000000E-03 0. -1.
    9900012    2    1    2    0    0 -0.12306669729E+02 -0.38727572834E+02  0.15242838138E+02  0.47787272680E+02  0.20000007457E+02 0.  0.
         12    1    1    2    0    0  0.12306669729E+02  0.38727572834E+02 -0.15242838138E+02  0.43400727320E+02  0.00000000000E+00 0. -1.
         11    1    3    3    0    0 -0.16685689397E+01 -0.19006933219E+02 -0.21628148861E+01  0.19202223860E+02  0.51100000000E-03 0. -1.
        -11    1    3    3    0    0 -0.84238399373E+01 -0.16774022769E+02  0.15914663528E+02  0.24609051884E+02  0.51100000000E-03 0.  1.
         12    1    3    3    0    0 -0.22142608518E+01 -0.29466168455E+01  0.14909894966E+01  0.39759969358E+01  0.00000000000E+00 0. -1.
</event>
<event>
 7    1  0.5504027E-010  0.4778727E+02  0.7816164E-02  0.1312668E+00
        -11   -1    0    0    0    0  0.00000000000E+00  0.00000000000E+00  0.45593999997E+02  0.45594000000E+02  0.51100000000E-03 0. -1.
         11   -1    0    0    0    0 -0.00000000000E+00 -0.00000000000E+00 -0.45593999997E+02  0.45594000000E+02  0.51100000000E-03 0.  1.
    9900012    2    1    2    0    0  0.37133230405E+02  0.22245163726E+02  0.31462813481E+01  0.47787271943E+02  0.20000004099E+02 0.  0.
         12    1    1    2    0    0 -0.37133230405E+02 -0.22245163726E+02 -0.31462813481E+01  0.43400728057E+02  0.00000000000E+00 0. -1.
         11    1    3    3    0    0  0.14836894399E+02  0.57365344751E+01  0.96462702867E+01  0.18603542509E+02  0.51100000000E-03 0. -1.
        -11    1    3    3    0    0  0.91622135665E+01  0.10636208431E+02 -0.38236084115E+01  0.14549744629E+02  0.51100000000E-03 0.  1.
        -12    1    3    3    0    0  0.13134122440E+02  0.58724208199E+01 -0.26763805271E+01  0.14633984805E+02  0.00000000000E+00 0.  1.
</event>
<event>
 7    1  0.5504027E-010  0.4778727E+02  0.7816164E-02  0.1312668E+00
        -11   -1    0    0    0    0  0.00000000000E+00  0.00000000000E+00  0.45593999997E+02  0.45594000000E+02  0.51100000000E-03 0.  1.
         11   -1    0    0    0    0 -0.00000000000E+00 -0.00000000000E+00 -0.45593999997E+02  0.45594000000E+02  0.51100000000E-03 0. -1.
    9900012    2    1    2    0    0 -0.10356604220E+02 -0.79085960082E+01  0.41398286854E+02  0.47787270786E+02  0.19999998824E+02 0.  0.
         12    1    1    2    0    0  0.10356604220E+02  0.79085960082E+01 -0.41398286854E+02  0.43400729214E+02  0.00000000000E+00 0. -1.
         11    1    3    3    0    0  0.32243800917E+01 -0.46403190156E+01  0.97562634482E+01  0.11274478448E+02  0.51100000000E-03 0. -1.
        -11    1    3    3    0    0 -0.99202821164E+01  0.18331445159E+01  0.26636235758E+02  0.28482652119E+02  0.51100000000E-03 0.  1.
        -12    1    3    3    0    0 -0.36607021958E+01 -0.51014215086E+01  0.50057876476E+01  0.80301402197E+01  0.00000000000E+00 0.  1.
</event>
<event>
 7    1  0.5504027E-010  0.4778727E+02  0.7816164E-02  0.1312668E+00
        -11   -1    0    0    0    0  0.00000000000E+00  0.00000000000E+00  0.45593999997E+02  0.45594000000E+02  0.51100000000E-03 0.  1.
         11   -1    0    0    0    0 -0.00000000000E+00 -0.00000000000E+00 -0.45593999997E+02  0.45594000000E+02  0.51100000000E-03 0. -1.
    9900012    2    1    2    0    0 -0.60407708411E+01 -0.98634704798E+01  0.41831142356E+02  0.47787269210E+02  0.19999991637E+02 0.  0.
         12    1    1    2    0    0  0.60407708411E+01  0.98634704798E+01 -0.41831142356E+02  0.43400730790E+02  0.00000000000E+00 0. -1.
         11    1    3    3    0    0 -0.11095157133E+02 -0.64990694320E+01  0.22935349922E+02  0.26293928797E+02  0.51100000000E-03 0. -1.
        -11    1    3    3    0    0 -0.20268949689E+01  0.47492344626E+00  0.52463807532E+01  0.56443216389E+01  0.51100000000E-03 0.  1.
         12    1    3    3    0    0  0.70812812606E+01 -0.38393244941E+01  0.13649411681E+02  0.15849018774E+02  0.00000000000E+00 0. -1.
</event>
<event>
 7    1  0.5504027E-010  0.4778727E+02  0.7816164E-02  0.1312668E+00
        -11   -1    0    0    0    0  0.00000000000E+00  0.00000000000E+00  0.45593999997E+02  0.45594000000E+02  0.51100000000E-03 0.  1.
         11   -1    0    0    0    0 -0.00000000000E+00 -0.00000000000E+00 -0.45593999997E+02  0.45594000000E+02  0.51100000000E-03 0. -1.
    9900012    2    1    2    0    0 -0.41203463831E+02 -0.42697677912E+01  0.12948621247E+02  0.47787272577E+02  0.20000006986E+02 0.  0.
         12    1    1    2    0    0  0.41203463831E+02  0.42697677912E+01 -0.12948621247E+02  0.43400727423E+02  0.00000000000E+00 0. -1.
         11    1    3    3    0    0 -0.25624382523E+02  0.58130272115E+01  0.10435352062E+02  0.28271838249E+02  0.51100000000E-03 0. -1.
        -11    1    3    3    0    0 -0.23250546054E+01  0.41301822042E+00  0.91866927556E+00  0.25338540739E+01  0.51100000000E-03 0.  1.
         12    1    3    3    0    0 -0.13254026702E+02 -0.10495813223E+02  0.15945999095E+01  0.16981580254E+02  0.00000000000E+00 0. -1.
</event>
<event>
 7    1  0.5504027E-010  0.4778727E+02  0.7816164E-02  0.1312668E+00
        -11   -1    0    0    0    0  0.00000000000E+00  0.00000000000E+00  0.45593999997E+02  0.45594000000E+02  0.51100000000E-03 0.  1.
         11   -1    0    0    0    0 -0.00000000000E+00 -0.00000000000E+00 -0.45593999997E+02  0.45594000000E+02  0.51100000000E-03 0. -1.
    9900012    2    1    2    0    0 -0.30817903542E+02 -0.20737987496E+02  0.22445844643E+02  0.47787271368E+02  0.20000001474E+02 0.  0.
         12    1    1    2    0    0  0.30817903542E+02  0.20737987496E+02 -0.22445844643E+02  0.43400728632E+02  0.00000000000E+00 0. -1.
         11    1    3    3    0    0  0.15959066476E+00  0.22266403363E+01  0.11948567800E+01  0.25320109307E+01  0.51100000000E-03 0. -1.
        -11    1    3    3    0    0 -0.26659041530E+02 -0.22360319074E+02  0.21475948003E+02  0.40888931354E+02  0.51100000000E-03 0.  1.
        -12    1    3    3    0    0 -0.43184526769E+01 -0.60430875836E+00 -0.22496014038E+00  0.43663290832E+01  0.00000000000E+00 0.  1.
</event>
<event>
 7    1  0.5504027E-010  0.4778727E+02  0.7816164E-02  0.1312668E+00
        -11   -1    0    0    0    0  0.00000000000E+00  0.00000000000E+00  0.45593999997E+02  0.45594000000E+02  0.51100000000E-03 0.  1.
         11   -1    0    0    0    0 -0.00000000000E+00 -0.00000000000E+00 -0.45593999997E+02  0.45594000000E+02  0.51100000000E-03 0. -1.
    9900012    2    1    2    0    0  0.42031914820E+01 -0.42686368462E+02  0.66204724201E+01  0.47787268138E+02  0.19999986750E+02 0.  0.
         12    1    1    2    0    0 -0.42031914820E+01  0.42686368462E+02 -0.66204724201E+01  0.43400731862E+02  0.00000000000E+00 0. -1.
         11    1    3    3    0    0 -0.19905672117E+01 -0.23855415846E+02 -0.36821219214E+01  0.24219852293E+02  0.51100000000E-03 0. -1.
        -11    1    3    3    0    0  0.22848555309E+01 -0.11697784775E+02  0.22649259956E+01  0.12132131860E+02  0.51100000000E-03 0.  1.
         12    1    3    3    0    0  0.39089031628E+01 -0.71331678404E+01  0.80376683458E+01  0.11435283985E+02  0.00000000000E+00 0. -1.
</event>
<event>
 7    1  0.5504027E-010  0.4778727E+02  0.7816164E-02  0.1312668E+00
        -11   -1    0    0    0    0  0.00000000000E+00  0.00000000000E+00  0.45593999997E+02  0.45594000000E+02  0.51100000000E-03 0.  1.
         11   -1    0    0    0    0 -0.00000000000E+00 -0.00000000000E+00 -0.45593999997E+02  0.45594000000E+02  0.51100000000E-03 0. -1.
    9900012    2    1    2    0    0 -0.29789107042E+02  0.30118678179E+02 -0.94391534760E+01  0.47787270836E+02  0.19999999051E+02 0.  0.
         12    1    1    2    0    0  0.29789107042E+02 -0.30118678179E+02  0.94391534760E+01  0.43400729164E+02  0.00000000000E+00 0. -1.
         11    1    3    3    0    0 -0.64279037814E+01  0.15523892875E+02  0.56397825106E+00  0.16811521904E+02  0.51100000000E-03 0. -1.
        -11    1    3    3    0    0 -0.12556466442E+02  0.85904488100E+01 -0.10692662694E+02  0.18595528925E+02  0.51100000000E-03 0.  1.
        -12    1    3    3    0    0 -0.10804736819E+02  0.60043364940E+01  0.68953096700E+00  0.12380220006E+02  0.00000000000E+00 0.  1.
</event>
<event>
 7    1  0.5504027E-010  0.4778727E+02  0.7816164E-02  0.1312668E+00
        -11   -1    0    0    0    0  0.00000000000E+00  0.00000000000E+00  0.45593999997E+02  0.45594000000E+02  0.51100000000E-03 0.  1.
         11   -1    0    0    0    0 -0.00000000000E+00 -0.00000000000E+00 -0.45593999997E+02  0.45594000000E+02  0.51100000000E-03 0. -1.
    9900012    2    1    2    0    0  0.36105277406E+01 -0.49893785589E+01  0.42961534911E+02  0.47787270848E+02  0.19999999106E+02 0.  0.
         12    1    1    2    0    0 -0.36105277406E+01  0.49893785589E+01 -0.42961534911E+02  0.43400729152E+02  0.00000000000E+00 0. -1.
         11    1    3    3    0    0 -0.17576554518E+01  0.33670168422E+01  0.88525676068E+01  0.96329698741E+01  0.51100000000E-03 0. -1.
        -11    1    3    3    0    0  0.10238875079E+01 -0.97125836053E+01  0.31341353530E+02  0.32827778896E+02  0.51100000000E-03 0.  1.
        -12    1    3    3    0    0  0.43442956845E+01  0.13561882042E+01  0.27676137746E+01  0.53265220777E+01  0.00000000000E+00 0.  1.
</event>
<event>
 7    1  0.5504027E-010  0.4778727E+02  0.7816164E-02  0.1312668E+00
        -11   -1    0    0    0    0  0.00000000000E+00  0.00000000000E+00  0.45593999997E+02  0.45594000000E+02  0.51100000000E-03 0. -1.
         11   -1    0    0    0    0 -0.00000000000E+00 -0.00000000000E+00 -0.45593999997E+02  0.45594000000E+02  0.51100000000E-03 0.  1.
    9900012    2    1    2    0    0  0.15651940174E+02 -0.13657606778E+02 -0.38106556920E+02  0.47787272651E+02  0.20000007326E+02 0.  0.
         12    1    1    2    0    0 -0.15651940174E+02  0.13657606778E+02  0.38106556920E+02  0.43400727349E+02  0.00000000000E+00 0. -1.
         11    1    3    3    0    0 -0.48052711874E+00 -0.51100074751E+01 -0.66469101149E+00  0.51754127477E+01  0.51100000000E-03 0. -1.
        -11    1    3    3    0    0  0.14065426698E+02 -0.78842116306E+01 -0.23487503839E+02  0.28489644752E+02  0.51100000000E-03 0.  1.
        -12    1    3    3    0    0  0.20670405946E+01 -0.66338767215E+00 -0.13954362069E+02  0.14122215152E+02  0.00000000000E+00 0.  1.
</event>
<event>
 7    1  0.5504027E-010  0.4778727E+02  0.7816164E-02  0.1312668E+00
        -11   -1    0    0    0    0  0.00000000000E+00  0.00000000000E+00  0.45593999997E+02  0.45594000000E+02  0.51100000000E-03 0.  1.
         11   -1    0    0    0    0 -0.00000000000E+00 -0.00000000000E+00 -0.45593999997E+02  0.45594000000E+02  0.51100000000E-03 0. -1.
    9900012    2    1    2    0    0 -0.14730751760E+02 -0.32131359730E+02  0.25183404530E+02  0.47787272019E+02  0.20000004445E+02 0.  0.
         12    1    1    2    0    0  0.14730751760E+02  0.32131359730E+02 -0.25183404530E+02  0.43400727981E+02  0.00000000000E+00 0. -1.
         11    1    3    3    0    0 -0.37935575846E+01 -0.19245711184E+02  0.47596998566E+01  0.20185222840E+02  0.51100000000E-03 0. -1.
        -11    1    3    3    0    0 -0.11360936728E+02 -0.86741532092E+01  0.14964686765E+02  0.20694290698E+02  0.51100000000E-03 0.  1.
        -12    1    3    3    0    0  0.42374255187E+00 -0.42114953373E+01  0.54590179079E+01  0.69077584819E+01  0.00000000000E+00 0.  1.
</event>
<event>
 7    1  0.5504027E-010  0.4778728E+02  0.7816164E-02  0.1312668E+00
        -11   -1    0    0    0    0  0.00000000000E+00  0.00000000000E+00  0.45593999997E+02  0.45594000000E+02  0.51100000000E-03 0.  1.
         11   -1    0    0    0    0 -0.00000000000E+00 -0.00000000000E+00 -0.45593999997E+02  0.45594000000E+02  0.51100000000E-03 0. -1.
    9900012    2    1    2    0    0  0.30533962116E+02  0.30193936746E+02  0.62949204646E+01  0.47787277858E+02  0.20000031068E+02 0.  0.
         12    1    1    2    0    0 -0.30533962116E+02 -0.30193936746E+02 -0.62949204646E+01  0.43400722142E+02  0.00000000000E+00 0. -1.
         11    1    3    3    0    0  0.21923998358E+01  0.46811605803E+01 -0.13139384517E+01  0.53335087827E+01  0.51100000000E-03 0. -1.
        -11    1    3    3    0    0  0.56198688091E+01  0.15579157770E+02  0.59571728833E+01  0.17600596333E+02  0.51100000000E-03 0.  1.
        -12    1    3    3    0    0  0.22721693471E+02  0.99336183961E+01  0.16516860330E+01  0.24853172743E+02  0.00000000000E+00 0.  1.
</event>
<event>
 7    1  0.5504027E-010  0.4778726E+02  0.7816164E-02  0.1312668E+00
        -11   -1    0    0    0    0  0.00000000000E+00  0.00000000000E+00  0.45593999997E+02  0.45594000000E+02  0.51100000000E-03 0. -1.
         11   -1    0    0    0    0 -0.00000000000E+00 -0.00000000000E+00 -0.45593999997E+02  0.45594000000E+02  0.51100000000E-03 0.  1.
    9900012    2    1    2    0    0  0.40621001065E+02 -0.77672091787E+01 -0.13161634842E+02  0.47787263858E+02  0.19999967232E+02 0.  0.
         12    1    1    2    0    0 -0.40621001065E+02  0.77672091787E+01  0.13161634842E+02  0.43400736142E+02  0.00000000000E+00 0. -1.
         11    1    3    3    0    0  0.59291621186E+01  0.54360281292E+01 -0.14597110822E+01  0.81753361982E+01  0.51100000000E-03 0. -1.
        -11    1    3    3    0    0  0.16568067541E+02 -0.78218039038E+01 -0.22019157028E+01  0.18453452560E+02  0.51100000000E-03 0.  1.
         12    1    3    3    0    0  0.18123771406E+02 -0.53814334041E+01 -0.95000080573E+01  0.21158475100E+02  0.00000000000E+00 0. -1.
</event>
<event>
 7    1  0.5504027E-010  0.4778726E+02  0.7816164E-02  0.1312668E+00
        -11   -1    0    0    0    0  0.00000000000E+00  0.00000000000E+00  0.45593999997E+02  0.45594000000E+02  0.51100000000E-03 0. -1.
         11   -1    0    0    0    0 -0.00000000000E+00 -0.00000000000E+00 -0.45593999997E+02  0.45594000000E+02  0.51100000000E-03 0.  1.
    9900012    2    1    2    0    0  0.25147892461E+02  0.30106259675E+02 -0.18569348089E+02  0.47787262042E+02  0.19999958953E+02 0.  0.
         12    1    1    2    0    0 -0.25147892461E+02 -0.30106259675E+02  0.18569348089E+02  0.43400737958E+02  0.00000000000E+00 0. -1.
         11    1    3    3    0    0  0.32851839048E+00 -0.82021300058E+00 -0.35486112314E+01  0.36569544203E+01  0.51100000000E-03 0. -1.
        -11    1    3    3    0    0  0.18207718740E+02  0.21315269884E+02 -0.44432515803E+01  0.28383168196E+02  0.51100000000E-03 0.  1.
        -12    1    3    3    0    0  0.66116553306E+01  0.96112027915E+01 -0.10577485277E+02  0.15747139426E+02  0.00000000000E+00 0.  1.
</event>
<event>
 7    1  0.5504027E-010  0.4778727E+02  0.7816164E-02  0.1312668E+00
        -11   -1    0    0    0    0  0.00000000000E+00  0.00000000000E+00  0.45593999997E+02  0.45594000000E+02  0.51100000000E-03 0. -1.
         11   -1    0    0    0    0 -0.00000000000E+00 -0.00000000000E+00 -0.45593999997E+02  0.45594000000E+02  0.51100000000E-03 0.  1.
    9900012    2    1    2    0    0 -0.39740494129E+02 -0.17033845282E+02  0.37636283573E+01  0.47787266630E+02  0.19999979871E+02 0.  0.
         12    1    1    2    0    0  0.39740494129E+02  0.17033845282E+02 -0.37636283573E+01  0.43400733370E+02  0.00000000000E+00 0. -1.
         11    1    3    3    0    0  0.21595432139E+00 -0.88225044802E+00  0.60186636103E+00  0.10896079568E+01  0.51100000000E-03 0. -1.
        -11    1    3    3    0    0 -0.38160910967E+02 -0.12934120302E+02  0.75217206147E+01  0.40989301959E+02  0.51100000000E-03 0.  1.
        -12    1    3    3    0    0 -0.17955374828E+01 -0.32174745318E+01 -0.43599586185E+01  0.57083567136E+01  0.00000000000E+00 0.  1.
</event>
<event>
 7    1  0.5504027E-010  0.4778727E+02  0.7816164E-02  0.1312668E+00
        -11   -1    0    0    0    0  0.00000000000E+00  0.00000000000E+00  0.45593999997E+02  0.45594000000E+02  0.51100000000E-03 0.  1.
         11   -1    0    0    0    0 -0.00000000000E+00 -0.00000000000E+00 -0.45593999997E+02  0.45594000000E+02  0.51100000000E-03 0. -1.
    9900012    2    1    2    0    0 -0.39459717291E+02  0.17344893957E+02 -0.50703915446E+01  0.47787268376E+02  0.19999987834E+02 0.  0.
         12    1    1    2    0    0  0.39459717291E+02 -0.17344893957E+02  0.50703915446E+01  0.43400731624E+02  0.00000000000E+00 0. -1.
         11    1    3    3    0    0 -0.18152810354E+02  0.39870649768E+00 -0.13950661160E+01  0.18210702907E+02  0.51100000000E-03 0. -1.
        -11    1    3    3    0    0 -0.50184839024E+01  0.10349883274E+02  0.50257273156E+00  0.11513376745E+02  0.51100000000E-03 0.  1.
        -12    1    3    3    0    0 -0.16288423035E+02  0.65963041851E+01 -0.41778981601E+01  0.18063188725E+02  0.00000000000E+00 0.  1.
</event>
<event>
 7    1  0.5504027E-010  0.4778727E+02  0.7816164E-02  0.1312668E+00
        -11   -1    0    0    0    0  0.00000000000E+00  0.00000000000E+00  0.45593999997E+02  0.45594000000E+02  0.51100000000E-03 0. -1.
         11   -1    0    0    0    0 -0.00000000000E+00 -0.00000000000E+00 -0.45593999997E+02  0.45594000000E+02  0.51100000000E-03 0.  1.
    9900012    2    1    2    0    0  0.28402232069E+02 -0.32804982042E+02 -0.87720417079E+00  0.47787272812E+02  0.20000008059E+02 0.  0.
         12    1    1    2    0    0 -0.28402232069E+02  0.32804982042E+02  0.87720417079E+00  0.43400727188E+02  0.00000000000E+00 0. -1.
         11    1    3    3    0    0  0.55053414224E+01 -0.19842535895E+01 -0.45282411013E+01  0.73993928276E+01  0.51100000000E-03 0. -1.
        -11    1    3    3    0    0  0.24242726185E+02 -0.28545699619E+02  0.25924160028E+01  0.37540476297E+02  0.51100000000E-03 0.  1.
        -12    1    3    3    0    0 -0.13458355383E+01 -0.22750288335E+01  0.10586209276E+01  0.28474036872E+01  0.00000000000E+00 0.  1.
</event>
<event>
 7    1  0.5504027E-010  0.4778727E+02  0.7816164E-02  0.1312668E+00
        -11   -1    0    0    0    0  0.00000000000E+00  0.00000000000E+00  0.45593999997E+02  0.45594000000E+02  0.51100000000E-03 0. -1.
         11   -1    0    0    0    0 -0.00000000000E+00 -0.00000000000E+00 -0.45593999997E+02  0.45594000000E+02  0.51100000000E-03 0.  1.
    9900012    2    1    2    0    0  0.12892034053E+02  0.40334111917E+02 -0.95172573516E+01  0.47787270586E+02  0.19999997910E+02 0.  0.
         12    1    1    2    0    0 -0.12892034053E+02 -0.40334111917E+02  0.95172573516E+01  0.43400729414E+02  0.00000000000E+00 0. -1.
         11    1    3    3    0    0  0.14030286706E+01  0.29663236340E+02 -0.44372267129E+01  0.30026073016E+02  0.51100000000E-03 0. -1.
        -11    1    3    3    0    0  0.11748884762E+02  0.11315602332E+02 -0.50023881338E+01  0.17061741897E+02  0.51100000000E-03 0.  1.
         12    1    3    3    0    0 -0.25987937930E+00 -0.64472675421E+00 -0.77642504891E-01  0.69945567261E+00  0.00000000000E+00 0. -1.
</event>
<event>
 7    1  0.5504027E-010  0.4778727E+02  0.7816164E-02  0.1312668E+00
        -11   -1    0    0    0    0  0.00000000000E+00  0.00000000000E+00  0.45593999997E+02  0.45594000000E+02  0.51100000000E-03 0. -1.
         11   -1    0    0    0    0 -0.00000000000E+00 -0.00000000000E+00 -0.45593999997E+02  0.45594000000E+02  0.51100000000E-03 0.  1.
    9900012    2    1    2    0    0 -0.29583869344E+02 -0.26212055685E+02 -0.17926136284E+02  0.47787267855E+02  0.19999985460E+02 0.  0.
         12    1    1    2    0    0  0.29583869344E+02  0.26212055685E+02  0.17926136284E+02  0.43400732145E+02  0.00000000000E+00 0. -1.
         11    1    3    3    0    0 -0.18237558005E+01  0.21514966408E+01 -0.17151949520E+01  0.33010478639E+01  0.51100000000E-03 0. -1.
        -11    1    3    3    0    0 -0.27021556539E+02 -0.22627182115E+02 -0.15980434255E+02  0.38697909084E+02  0.51100000000E-03 0.  1.
        -12    1    3    3    0    0 -0.73855700445E+00 -0.57363702111E+01 -0.23050707715E+00  0.57883109074E+01  0.00000000000E+00 0.  1.
</event>
<event>
 7    1  0.5504027E-010  0.4778727E+02  0.7816164E-02  0.1312668E+00
        -11   -1    0    0    0    0  0.00000000000E+00  0.00000000000E+00  0.45593999997E+02  0.45594000000E+02  0.51100000000E-03 0. -1.
         11   -1    0    0    0    0 -0.00000000000E+00 -0.00000000000E+00 -0.45593999997E+02  0.45594000000E+02  0.51100000000E-03 0.  1.
    9900012    2    1    2    0    0  0.42246165501E+01  0.43193782901E+02 -0.27086912454E+00  0.47787266868E+02  0.19999980959E+02 0.  0.
         12    1    1    2    0    0 -0.42246165501E+01 -0.43193782901E+02  0.27086912454E+00  0.43400733132E+02  0.00000000000E+00 0. -1.
         11    1    3    3    0    0  0.31557543184E+01 -0.51626432879E-01  0.33131669624E+00  0.31735188074E+01  0.51100000000E-03 0. -1.
        -11    1    3    3    0    0 -0.40939254425E+01  0.29325367830E+02 -0.21441037845E+01  0.29687280192E+02  0.51100000000E-03 0.  1.
         12    1    3    3    0    0  0.51627876742E+01  0.13920041504E+02  0.15419179637E+01  0.14926467869E+02  0.00000000000E+00 0. -1.
</event>
<event>
 7    1  0.5504027E-010  0.4778727E+02  0.7816164E-02  0.1312668E+00
        -11   -1    0    0    0    0  0.00000000000E+00  0.00000000000E+00  0.45593999997E+02  0.45594000000E+02  0.51100000000E-03 0. -1.
         11   -1    0    0    0    0 -0.00000000000E+00 -0.00000000000E+00 -0.45593999997E+02  0.45594000000E+02  0.51100000000E-03 0.  1.
    9900012    2    1    2    0    0  0.40796275572E+02  0.14686954195E+02 -0.18921682992E+01  0.47787273912E+02  0.20000013074E+02 0.  0.
         12    1    1    2    0    0 -0.40796275572E+02 -0.14686954195E+02  0.18921682992E+01  0.43400726088E+02  0.00000000000E+00 0. -1.
         11    1    3    3    0    0  0.88257487355E+01 -0.29436105353E+01 -0.58690374031E+00  0.93221853655E+01  0.51100000000E-03 0. -1.
        -11    1    3    3    0    0  0.13864325818E+02  0.13627989247E+02  0.22942582199E+01  0.19575628785E+02  0.51100000000E-03 0.  1.
        -12    1    3    3    0    0  0.18106201019E+02  0.40025754831E+01 -0.35995227788E+01  0.18889459761E+02  0.00000000000E+00 0.  1.
</event>
<event>
 7    1  0.5504027E-010  0.4778727E+02  0.7816164E-02  0.1312668E+00
        -11   -1    0    0    0    0  0.00000000000E+00  0.00000000000E+00  0.45593999997E+02  0.45594000000E+02  0.51100000000E-03 0.  1.
         11   -1    0    0    0    0 -0.00000000000E+00 -0.00000000000E+00 -0.45593999997E+02  0.45594000000E+02  0.51100000000E-03 0. -1.
    9900012    2    1    2    0    0  0.35569111843E+02 -0.21972806158E+02  0.11647188781E+02  0.47787274957E+02  0.20000017841E+02 0.  0.
         12    1    1    2    0    0 -0.35569111843E+02  0.21972806158E+02 -0.11647188781E+02  0.43400725043E+02  0.00000000000E+00 0. -1.
         11    1    3    3    0    0  0.35865408492E+01  0.17142629346E+01 -0.28243540166E+00  0.39851904207E+01  0.51100000000E-03 0. -1.
        -11    1    3    3    0    0  0.10854781222E+02 -0.15537246235E+02  0.19434393453E+01  0.19052801702E+02  0.51100000000E-03 0.  1.
        -12    1    3    3    0    0  0.21127789772E+02 -0.81498228577E+01  0.99861848377E+01  0.24749282835E+02  0.00000000000E+00 0.  1.
</event>
<event>
 7    1  0.5504027E-010  0.4778727E+02  0.7816164E-02  0.1312668E+00
        -11   -1    0    0    0    0  0.00000000000E+00  0.00000000000E+00  0.45593999997E+02  0.45594000000E+02  0.51100000000E-03 0.  1.
         11   -1    0    0    0    0 -0.00000000000E+00 -0.00000000000E+00 -0.45593999997E+02  0.45594000000E+02  0.51100000000E-03 0. -1.
    9900012    2    1    2    0    0  0.64360499543E+00  0.84164350826E+01  0.42571971331E+02  0.47787270168E+02  0.19999996005E+02 0.  0.
         12    1    1    2    0    0 -0.64360499543E+00 -0.84164350826E+01 -0.42571971331E+02  0.43400729832E+02  0.00000000000E+00 0. -1.
         11    1    3    3    0    0  0.37495342627E+01  0.35407020332E+00  0.46173178890E+01  0.59585231094E+01  0.51100000000E-03 0. -1.
        -11    1    3    3    0    0  0.49512460332E+01  0.78808635840E+01  0.23557136953E+02  0.25329065316E+02  0.51100000000E-03 0.  1.
        -12    1    3    3    0    0 -0.80571753005E+01  0.18150129525E+00  0.14397516489E+02  0.16499681742E+02  0.00000000000E+00 0.  1.
</event>
<event>
 7    1  0.5504027E-010  0.4778727E+02  0.7816164E-02  0.1312668E+00
        -11   -1    0    0    0    0  0.00000000000E+00  0.00000000000E+00  0.45593999997E+02  0.45594000000E+02  0.51100000000E-03 0.  1.
         11   -1    0    0    0    0 -0.00000000000E+00 -0.00000000000E+00 -0.45593999997E+02  0.45594000000E+02  0.51100000000E-03 0. -1.
    9900012    2    1    2    0    0 -0.71425794089E+01 -0.53636648166E+01  0.42471612602E+02  0.47787271690E+02  0.20000002942E+02 0.  0.
         12    1    1    2    0    0  0.71425794089E+01  0.53636648166E+01 -0.42471612602E+02  0.43400728310E+02  0.00000000000E+00 0. -1.
         11    1    3    3    0    0 -0.72030470252E+01 -0.63386371502E+00  0.58819314930E+01  0.93210937130E+01  0.51100000000E-03 0. -1.
        -11    1    3    3    0    0 -0.16424430420E+01 -0.28800432784E+01  0.35615970967E+02  0.35769954664E+02  0.51100000000E-03 0.  1.
        -12    1    3    3    0    0  0.17029106584E+01 -0.18497578231E+01  0.97371014122E+00  0.26962233130E+01  0.00000000000E+00 0.  1.
</event>
<event>
 7    1  0.5504027E-010  0.4778728E+02  0.7816164E-02  0.1312668E+00
        -11   -1    0    0    0    0  0.00000000000E+00  0.00000000000E+00  0.45593999997E+02  0.45594000000E+02  0.51100000000E-03 0.  1.
         11   -1    0    0    0    0 -0.00000000000E+00 -0.00000000000E+00 -0.45593999997E+02  0.45594000000E+02  0.51100000000E-03 0. -1.
    9900012    2    1    2    0    0 -0.40073686264E+02 -0.15282133392E+02  0.66466940895E+01  0.47787280258E+02  0.20000042008E+02 0.  0.
         12    1    1    2    0    0  0.40073686264E+02  0.15282133392E+02 -0.66466940895E+01  0.43400719742E+02  0.00000000000E+00 0. -1.
         11    1    3    3    0    0 -0.34480231187E+02 -0.55342809811E+01  0.58409261257E+01  0.35406652298E+02  0.51100000000E-03 0. -1.
        -11    1    3    3    0    0 -0.17025562976E+01 -0.52996533623E+01  0.26837807356E+01  0.61796199725E+01  0.51100000000E-03 0.  1.
        -12    1    3    3    0    0 -0.38908987792E+01 -0.44481990485E+01 -0.18780127718E+01  0.62010079871E+01  0.00000000000E+00 0.  1.
</event>
<event>
 7    1  0.5504027E-010  0.4778727E+02  0.7816164E-02  0.1312668E+00
        -11   -1    0    0    0    0  0.00000000000E+00  0.00000000000E+00  0.45593999997E+02  0.45594000000E+02  0.51100000000E-03 0. -1.
         11   -1    0    0    0    0 -0.00000000000E+00 -0.00000000000E+00 -0.45593999997E+02  0.45594000000E+02  0.51100000000E-03 0.  1.
    9900012    2    1    2    0    0  0.38933050818E+02  0.15319076759E+02 -0.11539779622E+02  0.47787273364E+02  0.20000010578E+02 0.  0.
         12    1    1    2    0    0 -0.38933050818E+02 -0.15319076759E+02  0.11539779622E+02  0.43400726636E+02  0.00000000000E+00 0. -1.
         11    1    3    3    0    0 -0.70019251054E+00 -0.99792274726E+00 -0.13487289802E+01  0.18180180099E+01  0.51100000000E-03 0. -1.
        -11    1    3    3    0    0  0.20944454091E+02  0.14831013042E+02 -0.89531611593E+01  0.27180658565E+02  0.51100000000E-03 0.  1.
        -12    1    3    3    0    0  0.18688789237E+02  0.14859864642E+01 -0.12378894828E+01  0.18788596789E+02  0.00000000000E+00 0.  1.
</event>
<event>
 7    1  0.5504027E-010  0.4778725E+02  0.7816164E-02  0.1312668E+00
        -11   -1    0    0    0    0  0.00000000000E+00  0.00000000000E+00  0.45593999997E+02  0.45594000000E+02  0.51100000000E-03 0.  1.
         11   -1    0    0    0    0 -0.00000000000E+00 -0.00000000000E+00 -0.45593999997E+02  0.45594000000E+02  0.51100000000E-03 0. -1.
    9900012    2    1    2    0    0  0.16425598082E+02  0.13326971709E+02  0.37897444950E+02  0.47787253682E+02  0.19999920836E+02 0.  0.
         12    1    1    2    0    0 -0.16425598082E+02 -0.13326971709E+02 -0.37897444950E+02  0.43400746318E+02  0.00000000000E+00 0. -1.
         11    1    3    3    0    0  0.15130496351E+00  0.15612789836E+01 -0.21938161540E+01  0.26969083847E+01  0.51100000000E-03 0. -1.
        -11    1    3    3    0    0  0.80159212875E+01  0.67509712064E+01  0.25720977197E+02  0.27774075584E+02  0.51100000000E-03 0.  1.
         12    1    3    3    0    0  0.82583718305E+01  0.50147215187E+01  0.14370283907E+02  0.17316269713E+02  0.00000000000E+00 0. -1.
</event>
<event>
 7    1  0.5504027E-010  0.4778727E+02  0.7816164E-02  0.1312668E+00
        -11   -1    0    0    0    0  0.00000000000E+00  0.00000000000E+00  0.45593999997E+02  0.45594000000E+02  0.51100000000E-03 0. -1.
         11   -1    0    0    0    0 -0.00000000000E+00 -0.00000000000E+00 -0.45593999997E+02  0.45594000000E+02  0.51100000000E-03 0.  1.
    9900012    2    1    2    0    0 -0.27792548413E+02  0.31766903577E+02 -0.10102543711E+02  0.47787270748E+02  0.19999998647E+02 0.  0.
         12    1    1    2    0    0  0.27792548413E+02 -0.31766903577E+02  0.10102543711E+02  0.43400729252E+02  0.00000000000E+00 0. -1.
         11    1    3    3    0    0 -0.40107954491E+01  0.11910746148E+02 -0.41079260133E+01  0.13222231670E+02  0.51100000000E-03 0. -1.
        -11    1    3    3    0    0 -0.37451443112E+01  0.49638525945E+00  0.34801400139E+01  0.51365240207E+01  0.51100000000E-03 0.  1.
        -12    1    3    3    0    0 -0.20036608653E+02  0.19359772170E+02 -0.94747577118E+01  0.29428515057E+02  0.00000000000E+00 0.  1.
</event>
<event>
 7    1  0.5504027E-010  0.4778727E+02  0.7816164E-02  0.1312668E+00
        -11   -1    0    0    0    0  0.00000000000E+00  0.00000000000E+00  0.45593999997E+02  0.45594000000E+02  0.51100000000E-03 0.  1.
         11   -1    0    0    0    0 -0.00000000000E+00 -0.00000000000E+00 -0.45593999997E+02  0.45594000000E+02  0.51100000000E-03 0. -1.
    9900012    2    1    2    0    0 -0.21712774054E+02  0.27057396297E+02  0.26078268433E+02  0.47787270329E+02  0.19999996739E+02 0.  0.
         12    1    1    2    0    0  0.21712774054E+02 -0.27057396297E+02 -0.26078268433E+02  0.43400729671E+02  0.00000000000E+00 0. -1.
         11    1    3    3    0    0 -0.84087976138E+01  0.10052806335E+02  0.19405340966E+02  0.23416533706E+02  0.51100000000E-03 0. -1.
        -11    1    3    3    0    0 -0.79052541871E+01  0.15616684542E+02  0.68436156070E+01  0.18793854173E+02  0.51100000000E-03 0.  1.
         12    1    3    3    0    0 -0.53987222533E+01  0.13879054208E+01 -0.17068814062E+00  0.55768824504E+01  0.00000000000E+00 0. -1.
</event>
<event>
 7    1  0.5504027E-010  0.4778727E+02  0.7816164E-02  0.1312668E+00
        -11   -1    0    0    0    0  0.00000000000E+00  0.00000000000E+00  0.45593999997E+02  0.45594000000E+02  0.51100000000E-03 0.  1.
         11   -1    0    0    0    0 -0.00000000000E+00 -0.00000000000E+00 -0.45593999997E+02  0.45594000000E+02  0.51100000000E-03 0. -1.
    9900012    2    1    2    0    0  0.87043418280E+01 -0.37885708990E+02  0.19301055181E+02  0.47787271395E+02  0.20000001597E+02 0.  0.
         12    1    1    2    0    0 -0.87043418280E+01  0.37885708990E+02 -0.19301055181E+02  0.43400728605E+02  0.00000000000E+00 0. -1.
         11    1    3    3    0    0 -0.12475676763E+01 -0.23255453740E+01 -0.24169506698E+01  0.35785803323E+01  0.51100000000E-03 0. -1.
        -11    1    3    3    0    0  0.10546829161E+02 -0.35113424583E+02  0.18809655108E+02  0.41206690195E+02  0.51100000000E-03 0.  1.
        -12    1    3    3    0    0 -0.59491965631E+00 -0.44673903318E+00  0.29083507434E+01  0.30020008674E+01  0.00000000000E+00 0.  1.
</event>
<event>
 7    1  0.5504027E-010  0.4778727E+02  0.7816164E-02  0.1312668E+00
        -11   -1    0    0    0    0  0.00000000000E+00  0.00000000000E+00  0.45593999997E+02  0.45594000000E+02  0.51100000000E-03 0.  1.
         11   -1    0    0    0    0 -0.00000000000E+00 -0.00000000000E+00 -0.45593999997E+02  0.45594000000E+02  0.51100000000E-03 0. -1.
    9900012    2    1    2    0    0 -0.23920452629E+02 -0.18558786017E+02  0.31096729755E+02  0.47787271967E+02  0.20000004206E+02 0.  0.
         12    1    1    2    0    0  0.23920452629E+02  0.18558786017E+02 -0.31096729755E+02  0.43400728033E+02  0.00000000000E+00 0. -1.
         11    1    3    3    0    0 -0.87306692771E+00 -0.24586394016E+01 -0.85643591953E+00  0.27460219069E+01  0.51100000000E-03 0. -1.
        -11    1    3    3    0    0 -0.54571819438E+01 -0.47311642354E+01  0.19214549469E+02  0.20527144500E+02  0.51100000000E-03 0.  1.
        -12    1    3    3    0    0 -0.17590203757E+02 -0.11368982380E+02  0.12738616205E+02  0.24514105560E+02  0.00000000000E+00 0.  1.
</event>
<event>
 7    1  0.5504027E-010  0.4778727E+02  0.7816164E-02  0.1312668E+00
        -11   -1    0    0    0    0  0.00000000000E+00  0.00000000000E+00  0.45593999997E+02  0.45594000000E+02  0.51100000000E-03 0.  1.
         11   -1    0    0    0    0 -0.00000000000E+00 -0.00000000000E+00 -0.45593999997E+02  0.45594000000E+02  0.51100000000E-03 0. -1.
    9900012    2    1    2    0    0  0.24658807563E+02 -0.99061234045E+01  0.34313774630E+02  0.47787271888E+02  0.20000003846E+02 0.  0.
         12    1    1    2    0    0 -0.24658807563E+02  0.99061234045E+01 -0.34313774630E+02  0.43400728112E+02  0.00000000000E+00 0. -1.
         11    1    3    3    0    0  0.30078601099E+01 -0.49247909215E+01  0.17406386162E+02  0.18338022454E+02  0.51100000000E-03 0. -1.
        -11    1    3    3    0    0  0.91001854844E+01 -0.56267582822E+01  0.11675419319E+02  0.15836325368E+02  0.51100000000E-03 0.  1.
         12    1    3    3    0    0  0.12550761968E+02  0.64542579926E+00  0.52319691486E+01  0.13612924066E+02  0.00000000000E+00 0. -1.
</event>
<event>
 7    1  0.5504027E-010  0.4778727E+02  0.7816164E-02  0.1312668E+00
        -11   -1    0    0    0    0  0.00000000000E+00  0.00000000000E+00  0.45593999997E+02  0.45594000000E+02  0.51100000000E-03 0.  1.
         11   -1    0    0    0    0 -0.00000000000E+00 -0.00000000000E+00 -0.45593999997E+02  0.45594000000E+02  0.51100000000E-03 0. -1.
    9900012    2    1    2    0    0 -0.22171753809E+02 -0.37226470376E+02 -0.24953343753E+01  0.47787268932E+02  0.19999990368E+02 0.  0.
         12    1    1    2    0    0  0.22171753809E+02  0.37226470376E+02  0.24953343753E+01  0.43400731068E+02  0.00000000000E+00 0. -1.
         11    1    3    3    0    0 -0.31446798855E+01  0.12547616860E+01  0.15925865899E+01  0.37416267556E+01  0.51100000000E-03 0. -1.
        -11    1    3    3    0    0 -0.95820043845E+01 -0.27673901830E+02 -0.68040005490E+00  0.29293729619E+02  0.51100000000E-03 0.  1.
         12    1    3    3    0    0 -0.94450695388E+01 -0.10807330232E+02 -0.34075209103E+01  0.14751912557E+02  0.00000000000E+00 0. -1.
</event>
<event>
 7    1  0.5504027E-010  0.4778727E+02  0.7816164E-02  0.1312668E+00
        -11   -1    0    0    0    0  0.00000000000E+00  0.00000000000E+00  0.45593999997E+02  0.45594000000E+02  0.51100000000E-03 0. -1.
         11   -1    0    0    0    0 -0.00000000000E+00 -0.00000000000E+00 -0.45593999997E+02  0.45594000000E+02  0.51100000000E-03 0.  1.
    9900012    2    1    2    0    0  0.54133047145E+01  0.39472422184E+02 -0.17211838839E+02  0.47787269854E+02  0.19999994571E+02 0.  0.
         12    1    1    2    0    0 -0.54133047145E+01 -0.39472422184E+02  0.17211838839E+02  0.43400730146E+02  0.00000000000E+00 0. -1.
         11    1    3    3    0    0  0.28452039339E+01 -0.39352752248E+00 -0.22346443153E+00  0.28809696197E+01  0.51100000000E-03 0. -1.
        -11    1    3    3    0    0 -0.24942674093E+01  0.16818122206E+02 -0.11937995006E+02  0.20774655941E+02  0.51100000000E-03 0.  1.
        -12    1    3    3    0    0  0.50623681899E+01  0.23047827500E+02 -0.50503794019E+01  0.24131644293E+02  0.00000000000E+00 0.  1.
</event>
<event>
 7    1  0.5504027E-010  0.4778727E+02  0.7816164E-02  0.1312668E+00
        -11   -1    0    0    0    0  0.00000000000E+00  0.00000000000E+00  0.45593999997E+02  0.45594000000E+02  0.51100000000E-03 0.  1.
         11   -1    0    0    0    0 -0.00000000000E+00 -0.00000000000E+00 -0.45593999997E+02  0.45594000000E+02  0.51100000000E-03 0. -1.
    9900012    2    1    2    0    0  0.29858864523E+02  0.21575211622E+02  0.22947363133E+02  0.47787273948E+02  0.20000013237E+02 0.  0.
         12    1    1    2    0    0 -0.29858864523E+02 -0.21575211622E+02 -0.22947363133E+02  0.43400726052E+02  0.00000000000E+00 0. -1.
         11    1    3    3    0    0  0.21350386804E+02  0.11359006005E+02  0.70953914524E+01  0.25203384976E+02  0.51100000000E-03 0.  1.
        -11    1    3    3    0    0  0.68784819376E+01  0.13089418545E+01  0.75827013766E+01  0.10321056291E+02  0.51100000000E-03 0. -1.
         12    1    3    3    0    0  0.16299957805E+01  0.89072637621E+01  0.82692703045E+01  0.12262832680E+02  0.00000000000E+00 0. -1.
</event>
<event>
 7    1  0.5504027E-010  0.4778728E+02  0.7816164E-02  0.1312668E+00
        -11   -1    0    0    0    0  0.00000000000E+00  0.00000000000E+00  0.45593999997E+02  0.45594000000E+02  0.51100000000E-03 0.  1.
         11   -1    0    0    0    0 -0.00000000000E+00 -0.00000000000E+00 -0.45593999997E+02  0.45594000000E+02  0.51100000000E-03 0. -1.
    9900012    2    1    2    0    0  0.31410639552E+02  0.13804973730E+01  0.29918032447E+02  0.47787277477E+02  0.20000029328E+02 0.  0.
         12    1    1    2    0    0 -0.31410639552E+02 -0.13804973730E+01 -0.29918032447E+02  0.43400722523E+02  0.00000000000E+00 0. -1.
         11    1    3    3    0    0  0.73433364699E+01 -0.47619079938E+01  0.28612559286E+01  0.92079934840E+01  0.51100000000E-03 0.  1.
        -11    1    3    3    0    0  0.52672122465E+01  0.68439565432E+01  0.74359780497E+01  0.11396360640E+02  0.51100000000E-03 0. -1.
        -12    1    3    3    0    0  0.18800090835E+02 -0.70155117633E+00  0.19620798469E+02  0.27182923353E+02  0.00000000000E+00 0.  1.
</event>
<event>
 7    1  0.5504027E-010  0.4778727E+02  0.7816164E-02  0.1312668E+00
        -11   -1    0    0    0    0  0.00000000000E+00  0.00000000000E+00  0.45593999997E+02  0.45594000000E+02  0.51100000000E-03 0. -1.
         11   -1    0    0    0    0 -0.00000000000E+00 -0.00000000000E+00 -0.45593999997E+02  0.45594000000E+02  0.51100000000E-03 0.  1.
    9900012    2    1    2    0    0 -0.24173928091E+02 -0.33275536712E+02 -0.13855806703E+02  0.47787268183E+02  0.19999986955E+02 0.  0.
         12    1    1    2    0    0  0.24173928091E+02  0.33275536712E+02  0.13855806703E+02  0.43400731817E+02  0.00000000000E+00 0. -1.
         11    1    3    3    0    0 -0.15093957543E+02 -0.24538843960E+02 -0.62295481584E+00  0.28816149815E+02  0.51100000000E-03 0. -1.
        -11    1    3    3    0    0 -0.78578319681E+01 -0.70299504030E+01 -0.77070735281E+01  0.13060042440E+02  0.51100000000E-03 0.  1.
         12    1    3    3    0    0 -0.12221385804E+01 -0.17067423490E+01 -0.55257783594E+01  0.59110759285E+01  0.00000000000E+00 0. -1.
</event>
<event>
 7    1  0.5504027E-010  0.4778727E+02  0.7816164E-02  0.1312668E+00
        -11   -1    0    0    0    0  0.00000000000E+00  0.00000000000E+00  0.45593999997E+02  0.45594000000E+02  0.51100000000E-03 0.  1.
         11   -1    0    0    0    0 -0.00000000000E+00 -0.00000000000E+00 -0.45593999997E+02  0.45594000000E+02  0.51100000000E-03 0. -1.
    9900012    2    1    2    0    0 -0.19783572045E+02  0.40470584311E+01  0.38416855398E+02  0.47787272086E+02  0.20000004750E+02 0.  0.
         12    1    1    2    0    0  0.19783572045E+02 -0.40470584311E+01 -0.38416855398E+02  0.43400727914E+02  0.00000000000E+00 0. -1.
         11    1    3    3    0    0  0.22053301047E+01 -0.25793331597E+00 -0.10549055025E+00  0.22228672887E+01  0.51100000000E-03 0. -1.
        -11    1    3    3    0    0 -0.13113649637E+02 -0.12063565545E+01  0.26809900098E+02  0.29869614100E+02  0.51100000000E-03 0.  1.
         12    1    3    3    0    0 -0.88752525123E+01  0.55113483015E+01  0.11712445850E+02  0.15694790698E+02  0.00000000000E+00 0. -1.
</event>
<event>
 7    1  0.5504027E-010  0.4778727E+02  0.7816164E-02  0.1312668E+00
        -11   -1    0    0    0    0  0.00000000000E+00  0.00000000000E+00  0.45593999997E+02  0.45594000000E+02  0.51100000000E-03 0. -1.
         11   -1    0    0    0    0 -0.00000000000E+00 -0.00000000000E+00 -0.45593999997E+02  0.45594000000E+02  0.51100000000E-03 0.  1.
    9900012    2    1    2    0    0  0.87310231432E+01  0.13815173185E+02 -0.40206138785E+02  0.47787269922E+02  0.19999994885E+02 0.  0.
         12    1    1    2    0    0 -0.87310231432E+01 -0.13815173185E+02  0.40206138785E+02  0.43400730078E+02  0.00000000000E+00 0. -1.
         11    1    3    3    0    0 -0.14663212069E+01 -0.12169845416E+01 -0.48210138915E-01  0.19061672893E+01  0.51100000000E-03 0. -1.
        -11    1    3    3    0    0  0.40489532152E+01  0.15408215620E+02 -0.26935235825E+02  0.31293993992E+02  0.51100000000E-03 0.  1.
        -12    1    3    3    0    0  0.61483911349E+01 -0.37605789313E+00 -0.13222692821E+02  0.14587108642E+02  0.00000000000E+00 0.  1.
</event>
<event>
 7    1  0.5504027E-010  0.4778727E+02  0.7816164E-02  0.1312668E+00
        -11   -1    0    0    0    0  0.00000000000E+00  0.00000000000E+00  0.45593999997E+02  0.45594000000E+02  0.51100000000E-03 0. -1.
         11   -1    0    0    0    0 -0.00000000000E+00 -0.00000000000E+00 -0.45593999997E+02  0.45594000000E+02  0.51100000000E-03 0.  1.
    9900012    2    1    2    0    0  0.30321299495E+02  0.30704439415E+02  0.46345916299E+01  0.47787271407E+02  0.20000001654E+02 0.  0.
         12    1    1    2    0    0 -0.30321299495E+02 -0.30704439415E+02 -0.46345916299E+01  0.43400728593E+02  0.00000000000E+00 0. -1.
         11    1    3    3    0    0  0.19738286840E+00 -0.18982191559E+01  0.24925724604E+01  0.31392855384E+01  0.51100000000E-03 0. -1.
        -11    1    3    3    0    0  0.15374525353E+02  0.13696516879E+02  0.17662339736E+01  0.20666160436E+02  0.51100000000E-03 0.  1.
         12    1    3    3    0    0  0.14749391273E+02  0.18906141692E+02  0.37578519582E+00  0.23981825433E+02  0.00000000000E+00 0. -1.
</event>
<event>
 7    1  0.5504027E-010  0.4778727E+02  0.7816164E-02  0.1312668E+00
        -11   -1    0    0    0    0  0.00000000000E+00  0.00000000000E+00  0.45593999997E+02  0.45594000000E+02  0.51100000000E-03 0.  1.
         11   -1    0    0    0    0 -0.00000000000E+00 -0.00000000000E+00 -0.45593999997E+02  0.45594000000E+02  0.51100000000E-03 0. -1.
    9900012    2    1    2    0    0  0.13804396348E+02 -0.14297862290E+02  0.38582812343E+02  0.47787266909E+02  0.19999981144E+02 0.  0.
         12    1    1    2    0    0 -0.13804396348E+02  0.14297862290E+02 -0.38582812343E+02  0.43400733091E+02  0.00000000000E+00 0. -1.
         11    1    3    3    0    0 -0.43354474153E-01 -0.60627094668E+01  0.39670936009E+01  0.72454232167E+01  0.51100000000E-03 0. -1.
        -11    1    3    3    0    0  0.16355996327E+02 -0.82485124420E+01  0.27931257675E+02  0.33402271314E+02  0.51100000000E-03 0.  1.
        -12    1    3    3    0    0 -0.25082455049E+01  0.13359619133E-01  0.66844610663E+01  0.71395723779E+01  0.00000000000E+00 0.  1.
</event>
<event>
 7    1  0.5504027E-010  0.4778727E+02  0.7816164E-02  0.1312668E+00
        -11   -1    0    0    0    0  0.00000000000E+00  0.00000000000E+00  0.45593999997E+02  0.45594000000E+02  0.51100000000E-03 0.  1.
         11   -1    0    0    0    0 -0.00000000000E+00 -0.00000000000E+00 -0.45593999997E+02  0.45594000000E+02  0.51100000000E-03 0. -1.
    9900012    2    1    2    0    0  0.11669835522E+02  0.41562179540E+02  0.44747352919E+01  0.47787273219E+02  0.20000009915E+02 0.  0.
         12    1    1    2    0    0 -0.11669835522E+02 -0.41562179540E+02 -0.44747352919E+01  0.43400726781E+02  0.00000000000E+00 0. -1.
         11    1    3    3    0    0 -0.12327949665E+01 -0.62758869332E+00  0.36700499697E+00  0.14312036635E+01  0.51100000000E-03 0. -1.
        -11    1    3    3    0    0  0.80134280052E+01  0.40028735022E+02  0.34081592527E+01  0.40964987558E+02  0.51100000000E-03 0.  1.
        -12    1    3    3    0    0  0.48892024834E+01  0.21610332106E+01  0.69957104217E+00  0.53910819975E+01  0.00000000000E+00 0.  1.
</event>
<event>
 7    1  0.5504027E-010  0.4778727E+02  0.7816164E-02  0.1312668E+00
        -11   -1    0    0    0    0  0.00000000000E+00  0.00000000000E+00  0.45593999997E+02  0.45594000000E+02  0.51100000000E-03 0.  1.
         11   -1    0    0    0    0 -0.00000000000E+00 -0.00000000000E+00 -0.45593999997E+02  0.45594000000E+02  0.51100000000E-03 0. -1.
    9900012    2    1    2    0    0 -0.54508606056E+00  0.37857939664E+02  0.21215618258E+02  0.47787272212E+02  0.20000005326E+02 0.  0.
         12    1    1    2    0    0  0.54508606056E+00 -0.37857939664E+02 -0.21215618258E+02  0.43400727788E+02  0.00000000000E+00 0. -1.
         11    1    3    3    0    0 -0.37379319149E+01 -0.36569852626E-01 -0.49899846152E+00  0.37712692930E+01  0.51100000000E-03 0. -1.
        -11    1    3    3    0    0  0.14728742443E+01  0.33956241762E+02  0.19165615863E+02  0.39019438038E+02  0.51100000000E-03 0.  1.
         12    1    3    3    0    0  0.17199716101E+01  0.39382677545E+01  0.25490008566E+01  0.49965648813E+01  0.00000000000E+00 0. -1.
</event>
<event>
 7    1  0.5504027E-010  0.4778727E+02  0.7816164E-02  0.1312668E+00
        -11   -1    0    0    0    0  0.00000000000E+00  0.00000000000E+00  0.45593999997E+02  0.45594000000E+02  0.51100000000E-03 0. -1.
         11   -1    0    0    0    0 -0.00000000000E+00 -0.00000000000E+00 -0.45593999997E+02  0.45594000000E+02  0.51100000000E-03 0.  1.
    9900012    2    1    2    0    0 -0.24597378195E+02  0.35270657961E+02 -0.58798761173E+01  0.47787271087E+02  0.20000000192E+02 0.  0.
         12    1    1    2    0    0  0.24597378195E+02 -0.35270657961E+02  0.58798761173E+01  0.43400728913E+02  0.00000000000E+00 0. -1.
         11    1    3    3    0    0 -0.24798438166E+01  0.20987911791E+00  0.61471355530E+00  0.25635029969E+01  0.51100000000E-03 0. -1.
        -11    1    3    3    0    0 -0.11756119809E+02  0.79382191634E+01 -0.77462205582E+01  0.16162475357E+02  0.51100000000E-03 0.  1.
        -12    1    3    3    0    0 -0.10361414569E+02  0.27122559679E+02  0.12516308856E+01  0.29061292733E+02  0.00000000000E+00 0.  1.
</event>
<event>
 7    1  0.5504027E-010  0.4778725E+02  0.7816164E-02  0.1312668E+00
        -11   -1    0    0    0    0  0.00000000000E+00  0.00000000000E+00  0.45593999997E+02  0.45594000000E+02  0.51100000000E-03 0.  1.
         11   -1    0    0    0    0 -0.00000000000E+00 -0.00000000000E+00 -0.45593999997E+02  0.45594000000E+02  0.51100000000E-03 0. -1.
    9900012    2    1    2    0    0 -0.20300160945E+01  0.27633034183E+02  0.33405378567E+02  0.47787252764E+02  0.19999916651E+02 0.  0.
         12    1    1    2    0    0  0.20300160945E+01 -0.27633034183E+02 -0.33405378567E+02  0.43400747236E+02  0.00000000000E+00 0. -1.
         11    1    3    3    0    0 -0.48758436281E+01  0.45835058330E+01  0.15831929869E+00  0.66938361250E+01  0.51100000000E-03 0. -1.
        -11    1    3    3    0    0  0.13661207832E+01  0.22467947017E+02  0.30315800607E+02  0.37758743304E+02  0.51100000000E-03 0.  1.
         12    1    3    3    0    0  0.14797067504E+01  0.58158133228E+00  0.29312586611E+01  0.33346733351E+01  0.00000000000E+00 0. -1.
</event>
<event>
 7    1  0.5504027E-010  0.4778727E+02  0.7816164E-02  0.1312668E+00
        -11   -1    0    0    0    0  0.00000000000E+00  0.00000000000E+00  0.45593999997E+02  0.45594000000E+02  0.51100000000E-03 0.  1.
         11   -1    0    0    0    0 -0.00000000000E+00 -0.00000000000E+00 -0.45593999997E+02  0.45594000000E+02  0.51100000000E-03 0. -1.
    9900012    2    1    2    0    0  0.37482006420E+02 -0.51377315441E+01 -0.21267960906E+02  0.47787271299E+02  0.20000001161E+02 0.  0.
         12    1    1    2    0    0 -0.37482006420E+02  0.51377315441E+01  0.21267960906E+02  0.43400728701E+02  0.00000000000E+00 0. -1.
         11    1    3    3    0    0  0.34734240876E+02 -0.70614205940E+01 -0.18169481671E+02  0.39830405653E+02  0.51100000000E-03 0. -1.
        -11    1    3    3    0    0 -0.87084806414E+00 -0.11177261040E+01  0.97243614160E+00  0.17185227101E+01  0.51100000000E-03 0.  1.
         12    1    3    3    0    0  0.36186136076E+01  0.30414151540E+01 -0.40709153766E+01  0.62383429357E+01  0.00000000000E+00 0. -1.
</event>
<event>
 7    1  0.5504027E-010  0.4778727E+02  0.7816164E-02  0.1312668E+00
        -11   -1    0    0    0    0  0.00000000000E+00  0.00000000000E+00  0.45593999997E+02  0.45594000000E+02  0.51100000000E-03 0.  1.
         11   -1    0    0    0    0 -0.00000000000E+00 -0.00000000000E+00 -0.45593999997E+02  0.45594000000E+02  0.51100000000E-03 0. -1.
    9900012    2    1    2    0    0  0.17984950281E+02  0.19358711142E+02  0.34429716084E+02  0.47787268632E+02  0.19999989001E+02 0.  0.
         12    1    1    2    0    0 -0.17984950281E+02 -0.19358711142E+02 -0.34429716084E+02  0.43400731368E+02  0.00000000000E+00 0. -1.
         11    1    3    3    0    0  0.29784839471E+01  0.52178082215E+01  0.29247497340E+01  0.66821441564E+01  0.51100000000E-03 0. -1.
        -11    1    3    3    0    0 -0.14688750464E+01  0.56694967867E+01  0.18550649265E+01  0.61434561819E+01  0.51100000000E-03 0.  1.
        -12    1    3    3    0    0  0.16475341380E+02  0.84714061334E+01  0.29649901423E+02  0.34961668294E+02  0.00000000000E+00 0.  1.
</event>
<event>
 7    1  0.5504027E-010  0.4778727E+02  0.7816164E-02  0.1312668E+00
        -11   -1    0    0    0    0  0.00000000000E+00  0.00000000000E+00  0.45593999997E+02  0.45594000000E+02  0.51100000000E-03 0.  1.
         11   -1    0    0    0    0 -0.00000000000E+00 -0.00000000000E+00 -0.45593999997E+02  0.45594000000E+02  0.51100000000E-03 0. -1.
    9900012    2    1    2    0    0 -0.16065206064E+02  0.58841591896E+01  0.39886202580E+02  0.47787270380E+02  0.19999996972E+02 0.  0.
         12    1    1    2    0    0  0.16065206064E+02 -0.58841591896E+01 -0.39886202580E+02  0.43400729620E+02  0.00000000000E+00 0. -1.
         11    1    3    3    0    0 -0.37554203505E+01  0.29974130277E+01  0.32617111981E+02  0.32969131943E+02  0.51100000000E-03 0. -1.
        -11    1    3    3    0    0 -0.53523285138E+01  0.15593411709E+01  0.17636253880E+01  0.58471651403E+01  0.51100000000E-03 0.  1.
         12    1    3    3    0    0 -0.69574572000E+01  0.13274049910E+01  0.55054652112E+01  0.89709732968E+01  0.00000000000E+00 0. -1.
</event>
<event>
 7    1  0.5504027E-010  0.4778729E+02  0.7816164E-02  0.1312668E+00
        -11   -1    0    0    0    0  0.00000000000E+00  0.00000000000E+00  0.45593999997E+02  0.45594000000E+02  0.51100000000E-03 0.  1.
         11   -1    0    0    0    0 -0.00000000000E+00 -0.00000000000E+00 -0.45593999997E+02  0.45594000000E+02  0.51100000000E-03 0. -1.
    9900012    2    1    2    0    0 -0.39919759199E+02 -0.31258683914E+01  0.16741071020E+02  0.47787289331E+02  0.20000083375E+02 0.  0.
         12    1    1    2    0    0  0.39919759199E+02  0.31258683914E+01 -0.16741071020E+02  0.43400710669E+02  0.00000000000E+00 0. -1.
         11    1    3    3    0    0 -0.27074145199E+02  0.43943032197E+01  0.52307955269E+01  0.27922758838E+02  0.51100000000E-03 0. -1.
        -11    1    3    3    0    0 -0.70283010811E+01 -0.76268331690E+01  0.73224023487E+01  0.12695793661E+02  0.51100000000E-03 0.  1.
         12    1    3    3    0    0 -0.58173129184E+01  0.10666155790E+00  0.41878731445E+01  0.71687368311E+01  0.00000000000E+00 0. -1.
</event>
<event>
 7    1  0.5504027E-010  0.4778727E+02  0.7816164E-02  0.1312668E+00
        -11   -1    0    0    0    0  0.00000000000E+00  0.00000000000E+00  0.45593999997E+02  0.45594000000E+02  0.51100000000E-03 0.  1.
         11   -1    0    0    0    0 -0.00000000000E+00 -0.00000000000E+00 -0.45593999997E+02  0.45594000000E+02  0.51100000000E-03 0. -1.
    9900012    2    1    2    0    0  0.14054946090E+02  0.40198854232E+02  0.83746073932E+01  0.47787269128E+02  0.19999991264E+02 0.  0.
         12    1    1    2    0    0 -0.14054946090E+02 -0.40198854232E+02 -0.83746073932E+01  0.43400730872E+02  0.00000000000E+00 0. -1.
         11    1    3    3    0    0  0.12832583998E+02  0.27655770242E+02  0.47650681193E+01  0.30858106135E+02  0.51100000000E-03 0. -1.
        -11    1    3    3    0    0  0.58507121089E+01  0.82913396718E+01  0.12875617126E+01  0.10229123186E+02  0.51100000000E-03 0.  1.
         12    1    3    3    0    0 -0.46283500170E+01  0.42517443181E+01  0.23219775613E+01  0.67000398075E+01  0.00000000000E+00 0. -1.
</event>
<event>
 7    1  0.5504027E-010  0.4778727E+02  0.7816164E-02  0.1312668E+00
        -11   -1    0    0    0    0  0.00000000000E+00  0.00000000000E+00  0.45593999997E+02  0.45594000000E+02  0.51100000000E-03 0.  1.
         11   -1    0    0    0    0 -0.00000000000E+00 -0.00000000000E+00 -0.45593999997E+02  0.45594000000E+02  0.51100000000E-03 0. -1.
    9900012    2    1    2    0    0 -0.24967549221E+02 -0.87631259519E+01  0.34401340996E+02  0.47787272438E+02  0.20000006355E+02 0.  0.
         12    1    1    2    0    0  0.24967549221E+02  0.87631259519E+01 -0.34401340996E+02  0.43400727562E+02  0.00000000000E+00 0. -1.
         11    1    3    3    0    0 -0.10249440651E+01 -0.80456063749E+01  0.11387799895E+02  0.13980854015E+02  0.51100000000E-03 0. -1.
        -11    1    3    3    0    0 -0.15560662767E+02  0.17004470717E+01  0.17533608376E+02  0.23504322346E+02  0.51100000000E-03 0.  1.
         12    1    3    3    0    0 -0.83819423882E+01 -0.24179666487E+01  0.54799327256E+01  0.10302096078E+02  0.00000000000E+00 0. -1.
</event>
<event>
 7    1  0.5504027E-010  0.4778727E+02  0.7816164E-02  0.1312668E+00
        -11   -1    0    0    0    0  0.00000000000E+00  0.00000000000E+00  0.45593999997E+02  0.45594000000E+02  0.51100000000E-03 0.  1.
         11   -1    0    0    0    0 -0.00000000000E+00 -0.00000000000E+00 -0.45593999997E+02  0.45594000000E+02  0.51100000000E-03 0. -1.
    9900012    2    1    2    0    0 -0.27332024806E+02 -0.31716887521E+02  0.11429027123E+02  0.47787271953E+02  0.20000004144E+02 0.  0.
         12    1    1    2    0    0  0.27332024806E+02  0.31716887521E+02 -0.11429027123E+02  0.43400728047E+02  0.00000000000E+00 0. -1.
         11    1    3    3    0    0 -0.50069868671E+01 -0.99766004765E+01 -0.33640415071E+00  0.11167615796E+02  0.51100000000E-03 0. -1.
        -11    1    3    3    0    0 -0.16712782725E+01 -0.96010910932E+01  0.74736424435E+01  0.12281264303E+02  0.51100000000E-03 0.  1.
        -12    1    3    3    0    0 -0.20653759666E+02 -0.12139195952E+02  0.42917888299E+01  0.24338391854E+02  0.00000000000E+00 0.  1.
</event>
<event>
 7    1  0.5504027E-010  0.4778727E+02  0.7816164E-02  0.1312668E+00
        -11   -1    0    0    0    0  0.00000000000E+00  0.00000000000E+00  0.45593999997E+02  0.45594000000E+02  0.51100000000E-03 0.  1.
         11   -1    0    0    0    0 -0.00000000000E+00 -0.00000000000E+00 -0.45593999997E+02  0.45594000000E+02  0.51100000000E-03 0. -1.
    9900012    2    1    2    0    0 -0.28239473221E+02 -0.20954536196E+02  0.25437425686E+02  0.47787273502E+02  0.20000011206E+02 0.  0.
         12    1    1    2    0    0  0.28239473221E+02  0.20954536196E+02 -0.25437425686E+02  0.43400726498E+02  0.00000000000E+00 0. -1.
         11    1    3    3    0    0 -0.42497700443E+01 -0.80872477733E+01  0.15571122447E+02  0.18053364686E+02  0.51100000000E-03 0. -1.
        -11    1    3    3    0    0 -0.12124099130E+02 -0.94306332006E+01  0.31747028293E+01  0.15684685544E+02  0.51100000000E-03 0.  1.
        -12    1    3    3    0    0 -0.11865604047E+02 -0.34366552216E+01  0.66916004097E+01  0.14049223272E+02  0.00000000000E+00 0.  1.
</event>
<event>
 7    1  0.5504027E-010  0.4778726E+02  0.7816164E-02  0.1312668E+00
        -11   -1    0    0    0    0  0.00000000000E+00  0.00000000000E+00  0.45593999997E+02  0.45594000000E+02  0.51100000000E-03 0. -1.
         11   -1    0    0    0    0 -0.00000000000E+00 -0.00000000000E+00 -0.45593999997E+02  0.45594000000E+02  0.51100000000E-03 0.  1.
    9900012    2    1    2    0    0  0.39398366739E+02 -0.18047009962E+02  0.23870912715E+01  0.47787261815E+02  0.19999957920E+02 0.  0.
         12    1    1    2    0    0 -0.39398366739E+02  0.18047009962E+02 -0.23870912715E+01  0.43400738185E+02  0.00000000000E+00 0. -1.
         11    1    3    3    0    0  0.30023745218E+02 -0.15065470866E+02 -0.14675480603E+01  0.33623613531E+02  0.51100000000E-03 0. -1.
        -11    1    3    3    0    0  0.89550178492E+01 -0.56787069223E+01  0.18192331319E+01  0.10758701894E+02  0.51100000000E-03 0.  1.
         12    1    3    3    0    0  0.41960367139E+00  0.26971678258E+01  0.20354061999E+01  0.34049463902E+01  0.00000000000E+00 0. -1.
</event>
<event>
 7    1  0.5504027E-010  0.4778727E+02  0.7816164E-02  0.1312668E+00
        -11   -1    0    0    0    0  0.00000000000E+00  0.00000000000E+00  0.45593999997E+02  0.45594000000E+02  0.51100000000E-03 0. -1.
         11   -1    0    0    0    0 -0.00000000000E+00 -0.00000000000E+00 -0.45593999997E+02  0.45594000000E+02  0.51100000000E-03 0.  1.
    9900012    2    1    2    0    0 -0.13378089125E+02 -0.34919280257E+02 -0.22029388906E+02  0.47787269846E+02  0.19999994536E+02 0.  0.
         12    1    1    2    0    0  0.13378089125E+02  0.34919280257E+02  0.22029388906E+02  0.43400730154E+02  0.00000000000E+00 0. -1.
         11    1    3    3    0    0 -0.11540111421E+02 -0.88643780522E+01 -0.39052659435E+01  0.15066601216E+02  0.51100000000E-03 0. -1.
        -11    1    3    3    0    0 -0.13470872909E+00 -0.15558692853E+02 -0.62136673097E+01  0.16754125804E+02  0.51100000000E-03 0.  1.
         12    1    3    3    0    0 -0.17032689751E+01 -0.10496209352E+02 -0.11910455653E+02  0.15966542826E+02  0.00000000000E+00 0. -1.
</event>
<event>
 7    1  0.5504027E-010  0.4778725E+02  0.7816164E-02  0.1312668E+00
        -11   -1    0    0    0    0  0.00000000000E+00  0.00000000000E+00  0.45593999997E+02  0.45594000000E+02  0.51100000000E-03 0.  1.
         11   -1    0    0    0    0 -0.00000000000E+00 -0.00000000000E+00 -0.45593999997E+02  0.45594000000E+02  0.51100000000E-03 0. -1.
    9900012    2    1    2    0    0 -0.13853880714E+02 -0.23299545468E+02  0.33894335450E+02  0.47787253400E+02  0.19999919553E+02 0.  0.
         12    1    1    2    0    0  0.13853880714E+02  0.23299545468E+02 -0.33894335450E+02  0.43400746600E+02  0.00000000000E+00 0. -1.
         11    1    3    3    0    0 -0.14443241015E+01 -0.95637444940E+01  0.22184413443E+01  0.99233443514E+01  0.51100000000E-03 0. -1.
        -11    1    3    3    0    0 -0.31116070183E+01 -0.62932810247E+01  0.19955058740E+02  0.21154003259E+02  0.51100000000E-03 0.  1.
        -12    1    3    3    0    0 -0.92979495943E+01 -0.74425199489E+01  0.11720835365E+02  0.16709905790E+02  0.00000000000E+00 0.  1.
</event>
<event>
 7    1  0.5504027E-010  0.4778727E+02  0.7816164E-02  0.1312668E+00
        -11   -1    0    0    0    0  0.00000000000E+00  0.00000000000E+00  0.45593999997E+02  0.45594000000E+02  0.51100000000E-03 0.  1.
         11   -1    0    0    0    0 -0.00000000000E+00 -0.00000000000E+00 -0.45593999997E+02  0.45594000000E+02  0.51100000000E-03 0. -1.
    9900012    2    1    2    0    0 -0.22885574539E+02  0.25010495370E+01  0.36791554851E+02  0.47787270984E+02  0.19999999723E+02 0.  0.
         12    1    1    2    0    0  0.22885574539E+02 -0.25010495370E+01 -0.36791554851E+02  0.43400729016E+02  0.00000000000E+00 0. -1.
         11    1    3    3    0    0 -0.85416026882E+01 -0.19282590315E+00  0.23091120676E+01  0.88503196052E+01  0.51100000000E-03 0. -1.
        -11    1    3    3    0    0 -0.13530673362E+02 -0.40297185376E-01  0.33116798431E+02  0.35774335550E+02  0.51100000000E-03 0.  1.
         12    1    3    3    0    0 -0.81329848916E+00  0.27341726255E+01  0.13656443525E+01  0.31626158281E+01  0.00000000000E+00 0. -1.
</event>
<event>
 7    1  0.5504027E-010  0.4778728E+02  0.7816164E-02  0.1312668E+00
        -11   -1    0    0    0    0  0.00000000000E+00  0.00000000000E+00  0.45593999997E+02  0.45594000000E+02  0.51100000000E-03 0.  1.
         11   -1    0    0    0    0 -0.00000000000E+00 -0.00000000000E+00 -0.45593999997E+02  0.45594000000E+02  0.51100000000E-03 0. -1.
    9900012    2    1    2    0    0  0.40823096576E+02 -0.46823302954E+01  0.13970450563E+02  0.47787275122E+02  0.20000018591E+02 0.  0.
         12    1    1    2    0    0 -0.40823096576E+02  0.46823302954E+01 -0.13970450563E+02  0.43400724878E+02  0.00000000000E+00 0. -1.
         11    1    3    3    0    0  0.17782078751E+02 -0.24750397110E+01  0.10375351920E+01  0.17983454224E+02  0.51100000000E-03 0. -1.
        -11    1    3    3    0    0  0.12670403617E+02 -0.27612063960E+01  0.14328181035E+02  0.19325117351E+02  0.51100000000E-03 0.  1.
        -12    1    3    3    0    0  0.10370614207E+02  0.55391581157E+00 -0.13952656642E+01  0.10478703547E+02  0.00000000000E+00 0.  1.
</event>
<event>
 7    1  0.5504027E-010  0.4778726E+02  0.7816164E-02  0.1312668E+00
        -11   -1    0    0    0    0  0.00000000000E+00  0.00000000000E+00  0.45593999997E+02  0.45594000000E+02  0.51100000000E-03 0.  1.
         11   -1    0    0    0    0 -0.00000000000E+00 -0.00000000000E+00 -0.45593999997E+02  0.45594000000E+02  0.51100000000E-03 0. -1.
    9900012    2    1    2    0    0  0.21745843893E+02 -0.21046590938E+02 -0.31109221087E+02  0.47787258608E+02  0.19999943299E+02 0.  0.
         12    1    1    2    0    0 -0.21745843893E+02  0.21046590938E+02  0.31109221087E+02  0.43400741392E+02  0.00000000000E+00 0. -1.
         11    1    3    3    0    0  0.95144260859E+01 -0.11739235838E+02 -0.28335005282E+01  0.15374091430E+02  0.51100000000E-03 0. -1.
        -11    1    3    3    0    0  0.90186021084E+01 -0.78157433945E+01 -0.18497604857E+02  0.22013232714E+02  0.51100000000E-03 0.  1.
         12    1    3    3    0    0  0.32128156984E+01 -0.14916117057E+01 -0.97781157009E+01  0.10399934464E+02  0.00000000000E+00 0. -1.
</event>
<event>
 7    1  0.5504027E-010  0.4778727E+02  0.7816164E-02  0.1312668E+00
        -11   -1    0    0    0    0  0.00000000000E+00  0.00000000000E+00  0.45593999997E+02  0.45594000000E+02  0.51100000000E-03 0. -1.
         11   -1    0    0    0    0 -0.00000000000E+00 -0.00000000000E+00 -0.45593999997E+02  0.45594000000E+02  0.51100000000E-03 0.  1.
    9900012    2    1    2    0    0 -0.55873946137E+01 -0.42739802034E+02  0.50708309998E+01  0.47787274390E+02  0.20000015254E+02 0.  0.
         12    1    1    2    0    0  0.55873946137E+01  0.42739802034E+02 -0.50708309998E+01  0.43400725610E+02  0.00000000000E+00 0. -1.
         11    1    3    3    0    0 -0.27649984728E+01 -0.10811563962E+01  0.42127301795E+01  0.51537570310E+01  0.51100000000E-03 0. -1.
        -11    1    3    3    0    0 -0.40337549312E+01 -0.29361691574E+02 -0.27399091251E+01  0.29763857499E+02  0.51100000000E-03 0.  1.
        -12    1    3    3    0    0  0.12113587903E+01 -0.12296954063E+02  0.35980099453E+01  0.12869659860E+02  0.00000000000E+00 0.  1.
</event>
<event>
 7    1  0.5504027E-010  0.4778727E+02  0.7816164E-02  0.1312668E+00
        -11   -1    0    0    0    0  0.00000000000E+00  0.00000000000E+00  0.45593999997E+02  0.45594000000E+02  0.51100000000E-03 0.  1.
         11   -1    0    0    0    0 -0.00000000000E+00 -0.00000000000E+00 -0.45593999997E+02  0.45594000000E+02  0.51100000000E-03 0. -1.
    9900012    2    1    2    0    0  0.33052848158E+02 -0.50765600148E+01  0.27665161426E+02  0.47787269710E+02  0.19999993918E+02 0.  0.
         12    1    1    2    0    0 -0.33052848158E+02  0.50765600148E+01 -0.27665161426E+02  0.43400730290E+02  0.00000000000E+00 0. -1.
         11    1    3    3    0    0  0.57804208457E+01 -0.61690585209E+01  0.11048194554E+02  0.13911619293E+02  0.51100000000E-03 0. -1.
        -11    1    3    3    0    0  0.14609362279E+02 -0.47329813457E+01  0.10786733250E+02  0.18766677732E+02  0.51100000000E-03 0.  1.
         12    1    3    3    0    0  0.12663065033E+02  0.58254798518E+01  0.58302336222E+01  0.15108972686E+02  0.00000000000E+00 0. -1.
</event>
<event>
 7    1  0.5504027E-010  0.4778728E+02  0.7816164E-02  0.1312668E+00
        -11   -1    0    0    0    0  0.00000000000E+00  0.00000000000E+00  0.45593999997E+02  0.45594000000E+02  0.51100000000E-03 0. -1.
         11   -1    0    0    0    0 -0.00000000000E+00 -0.00000000000E+00 -0.45593999997E+02  0.45594000000E+02  0.51100000000E-03 0.  1.
    9900012    2    1    2    0    0 -0.40549563481E+02  0.13721014168E+02  0.71476617338E+01  0.47787281151E+02  0.20000046080E+02 0.  0.
         12    1    1    2    0    0  0.40549563481E+02 -0.13721014168E+02 -0.71476617338E+01  0.43400718849E+02  0.00000000000E+00 0. -1.
         11    1    3    3    0    0 -0.19447950956E+02  0.28921658905E+01  0.10576603433E+02  0.22326037722E+02  0.51100000000E-03 0. -1.
        -11    1    3    3    0    0 -0.18060467943E+02  0.10751979023E+02 -0.55664050172E+01  0.21743284487E+02  0.51100000000E-03 0.  1.
        -12    1    3    3    0    0 -0.30411445824E+01  0.76869254451E-01  0.21374633181E+01  0.37179589414E+01  0.00000000000E+00 0.  1.
</event>
<event>
 7    1  0.5504027E-010  0.4778727E+02  0.7816164E-02  0.1312668E+00
        -11   -1    0    0    0    0  0.00000000000E+00  0.00000000000E+00  0.45593999997E+02  0.45594000000E+02  0.51100000000E-03 0. -1.
         11   -1    0    0    0    0 -0.00000000000E+00 -0.00000000000E+00 -0.45593999997E+02  0.45594000000E+02  0.51100000000E-03 0.  1.
    9900012    2    1    2    0    0  0.22921074610E+02  0.21793757932E+02 -0.29720024562E+02  0.47787269522E+02  0.19999993057E+02 0.  0.
         12    1    1    2    0    0 -0.22921074610E+02 -0.21793757932E+02  0.29720024562E+02  0.43400730478E+02  0.00000000000E+00 0. -1.
         11    1    3    3    0    0  0.27621901087E+01 -0.22914456601E+01 -0.34310069143E+01  0.49651008164E+01  0.51100000000E-03 0. -1.
        -11    1    3    3    0    0  0.15031555426E+02  0.21110276722E+02 -0.14672123421E+02  0.29780239216E+02  0.51100000000E-03 0.  1.
         12    1    3    3    0    0  0.51273290757E+01  0.29749268696E+01 -0.11616894227E+02  0.13041929490E+02  0.00000000000E+00 0. -1.
</event>
<event>
 7    1  0.5504027E-010  0.4778724E+02  0.7816164E-02  0.1312668E+00
        -11   -1    0    0    0    0  0.00000000000E+00  0.00000000000E+00  0.45593999997E+02  0.45594000000E+02  0.51100000000E-03 0. -1.
         11   -1    0    0    0    0 -0.00000000000E+00 -0.00000000000E+00 -0.45593999997E+02  0.45594000000E+02  0.51100000000E-03 0.  1.
    9900012    2    1    2    0    0 -0.38952786875E+02  0.19085750351E+00 -0.19138170084E+02  0.47787244407E+02  0.19999878548E+02 0.  0.
         12    1    1    2    0    0  0.38952786875E+02 -0.19085750351E+00  0.19138170084E+02  0.43400755593E+02  0.00000000000E+00 0. -1.
         11    1    3    3    0    0 -0.27548492550E+02  0.18016500911E-01 -0.17004977749E+02  0.32374203231E+02  0.51100000000E-03 0. -1.
        -11    1    3    3    0    0 -0.64725987164E+01  0.51353676552E+01 -0.93888311502E+00  0.83155298605E+01  0.51100000000E-03 0.  1.
         12    1    3    3    0    0 -0.49316956081E+01 -0.49625266526E+01 -0.11943092206E+01  0.70975113148E+01  0.00000000000E+00 0. -1.
</event>
<event>
 7    1  0.5504027E-010  0.4778727E+02  0.7816164E-02  0.1312668E+00
        -11   -1    0    0    0    0  0.00000000000E+00  0.00000000000E+00  0.45593999997E+02  0.45594000000E+02  0.51100000000E-03 0.  1.
         11   -1    0    0    0    0 -0.00000000000E+00 -0.00000000000E+00 -0.45593999997E+02  0.45594000000E+02  0.51100000000E-03 0. -1.
    9900012    2    1    2    0    0  0.40912789902E+01  0.38113111287E+01  0.43039039554E+02  0.47787267495E+02  0.19999983816E+02 0.  0.
         12    1    1    2    0    0 -0.40912789902E+01 -0.38113111287E+01 -0.43039039554E+02  0.43400732505E+02  0.00000000000E+00 0. -1.
         11    1    3    3    0    0  0.16693075033E+00  0.37773672990E+01  0.27506654838E+01  0.46757384927E+01  0.51100000000E-03 0. -1.
        -11    1    3    3    0    0  0.34012569349E+01  0.41873045990E+01  0.37920040448E+02  0.38301847688E+02  0.51100000000E-03 0.  1.
        -12    1    3    3    0    0  0.52309130500E+00 -0.41533607694E+01  0.23683336221E+01  0.48096813137E+01  0.00000000000E+00 0.  1.
</event>
<event>
 7    1  0.5504027E-010  0.4778727E+02  0.7816164E-02  0.1312668E+00
        -11   -1    0    0    0    0  0.00000000000E+00  0.00000000000E+00  0.45593999997E+02  0.45594000000E+02  0.51100000000E-03 0. -1.
         11   -1    0    0    0    0 -0.00000000000E+00 -0.00000000000E+00 -0.45593999997E+02  0.45594000000E+02  0.51100000000E-03 0.  1.
    9900012    2    1    2    0    0  0.15575495255E+02  0.36222698427E+02  0.18136801417E+02  0.47787268446E+02  0.19999988154E+02 0.  0.
         12    1    1    2    0    0 -0.15575495255E+02 -0.36222698427E+02 -0.18136801417E+02  0.43400731554E+02  0.00000000000E+00 0. -1.
         11    1    3    3    0    0  0.35538677509E+01  0.12138003501E+02  0.13659402315E+00  0.12648310684E+02  0.51100000000E-03 0. -1.
        -11    1    3    3    0    0  0.10186527775E+02  0.12527426074E+02  0.35273112119E+01  0.16527058927E+02  0.51100000000E-03 0.  1.
         12    1    3    3    0    0  0.18350997292E+01  0.11557268853E+02  0.14472896182E+02  0.18611898835E+02  0.00000000000E+00 0. -1.
</event>
<event>
 7    1  0.5504027E-010  0.4778727E+02  0.7816164E-02  0.1312668E+00
        -11   -1    0    0    0    0  0.00000000000E+00  0.00000000000E+00  0.45593999997E+02  0.45594000000E+02  0.51100000000E-03 0. -1.
         11   -1    0    0    0    0 -0.00000000000E+00 -0.00000000000E+00 -0.45593999997E+02  0.45594000000E+02  0.51100000000E-03 0.  1.
    9900012    2    1    2    0    0  0.36010257811E+01 -0.42450787032E+02 -0.82816909293E+01  0.47787272921E+02  0.20000008558E+02 0.  0.
         12    1    1    2    0    0 -0.36010257811E+01  0.42450787032E+02  0.82816909293E+01  0.43400727079E+02  0.00000000000E+00 0. -1.
         11    1    3    3    0    0  0.56204863079E+01 -0.15080455992E+02  0.41312910194E+01  0.16615582597E+02  0.51100000000E-03 0. -1.
        -11    1    3    3    0    0 -0.37583048650E+01 -0.22378494294E+02 -0.12455409266E+02  0.25885499465E+02  0.51100000000E-03 0.  1.
        -12    1    3    3    0    0  0.17388443382E+01 -0.49918367459E+01  0.42427317226E-01  0.52861908599E+01  0.00000000000E+00 0.  1.
</event>
<event>
 7    1  0.5504027E-010  0.4778728E+02  0.7816164E-02  0.1312668E+00
        -11   -1    0    0    0    0  0.00000000000E+00  0.00000000000E+00  0.45593999997E+02  0.45594000000E+02  0.51100000000E-03 0.  1.
         11   -1    0    0    0    0 -0.00000000000E+00 -0.00000000000E+00 -0.45593999997E+02  0.45594000000E+02  0.51100000000E-03 0. -1.
    9900012    2    1    2    0    0 -0.18053499919E+02  0.80457566069E+01  0.38638835914E+02  0.47787277661E+02  0.20000030168E+02 0.  0.
         12    1    1    2    0    0  0.18053499919E+02 -0.80457566069E+01 -0.38638835914E+02  0.43400722339E+02  0.00000000000E+00 0. -1.
         11    1    3    3    0    0 -0.11037616419E+02  0.93433806491E+01  0.17696995529E+02  0.22854132869E+02  0.51100000000E-03 0. -1.
        -11    1    3    3    0    0 -0.82988500226E+01 -0.44312446728E+01  0.18512218551E+02  0.20765574324E+02  0.51100000000E-03 0.  1.
        -12    1    3    3    0    0  0.12829665226E+01  0.31336206305E+01  0.24296218347E+01  0.41675704690E+01  0.00000000000E+00 0.  1.
</event>
<event>
 7    1  0.5504027E-010  0.4778727E+02  0.7816164E-02  0.1312668E+00
        -11   -1    0    0    0    0  0.00000000000E+00  0.00000000000E+00  0.45593999997E+02  0.45594000000E+02  0.51100000000E-03 0. -1.
         11   -1    0    0    0    0 -0.00000000000E+00 -0.00000000000E+00 -0.45593999997E+02  0.45594000000E+02  0.51100000000E-03 0.  1.
    9900012    2    1    2    0    0  0.27290321849E+02 -0.33741728012E+02 -0.59771198358E+00  0.47787272639E+02  0.20000007269E+02 0.  0.
         12    1    1    2    0    0 -0.27290321849E+02  0.33741728012E+02  0.59771198358E+00  0.43400727361E+02  0.00000000000E+00 0. -1.
         11    1    3    3    0    0  0.38474224798E+01 -0.48346719813E+01  0.54222953077E+01  0.82205838947E+01  0.51100000000E-03 0. -1.
        -11    1    3    3    0    0  0.17864103812E+02 -0.26910956021E+02 -0.19126568109E+01  0.32357132371E+02  0.51100000000E-03 0.  1.
        -12    1    3    3    0    0  0.55787955579E+01 -0.19961000096E+01 -0.41073504803E+01  0.72095563728E+01  0.00000000000E+00 0.  1.
</event>
<event>
 7    1  0.5504027E-010  0.4778727E+02  0.7816164E-02  0.1312668E+00
        -11   -1    0    0    0    0  0.00000000000E+00  0.00000000000E+00  0.45593999997E+02  0.45594000000E+02  0.51100000000E-03 0.  1.
         11   -1    0    0    0    0 -0.00000000000E+00 -0.00000000000E+00 -0.45593999997E+02  0.45594000000E+02  0.51100000000E-03 0. -1.
    9900012    2    1    2    0    0 -0.32287925180E+02  0.22222357669E+02  0.18635448944E+02  0.47787271318E+02  0.20000001248E+02 0.  0.
         12    1    1    2    0    0  0.32287925180E+02 -0.22222357669E+02 -0.18635448944E+02  0.43400728682E+02  0.00000000000E+00 0. -1.
         11    1    3    3    0    0 -0.12148920523E+02  0.80613219100E+01 -0.67718235408E+00  0.14595881509E+02  0.51100000000E-03 0. -1.
        -11    1    3    3    0    0 -0.13308254245E+02  0.53678895688E+01  0.16175375790E+02  0.21623289567E+02  0.51100000000E-03 0.  1.
        -12    1    3    3    0    0 -0.68307504110E+01  0.87931461898E+01  0.31372555076E+01  0.11568100242E+02  0.00000000000E+00 0.  1.
</event>
<event>
 7    1  0.5504027E-010  0.4778727E+02  0.7816164E-02  0.1312668E+00
        -11   -1    0    0    0    0  0.00000000000E+00  0.00000000000E+00  0.45593999997E+02  0.45594000000E+02  0.51100000000E-03 0. -1.
         11   -1    0    0    0    0 -0.00000000000E+00 -0.00000000000E+00 -0.45593999997E+02  0.45594000000E+02  0.51100000000E-03 0.  1.
    9900012    2    1    2    0    0  0.11819780459E+02 -0.73000014371E+01 -0.41117222355E+02  0.47787271835E+02  0.20000003603E+02 0.  0.
         12    1    1    2    0    0 -0.11819780459E+02  0.73000014371E+01  0.41117222355E+02  0.43400728165E+02  0.00000000000E+00 0. -1.
         11    1    3    3    0    0  0.85957525868E+00  0.46956997837E+01 -0.33787471593E+01  0.58484526767E+01  0.51100000000E-03 0. -1.
        -11    1    3    3    0    0  0.11955503696E+02 -0.11488215982E+02 -0.37136382939E+02  0.40669695268E+02  0.51100000000E-03 0.  1.
         12    1    3    3    0    0 -0.99529849624E+00 -0.50748523852E+00 -0.60209225644E+00  0.12691238904E+01  0.00000000000E+00 0. -1.
</event>
<event>
 7    1  0.5504027E-010  0.4778728E+02  0.7816164E-02  0.1312668E+00
        -11   -1    0    0    0    0  0.00000000000E+00  0.00000000000E+00  0.45593999997E+02  0.45594000000E+02  0.51100000000E-03 0.  1.
         11   -1    0    0    0    0 -0.00000000000E+00 -0.00000000000E+00 -0.45593999997E+02  0.45594000000E+02  0.51100000000E-03 0. -1.
    9900012    2    1    2    0    0  0.26407934855E+02  0.10596783389E+02  0.32771201825E+02  0.47787279838E+02  0.20000040094E+02 0.  0.
         12    1    1    2    0    0 -0.26407934855E+02 -0.10596783389E+02 -0.32771201825E+02  0.43400720162E+02  0.00000000000E+00 0. -1.
         11    1    3    3    0    0  0.46784784737E+01 -0.33083424972E+01  0.55049880236E+01  0.79459539584E+01  0.51100000000E-03 0. -1.
        -11    1    3    3    0    0  0.27655748059E+01  0.90501474392E+01  0.94015733297E+01  0.13339533501E+02  0.51100000000E-03 0.  1.
        -12    1    3    3    0    0  0.18963881576E+02  0.48549784474E+01  0.17864640471E+02  0.26501792379E+02  0.00000000000E+00 0.  1.
</event>
<event>
 7    1  0.5504027E-010  0.4778727E+02  0.7816164E-02  0.1312668E+00
        -11   -1    0    0    0    0  0.00000000000E+00  0.00000000000E+00  0.45593999997E+02  0.45594000000E+02  0.51100000000E-03 0.  1.
         11   -1    0    0    0    0 -0.00000000000E+00 -0.00000000000E+00 -0.45593999997E+02  0.45594000000E+02  0.51100000000E-03 0. -1.
    9900012    2    1    2    0    0 -0.94985794042E+00 -0.42459626538E+02  0.89387368965E+01  0.47787272666E+02  0.20000007392E+02 0.  0.
         12    1    1    2    0    0  0.94985794042E+00  0.42459626538E+02 -0.89387368965E+01  0.43400727334E+02  0.00000000000E+00 0. -1.
         11    1    3    3    0    0 -0.61233950337E+01 -0.16906146061E+02 -0.18848718110E+01  0.18079449200E+02  0.51100000000E-03 0. -1.
        -11    1    3    3    0    0  0.40926052596E+01 -0.25635890007E+02  0.87988046905E+01  0.27411078755E+02  0.51100000000E-03 0.  1.
         12    1    3    3    0    0  0.10809318337E+01  0.82409529837E-01  0.20248040170E+01  0.22967447109E+01  0.00000000000E+00 0. -1.
</event>
<event>
 7    1  0.5504027E-010  0.4778727E+02  0.7816164E-02  0.1312668E+00
        -11   -1    0    0    0    0  0.00000000000E+00  0.00000000000E+00  0.45593999997E+02  0.45594000000E+02  0.51100000000E-03 0.  1.
         11   -1    0    0    0    0 -0.00000000000E+00 -0.00000000000E+00 -0.45593999997E+02  0.45594000000E+02  0.51100000000E-03 0. -1.
    9900012    2    1    2    0    0 -0.42801970273E+01  0.46666732569E+01  0.42936297547E+02  0.47787267599E+02  0.19999984290E+02 0.  0.
         12    1    1    2    0    0  0.42801970273E+01 -0.46666732569E+01 -0.42936297547E+02  0.43400732401E+02  0.00000000000E+00 0. -1.
         11    1    3    3    0    0  0.30799103863E+00  0.28001637286E+01  0.36948768718E+01  0.46462770844E+01  0.51100000000E-03 0. -1.
        -11    1    3    3    0    0 -0.69610599730E+01 -0.14736527932E+01  0.50993008610E+01  0.87539064443E+01  0.51100000000E-03 0.  1.
        -12    1    3    3    0    0  0.23728719071E+01  0.33401623215E+01  0.34142119815E+02  0.34387084070E+02  0.00000000000E+00 0.  1.
</event>
<event>
 7    1  0.5504027E-010  0.4778727E+02  0.7816164E-02  0.1312668E+00
        -11   -1    0    0    0    0  0.00000000000E+00  0.00000000000E+00  0.45593999997E+02  0.45594000000E+02  0.51100000000E-03 0.  1.
         11   -1    0    0    0    0 -0.00000000000E+00 -0.00000000000E+00 -0.45593999997E+02  0.45594000000E+02  0.51100000000E-03 0. -1.
    9900012    2    1    2    0    0 -0.24683723354E+02  0.20412180270E+02  0.29286174586E+02  0.47787270468E+02  0.19999997374E+02 0.  0.
         12    1    1    2    0    0  0.24683723354E+02 -0.20412180270E+02 -0.29286174586E+02  0.43400729532E+02  0.00000000000E+00 0. -1.
         11    1    3    3    0    0 -0.89746825568E+01  0.14978654467E+02  0.98119141312E+01  0.20029445220E+02  0.51100000000E-03 0. -1.
        -11    1    3    3    0    0 -0.35887142456E+01 -0.32723116004E+01  0.46991243523E+01  0.67578593568E+01  0.51100000000E-03 0.  1.
        -12    1    3    3    0    0 -0.12120326552E+02  0.87058374035E+01  0.14775136102E+02  0.20999965892E+02  0.00000000000E+00 0.  1.
</event>
<event>
 7    1  0.5504027E-010  0.4778727E+02  0.7816164E-02  0.1312668E+00
        -11   -1    0    0    0    0  0.00000000000E+00  0.00000000000E+00  0.45593999997E+02  0.45594000000E+02  0.51100000000E-03 0.  1.
         11   -1    0    0    0    0 -0.00000000000E+00 -0.00000000000E+00 -0.45593999997E+02  0.45594000000E+02  0.51100000000E-03 0. -1.
    9900012    2    1    2    0    0 -0.35665649601E+02  0.80608589688E+01  0.23379630238E+02  0.47787272831E+02  0.20000008143E+02 0.  0.
         12    1    1    2    0    0  0.35665649601E+02 -0.80608589688E+01 -0.23379630238E+02  0.43400727169E+02  0.00000000000E+00 0. -1.
         11    1    3    3    0    0 -0.17440338179E+02  0.81346874274E+01  0.20155263838E+02  0.27867062924E+02  0.51100000000E-03 0. -1.
        -11    1    3    3    0    0 -0.13868970357E+02 -0.47084411091E+00  0.55741616540E+01  0.14954641800E+02  0.51100000000E-03 0.  1.
         12    1    3    3    0    0 -0.43563410639E+01  0.39701565227E+00 -0.23497952535E+01  0.49655681071E+01  0.00000000000E+00 0. -1.
</event>
<event>
 7    1  0.5504027E-010  0.4778727E+02  0.7816164E-02  0.1312668E+00
        -11   -1    0    0    0    0  0.00000000000E+00  0.00000000000E+00  0.45593999997E+02  0.45594000000E+02  0.51100000000E-03 0.  1.
         11   -1    0    0    0    0 -0.00000000000E+00 -0.00000000000E+00 -0.45593999997E+02  0.45594000000E+02  0.51100000000E-03 0. -1.
    9900012    2    1    2    0    0 -0.38139062434E+02 -0.18676463671E+02  0.89568358955E+01  0.47787270884E+02  0.19999999266E+02 0.  0.
         12    1    1    2    0    0  0.38139062434E+02  0.18676463671E+02 -0.89568358955E+01  0.43400729116E+02  0.00000000000E+00 0. -1.
         11    1    3    3    0    0 -0.49353087303E+01 -0.88699038429E+01  0.81614725690E+01  0.13024672787E+02  0.51100000000E-03 0. -1.
        -11    1    3    3    0    0 -0.22084869520E+02 -0.52964458391E+01 -0.30811411860E+00  0.22713184163E+02  0.51100000000E-03 0.  1.
         12    1    3    3    0    0 -0.11118884183E+02 -0.45101139888E+01  0.11034774451E+01  0.12049413934E+02  0.00000000000E+00 0. -1.
</event>
<event>
 7    1  0.5504027E-010  0.4778727E+02  0.7816164E-02  0.1312668E+00
        -11   -1    0    0    0    0  0.00000000000E+00  0.00000000000E+00  0.45593999997E+02  0.45594000000E+02  0.51100000000E-03 0.  1.
         11   -1    0    0    0    0 -0.00000000000E+00 -0.00000000000E+00 -0.45593999997E+02  0.45594000000E+02  0.51100000000E-03 0. -1.
    9900012    2    1    2    0    0  0.23879058856E+02  0.22641723994E+02  0.28297810675E+02  0.47787271824E+02  0.20000003552E+02 0.  0.
         12    1    1    2    0    0 -0.23879058856E+02 -0.22641723994E+02 -0.28297810675E+02  0.43400728176E+02  0.00000000000E+00 0. -1.
         11    1    3    3    0    0 -0.25555494772E+01 -0.23444501347E+00  0.12743273442E+01  0.28652588079E+01  0.51100000000E-03 0. -1.
        -11    1    3    3    0    0  0.24001136469E+02  0.22866468872E+02  0.23479024652E+02  0.40622586690E+02  0.51100000000E-03 0.  1.
        -12    1    3    3    0    0  0.24334718637E+01  0.97001347494E-02  0.35444586793E+01  0.42994263260E+01  0.00000000000E+00 0.  1.
</event>
<event>
 7    1  0.5504027E-010  0.4778727E+02  0.7816164E-02  0.1312668E+00
        -11   -1    0    0    0    0  0.00000000000E+00  0.00000000000E+00  0.45593999997E+02  0.45594000000E+02  0.51100000000E-03 0.  1.
         11   -1    0    0    0    0 -0.00000000000E+00 -0.00000000000E+00 -0.45593999997E+02  0.45594000000E+02  0.51100000000E-03 0. -1.
    9900012    2    1    2    0    0 -0.36353529138E+02 -0.22668988034E+02  0.69398233063E+01  0.47787271357E+02  0.20000001424E+02 0.  0.
         12    1    1    2    0    0  0.36353529138E+02  0.22668988034E+02 -0.69398233063E+01  0.43400728643E+02  0.00000000000E+00 0. -1.
         11    1    3    3    0    0 -0.32481978905E+02 -0.24025787058E+02  0.60224946281E+01  0.40848351732E+02  0.51100000000E-03 0. -1.
        -11    1    3    3    0    0 -0.41755147810E+01  0.27530182191E+01 -0.37075445150E+00  0.50151263319E+01  0.51100000000E-03 0.  1.
         12    1    3    3    0    0  0.30396454882E+00 -0.13962191946E+01  0.12880831297E+01  0.19237932933E+01  0.00000000000E+00 0. -1.
</event>
<event>
 7    1  0.5504027E-010  0.4778727E+02  0.7816164E-02  0.1312668E+00
        -11   -1    0    0    0    0  0.00000000000E+00  0.00000000000E+00  0.45593999997E+02  0.45594000000E+02  0.51100000000E-03 0.  1.
         11   -1    0    0    0    0 -0.00000000000E+00 -0.00000000000E+00 -0.45593999997E+02  0.45594000000E+02  0.51100000000E-03 0. -1.
    9900012    2    1    2    0    0  0.16337110984E+01 -0.90567875141E+01  0.42413779983E+02  0.47787272535E+02  0.20000006795E+02 0.  0.
         12    1    1    2    0    0 -0.16337110984E+01  0.90567875141E+01 -0.42413779983E+02  0.43400727465E+02  0.00000000000E+00 0. -1.
         11    1    3    3    0    0  0.11221692283E+01  0.48050192679E+01  0.15445051139E+02  0.16214101236E+02  0.51100000000E-03 0. -1.
        -11    1    3    3    0    0 -0.37955643206E+01 -0.37325932270E+01  0.10370605417E+02  0.11657101598E+02  0.51100000000E-03 0.  1.
         12    1    3    3    0    0  0.43071061906E+01 -0.10129213555E+02  0.16598123428E+02  0.19916069700E+02  0.00000000000E+00 0. -1.
</event>
<event>
 7    1  0.5504027E-010  0.4778727E+02  0.7816164E-02  0.1312668E+00
        -11   -1    0    0    0    0  0.00000000000E+00  0.00000000000E+00  0.45593999997E+02  0.45594000000E+02  0.51100000000E-03 0.  1.
         11   -1    0    0    0    0 -0.00000000000E+00 -0.00000000000E+00 -0.45593999997E+02  0.45594000000E+02  0.51100000000E-03 0. -1.
    9900012    2    1    2    0    0  0.19182998583E+02 -0.15893873969E+02  0.35539000161E+02  0.47787271932E+02  0.20000004046E+02 0.  0.
         12    1    1    2    0    0 -0.19182998583E+02  0.15893873969E+02 -0.35539000161E+02  0.43400728068E+02  0.00000000000E+00 0. -1.
         11    1    3    3    0    0  0.50014119693E+01 -0.19054755343E+01  0.57947644287E+01  0.78882351476E+01  0.51100000000E-03 0. -1.
        -11    1    3    3    0    0  0.78601883682E+01 -0.14656785851E+01  0.11881140886E+01  0.80834640004E+01  0.51100000000E-03 0.  1.
        -12    1    3    3    0    0  0.63213982453E+01 -0.12522719850E+02  0.28556121644E+02  0.31815572784E+02  0.00000000000E+00 0.  1.
</event>
<event>
 7    1  0.5504027E-010  0.4778727E+02  0.7816164E-02  0.1312668E+00
        -11   -1    0    0    0    0  0.00000000000E+00  0.00000000000E+00  0.45593999997E+02  0.45594000000E+02  0.51100000000E-03 0.  1.
         11   -1    0    0    0    0 -0.00000000000E+00 -0.00000000000E+00 -0.45593999997E+02  0.45594000000E+02  0.51100000000E-03 0. -1.
    9900012    2    1    2    0    0 -0.19051066208E+02  0.33684945616E+02  0.19647000329E+02  0.47787270666E+02  0.19999998275E+02 0.  0.
         12    1    1    2    0    0  0.19051066208E+02 -0.33684945616E+02 -0.19647000329E+02  0.43400729334E+02  0.00000000000E+00 0. -1.
         11    1    3    3    0    0 -0.18050010001E+01  0.12972209415E+02  0.26716944248E+01  0.13366906788E+02  0.51100000000E-03 0. -1.
        -11    1    3    3    0    0 -0.17616311950E+02  0.21948896897E+02  0.14572561339E+02  0.31693028665E+02  0.51100000000E-03 0.  1.
        -12    1    3    3    0    0  0.37024674194E+00 -0.12361606968E+01  0.24027445648E+01  0.27273352126E+01  0.00000000000E+00 0.  1.
</event>
<event>
 7    1  0.5504027E-010  0.4778728E+02  0.7816164E-02  0.1312668E+00
        -11   -1    0    0    0    0  0.00000000000E+00  0.00000000000E+00  0.45593999997E+02  0.45594000000E+02  0.51100000000E-03 0.  1.
         11   -1    0    0    0    0 -0.00000000000E+00 -0.00000000000E+00 -0.45593999997E+02  0.45594000000E+02  0.51100000000E-03 0. -1.
    9900012    2    1    2    0    0  0.42535030481E+02 -0.50014881267E+01  0.70270161017E+01  0.47787278154E+02  0.20000032413E+02 0.  0.
         12    1    1    2    0    0 -0.42535030481E+02  0.50014881267E+01 -0.70270161017E+01  0.43400721846E+02  0.00000000000E+00 0. -1.
         11    1    3    3    0    0  0.60758109212E+00 -0.38904144486E+01  0.13608982300E+01  0.41661161312E+01  0.51100000000E-03 0. -1.
        -11    1    3    3    0    0  0.41885499725E+02 -0.23930663732E+01  0.52999920399E+01  0.42287253042E+02  0.51100000000E-03 0.  1.
        -12    1    3    3    0    0  0.41949663454E-01  0.12819926950E+01  0.36612583180E+00  0.13339089808E+01  0.00000000000E+00 0.  1.
</event>
<event>
 7    1  0.5504027E-010  0.4778727E+02  0.7816164E-02  0.1312668E+00
        -11   -1    0    0    0    0  0.00000000000E+00  0.00000000000E+00  0.45593999997E+02  0.45594000000E+02  0.51100000000E-03 0. -1.
         11   -1    0    0    0    0 -0.00000000000E+00 -0.00000000000E+00 -0.45593999997E+02  0.45594000000E+02  0.51100000000E-03 0.  1.
    9900012    2    1    2    0    0  0.13325404337E+01  0.38313467035E+02 -0.20345169642E+02  0.47787270190E+02  0.19999996104E+02 0.  0.
         12    1    1    2    0    0 -0.13325404337E+01 -0.38313467035E+02  0.20345169642E+02  0.43400729810E+02  0.00000000000E+00 0. -1.
         11    1    3    3    0    0 -0.33705224253E+01  0.11291117663E+02  0.11552549710E+01  0.11839948218E+02  0.51100000000E-03 0. -1.
        -11    1    3    3    0    0  0.19714814531E+01  0.16679526975E+02 -0.18169767419E+02  0.24743358858E+02  0.51100000000E-03 0.  1.
        -12    1    3    3    0    0  0.27315814059E+01  0.10342822397E+02 -0.33306571941E+01  0.11203963114E+02  0.00000000000E+00 0.  1.
</event>
<event>
 7    1  0.5654716E-010  0.4778727E+02  0.7816164E-02  0.1312668E+00
        -11   -1    0    0    0    0  0.00000000000E+00  0.00000000000E+00  0.45593999997E+02  0.45594000000E+02  0.51100000000E-03 0.  1.
         11   -1    0    0    0    0 -0.00000000000E+00 -0.00000000000E+00 -0.45593999997E+02  0.45594000000E+02  0.51100000000E-03 0. -1.
    9900012    2    1    2    0    0 -0.38505390638E+02 -0.60869602817E+01  0.19076351460E+02  0.47787269838E+02  0.19999994497E+02 0.  0.
         12    1    1    2    0    0  0.38505390638E+02  0.60869602817E+01 -0.19076351460E+02  0.43400730162E+02  0.00000000000E+00 0. -1.
         11    1    3    3    0    0  0.56339602554E+00  0.16934501805E+01  0.86563097123E+00  0.19835588811E+01  0.51100000000E-03 0. -1.
        -11    1    3    3    0    0 -0.30514540231E+02 -0.88875813637E+01  0.19183846797E+02  0.37123392170E+02  0.51100000000E-03 0.  1.
        -12    1    3    3    0    0 -0.85542464319E+01  0.11071709015E+01 -0.97312630832E+00  0.86803187864E+01  0.00000000000E+00 0.  1.
</event>
<event>
 7    1  0.5504027E-010  0.4778727E+02  0.7816164E-02  0.1312668E+00
        -11   -1    0    0    0    0  0.00000000000E+00  0.00000000000E+00  0.45593999997E+02  0.45594000000E+02  0.51100000000E-03 0.  1.
         11   -1    0    0    0    0 -0.00000000000E+00 -0.00000000000E+00 -0.45593999997E+02  0.45594000000E+02  0.51100000000E-03 0. -1.
    9900012    2    1    2    0    0  0.64435299061E+01 -0.41522604362E+02  0.10861744593E+02  0.47787271362E+02  0.20000001449E+02 0.  0.
         12    1    1    2    0    0 -0.64435299061E+01  0.41522604362E+02 -0.10861744593E+02  0.43400728638E+02  0.00000000000E+00 0. -1.
         11    1    3    3    0    0  0.81079801592E+01 -0.13404269858E+02  0.96791609707E+01  0.18414666710E+02  0.51100000000E-03 0. -1.
        -11    1    3    3    0    0 -0.16813907632E+01 -0.64166729935E+01 -0.29856583255E+01  0.72742644371E+01  0.51100000000E-03 0.  1.
        -12    1    3    3    0    0  0.16940510108E-01 -0.21701661511E+02  0.41682419481E+01  0.22098340215E+02  0.00000000000E+00 0.  1.
</event>
<event>
 7    1  0.5504027E-010  0.4778727E+02  0.7816164E-02  0.1312668E+00
        -11   -1    0    0    0    0  0.00000000000E+00  0.00000000000E+00  0.45593999997E+02  0.45594000000E+02  0.51100000000E-03 0. -1.
         11   -1    0    0    0    0 -0.00000000000E+00 -0.00000000000E+00 -0.45593999997E+02  0.45594000000E+02  0.51100000000E-03 0.  1.
    9900012    2    1    2    0    0 -0.16806275194E+02 -0.28243254106E+02 -0.28345916502E+02  0.47787271081E+02  0.20000000167E+02 0.  0.
         12    1    1    2    0    0  0.16806275194E+02  0.28243254106E+02  0.28345916502E+02  0.43400728919E+02  0.00000000000E+00 0. -1.
         11    1    3    3    0    0 -0.28865982384E+01 -0.77846041402E+01 -0.17719286472E+01  0.84895372313E+01  0.51100000000E-03 0.  1.
        -11    1    3    3    0    0 -0.29103834154E-01  0.22902225575E+01 -0.23180647749E+01  0.32587407012E+01  0.51100000000E-03 0. -1.
        -12    1    3    3    0    0 -0.13890573121E+02 -0.22748872523E+02 -0.24255923080E+02  0.36038993148E+02  0.00000000000E+00 0.  1.
</event>
<event>
 7    1  0.5504027E-010  0.4778727E+02  0.7816164E-02  0.1312668E+00
        -11   -1    0    0    0    0  0.00000000000E+00  0.00000000000E+00  0.45593999997E+02  0.45594000000E+02  0.51100000000E-03 0.  1.
         11   -1    0    0    0    0 -0.00000000000E+00 -0.00000000000E+00 -0.45593999997E+02  0.45594000000E+02  0.51100000000E-03 0. -1.
    9900012    2    1    2    0    0  0.11885170730E+02  0.16929248333E+01  0.41707314970E+02  0.47787269594E+02  0.19999993388E+02 0.  0.
         12    1    1    2    0    0 -0.11885170730E+02 -0.16929248333E+01 -0.41707314970E+02  0.43400730406E+02  0.00000000000E+00 0. -1.
         11    1    3    3    0    0  0.64634457542E+01  0.87302849350E+00  0.31855927743E+01  0.72585336916E+01  0.51100000000E-03 0. -1.
        -11    1    3    3    0    0 -0.14802076582E+01 -0.26538882213E+01  0.22897891575E+02  0.23098648797E+02  0.51100000000E-03 0.  1.
         12    1    3    3    0    0  0.69019326343E+01  0.34737845612E+01  0.15623830620E+02  0.17430087105E+02  0.00000000000E+00 0. -1.
</event>
<event>
 7    1  0.5504027E-010  0.4778727E+02  0.7816164E-02  0.1312668E+00
        -11   -1    0    0    0    0  0.00000000000E+00  0.00000000000E+00  0.45593999997E+02  0.45594000000E+02  0.51100000000E-03 0. -1.
         11   -1    0    0    0    0 -0.00000000000E+00 -0.00000000000E+00 -0.45593999997E+02  0.45594000000E+02  0.51100000000E-03 0.  1.
    9900012    2    1    2    0    0 -0.19690135127E+02 -0.34834025748E+02  0.16808115487E+02  0.47787268239E+02  0.19999987211E+02 0.  0.
         12    1    1    2    0    0  0.19690135127E+02  0.34834025748E+02 -0.16808115487E+02  0.43400731761E+02  0.00000000000E+00 0. -1.
         11    1    3    3    0    0  0.69858344756E+00 -0.62978981840E+00 -0.19834538003E+01  0.21951636130E+01  0.51100000000E-03 0. -1.
        -11    1    3    3    0    0 -0.14471766504E+02 -0.12886102755E+02  0.97465426896E+01  0.21690522461E+02  0.51100000000E-03 0.  1.
        -12    1    3    3    0    0 -0.59169520699E+01 -0.21318133175E+02  0.90450265979E+01  0.23901582165E+02  0.00000000000E+00 0.  1.
</event>
<event>
 7    1  0.5504027E-010  0.4778728E+02  0.7816164E-02  0.1312668E+00
        -11   -1    0    0    0    0  0.00000000000E+00  0.00000000000E+00  0.45593999997E+02  0.45594000000E+02  0.51100000000E-03 0.  1.
         11   -1    0    0    0    0 -0.00000000000E+00 -0.00000000000E+00 -0.45593999997E+02  0.45594000000E+02  0.51100000000E-03 0. -1.
    9900012    2    1    2    0    0 -0.34282206993E+02  0.85965275920E+01  0.25188338336E+02  0.47787281215E+02  0.20000046372E+02 0.  0.
         12    1    1    2    0    0  0.34282206993E+02 -0.85965275920E+01 -0.25188338336E+02  0.43400718785E+02  0.00000000000E+00 0. -1.
         11    1    3    3    0    0 -0.11346950905E+02  0.66120354562E+01  0.16576979593E+02  0.21148724794E+02  0.51100000000E-03 0. -1.
        -11    1    3    3    0    0 -0.23444706867E+02  0.33793972661E+01  0.77543134606E+01  0.24923964040E+02  0.51100000000E-03 0.  1.
         12    1    3    3    0    0  0.50945077939E+00 -0.13949051303E+01  0.85704528218E+00  0.17145923816E+01  0.00000000000E+00 0. -1.
</event>
<event>
 7    1  0.5504027E-010  0.4778727E+02  0.7816164E-02  0.1312668E+00
        -11   -1    0    0    0    0  0.00000000000E+00  0.00000000000E+00  0.45593999997E+02  0.45594000000E+02  0.51100000000E-03 0.  1.
         11   -1    0    0    0    0 -0.00000000000E+00 -0.00000000000E+00 -0.45593999997E+02  0.45594000000E+02  0.51100000000E-03 0. -1.
    9900012    2    1    2    0    0 -0.25873330813E+02  0.14553462223E+02  0.31660554779E+02  0.47787271447E+02  0.20000001833E+02 0.  0.
         12    1    1    2    0    0  0.25873330813E+02 -0.14553462223E+02 -0.31660554779E+02  0.43400728553E+02  0.00000000000E+00 0. -1.
         11    1    3    3    0    0 -0.13784878919E+02  0.13099579616E+02  0.15825175908E+02  0.24739807309E+02  0.51100000000E-03 0. -1.
        -11    1    3    3    0    0 -0.12396713198E+01  0.40677886452E+01  0.90185526377E+01  0.99708566023E+01  0.51100000000E-03 0.  1.
         12    1    3    3    0    0 -0.10848780575E+02 -0.26139060378E+01  0.68168262332E+01  0.13076607535E+02  0.00000000000E+00 0. -1.
</event>
<event>
 7    1  0.5504027E-010  0.4778727E+02  0.7816164E-02  0.1312668E+00
        -11   -1    0    0    0    0  0.00000000000E+00  0.00000000000E+00  0.45593999997E+02  0.45594000000E+02  0.51100000000E-03 0.  1.
         11   -1    0    0    0    0 -0.00000000000E+00 -0.00000000000E+00 -0.45593999997E+02  0.45594000000E+02  0.51100000000E-03 0. -1.
    9900012    2    1    2    0    0 -0.89061776033E+01  0.19803538731E+02  0.37578224818E+02  0.47787272745E+02  0.20000007755E+02 0.  0.
         12    1    1    2    0    0  0.89061776033E+01 -0.19803538731E+02 -0.37578224818E+02  0.43400727255E+02  0.00000000000E+00 0. -1.
         11    1    3    3    0    0 -0.12753405020E+01  0.12230153578E+02  0.53868792315E+01  0.13424664542E+02  0.51100000000E-03 0. -1.
        -11    1    3    3    0    0 -0.26163997685E+01  0.19737397850E+01  0.18075144608E+02  0.18369867973E+02  0.51100000000E-03 0.  1.
         12    1    3    3    0    0 -0.50144373328E+01  0.55996453674E+01  0.14116200978E+02  0.15992740230E+02  0.00000000000E+00 0. -1.
</event>
<event>
 7    1  0.5504027E-010  0.4778727E+02  0.7816164E-02  0.1312668E+00
        -11   -1    0    0    0    0  0.00000000000E+00  0.00000000000E+00  0.45593999997E+02  0.45594000000E+02  0.51100000000E-03 0. -1.
         11   -1    0    0    0    0 -0.00000000000E+00 -0.00000000000E+00 -0.45593999997E+02  0.45594000000E+02  0.51100000000E-03 0.  1.
    9900012    2    1    2    0    0 -0.41416852492E+02  0.67624453709E+01 -0.11069653488E+02  0.47787267678E+02  0.19999984653E+02 0.  0.
         12    1    1    2    0    0  0.41416852492E+02 -0.67624453709E+01  0.11069653488E+02  0.43400732322E+02  0.00000000000E+00 0. -1.
         11    1    3    3    0    0  0.40404702646E+00 -0.86146030264E+00  0.32301686036E+00  0.10048422791E+01  0.51100000000E-03 0. -1.
        -11    1    3    3    0    0 -0.41877635318E+02  0.62290745447E+01 -0.13336564299E+02  0.44389206538E+02  0.51100000000E-03 0.  1.
        -12    1    3    3    0    0  0.56735800235E-01  0.13948311289E+01  0.19438939499E+01  0.23932188612E+01  0.00000000000E+00 0.  1.
</event>
<event>
 7    1  0.5504027E-010  0.4778727E+02  0.7816164E-02  0.1312668E+00
        -11   -1    0    0    0    0  0.00000000000E+00  0.00000000000E+00  0.45593999997E+02  0.45594000000E+02  0.51100000000E-03 0. -1.
         11   -1    0    0    0    0 -0.00000000000E+00 -0.00000000000E+00 -0.45593999997E+02  0.45594000000E+02  0.51100000000E-03 0.  1.
    9900012    2    1    2    0    0  0.24939025375E+02 -0.27642195122E+02 -0.22306443148E+02  0.47787270239E+02  0.19999996329E+02 0.  0.
         12    1    1    2    0    0 -0.24939025375E+02  0.27642195122E+02  0.22306443148E+02  0.43400729761E+02  0.00000000000E+00 0. -1.
         11    1    3    3    0    0  0.13054612352E+02 -0.70096206601E+01 -0.59324819225E+00  0.14829350260E+02  0.51100000000E-03 0. -1.
        -11    1    3    3    0    0  0.43743380704E+01 -0.12875313611E+02 -0.14989738002E+02  0.20238596290E+02  0.51100000000E-03 0.  1.
         12    1    3    3    0    0  0.75100749530E+01 -0.77572608513E+01 -0.67234569537E+01  0.12719323690E+02  0.00000000000E+00 0. -1.
</event>
<event>
 7    1  0.5504027E-010  0.4778729E+02  0.7816164E-02  0.1312668E+00
        -11   -1    0    0    0    0  0.00000000000E+00  0.00000000000E+00  0.45593999997E+02  0.45594000000E+02  0.51100000000E-03 0. -1.
         11   -1    0    0    0    0 -0.00000000000E+00 -0.00000000000E+00 -0.45593999997E+02  0.45594000000E+02  0.51100000000E-03 0.  1.
    9900012    2    1    2    0    0 -0.36471713749E+00  0.42607977942E+02 -0.82491610595E+01  0.47787291929E+02  0.20000095220E+02 0.  0.
         12    1    1    2    0    0  0.36471713749E+00 -0.42607977942E+02  0.82491610595E+01  0.43400708071E+02  0.00000000000E+00 0. -1.
         11    1    3    3    0    0 -0.77449703542E+01  0.26455119703E+02 -0.57485026018E+01  0.28158537013E+02  0.51100000000E-03 0. -1.
        -11    1    3    3    0    0  0.55693819885E+01  0.15897822564E+02 -0.40861494820E+00  0.16850096274E+02  0.51100000000E-03 0.  1.
         12    1    3    3    0    0  0.18108712282E+01  0.25503567504E+00 -0.20920435095E+01  0.27786586416E+01  0.00000000000E+00 0. -1.
</event>
<event>
 7    1  0.5504027E-010  0.4778727E+02  0.7816164E-02  0.1312668E+00
        -11   -1    0    0    0    0  0.00000000000E+00  0.00000000000E+00  0.45593999997E+02  0.45594000000E+02  0.51100000000E-03 0.  1.
         11   -1    0    0    0    0 -0.00000000000E+00 -0.00000000000E+00 -0.45593999997E+02  0.45594000000E+02  0.51100000000E-03 0. -1.
    9900012    2    1    2    0    0  0.72505935061E+01  0.29525476716E+02  0.30972543892E+02  0.47787270091E+02  0.19999995652E+02 0.  0.
         12    1    1    2    0    0 -0.72505935061E+01 -0.29525476716E+02 -0.30972543892E+02  0.43400729909E+02  0.00000000000E+00 0. -1.
         11    1    3    3    0    0  0.91872896890E+01  0.23346287146E+02  0.16323107360E+02  0.29931576128E+02  0.51100000000E-03 0. -1.
        -11    1    3    3    0    0  0.19194564117E+00  0.27770466213E+01  0.13350361936E+02  0.13637484928E+02  0.51100000000E-03 0.  1.
        -12    1    3    3    0    0 -0.21286418241E+01  0.34021429488E+01  0.12990745956E+01  0.42182090352E+01  0.00000000000E+00 0.  1.
</event>
<event>
 7    1  0.5504027E-010  0.4778727E+02  0.7816164E-02  0.1312668E+00
        -11   -1    0    0    0    0  0.00000000000E+00  0.00000000000E+00  0.45593999997E+02  0.45594000000E+02  0.51100000000E-03 0. -1.
         11   -1    0    0    0    0 -0.00000000000E+00 -0.00000000000E+00 -0.45593999997E+02  0.45594000000E+02  0.51100000000E-03 0.  1.
    9900012    2    1    2    0    0 -0.37412891312E+02 -0.21633271316E+02 -0.39875068850E+01  0.47787273332E+02  0.20000010430E+02 0.  0.
         12    1    1    2    0    0  0.37412891312E+02  0.21633271316E+02  0.39875068850E+01  0.43400726668E+02  0.00000000000E+00 0. -1.
         11    1    3    3    0    0 -0.85774920756E+01 -0.44002009900E+01 -0.70534002333E+01  0.11945107541E+02  0.51100000000E-03 0. -1.
        -11    1    3    3    0    0 -0.14693337752E+02 -0.83164617946E+01  0.76067396029E+01  0.18518104620E+02  0.51100000000E-03 0.  1.
        -12    1    3    3    0    0 -0.14142061485E+02 -0.89166085315E+01 -0.45408462547E+01  0.17324061171E+02  0.00000000000E+00 0.  1.
</event>
<event>
 7    1  0.5504027E-010  0.4778727E+02  0.7816164E-02  0.1312668E+00
        -11   -1    0    0    0    0  0.00000000000E+00  0.00000000000E+00  0.45593999997E+02  0.45594000000E+02  0.51100000000E-03 0.  1.
         11   -1    0    0    0    0 -0.00000000000E+00 -0.00000000000E+00 -0.45593999997E+02  0.45594000000E+02  0.51100000000E-03 0. -1.
    9900012    2    1    2    0    0 -0.58121491094E+01  0.38407085526E+02  0.19358147043E+02  0.47787272439E+02  0.20000006360E+02 0.  0.
         12    1    1    2    0    0  0.58121491094E+01 -0.38407085526E+02 -0.19358147043E+02  0.43400727561E+02  0.00000000000E+00 0. -1.
         11    1    3    3    0    0 -0.37724012618E+01  0.57834200149E+01  0.91548025200E+01  0.11466881345E+02  0.51100000000E-03 0. -1.
        -11    1    3    3    0    0 -0.16277451728E+01  0.32262477272E+02  0.69776815384E+01  0.33048525443E+02  0.51100000000E-03 0.  1.
        -12    1    3    3    0    0 -0.41200267482E+00  0.36118823919E+00  0.32256629844E+01  0.32718656508E+01  0.00000000000E+00 0.  1.
</event>
<event>
 7    1  0.5504027E-010  0.4778727E+02  0.7816164E-02  0.1312668E+00
        -11   -1    0    0    0    0  0.00000000000E+00  0.00000000000E+00  0.45593999997E+02  0.45594000000E+02  0.51100000000E-03 0.  1.
         11   -1    0    0    0    0 -0.00000000000E+00 -0.00000000000E+00 -0.45593999997E+02  0.45594000000E+02  0.51100000000E-03 0. -1.
    9900012    2    1    2    0    0  0.30492507708E+02  0.21105525073E+02  0.22547439174E+02  0.47787271570E+02  0.20000002399E+02 0.  0.
         12    1    1    2    0    0 -0.30492507708E+02 -0.21105525073E+02 -0.22547439174E+02  0.43400728430E+02  0.00000000000E+00 0. -1.
         11    1    3    3    0    0  0.86669618757E+01  0.14312025356E+02  0.11325824360E+02  0.20204568682E+02  0.51100000000E-03 0. -1.
        -11    1    3    3    0    0  0.12821533957E+02  0.92968983122E+01  0.74977138021E+01  0.17522550150E+02  0.51100000000E-03 0.  1.
         12    1    3    3    0    0  0.90040118754E+01 -0.25033985951E+01  0.37239010118E+01  0.10060152739E+02  0.00000000000E+00 0. -1.
</event>
<event>
 7    1  0.5504027E-010  0.4778727E+02  0.7816164E-02  0.1312668E+00
        -11   -1    0    0    0    0  0.00000000000E+00  0.00000000000E+00  0.45593999997E+02  0.45594000000E+02  0.51100000000E-03 0.  1.
         11   -1    0    0    0    0 -0.00000000000E+00 -0.00000000000E+00 -0.45593999997E+02  0.45594000000E+02  0.51100000000E-03 0. -1.
    9900012    2    1    2    0    0 -0.18775446915E+02  0.30392994681E+02 -0.24644912948E+02  0.47787271126E+02  0.20000000373E+02 0.  0.
         12    1    1    2    0    0  0.18775446915E+02 -0.30392994681E+02  0.24644912948E+02  0.43400728874E+02  0.00000000000E+00 0. -1.
         11    1    3    3    0    0 -0.13369236432E+02  0.13998714912E+02 -0.17839395793E+02  0.26323839850E+02  0.51100000000E-03 0. -1.
        -11    1    3    3    0    0 -0.29591807053E-01  0.13005576973E+02 -0.75922761901E+01  0.15059500857E+02  0.51100000000E-03 0.  1.
        -12    1    3    3    0    0 -0.53766186756E+01  0.33887027967E+01  0.78675903439E+00  0.64039304186E+01  0.00000000000E+00 0.  1.
</event>
<event>
 7    1  0.5504027E-010  0.4778728E+02  0.7816164E-02  0.1312668E+00
        -11   -1    0    0    0    0  0.00000000000E+00  0.00000000000E+00  0.45593999997E+02  0.45594000000E+02  0.51100000000E-03 0.  1.
         11   -1    0    0    0    0 -0.00000000000E+00 -0.00000000000E+00 -0.45593999997E+02  0.45594000000E+02  0.51100000000E-03 0. -1.
    9900012    2    1    2    0    0  0.37150097058E+02 -0.22369060277E+02  0.17657038006E+01  0.47787282506E+02  0.20000052256E+02 0.  0.
         12    1    1    2    0    0 -0.37150097058E+02  0.22369060277E+02 -0.17657038006E+01  0.43400717494E+02  0.00000000000E+00 0. -1.
         11    1    3    3    0    0  0.17032619417E+01 -0.11326538932E+01  0.19952826113E+01  0.28574742421E+01  0.51100000000E-03 0. -1.
        -11    1    3    3    0    0  0.27354029991E+02 -0.23978481552E+02  0.15770020887E+00  0.36376302779E+02  0.51100000000E-03 0.  1.
        -12    1    3    3    0    0  0.80928051258E+01  0.27420751679E+01 -0.38727901957E+00  0.85535054843E+01  0.00000000000E+00 0.  1.
</event>
<event>
 7    1  0.5504027E-010  0.4778727E+02  0.7816164E-02  0.1312668E+00
        -11   -1    0    0    0    0  0.00000000000E+00  0.00000000000E+00  0.45593999997E+02  0.45594000000E+02  0.51100000000E-03 0.  1.
         11   -1    0    0    0    0 -0.00000000000E+00 -0.00000000000E+00 -0.45593999997E+02  0.45594000000E+02  0.51100000000E-03 0. -1.
    9900012    2    1    2    0    0  0.19312780663E+02 -0.38411137829E+02  0.59350197240E+01  0.47787268838E+02  0.19999989942E+02 0.  0.
         12    1    1    2    0    0 -0.19312780663E+02  0.38411137829E+02 -0.59350197240E+01  0.43400731162E+02  0.00000000000E+00 0. -1.
         11    1    3    3    0    0  0.38931407309E+01 -0.23611288875E+01 -0.36807214536E+01  0.58548428718E+01  0.51100000000E-03 0. -1.
        -11    1    3    3    0    0  0.13478406589E+02 -0.24658451929E+02  0.11233793170E+02  0.30263919193E+02  0.51100000000E-03 0.  1.
         12    1    3    3    0    0  0.19412333432E+01 -0.11391557013E+02 -0.16180519924E+01  0.11668506773E+02  0.00000000000E+00 0. -1.
</event>
<event>
 7    1  0.5504027E-010  0.4778727E+02  0.7816164E-02  0.1312668E+00
        -11   -1    0    0    0    0  0.00000000000E+00  0.00000000000E+00  0.45593999997E+02  0.45594000000E+02  0.51100000000E-03 0. -1.
         11   -1    0    0    0    0 -0.00000000000E+00 -0.00000000000E+00 -0.45593999997E+02  0.45594000000E+02  0.51100000000E-03 0.  1.
    9900012    2    1    2    0    0  0.39915868627E+00 -0.68080217556E+00 -0.43393552529E+02  0.47787271661E+02  0.20000002810E+02 0.  0.
         12    1    1    2    0    0 -0.39915868627E+00  0.68080217556E+00  0.43393552529E+02  0.43400728339E+02  0.00000000000E+00 0. -1.
         11    1    3    3    0    0 -0.68808445654E+00  0.15939255947E+01 -0.11221665726E+02  0.11355168028E+02  0.51100000000E-03 0. -1.
        -11    1    3    3    0    0  0.79437747016E+01 -0.26830119452E+01 -0.25552475368E+02  0.26892956463E+02  0.51100000000E-03 0.  1.
        -12    1    3    3    0    0 -0.68565315587E+01  0.40828417493E+00 -0.66194114353E+01  0.95391471701E+01  0.00000000000E+00 0.  1.
</event>
<event>
 7    1  0.5504027E-010  0.4778727E+02  0.7816164E-02  0.1312668E+00
        -11   -1    0    0    0    0  0.00000000000E+00  0.00000000000E+00  0.45593999997E+02  0.45594000000E+02  0.51100000000E-03 0.  1.
         11   -1    0    0    0    0 -0.00000000000E+00 -0.00000000000E+00 -0.45593999997E+02  0.45594000000E+02  0.51100000000E-03 0. -1.
    9900012    2    1    2    0    0  0.26191378241E+02 -0.82339314527E+01  0.33613052680E+02  0.47787271529E+02  0.20000002210E+02 0.  0.
         12    1    1    2    0    0 -0.26191378241E+02  0.82339314527E+01 -0.33613052680E+02  0.43400728471E+02  0.00000000000E+00 0. -1.
         11    1    3    3    0    0  0.53627962992E+01 -0.77786189233E+01  0.35960875582E+01  0.10109319586E+02  0.51100000000E-03 0. -1.
        -11    1    3    3    0    0  0.10190034999E+02  0.41448103228E+01  0.16997557232E+02  0.20246807601E+02  0.51100000000E-03 0.  1.
        -12    1    3    3    0    0  0.10638546943E+02 -0.46001228523E+01  0.13019407890E+02  0.17431144343E+02  0.00000000000E+00 0.  1.
</event>
<event>
 7    1  0.5504027E-010  0.4778727E+02  0.7816164E-02  0.1312668E+00
        -11   -1    0    0    0    0  0.00000000000E+00  0.00000000000E+00  0.45593999997E+02  0.45594000000E+02  0.51100000000E-03 0.  1.
         11   -1    0    0    0    0 -0.00000000000E+00 -0.00000000000E+00 -0.45593999997E+02  0.45594000000E+02  0.51100000000E-03 0. -1.
    9900012    2    1    2    0    0 -0.33975006049E+01 -0.24497098837E+01  0.43198136518E+02  0.47787273192E+02  0.20000009791E+02 0.  0.
         12    1    1    2    0    0  0.33975006049E+01  0.24497098837E+01 -0.43198136518E+02  0.43400726808E+02  0.00000000000E+00 0. -1.
         11    1    3    3    0    0 -0.53209125148E-01  0.61166435155E+01  0.51162006948E+01  0.79744384704E+01  0.51100000000E-03 0. -1.
        -11    1    3    3    0    0 -0.32150977256E+01 -0.92283543199E+01  0.27064208102E+02  0.28774480661E+02  0.51100000000E-03 0.  1.
         12    1    3    3    0    0 -0.12919375415E+00  0.66200092070E+00  0.11017727721E+02  0.11038354061E+02  0.00000000000E+00 0. -1.
</event>
<event>
 7    1  0.5504027E-010  0.4778727E+02  0.7816164E-02  0.1312668E+00
        -11   -1    0    0    0    0  0.00000000000E+00  0.00000000000E+00  0.45593999997E+02  0.45594000000E+02  0.51100000000E-03 0.  1.
         11   -1    0    0    0    0 -0.00000000000E+00 -0.00000000000E+00 -0.45593999997E+02  0.45594000000E+02  0.51100000000E-03 0. -1.
    9900012    2    1    2    0    0  0.36798843958E+02 -0.67263827024E+01  0.22005089908E+02  0.47787272785E+02  0.20000007938E+02 0.  0.
         12    1    1    2    0    0 -0.36798843958E+02  0.67263827024E+01 -0.22005089908E+02  0.43400727215E+02  0.00000000000E+00 0. -1.
         11    1    3    3    0    0  0.25986526972E+00 -0.49674429846E-01 -0.23155123791E+01  0.23305783287E+01  0.51100000000E-03 0. -1.
        -11    1    3    3    0    0  0.15796183356E+02  0.47840666460E+00  0.14384511955E+02  0.21369662280E+02  0.51100000000E-03 0.  1.
         12    1    3    3    0    0  0.20742795333E+02 -0.71551149371E+01  0.99360903320E+01  0.24087032176E+02  0.00000000000E+00 0. -1.
</event>
<event>
 7    1  0.5504027E-010  0.4778727E+02  0.7816164E-02  0.1312668E+00
        -11   -1    0    0    0    0  0.00000000000E+00  0.00000000000E+00  0.45593999997E+02  0.45594000000E+02  0.51100000000E-03 0.  1.
         11   -1    0    0    0    0 -0.00000000000E+00 -0.00000000000E+00 -0.45593999997E+02  0.45594000000E+02  0.51100000000E-03 0. -1.
    9900012    2    1    2    0    0 -0.12149715071E+02 -0.31856226648E+02  0.26854951999E+02  0.47787271902E+02  0.20000003911E+02 0.  0.
         12    1    1    2    0    0  0.12149715071E+02  0.31856226648E+02 -0.26854951999E+02  0.43400728098E+02  0.00000000000E+00 0. -1.
         11    1    3    3    0    0 -0.16466584126E+01 -0.40168152763E+01  0.13885270245E+02  0.14548093309E+02  0.51100000000E-03 0. -1.
        -11    1    3    3    0    0 -0.65262386232E+01 -0.22970392632E+02  0.78661373500E+01  0.25141735129E+02  0.51100000000E-03 0.  1.
         12    1    3    3    0    0 -0.39768180349E+01 -0.48690187395E+01  0.51035444043E+01  0.80974434641E+01  0.00000000000E+00 0. -1.
</event>
<event>
 7    1  0.5504027E-010  0.4778727E+02  0.7816164E-02  0.1312668E+00
        -11   -1    0    0    0    0  0.00000000000E+00  0.00000000000E+00  0.45593999997E+02  0.45594000000E+02  0.51100000000E-03 0.  1.
         11   -1    0    0    0    0 -0.00000000000E+00 -0.00000000000E+00 -0.45593999997E+02  0.45594000000E+02  0.51100000000E-03 0. -1.
    9900012    2    1    2    0    0 -0.27031749756E+02 -0.24622615319E+02  0.23380220082E+02  0.47787269925E+02  0.19999994895E+02 0.  0.
         12    1    1    2    0    0  0.27031749756E+02  0.24622615319E+02 -0.23380220082E+02  0.43400730075E+02  0.00000000000E+00 0. -1.
         11    1    3    3    0    0 -0.18905762234E+02 -0.91027603404E+01  0.85519020098E+01  0.22658841977E+02  0.51100000000E-03 0. -1.
        -11    1    3    3    0    0 -0.48003666336E+01 -0.11750768663E+02  0.15525219361E+02  0.20053840541E+02  0.51100000000E-03 0.  1.
         12    1    3    3    0    0 -0.33256208877E+01 -0.37690863157E+01 -0.69690128916E+00  0.50745874070E+01  0.00000000000E+00 0. -1.
</event>
<event>
 7    1  0.5504027E-010  0.4778728E+02  0.7816164E-02  0.1312668E+00
        -11   -1    0    0    0    0  0.00000000000E+00  0.00000000000E+00  0.45593999997E+02  0.45594000000E+02  0.51100000000E-03 0. -1.
         11   -1    0    0    0    0 -0.00000000000E+00 -0.00000000000E+00 -0.45593999997E+02  0.45594000000E+02  0.51100000000E-03 0.  1.
    9900012    2    1    2    0    0  0.27527932137E+02  0.32165177343E+02  0.95518161625E+01  0.47787275660E+02  0.20000021043E+02 0.  0.
         12    1    1    2    0    0 -0.27527932137E+02 -0.32165177343E+02 -0.95518161625E+01  0.43400724340E+02  0.00000000000E+00 0. -1.
         11    1    3    3    0    0  0.90468648561E+01  0.10760451094E+02 -0.23430726128E+01  0.14252124789E+02  0.51100000000E-03 0. -1.
        -11    1    3    3    0    0  0.17009223170E+02  0.22374501566E+02  0.13474048831E+02  0.31168605765E+02  0.51100000000E-03 0.  1.
        -12    1    3    3    0    0  0.14718441114E+01 -0.96977531728E+00 -0.15791600560E+01  0.23665451056E+01  0.00000000000E+00 0.  1.
</event>
<event>
 7    1  0.5504027E-010  0.4778727E+02  0.7816164E-02  0.1312668E+00
        -11   -1    0    0    0    0  0.00000000000E+00  0.00000000000E+00  0.45593999997E+02  0.45594000000E+02  0.51100000000E-03 0. -1.
         11   -1    0    0    0    0 -0.00000000000E+00 -0.00000000000E+00 -0.45593999997E+02  0.45594000000E+02  0.51100000000E-03 0.  1.
    9900012    2    1    2    0    0 -0.28855133961E+02  0.25015586459E+02 -0.20620983781E+02  0.47787270814E+02  0.19999998951E+02 0.  0.
         12    1    1    2    0    0  0.28855133961E+02 -0.25015586459E+02  0.20620983781E+02  0.43400729186E+02  0.00000000000E+00 0. -1.
         11    1    3    3    0    0 -0.12748658200E+02  0.18488587608E+02 -0.16411190983E+02  0.27815163982E+02  0.51100000000E-03 0. -1.
        -11    1    3    3    0    0 -0.18223253233E+01 -0.20551516383E+01  0.13807190308E+00  0.27501967115E+01  0.51100000000E-03 0.  1.
         12    1    3    3    0    0 -0.14284150437E+02  0.85821504895E+01 -0.43478647010E+01  0.17221910120E+02  0.00000000000E+00 0. -1.
</event>
<event>
 7    1  0.5504027E-010  0.4778727E+02  0.7816164E-02  0.1312668E+00
        -11   -1    0    0    0    0  0.00000000000E+00  0.00000000000E+00  0.45593999997E+02  0.45594000000E+02  0.51100000000E-03 0. -1.
         11   -1    0    0    0    0 -0.00000000000E+00 -0.00000000000E+00 -0.45593999997E+02  0.45594000000E+02  0.51100000000E-03 0.  1.
    9900012    2    1    2    0    0  0.66909945370E+01  0.42803699372E+02 -0.25879039827E+01  0.47787270342E+02  0.19999996797E+02 0.  0.
         12    1    1    2    0    0 -0.66909945370E+01 -0.42803699372E+02  0.25879039827E+01  0.43400729658E+02  0.00000000000E+00 0. -1.
         11    1    3    3    0    0 -0.20551594210E+01  0.59153084681E+01 -0.47202568524E+01  0.78418989749E+01  0.51100000000E-03 0.  1.
        -11    1    3    3    0    0  0.82425002095E+01  0.23888989524E+02  0.67230447590E+01  0.26149989699E+02  0.51100000000E-03 0. -1.
         12    1    3    3    0    0  0.50365374846E+00  0.12999401380E+02 -0.45906918893E+01  0.13795381668E+02  0.00000000000E+00 0. -1.
</event>
<event>
 7    1  0.5504027E-010  0.4778727E+02  0.7816164E-02  0.1312668E+00
        -11   -1    0    0    0    0  0.00000000000E+00  0.00000000000E+00  0.45593999997E+02  0.45594000000E+02  0.51100000000E-03 0.  1.
         11   -1    0    0    0    0 -0.00000000000E+00 -0.00000000000E+00 -0.45593999997E+02  0.45594000000E+02  0.51100000000E-03 0. -1.
    9900012    2    1    2    0    0 -0.16702185218E+02  0.14468620526E+02  0.37353972345E+02  0.47787271654E+02  0.20000002779E+02 0.  0.
         12    1    1    2    0    0  0.16702185218E+02 -0.14468620526E+02 -0.37353972345E+02  0.43400728346E+02  0.00000000000E+00 0. -1.
         11    1    3    3    0    0 -0.10295311351E+02  0.69237071599E+01  0.11846765408E+02  0.17154504002E+02  0.51100000000E-03 0. -1.
        -11    1    3    3    0    0  0.40694566902E+01  0.64497721154E+00  0.90143385879E+01  0.99113457106E+01  0.51100000000E-03 0.  1.
        -12    1    3    3    0    0 -0.10476330557E+02  0.68999361547E+01  0.16492868350E+02  0.20721421942E+02  0.00000000000E+00 0.  1.
</event>
<event>
 7    1  0.5504027E-010  0.4778727E+02  0.7816164E-02  0.1312668E+00
        -11   -1    0    0    0    0  0.00000000000E+00  0.00000000000E+00  0.45593999997E+02  0.45594000000E+02  0.51100000000E-03 0. -1.
         11   -1    0    0    0    0 -0.00000000000E+00 -0.00000000000E+00 -0.45593999997E+02  0.45594000000E+02  0.51100000000E-03 0.  1.
    9900012    2    1    2    0    0  0.20040309502E+02  0.15798782829E+02 -0.35105665303E+02  0.47787270972E+02  0.19999999671E+02 0.  0.
         12    1    1    2    0    0 -0.20040309502E+02 -0.15798782829E+02  0.35105665303E+02  0.43400729028E+02  0.00000000000E+00 0. -1.
         11    1    3    3    0    0  0.18651146905E+01  0.13225917837E+02 -0.17818291287E+02  0.22268701357E+02  0.51100000000E-03 0. -1.
        -11    1    3    3    0    0  0.10673566218E+02  0.26816801047E+01 -0.12325580393E+02  0.16523811796E+02  0.51100000000E-03 0.  1.
         12    1    3    3    0    0  0.75016285933E+01 -0.10881511327E+00 -0.49617936224E+01  0.89947578195E+01  0.00000000000E+00 0. -1.
</event>
<event>
 7    1  0.5504027E-010  0.4778727E+02  0.7816164E-02  0.1312668E+00
        -11   -1    0    0    0    0  0.00000000000E+00  0.00000000000E+00  0.45593999997E+02  0.45594000000E+02  0.51100000000E-03 0.  1.
         11   -1    0    0    0    0 -0.00000000000E+00 -0.00000000000E+00 -0.45593999997E+02  0.45594000000E+02  0.51100000000E-03 0. -1.
    9900012    2    1    2    0    0  0.28494216045E+02  0.15346298127E+01  0.32700883176E+02  0.47787271928E+02  0.20000004029E+02 0.  0.
         12    1    1    2    0    0 -0.28494216045E+02 -0.15346298127E+01 -0.32700883176E+02  0.43400728072E+02  0.00000000000E+00 0. -1.
         11    1    3    3    0    0  0.16321140115E+02  0.76280576979E+01  0.21465349363E+02  0.28023706079E+02  0.51100000000E-03 0. -1.
        -11    1    3    3    0    0  0.11789221172E+02 -0.80411068692E+01  0.99981111943E+01  0.17424332505E+02  0.51100000000E-03 0.  1.
         12    1    3    3    0    0  0.38385475847E+00  0.19476789840E+01  0.12374226186E+01  0.23392333439E+01  0.00000000000E+00 0. -1.
</event>
<event>
 7    1  0.5504027E-010  0.4778728E+02  0.7816164E-02  0.1312668E+00
        -11   -1    0    0    0    0  0.00000000000E+00  0.00000000000E+00  0.45593999997E+02  0.45594000000E+02  0.51100000000E-03 0.  1.
         11   -1    0    0    0    0 -0.00000000000E+00 -0.00000000000E+00 -0.45593999997E+02  0.45594000000E+02  0.51100000000E-03 0. -1.
    9900012    2    1    2    0    0  0.13627941113E+02 -0.23691769004E+02  0.33713531399E+02  0.47787275387E+02  0.20000019800E+02 0.  0.
         12    1    1    2    0    0 -0.13627941113E+02  0.23691769004E+02 -0.33713531399E+02  0.43400724613E+02  0.00000000000E+00 0. -1.
         11    1    3    3    0    0  0.97454947671E+01 -0.59759469627E+01  0.59850324166E+01  0.12903767808E+02  0.51100000000E-03 0. -1.
        -11    1    3    3    0    0  0.55640774828E+01 -0.64385466564E+01  0.17941179869E+02  0.19856983070E+02  0.51100000000E-03 0.  1.
         12    1    3    3    0    0 -0.16816311370E+01 -0.11277275385E+02  0.97873191133E+01  0.15026524509E+02  0.00000000000E+00 0. -1.
</event>
<event>
 7    1  0.5504027E-010  0.4778727E+02  0.7816164E-02  0.1312668E+00
        -11   -1    0    0    0    0  0.00000000000E+00  0.00000000000E+00  0.45593999997E+02  0.45594000000E+02  0.51100000000E-03 0. -1.
         11   -1    0    0    0    0 -0.00000000000E+00 -0.00000000000E+00 -0.45593999997E+02  0.45594000000E+02  0.51100000000E-03 0.  1.
    9900012    2    1    2    0    0 -0.77857763416E+01 -0.20258826166E+02 -0.37584370273E+02  0.47787271438E+02  0.20000001796E+02 0.  0.
         12    1    1    2    0    0  0.77857763416E+01  0.20258826166E+02  0.37584370273E+02  0.43400728562E+02  0.00000000000E+00 0. -1.
         11    1    3    3    0    0 -0.29356617737E+01 -0.86028495972E+01 -0.30137391294E+02  0.31478397124E+02  0.51100000000E-03 0. -1.
        -11    1    3    3    0    0 -0.31868495180E+01 -0.12284804016E+02 -0.61188219203E+01  0.14089442910E+02  0.51100000000E-03 0.  1.
         12    1    3    3    0    0 -0.16632650500E+01  0.62882744719E+00 -0.13281570590E+01  0.22194314042E+01  0.00000000000E+00 0. -1.
</event>
<event>
 7    1  0.5504027E-010  0.4778727E+02  0.7816164E-02  0.1312668E+00
        -11   -1    0    0    0    0  0.00000000000E+00  0.00000000000E+00  0.45593999997E+02  0.45594000000E+02  0.51100000000E-03 0.  1.
         11   -1    0    0    0    0 -0.00000000000E+00 -0.00000000000E+00 -0.45593999997E+02  0.45594000000E+02  0.51100000000E-03 0. -1.
    9900012    2    1    2    0    0  0.87919069595E+01 -0.40583180445E+02  0.12622657591E+02  0.47787266738E+02  0.19999980365E+02 0.  0.
         12    1    1    2    0    0 -0.87919069595E+01  0.40583180445E+02 -0.12622657591E+02  0.43400733262E+02  0.00000000000E+00 0. -1.
         11    1    3    3    0    0  0.64215771176E+01 -0.22189764728E+02 -0.49119300553E+00  0.23105488140E+02  0.51100000000E-03 0. -1.
        -11    1    3    3    0    0 -0.23755455981E+01 -0.12096576963E+02  0.10991421701E+02  0.16516105545E+02  0.51100000000E-03 0.  1.
        -12    1    3    3    0    0  0.47458754400E+01 -0.62968387546E+01  0.21224288957E+01  0.81656730531E+01  0.00000000000E+00 0.  1.
</event>
<event>
 7    1  0.5504027E-010  0.4778727E+02  0.7816164E-02  0.1312668E+00
        -11   -1    0    0    0    0  0.00000000000E+00  0.00000000000E+00  0.45593999997E+02  0.45594000000E+02  0.51100000000E-03 0.  1.
         11   -1    0    0    0    0 -0.00000000000E+00 -0.00000000000E+00 -0.45593999997E+02  0.45594000000E+02  0.51100000000E-03 0. -1.
    9900012    2    1    2    0    0 -0.28950381704E+02 -0.81441471781E+01  0.31291722825E+02  0.47787266695E+02  0.19999980170E+02 0.  0.
         12    1    1    2    0    0  0.28950381704E+02  0.81441471781E+01 -0.31291722825E+02  0.43400733305E+02  0.00000000000E+00 0. -1.
         11    1    3    3    0    0 -0.19936782748E+02 -0.10482699492E+02  0.13681978039E+02  0.26354483836E+02  0.51100000000E-03 0.  1.
        -11    1    3    3    0    0 -0.75091233340E+00 -0.17486080609E+01  0.45273851019E+00  0.19561369847E+01  0.51100000000E-03 0. -1.
         12    1    3    3    0    0 -0.82626866226E+01  0.40871603747E+01  0.17157006276E+02  0.19476645874E+02  0.00000000000E+00 0. -1.
</event>
<event>
 7    1  0.5504027E-010  0.4778727E+02  0.7816164E-02  0.1312668E+00
        -11   -1    0    0    0    0  0.00000000000E+00  0.00000000000E+00  0.45593999997E+02  0.45594000000E+02  0.51100000000E-03 0. -1.
         11   -1    0    0    0    0 -0.00000000000E+00 -0.00000000000E+00 -0.45593999997E+02  0.45594000000E+02  0.51100000000E-03 0.  1.
    9900012    2    1    2    0    0  0.11156586338E+02 -0.26518371370E+02 -0.32495073190E+02  0.47787271660E+02  0.20000002804E+02 0.  0.
         12    1    1    2    0    0 -0.11156586338E+02  0.26518371370E+02  0.32495073190E+02  0.43400728340E+02  0.00000000000E+00 0. -1.
         11    1    3    3    0    0  0.47828908759E+01  0.19817442027E+01 -0.21858195560E+01  0.56197119684E+01  0.51100000000E-03 0. -1.
        -11    1    3    3    0    0  0.30205153628E+01 -0.17974541818E+02 -0.17753072224E+02  0.25443648329E+02  0.51100000000E-03 0.  1.
         12    1    3    3    0    0  0.33531800997E+01 -0.10525573754E+02 -0.12556181410E+02  0.16723911362E+02  0.00000000000E+00 0. -1.
</event>
<event>
 7    1  0.5504027E-010  0.4778726E+02  0.7816164E-02  0.1312668E+00
        -11   -1    0    0    0    0  0.00000000000E+00  0.00000000000E+00  0.45593999997E+02  0.45594000000E+02  0.51100000000E-03 0.  1.
         11   -1    0    0    0    0 -0.00000000000E+00 -0.00000000000E+00 -0.45593999997E+02  0.45594000000E+02  0.51100000000E-03 0. -1.
    9900012    2    1    2    0    0 -0.96992895262E+01  0.14702182410E+02  0.39666025464E+02  0.47787263128E+02  0.19999963906E+02 0.  0.
         12    1    1    2    0    0  0.96992895262E+01 -0.14702182410E+02 -0.39666025464E+02  0.43400736872E+02  0.00000000000E+00 0. -1.
         11    1    3    3    0    0  0.55324634015E+00  0.78501470856E+01  0.19842684088E+02  0.21346264377E+02  0.51100000000E-03 0. -1.
        -11    1    3    3    0    0 -0.16298045186E+01  0.79327205525E+01  0.13312802269E+02  0.15582522987E+02  0.51100000000E-03 0.  1.
         12    1    3    3    0    0 -0.86227313478E+01 -0.10806852282E+01  0.65105391075E+01  0.10858475765E+02  0.00000000000E+00 0. -1.
</event>
<event>
 7    1  0.5504027E-010  0.4778727E+02  0.7816164E-02  0.1312668E+00
        -11   -1    0    0    0    0  0.00000000000E+00  0.00000000000E+00  0.45593999997E+02  0.45594000000E+02  0.51100000000E-03 0.  1.
         11   -1    0    0    0    0 -0.00000000000E+00 -0.00000000000E+00 -0.45593999997E+02  0.45594000000E+02  0.51100000000E-03 0. -1.
    9900012    2    1    2    0    0 -0.35124734338E+02 -0.94052532083E+01  0.23694252404E+02  0.47787270199E+02  0.19999996146E+02 0.  0.
         12    1    1    2    0    0  0.35124734338E+02  0.94052532083E+01 -0.23694252404E+02  0.43400729801E+02  0.00000000000E+00 0. -1.
         11    1    3    3    0    0 -0.17117139630E+01 -0.18899546782E+01  0.56653520990E+00  0.26120596819E+01  0.51100000000E-03 0. -1.
        -11    1    3    3    0    0 -0.62384579998E+01 -0.68448883383E+01 -0.33442963254E+00  0.92672918384E+01  0.51100000000E-03 0.  1.
        -12    1    3    3    0    0 -0.27174562375E+02 -0.67041019188E+00  0.23462146827E+02  0.35907918679E+02  0.00000000000E+00 0.  1.
</event>
<event>
 7    1  0.5504027E-010  0.4778726E+02  0.7816164E-02  0.1312668E+00
        -11   -1    0    0    0    0  0.00000000000E+00  0.00000000000E+00  0.45593999997E+02  0.45594000000E+02  0.51100000000E-03 0.  1.
         11   -1    0    0    0    0 -0.00000000000E+00 -0.00000000000E+00 -0.45593999997E+02  0.45594000000E+02  0.51100000000E-03 0. -1.
    9900012    2    1    2    0    0 -0.28174962462E+02 -0.33011899956E+02 -0.10107133535E+00  0.47787259639E+02  0.19999947999E+02 0.  0.
         12    1    1    2    0    0  0.28174962462E+02  0.33011899956E+02  0.10107133535E+00  0.43400740361E+02  0.00000000000E+00 0. -1.
         11    1    3    3    0    0 -0.14102552845E+02 -0.11029052182E+02 -0.60885132752E+01  0.18910102668E+02  0.51100000000E-03 0. -1.
        -11    1    3    3    0    0 -0.10230659236E+01 -0.11402080907E+02  0.25860604124E+01  0.11736346179E+02  0.51100000000E-03 0.  1.
        -12    1    3    3    0    0 -0.13049343693E+02 -0.10580766867E+02  0.34013815275E+01  0.17140810792E+02  0.00000000000E+00 0.  1.
</event>
<event>
 7    1  0.5504027E-010  0.4778727E+02  0.7816164E-02  0.1312668E+00
        -11   -1    0    0    0    0  0.00000000000E+00  0.00000000000E+00  0.45593999997E+02  0.45594000000E+02  0.51100000000E-03 0.  1.
         11   -1    0    0    0    0 -0.00000000000E+00 -0.00000000000E+00 -0.45593999997E+02  0.45594000000E+02  0.51100000000E-03 0. -1.
    9900012    2    1    2    0    0  0.35749184834E+02 -0.10542473939E+02  0.22236803425E+02  0.47787269596E+02  0.19999993396E+02 0.  0.
         12    1    1    2    0    0 -0.35749184834E+02  0.10542473939E+02 -0.22236803425E+02  0.43400730404E+02  0.00000000000E+00 0. -1.
         11    1    3    3    0    0  0.20417311246E+02  0.17292741755E+01  0.79902159619E+01  0.21993193017E+02  0.51100000000E-03 0. -1.
        -11    1    3    3    0    0  0.15221125925E+02 -0.13189470591E+02  0.14521369141E+02  0.24829719509E+02  0.51100000000E-03 0.  1.
         12    1    3    3    0    0  0.11074766308E+00  0.91772247666E+00 -0.27478167814E+00  0.96435707064E+00  0.00000000000E+00 0. -1.
</event>
<event>
 7    1  0.5504027E-010  0.4778727E+02  0.7816164E-02  0.1312668E+00
        -11   -1    0    0    0    0  0.00000000000E+00  0.00000000000E+00  0.45593999997E+02  0.45594000000E+02  0.51100000000E-03 0.  1.
         11   -1    0    0    0    0 -0.00000000000E+00 -0.00000000000E+00 -0.45593999997E+02  0.45594000000E+02  0.51100000000E-03 0. -1.
    9900012    2    1    2    0    0  0.21652435416E+02  0.13557833117E+02  0.35085330173E+02  0.47787271992E+02  0.20000004319E+02 0.  0.
         12    1    1    2    0    0 -0.21652435416E+02 -0.13557833117E+02 -0.35085330173E+02  0.43400728008E+02  0.00000000000E+00 0. -1.
         11    1    3    3    0    0  0.10064341178E+02  0.35239165305E+01  0.17795214590E+01  0.10810904123E+02  0.51100000000E-03 0. -1.
        -11    1    3    3    0    0  0.86130122086E+01  0.47914809512E+01  0.17914485409E+02  0.20446785976E+02  0.51100000000E-03 0.  1.
         12    1    3    3    0    0  0.29750820294E+01  0.52424356356E+01  0.15391323306E+02  0.16529581893E+02  0.00000000000E+00 0. -1.
</event>
<event>
 7    1  0.5504027E-010  0.4778727E+02  0.7816164E-02  0.1312668E+00
        -11   -1    0    0    0    0  0.00000000000E+00  0.00000000000E+00  0.45593999997E+02  0.45594000000E+02  0.51100000000E-03 0.  1.
         11   -1    0    0    0    0 -0.00000000000E+00 -0.00000000000E+00 -0.45593999997E+02  0.45594000000E+02  0.51100000000E-03 0. -1.
    9900012    2    1    2    0    0 -0.29607758722E+02 -0.27075581272E+02  0.16550432604E+02  0.47787270776E+02  0.19999998776E+02 0.  0.
         12    1    1    2    0    0  0.29607758722E+02  0.27075581272E+02 -0.16550432604E+02  0.43400729224E+02  0.00000000000E+00 0. -1.
         11    1    3    3    0    0 -0.67954922635E+01 -0.84710794469E+01  0.12552304752E+02  0.16598140166E+02  0.51100000000E-03 0. -1.
        -11    1    3    3    0    0 -0.15799422300E+02 -0.71946664832E+01  0.59411492753E+00  0.17370605736E+02  0.51100000000E-03 0.  1.
        -12    1    3    3    0    0 -0.70128441590E+01 -0.11409835342E+02  0.34040129243E+01  0.13818524875E+02  0.00000000000E+00 0.  1.
</event>
<event>
 7    1  0.5504027E-010  0.4778727E+02  0.7816164E-02  0.1312668E+00
        -11   -1    0    0    0    0  0.00000000000E+00  0.00000000000E+00  0.45593999997E+02  0.45594000000E+02  0.51100000000E-03 0. -1.
         11   -1    0    0    0    0 -0.00000000000E+00 -0.00000000000E+00 -0.45593999997E+02  0.45594000000E+02  0.51100000000E-03 0.  1.
    9900012    2    1    2    0    0 -0.32698451554E+02 -0.22815366836E+02 -0.17143324080E+02  0.47787271222E+02  0.20000000811E+02 0.  0.
         12    1    1    2    0    0  0.32698451554E+02  0.22815366836E+02  0.17143324080E+02  0.43400728778E+02  0.00000000000E+00 0. -1.
         11    1    3    3    0    0 -0.32706724101E+02 -0.19929948997E+02 -0.10940183493E+02  0.39832402433E+02  0.51100000000E-03 0.  1.
        -11    1    3    3    0    0  0.23698235757E+00 -0.37802618327E+01 -0.58435342822E+01  0.69637226632E+01  0.51100000000E-03 0. -1.
        -12    1    3    3    0    0 -0.22870981091E+00  0.89484399325E+00 -0.35960630457E+00  0.99114612654E+00  0.00000000000E+00 0.  1.
</event>
<event>
 7    1  0.5504027E-010  0.4778727E+02  0.7816164E-02  0.1312668E+00
        -11   -1    0    0    0    0  0.00000000000E+00  0.00000000000E+00  0.45593999997E+02  0.45594000000E+02  0.51100000000E-03 0.  1.
         11   -1    0    0    0    0 -0.00000000000E+00 -0.00000000000E+00 -0.45593999997E+02  0.45594000000E+02  0.51100000000E-03 0. -1.
    9900012    2    1    2    0    0 -0.23028102589E+02  0.14140124639E+02  0.33961543302E+02  0.47787273542E+02  0.20000011386E+02 0.  0.
         12    1    1    2    0    0  0.23028102589E+02 -0.14140124639E+02 -0.33961543302E+02  0.43400726458E+02  0.00000000000E+00 0. -1.
         11    1    3    3    0    0 -0.13870981600E+01 -0.16041790427E+01  0.40186171683E+00  0.21584542634E+01  0.51100000000E-03 0.  1.
        -11    1    3    3    0    0 -0.14244162129E+01  0.93389605114E+01  0.77148598984E+01  0.12196893395E+02  0.51100000000E-03 0. -1.
        -12    1    3    3    0    0 -0.20216588216E+02  0.64053431708E+01  0.25844821687E+02  0.33431925883E+02  0.00000000000E+00 0.  1.
</event>
<event>
 7    1  0.5504027E-010  0.4778727E+02  0.7816164E-02  0.1312668E+00
        -11   -1    0    0    0    0  0.00000000000E+00  0.00000000000E+00  0.45593999997E+02  0.45594000000E+02  0.51100000000E-03 0.  1.
         11   -1    0    0    0    0 -0.00000000000E+00 -0.00000000000E+00 -0.45593999997E+02  0.45594000000E+02  0.51100000000E-03 0. -1.
    9900012    2    1    2    0    0  0.29017420058E+02 -0.28671964964E+02  0.14816580871E+02  0.47787270623E+02  0.19999998080E+02 0.  0.
         12    1    1    2    0    0 -0.29017420058E+02  0.28671964964E+02 -0.14816580871E+02  0.43400729377E+02  0.00000000000E+00 0. -1.
         11    1    3    3    0    0  0.36000319154E+01 -0.62570384749E+00 -0.23997154802E+01  0.43715408890E+01  0.51100000000E-03 0. -1.
        -11    1    3    3    0    0  0.26526142503E+02 -0.25145738232E+02  0.14612479115E+02  0.39363294240E+02  0.51100000000E-03 0.  1.
        -12    1    3    3    0    0 -0.11087543601E+01 -0.29005228846E+01  0.26038172360E+01  0.40524354941E+01  0.00000000000E+00 0.  1.
</event>
<event>
 7    1  0.5504027E-010  0.4778727E+02  0.7816164E-02  0.1312668E+00
        -11   -1    0    0    0    0  0.00000000000E+00  0.00000000000E+00  0.45593999997E+02  0.45594000000E+02  0.51100000000E-03 0.  1.
         11   -1    0    0    0    0 -0.00000000000E+00 -0.00000000000E+00 -0.45593999997E+02  0.45594000000E+02  0.51100000000E-03 0. -1.
    9900012    2    1    2    0    0  0.17106734065E+02 -0.22191626810E+02  0.33143848960E+02  0.47787269883E+02  0.19999994702E+02 0.  0.
         12    1    1    2    0    0 -0.17106734065E+02  0.22191626810E+02 -0.33143848960E+02  0.43400730117E+02  0.00000000000E+00 0. -1.
         11    1    3    3    0    0 -0.20113169460E+00 -0.12588048171E+02  0.94016079114E+01  0.15712722307E+02  0.51100000000E-03 0. -1.
        -11    1    3    3    0    0  0.79430937718E+01 -0.12545992567E+01  0.14173734872E+02  0.16296058372E+02  0.51100000000E-03 0.  1.
        -12    1    3    3    0    0  0.93647719877E+01 -0.83489793821E+01  0.95685061764E+01  0.15778489204E+02  0.00000000000E+00 0.  1.
</event>
<event>
 7    1  0.5504027E-010  0.4778728E+02  0.7816164E-02  0.1312668E+00
        -11   -1    0    0    0    0  0.00000000000E+00  0.00000000000E+00  0.45593999997E+02  0.45594000000E+02  0.51100000000E-03 0.  1.
         11   -1    0    0    0    0 -0.00000000000E+00 -0.00000000000E+00 -0.45593999997E+02  0.45594000000E+02  0.51100000000E-03 0. -1.
    9900012    2    1    2    0    0 -0.98821613259E+01  0.25590736291E+01  0.42183134362E+02  0.47787276562E+02  0.20000025157E+02 0.  0.
         12    1    1    2    0    0  0.98821613259E+01 -0.25590736291E+01 -0.42183134362E+02  0.43400723438E+02  0.00000000000E+00 0. -1.
         11    1    3    3    0    0 -0.80783944645E+01 -0.20665146549E+01  0.53597762754E+01  0.99125244981E+01  0.51100000000E-03 0.  1.
        -11    1    3    3    0    0 -0.24775489080E+01  0.48720835722E+01  0.36749222861E+02  0.37153476662E+02  0.51100000000E-03 0. -1.
         12    1    3    3    0    0  0.67378204658E+00 -0.24649528824E+00  0.74135225640E-01  0.72127540170E+00  0.00000000000E+00 0. -1.
</event>
<event>
 7    1  0.5504027E-010  0.4778727E+02  0.7816164E-02  0.1312668E+00
        -11   -1    0    0    0    0  0.00000000000E+00  0.00000000000E+00  0.45593999997E+02  0.45594000000E+02  0.51100000000E-03 0. -1.
         11   -1    0    0    0    0 -0.00000000000E+00 -0.00000000000E+00 -0.45593999997E+02  0.45594000000E+02  0.51100000000E-03 0.  1.
    9900012    2    1    2    0    0  0.34831337889E+01 -0.66358880971E+01 -0.42748754114E+02  0.47787271779E+02  0.20000003347E+02 0.  0.
         12    1    1    2    0    0 -0.34831337889E+01  0.66358880971E+01  0.42748754114E+02  0.43400728221E+02  0.00000000000E+00 0. -1.
         11    1    3    3    0    0  0.64516891481E+01  0.50557073597E+00 -0.73724180237E+01  0.98098135767E+01  0.51100000000E-03 0. -1.
        -11    1    3    3    0    0 -0.63196760872E+01 -0.47924538818E+00 -0.17215088213E+02  0.18344678914E+02  0.51100000000E-03 0.  1.
         12    1    3    3    0    0  0.33511207280E+01 -0.66622134449E+01 -0.18161247877E+02  0.19632779288E+02  0.00000000000E+00 0. -1.
</event>
<event>
 7    1  0.5504027E-010  0.4778727E+02  0.7816164E-02  0.1312668E+00
        -11   -1    0    0    0    0  0.00000000000E+00  0.00000000000E+00  0.45593999997E+02  0.45594000000E+02  0.51100000000E-03 0.  1.
         11   -1    0    0    0    0 -0.00000000000E+00 -0.00000000000E+00 -0.45593999997E+02  0.45594000000E+02  0.51100000000E-03 0. -1.
    9900012    2    1    2    0    0 -0.41438496735E+02 -0.16896221667E+01  0.12791379528E+02  0.47787271608E+02  0.20000002570E+02 0.  0.
         12    1    1    2    0    0  0.41438496735E+02  0.16896221667E+01 -0.12791379528E+02  0.43400728392E+02  0.00000000000E+00 0. -1.
         11    1    3    3    0    0 -0.87969452402E+01  0.24126744630E+01 -0.37328397426E+01  0.98560304600E+01  0.51100000000E-03 0. -1.
        -11    1    3    3    0    0 -0.16903897000E+02 -0.87646145938E+00  0.13345614524E+02  0.21554937851E+02  0.51100000000E-03 0.  1.
         12    1    3    3    0    0 -0.15737654495E+02 -0.32258351703E+01  0.31786047469E+01  0.16376303297E+02  0.00000000000E+00 0. -1.
</event>
<event>
 7    1  0.5504027E-010  0.4778727E+02  0.7816164E-02  0.1312668E+00
        -11   -1    0    0    0    0  0.00000000000E+00  0.00000000000E+00  0.45593999997E+02  0.45594000000E+02  0.51100000000E-03 0. -1.
         11   -1    0    0    0    0 -0.00000000000E+00 -0.00000000000E+00 -0.45593999997E+02  0.45594000000E+02  0.51100000000E-03 0.  1.
    9900012    2    1    2    0    0 -0.36618729690E+02 -0.16512334932E+01 -0.23237151908E+02  0.47787272299E+02  0.20000005721E+02 0.  0.
         12    1    1    2    0    0  0.36618729690E+02  0.16512334932E+01  0.23237151908E+02  0.43400727701E+02  0.00000000000E+00 0. -1.
         11    1    3    3    0    0 -0.28563036031E+02 -0.90757143797E+01 -0.14172147485E+02  0.33152155034E+02  0.51100000000E-03 0. -1.
        -11    1    3    3    0    0 -0.79329630990E+01  0.59375188287E+01 -0.72092405903E+01  0.12253945631E+02  0.51100000000E-03 0.  1.
        -12    1    3    3    0    0 -0.12273056049E+00  0.14869620578E+01 -0.18557638327E+01  0.23811716349E+01  0.00000000000E+00 0.  1.
</event>
<event>
 7    1  0.5504027E-010  0.4778727E+02  0.7816164E-02  0.1312668E+00
        -11   -1    0    0    0    0  0.00000000000E+00  0.00000000000E+00  0.45593999997E+02  0.45594000000E+02  0.51100000000E-03 0. -1.
         11   -1    0    0    0    0 -0.00000000000E+00 -0.00000000000E+00 -0.45593999997E+02  0.45594000000E+02  0.51100000000E-03 0.  1.
    9900012    2    1    2    0    0  0.60146064145E+01 -0.42858051822E+02  0.32611664922E+01  0.47787270707E+02  0.19999998460E+02 0.  0.
         12    1    1    2    0    0 -0.60146064145E+01  0.42858051822E+02 -0.32611664922E+01  0.43400729293E+02  0.00000000000E+00 0. -1.
         11    1    3    3    0    0 -0.27340072677E+01 -0.42826040775E+00  0.34650935429E+01  0.44345322458E+01  0.51100000000E-03 0. -1.
        -11    1    3    3    0    0  0.49752838829E+01 -0.21179245555E+02  0.43915670265E+00  0.21760210267E+02  0.51100000000E-03 0.  1.
         12    1    3    3    0    0  0.37733297993E+01 -0.21250545859E+02 -0.64308375339E+00  0.21592528194E+02  0.00000000000E+00 0. -1.
</event>
<event>
 7    1  0.5504027E-010  0.4778727E+02  0.7816164E-02  0.1312668E+00
        -11   -1    0    0    0    0  0.00000000000E+00  0.00000000000E+00  0.45593999997E+02  0.45594000000E+02  0.51100000000E-03 0. -1.
         11   -1    0    0    0    0 -0.00000000000E+00 -0.00000000000E+00 -0.45593999997E+02  0.45594000000E+02  0.51100000000E-03 0.  1.
    9900012    2    1    2    0    0  0.10791769997E+01  0.33145447178E+02  0.27997108825E+02  0.47787269658E+02  0.19999993680E+02 0.  0.
         12    1    1    2    0    0 -0.10791769997E+01 -0.33145447178E+02 -0.27997108825E+02  0.43400730342E+02  0.00000000000E+00 0. -1.
         11    1    3    3    0    0  0.34528952272E+01  0.17480657620E+02  0.20882390268E+02  0.27451231299E+02  0.51100000000E-03 0. -1.
        -11    1    3    3    0    0  0.28226573932E+00  0.88365926852E+00 -0.23896123450E+01  0.25633523111E+01  0.51100000000E-03 0.  1.
        -12    1    3    3    0    0 -0.26559839668E+01  0.14781130290E+02  0.95043309021E+01  0.17772686048E+02  0.00000000000E+00 0.  1.
</event>
<event>
 7    1  0.5504027E-010  0.4778727E+02  0.7816164E-02  0.1312668E+00
        -11   -1    0    0    0    0  0.00000000000E+00  0.00000000000E+00  0.45593999997E+02  0.45594000000E+02  0.51100000000E-03 0.  1.
         11   -1    0    0    0    0 -0.00000000000E+00 -0.00000000000E+00 -0.45593999997E+02  0.45594000000E+02  0.51100000000E-03 0. -1.
    9900012    2    1    2    0    0  0.38060689645E+02 -0.20649462467E+02 -0.29337850137E+01  0.47787268544E+02  0.19999988598E+02 0.  0.
         12    1    1    2    0    0 -0.38060689645E+02  0.20649462467E+02  0.29337850137E+01  0.43400731456E+02  0.00000000000E+00 0. -1.
         11    1    3    3    0    0  0.27827478582E+02 -0.67863682085E+01 -0.12487592363E+01  0.28670241673E+02  0.51100000000E-03 0. -1.
        -11    1    3    3    0    0  0.40251683696E+01 -0.22856275910E+01  0.25873565550E+01  0.53028754551E+01  0.51100000000E-03 0.  1.
         12    1    3    3    0    0  0.62080426929E+01 -0.11577466668E+02 -0.42723823324E+01  0.13814151415E+02  0.00000000000E+00 0. -1.
</event>
<event>
 7    1  0.5504027E-010  0.4778722E+02  0.7816164E-02  0.1312668E+00
        -11   -1    0    0    0    0  0.00000000000E+00  0.00000000000E+00  0.45593999997E+02  0.45594000000E+02  0.51100000000E-03 0. -1.
         11   -1    0    0    0    0 -0.00000000000E+00 -0.00000000000E+00 -0.45593999997E+02  0.45594000000E+02  0.51100000000E-03 0.  1.
    9900012    2    1    2    0    0  0.25695191238E+02 -0.29750697048E+02 -0.18392418983E+02  0.47787217707E+02  0.19999756811E+02 0.  0.
         12    1    1    2    0    0 -0.25695191238E+02  0.29750697048E+02  0.18392418983E+02  0.43400782293E+02  0.00000000000E+00 0. -1.
         11    1    3    3    0    0  0.61300552263E+01 -0.22807826281E+01 -0.45064768279E+01  0.79427879322E+01  0.51100000000E-03 0. -1.
        -11    1    3    3    0    0 -0.10498649984E+01  0.11124257732E+01 -0.22721732790E+01  0.27390654039E+01  0.51100000000E-03 0.  1.
        -12    1    3    3    0    0  0.20615001010E+02 -0.28582340193E+02 -0.11613768876E+02  0.37105364371E+02  0.00000000000E+00 0.  1.
</event>
<event>
 7    1  0.5504027E-010  0.4778727E+02  0.7816164E-02  0.1312668E+00
        -11   -1    0    0    0    0  0.00000000000E+00  0.00000000000E+00  0.45593999997E+02  0.45594000000E+02  0.51100000000E-03 0.  1.
         11   -1    0    0    0    0 -0.00000000000E+00 -0.00000000000E+00 -0.45593999997E+02  0.45594000000E+02  0.51100000000E-03 0. -1.
    9900012    2    1    2    0    0  0.15451465416E+02  0.11914830999E+02  0.38767415244E+02  0.47787268831E+02  0.19999989910E+02 0.  0.
         12    1    1    2    0    0 -0.15451465416E+02 -0.11914830999E+02 -0.38767415244E+02  0.43400731169E+02  0.00000000000E+00 0. -1.
         11    1    3    3    0    0  0.10684530238E+01 -0.40920066364E+01  0.63598026771E+01  0.76376174642E+01  0.51100000000E-03 0. -1.
        -11    1    3    3    0    0  0.85117212160E+01  0.97799603337E+01  0.10681234459E+02  0.16798386589E+02  0.51100000000E-03 0.  1.
        -12    1    3    3    0    0  0.58712911763E+01  0.62268773022E+01  0.21726378108E+02  0.23351264778E+02  0.00000000000E+00 0.  1.
</event>
<event>
 7    1  0.5504027E-010  0.4778727E+02  0.7816164E-02  0.1312668E+00
        -11   -1    0    0    0    0  0.00000000000E+00  0.00000000000E+00  0.45593999997E+02  0.45594000000E+02  0.51100000000E-03 0.  1.
         11   -1    0    0    0    0 -0.00000000000E+00 -0.00000000000E+00 -0.45593999997E+02  0.45594000000E+02  0.51100000000E-03 0. -1.
    9900012    2    1    2    0    0  0.21982997808E+02  0.10621346460E+02  0.35882565557E+02  0.47787266087E+02  0.19999977397E+02 0.  0.
         12    1    1    2    0    0 -0.21982997808E+02 -0.10621346460E+02 -0.35882565557E+02  0.43400733913E+02  0.00000000000E+00 0. -1.
         11    1    3    3    0    0  0.17455461749E+01  0.82321271751E+01  0.12602661482E+02  0.15153940938E+02  0.51100000000E-03 0. -1.
        -11    1    3    3    0    0  0.16392875526E+02  0.51503683814E+01  0.13803800353E+02  0.22040815931E+02  0.51100000000E-03 0.  1.
        -12    1    3    3    0    0  0.38445761074E+01 -0.27611490961E+01  0.94761037214E+01  0.10592509217E+02  0.00000000000E+00 0.  1.
</event>
<event>
 7    1  0.5504027E-010  0.4778729E+02  0.7816164E-02  0.1312668E+00
        -11   -1    0    0    0    0  0.00000000000E+00  0.00000000000E+00  0.45593999997E+02  0.45594000000E+02  0.51100000000E-03 0. -1.
         11   -1    0    0    0    0 -0.00000000000E+00 -0.00000000000E+00 -0.45593999997E+02  0.45594000000E+02  0.51100000000E-03 0.  1.
    9900012    2    1    2    0    0  0.15761616872E+02  0.84632099490E+01 -0.39541965264E+02  0.47787291411E+02  0.20000092860E+02 0.  0.
         12    1    1    2    0    0 -0.15761616872E+02 -0.84632099490E+01  0.39541965264E+02  0.43400708589E+02  0.00000000000E+00 0. -1.
         11    1    3    3    0    0 -0.29484558438E+01 -0.94496230691E+00 -0.10713008098E+02  0.11151452300E+02  0.51100000000E-03 0.  1.
        -11    1    3    3    0    0  0.87630526257E+01  0.70403070814E+00 -0.75622540630E+01  0.11596311368E+02  0.51100000000E-03 0. -1.
         12    1    3    3    0    0  0.99470200898E+01  0.87041415478E+01 -0.21266703103E+02  0.25039527744E+02  0.00000000000E+00 0. -1.
</event>
<event>
 7    1  0.5504027E-010  0.4778727E+02  0.7816164E-02  0.1312668E+00
        -11   -1    0    0    0    0  0.00000000000E+00  0.00000000000E+00  0.45593999997E+02  0.45594000000E+02  0.51100000000E-03 0. -1.
         11   -1    0    0    0    0 -0.00000000000E+00 -0.00000000000E+00 -0.45593999997E+02  0.45594000000E+02  0.51100000000E-03 0.  1.
    9900012    2    1    2    0    0  0.35929119920E+02  0.22362230001E+02 -0.96256096542E+01  0.47787270167E+02  0.19999995999E+02 0.  0.
         12    1    1    2    0    0 -0.35929119920E+02 -0.22362230001E+02  0.96256096542E+01  0.43400729833E+02  0.00000000000E+00 0. -1.
         11    1    3    3    0    0  0.18943765231E+02  0.19776068511E+02 -0.58360627571E+01  0.28000334920E+02  0.51100000000E-03 0. -1.
        -11    1    3    3    0    0 -0.57356690410E+00  0.17428112720E+01 -0.51171216382E+00  0.19047886295E+01  0.51100000000E-03 0.  1.
         12    1    3    3    0    0  0.17558921593E+02  0.84335021764E+00 -0.32778347333E+01  0.17882146617E+02  0.00000000000E+00 0. -1.
</event>
<event>
 7    1  0.5504027E-010  0.4778732E+02  0.7816164E-02  0.1312668E+00
        -11   -1    0    0    0    0  0.00000000000E+00  0.00000000000E+00  0.45593999997E+02  0.45594000000E+02  0.51100000000E-03 0.  1.
         11   -1    0    0    0    0 -0.00000000000E+00 -0.00000000000E+00 -0.45593999997E+02  0.45594000000E+02  0.51100000000E-03 0. -1.
    9900012    2    1    2    0    0  0.12294419734E+02 -0.26158798716E+01  0.41540628654E+02  0.47787315523E+02  0.20000202795E+02 0.  0.
         12    1    1    2    0    0 -0.12294419734E+02  0.26158798716E+01 -0.41540628654E+02  0.43400684477E+02  0.00000000000E+00 0. -1.
         11    1    3    3    0    0  0.10980694785E+01  0.68224797859E+01  0.55275941111E+01  0.88490837903E+01  0.51100000000E-03 0. -1.
        -11    1    3    3    0    0  0.35720660095E+01 -0.32051060117E+01  0.14614615275E+02  0.15382436089E+02  0.51100000000E-03 0.  1.
         12    1    3    3    0    0  0.76242842462E+01 -0.62332536457E+01  0.21398419267E+02  0.23555795644E+02  0.00000000000E+00 0. -1.
</event>
<event>
 7    1  0.5504027E-010  0.4778727E+02  0.7816164E-02  0.1312668E+00
        -11   -1    0    0    0    0  0.00000000000E+00  0.00000000000E+00  0.45593999997E+02  0.45594000000E+02  0.51100000000E-03 0. -1.
         11   -1    0    0    0    0 -0.00000000000E+00 -0.00000000000E+00 -0.45593999997E+02  0.45594000000E+02  0.51100000000E-03 0.  1.
    9900012    2    1    2    0    0 -0.42175761070E+02 -0.92900854673E+01 -0.43037961433E+01  0.47787272229E+02  0.20000005399E+02 0.  0.
         12    1    1    2    0    0  0.42175761070E+02  0.92900854673E+01  0.43037961433E+01  0.43400727771E+02  0.00000000000E+00 0. -1.
         11    1    3    3    0    0 -0.27350457655E+02 -0.99361408075E+01  0.31319655581E+01  0.29267450121E+02  0.51100000000E-03 0. -1.
        -11    1    3    3    0    0 -0.15578352316E+01  0.28645686926E+01 -0.25298516643E+00  0.32705666418E+01  0.51100000000E-03 0.  1.
         12    1    3    3    0    0 -0.13267468184E+02 -0.22185133524E+01 -0.71827765349E+01  0.15249255465E+02  0.00000000000E+00 0. -1.
</event>
<event>
 7    1  0.5504027E-010  0.4778727E+02  0.7816164E-02  0.1312668E+00
        -11   -1    0    0    0    0  0.00000000000E+00  0.00000000000E+00  0.45593999997E+02  0.45594000000E+02  0.51100000000E-03 0.  1.
         11   -1    0    0    0    0 -0.00000000000E+00 -0.00000000000E+00 -0.45593999997E+02  0.45594000000E+02  0.51100000000E-03 0. -1.
    9900012    2    1    2    0    0  0.13732540200E+02 -0.28838801274E+01  0.41069741263E+02  0.47787273366E+02  0.20000010585E+02 0.  0.
         12    1    1    2    0    0 -0.13732540200E+02  0.28838801274E+01 -0.41069741263E+02  0.43400726634E+02  0.00000000000E+00 0. -1.
         11    1    3    3    0    0  0.76772891430E+01  0.42088031134E+01  0.62240251719E+01  0.10742126504E+02  0.51100000000E-03 0. -1.
        -11    1    3    3    0    0  0.78689702687E+01 -0.51858683341E+01  0.22014832106E+02  0.23947165936E+02  0.51100000000E-03 0.  1.
         12    1    3    3    0    0 -0.18137192121E+01 -0.19068149066E+01  0.12830883986E+02  0.13097980926E+02  0.00000000000E+00 0. -1.
</event>
<event>
 7    1  0.5504027E-010  0.4778728E+02  0.7816164E-02  0.1312668E+00
        -11   -1    0    0    0    0  0.00000000000E+00  0.00000000000E+00  0.45593999997E+02  0.45594000000E+02  0.51100000000E-03 0.  1.
         11   -1    0    0    0    0 -0.00000000000E+00 -0.00000000000E+00 -0.45593999997E+02  0.45594000000E+02  0.51100000000E-03 0. -1.
    9900012    2    1    2    0    0  0.10895575928E+02 -0.11696386423E+02  0.40349760517E+02  0.47787283370E+02  0.20000056198E+02 0.  0.
         12    1    1    2    0    0 -0.10895575928E+02  0.11696386423E+02 -0.40349760517E+02  0.43400716630E+02  0.00000000000E+00 0. -1.
         11    1    3    3    0    0 -0.10113948114E+01 -0.66213224250E+01  0.11456522769E+02  0.13270898400E+02  0.51100000000E-03 0. -1.
        -11    1    3    3    0    0  0.12634524247E+02 -0.17991579855E+01  0.12792856691E+02  0.18070012589E+02  0.51100000000E-03 0.  1.
        -12    1    3    3    0    0 -0.72755350683E+00 -0.32759060124E+01  0.16100381057E+02  0.16446372381E+02  0.00000000000E+00 0.  1.
</event>
<event>
 7    1  0.5504027E-010  0.4778727E+02  0.7816164E-02  0.1312668E+00
        -11   -1    0    0    0    0  0.00000000000E+00  0.00000000000E+00  0.45593999997E+02  0.45594000000E+02  0.51100000000E-03 0.  1.
         11   -1    0    0    0    0 -0.00000000000E+00 -0.00000000000E+00 -0.45593999997E+02  0.45594000000E+02  0.51100000000E-03 0. -1.
    9900012    2    1    2    0    0 -0.36973841899E+02 -0.14594735368E+02  0.17422746050E+02  0.47787269993E+02  0.19999995206E+02 0.  0.
         12    1    1    2    0    0  0.36973841899E+02  0.14594735368E+02 -0.17422746050E+02  0.43400730007E+02  0.00000000000E+00 0. -1.
         11    1    3    3    0    0 -0.20385741715E+01 -0.25392209247E+01  0.41794684914E+00  0.32830028003E+01  0.51100000000E-03 0. -1.
        -11    1    3    3    0    0 -0.22328092685E+02 -0.16444380363E+02  0.12479072013E+02  0.30408692952E+02  0.51100000000E-03 0.  1.
        -12    1    3    3    0    0 -0.12607175042E+02  0.43888659193E+01  0.45257271876E+01  0.14095574241E+02  0.00000000000E+00 0.  1.
</event>
<event>
 7    1  0.5504027E-010  0.4778727E+02  0.7816164E-02  0.1312668E+00
        -11   -1    0    0    0    0  0.00000000000E+00  0.00000000000E+00  0.45593999997E+02  0.45594000000E+02  0.51100000000E-03 0.  1.
         11   -1    0    0    0    0 -0.00000000000E+00 -0.00000000000E+00 -0.45593999997E+02  0.45594000000E+02  0.51100000000E-03 0. -1.
    9900012    2    1    2    0    0 -0.22907583964E+02 -0.22555992043E+02  0.29156357647E+02  0.47787269922E+02  0.19999994882E+02 0.  0.
         12    1    1    2    0    0  0.22907583964E+02  0.22555992043E+02 -0.29156357647E+02  0.43400730078E+02  0.00000000000E+00 0. -1.
         11    1    3    3    0    0  0.15020946444E+01 -0.13393366067E+01 -0.96826424983E+00  0.22333040065E+01  0.51100000000E-03 0. -1.
        -11    1    3    3    0    0 -0.12318913069E+02 -0.67307186461E+01  0.19089379858E+02  0.23695202390E+02  0.51100000000E-03 0.  1.
        -12    1    3    3    0    0 -0.12090765539E+02 -0.14485936790E+02  0.11035242039E+02  0.21858763525E+02  0.00000000000E+00 0.  1.
</event>
<event>
 7    1  0.5504027E-010  0.4778726E+02  0.7816164E-02  0.1312668E+00
        -11   -1    0    0    0    0  0.00000000000E+00  0.00000000000E+00  0.45593999997E+02  0.45594000000E+02  0.51100000000E-03 0.  1.
         11   -1    0    0    0    0 -0.00000000000E+00 -0.00000000000E+00 -0.45593999997E+02  0.45594000000E+02  0.51100000000E-03 0. -1.
    9900012    2    1    2    0    0  0.83646713469E+01 -0.14527299590E+02  0.40032657460E+02  0.47787264714E+02  0.19999971135E+02 0.  0.
         12    1    1    2    0    0 -0.83646713469E+01  0.14527299590E+02 -0.40032657460E+02  0.43400735286E+02  0.00000000000E+00 0. -1.
         11    1    3    3    0    0  0.11931329403E+01  0.87979395916E+00  0.12794803644E+00  0.14879430718E+01  0.51100000000E-03 0. -1.
        -11    1    3    3    0    0 -0.88483199289E+00  0.31133727347E+01  0.65577760049E+01  0.73130324649E+01  0.51100000000E-03 0.  1.
        -12    1    3    3    0    0  0.80563703994E+01 -0.18520466284E+02  0.33346933418E+02  0.38986289177E+02  0.00000000000E+00 0.  1.
</event>
<event>
 7    1  0.5504027E-010  0.4778726E+02  0.7816164E-02  0.1312668E+00
        -11   -1    0    0    0    0  0.00000000000E+00  0.00000000000E+00  0.45593999997E+02  0.45594000000E+02  0.51100000000E-03 0.  1.
         11   -1    0    0    0    0 -0.00000000000E+00 -0.00000000000E+00 -0.45593999997E+02  0.45594000000E+02  0.51100000000E-03 0. -1.
    9900012    2    1    2    0    0  0.21049290474E+02  0.32087686526E+02  0.20271457694E+02  0.47787259763E+02  0.19999948565E+02 0.  0.
         12    1    1    2    0    0 -0.21049290474E+02 -0.32087686526E+02 -0.20271457694E+02  0.43400740237E+02  0.00000000000E+00 0. -1.
         11    1    3    3    0    0 -0.68440375990E+00  0.80240925660E+01 -0.55115676513E+00  0.80720656622E+01  0.51100000000E-03 0. -1.
        -11    1    3    3    0    0  0.20553866579E+02  0.22354616598E+02  0.15696406013E+02  0.34184316236E+02  0.51100000000E-03 0.  1.
        -12    1    3    3    0    0  0.11798276549E+01  0.17089773625E+01  0.51262084465E+01  0.55308778650E+01  0.00000000000E+00 0.  1.
</event>
<event>
 7    1  0.5504027E-010  0.4778727E+02  0.7816164E-02  0.1312668E+00
        -11   -1    0    0    0    0  0.00000000000E+00  0.00000000000E+00  0.45593999997E+02  0.45594000000E+02  0.51100000000E-03 0.  1.
         11   -1    0    0    0    0 -0.00000000000E+00 -0.00000000000E+00 -0.45593999997E+02  0.45594000000E+02  0.51100000000E-03 0. -1.
    9900012    2    1    2    0    0 -0.18492461804E+02  0.28948553578E+02  0.26526087017E+02  0.47787272007E+02  0.20000004391E+02 0.  0.
         12    1    1    2    0    0  0.18492461804E+02 -0.28948553578E+02 -0.26526087017E+02  0.43400727993E+02  0.00000000000E+00 0. -1.
         11    1    3    3    0    0  0.37428000336E+01  0.31205489827E+01  0.31710770893E+01  0.58139580505E+01  0.51100000000E-03 0. -1.
        -11    1    3    3    0    0 -0.18010216728E+02  0.22660838253E+02  0.22414232185E+02  0.36609825206E+02  0.51100000000E-03 0.  1.
         12    1    3    3    0    0 -0.42250451097E+01  0.31671663420E+01  0.94077774299E+00  0.53634887507E+01  0.00000000000E+00 0. -1.
</event>
<event>
 7    1  0.5504027E-010  0.4778727E+02  0.7816164E-02  0.1312668E+00
        -11   -1    0    0    0    0  0.00000000000E+00  0.00000000000E+00  0.45593999997E+02  0.45594000000E+02  0.51100000000E-03 0.  1.
         11   -1    0    0    0    0 -0.00000000000E+00 -0.00000000000E+00 -0.45593999997E+02  0.45594000000E+02  0.51100000000E-03 0. -1.
    9900012    2    1    2    0    0 -0.20843396599E+02  0.36116511309E+02  0.12032199600E+02  0.47787269613E+02  0.19999993474E+02 0.  0.
         12    1    1    2    0    0  0.20843396599E+02 -0.36116511309E+02 -0.12032199600E+02  0.43400730387E+02  0.00000000000E+00 0. -1.
         11    1    3    3    0    0 -0.12144396957E+02  0.20773097225E+02  0.16723728690E+02  0.29303430641E+02  0.51100000000E-03 0. -1.
        -11    1    3    3    0    0 -0.57208066743E+01  0.72628139737E+01 -0.19785909119E+01  0.94546770478E+01  0.51100000000E-03 0.  1.
         12    1    3    3    0    0 -0.29781929670E+01  0.80806001101E+01 -0.27129381786E+01  0.90291619240E+01  0.00000000000E+00 0. -1.
</event>
<event>
 7    1  0.5504027E-010  0.4778727E+02  0.7816164E-02  0.1312668E+00
        -11   -1    0    0    0    0  0.00000000000E+00  0.00000000000E+00  0.45593999997E+02  0.45594000000E+02  0.51100000000E-03 0.  1.
         11   -1    0    0    0    0 -0.00000000000E+00 -0.00000000000E+00 -0.45593999997E+02  0.45594000000E+02  0.51100000000E-03 0. -1.
    9900012    2    1    2    0    0 -0.20440474422E+02  0.41539856875E+01  0.38059883405E+02  0.47787270554E+02  0.19999997762E+02 0.  0.
         12    1    1    2    0    0  0.20440474422E+02 -0.41539856875E+01 -0.38059883405E+02  0.43400729446E+02  0.00000000000E+00 0. -1.
         11    1    3    3    0    0 -0.88282051743E+01  0.78960631989E+01  0.84766846897E+01  0.14564999287E+02  0.51100000000E-03 0. -1.
        -11    1    3    3    0    0 -0.38442125349E+01  0.21561800530E+01  0.44522183751E+01  0.62649286632E+01  0.51100000000E-03 0.  1.
         12    1    3    3    0    0 -0.77680567129E+01 -0.58982575643E+01  0.25130980340E+02  0.26957342603E+02  0.00000000000E+00 0. -1.
</event>
<event>
 7    1  0.5504027E-010  0.4778727E+02  0.7816164E-02  0.1312668E+00
        -11   -1    0    0    0    0  0.00000000000E+00  0.00000000000E+00  0.45593999997E+02  0.45594000000E+02  0.51100000000E-03 0.  1.
         11   -1    0    0    0    0 -0.00000000000E+00 -0.00000000000E+00 -0.45593999997E+02  0.45594000000E+02  0.51100000000E-03 0. -1.
    9900012    2    1    2    0    0  0.17503068410E+02 -0.67297631678E+00  0.39709104884E+02  0.47787270610E+02  0.19999998020E+02 0.  0.
         12    1    1    2    0    0 -0.17503068410E+02  0.67297631678E+00 -0.39709104884E+02  0.43400729390E+02  0.00000000000E+00 0. -1.
         11    1    3    3    0    0 -0.11267407883E+01  0.29683396092E+01  0.28905333966E+01  0.42936893714E+01  0.51100000000E-03 0. -1.
        -11    1    3    3    0    0  0.17896170563E+02 -0.69462348350E+01  0.27164061702E+02  0.33262732113E+02  0.51100000000E-03 0.  1.
        -12    1    3    3    0    0  0.73363863518E+00  0.33049189090E+01  0.96545097857E+01  0.10230849126E+02  0.00000000000E+00 0.  1.
</event>
<event>
 7    1  0.5504027E-010  0.4778728E+02  0.7816164E-02  0.1312668E+00
        -11   -1    0    0    0    0  0.00000000000E+00  0.00000000000E+00  0.45593999997E+02  0.45594000000E+02  0.51100000000E-03 0. -1.
         11   -1    0    0    0    0 -0.00000000000E+00 -0.00000000000E+00 -0.45593999997E+02  0.45594000000E+02  0.51100000000E-03 0.  1.
    9900012    2    1    2    0    0  0.23667367311E+02 -0.29348664055E+02 -0.21497308566E+02  0.47787278430E+02  0.20000033671E+02 0.  0.
         12    1    1    2    0    0 -0.23667367311E+02  0.29348664055E+02  0.21497308566E+02  0.43400721570E+02  0.00000000000E+00 0. -1.
         11    1    3    3    0    0  0.74411584345E+01  0.96924763560E+00 -0.22239653021E+01  0.78266405151E+01  0.51100000000E-03 0. -1.
        -11    1    3    3    0    0  0.16368532197E+02 -0.26747417565E+02 -0.16480805076E+02  0.35425557566E+02  0.51100000000E-03 0.  1.
         12    1    3    3    0    0 -0.14232332080E+00 -0.35704941259E+01 -0.27925381881E+01  0.45350803480E+01  0.00000000000E+00 0. -1.
</event>
<event>
 7    1  0.5504027E-010  0.4778727E+02  0.7816164E-02  0.1312668E+00
        -11   -1    0    0    0    0  0.00000000000E+00  0.00000000000E+00  0.45593999997E+02  0.45594000000E+02  0.51100000000E-03 0. -1.
         11   -1    0    0    0    0 -0.00000000000E+00 -0.00000000000E+00 -0.45593999997E+02  0.45594000000E+02  0.51100000000E-03 0.  1.
    9900012    2    1    2    0    0  0.37822117185E+02  0.19363326539E+02  0.88414995752E+01  0.47787273304E+02  0.20000010302E+02 0.  0.
         12    1    1    2    0    0 -0.37822117185E+02 -0.19363326539E+02 -0.88414995752E+01  0.43400726696E+02  0.00000000000E+00 0. -1.
         11    1    3    3    0    0 -0.86731028048E+00  0.14289657516E+01  0.19282595426E+00  0.16826622809E+01  0.51100000000E-03 0. -1.
        -11    1    3    3    0    0  0.34949619898E+02  0.19861705227E+02  0.10438914470E+02  0.41532327182E+02  0.51100000000E-03 0.  1.
        -12    1    3    3    0    0  0.37398075673E+01 -0.19273444393E+01 -0.17902408496E+01  0.45722838415E+01  0.00000000000E+00 0.  1.
</event>
<event>
 7    1  0.5504027E-010  0.4778727E+02  0.7816164E-02  0.1312668E+00
        -11   -1    0    0    0    0  0.00000000000E+00  0.00000000000E+00  0.45593999997E+02  0.45594000000E+02  0.51100000000E-03 0.  1.
         11   -1    0    0    0    0 -0.00000000000E+00 -0.00000000000E+00 -0.45593999997E+02  0.45594000000E+02  0.51100000000E-03 0. -1.
    9900012    2    1    2    0    0 -0.44387258426E+00 -0.37986720479E+02  0.20986552433E+02  0.47787270298E+02  0.19999996598E+02 0.  0.
         12    1    1    2    0    0  0.44387258426E+00  0.37986720479E+02 -0.20986552433E+02  0.43400729702E+02  0.00000000000E+00 0. -1.
         11    1    3    3    0    0 -0.29635638664E+01 -0.28176466504E+02  0.13641791565E+02  0.31445102207E+02  0.51100000000E-03 0. -1.
        -11    1    3    3    0    0 -0.11177356547E+01 -0.10056302681E+02  0.76485356900E+01  0.12683794979E+02  0.51100000000E-03 0.  1.
         12    1    3    3    0    0  0.36374269369E+01  0.24604870665E+00 -0.30377482103E+00  0.36583731123E+01  0.00000000000E+00 0. -1.
</event>
<event>
 7    1  0.5504027E-010  0.4778727E+02  0.7816164E-02  0.1312668E+00
        -11   -1    0    0    0    0  0.00000000000E+00  0.00000000000E+00  0.45593999997E+02  0.45594000000E+02  0.51100000000E-03 0. -1.
         11   -1    0    0    0    0 -0.00000000000E+00 -0.00000000000E+00 -0.45593999997E+02  0.45594000000E+02  0.51100000000E-03 0.  1.
    9900012    2    1    2    0    0  0.31244828543E+02  0.18888819885E+01 -0.30063533151E+02  0.47787271765E+02  0.20000003286E+02 0.  0.
         12    1    1    2    0    0 -0.31244828543E+02 -0.18888819885E+01  0.30063533151E+02  0.43400728235E+02  0.00000000000E+00 0. -1.
         11    1    3    3    0    0  0.17022145712E+01  0.13097545172E+01 -0.11397177024E+02  0.11597785811E+02  0.51100000000E-03 0. -1.
        -11    1    3    3    0    0  0.21777172828E+02  0.40463933593E+01 -0.15828070453E+02  0.27224003566E+02  0.51100000000E-03 0.  1.
         12    1    3    3    0    0  0.77654411431E+01 -0.34672658881E+01 -0.28382856729E+01  0.89654823878E+01  0.00000000000E+00 0. -1.
</event>
<event>
 7    1  0.5504027E-010  0.4778727E+02  0.7816164E-02  0.1312668E+00
        -11   -1    0    0    0    0  0.00000000000E+00  0.00000000000E+00  0.45593999997E+02  0.45594000000E+02  0.51100000000E-03 0.  1.
         11   -1    0    0    0    0 -0.00000000000E+00 -0.00000000000E+00 -0.45593999997E+02  0.45594000000E+02  0.51100000000E-03 0. -1.
    9900012    2    1    2    0    0  0.99963574728E+01 -0.68668073539E+00  0.42228244324E+02  0.47787270607E+02  0.19999998004E+02 0.  0.
         12    1    1    2    0    0 -0.99963574728E+01  0.68668073539E+00 -0.42228244324E+02  0.43400729393E+02  0.00000000000E+00 0. -1.
         11    1    3    3    0    0  0.37183241970E+01 -0.10010896158E+00  0.43482957739E+01  0.57222052600E+01  0.51100000000E-03 0.  1.
        -11    1    3    3    0    0  0.49695533772E+01 -0.57256910394E+01  0.57892718222E+01  0.95391649079E+01  0.51100000000E-03 0. -1.
        -12    1    3    3    0    0  0.13084798986E+01  0.51391192656E+01  0.32090676728E+02  0.32525900439E+02  0.00000000000E+00 0.  1.
</event>
<event>
 7    1  0.5504027E-010  0.4778726E+02  0.7816164E-02  0.1312668E+00
        -11   -1    0    0    0    0  0.00000000000E+00  0.00000000000E+00  0.45593999997E+02  0.45594000000E+02  0.51100000000E-03 0.  1.
         11   -1    0    0    0    0 -0.00000000000E+00 -0.00000000000E+00 -0.45593999997E+02  0.45594000000E+02  0.51100000000E-03 0. -1.
    9900012    2    1    2    0    0  0.34879711703E+02  0.60611847745E-01  0.25826845999E+02  0.47787263410E+02  0.19999965191E+02 0.  0.
         12    1    1    2    0    0 -0.34879711703E+02 -0.60611847745E-01 -0.25826845999E+02  0.43400736590E+02  0.00000000000E+00 0. -1.
         11    1    3    3    0    0  0.25261478642E+01  0.32839687866E+01 -0.16085161718E+01  0.44444570601E+01  0.51100000000E-03 0. -1.
        -11    1    3    3    0    0  0.18581290512E+02 -0.41574853128E+01  0.20192845719E+02  0.27754280025E+02  0.51100000000E-03 0.  1.
        -12    1    3    3    0    0  0.13772273328E+02  0.93412837401E+00  0.72425164523E+01  0.15588526325E+02  0.00000000000E+00 0.  1.
</event>
<event>
 7    1  0.5504027E-010  0.4778727E+02  0.7816164E-02  0.1312668E+00
        -11   -1    0    0    0    0  0.00000000000E+00  0.00000000000E+00  0.45593999997E+02  0.45594000000E+02  0.51100000000E-03 0.  1.
         11   -1    0    0    0    0 -0.00000000000E+00 -0.00000000000E+00 -0.45593999997E+02  0.45594000000E+02  0.51100000000E-03 0. -1.
    9900012    2    1    2    0    0 -0.46522455925E+01 -0.40951469534E+02  0.13599885079E+02  0.47787272815E+02  0.20000008072E+02 0.  0.
         12    1    1    2    0    0  0.46522455925E+01  0.40951469534E+02 -0.13599885079E+02  0.43400727185E+02  0.00000000000E+00 0. -1.
         11    1    3    3    0    0  0.63622669067E+01 -0.21363149034E+02  0.40063146518E+01  0.22647585615E+02  0.51100000000E-03 0. -1.
        -11    1    3    3    0    0 -0.62421825197E+01 -0.12028435572E+02  0.26229818025E+01  0.13803193062E+02  0.51100000000E-03 0.  1.
         12    1    3    3    0    0 -0.47723299796E+01 -0.75598849287E+01  0.69705886246E+01  0.11336494138E+02  0.00000000000E+00 0. -1.
</event>
<event>
 7    1  0.5504027E-010  0.4778727E+02  0.7816164E-02  0.1312668E+00
        -11   -1    0    0    0    0  0.00000000000E+00  0.00000000000E+00  0.45593999997E+02  0.45594000000E+02  0.51100000000E-03 0. -1.
         11   -1    0    0    0    0 -0.00000000000E+00 -0.00000000000E+00 -0.45593999997E+02  0.45594000000E+02  0.51100000000E-03 0.  1.
    9900012    2    1    2    0    0 -0.21340354258E+02 -0.20576184070E+01 -0.37735642890E+02  0.47787271231E+02  0.20000000851E+02 0.  0.
         12    1    1    2    0    0  0.21340354258E+02  0.20576184070E+01  0.37735642890E+02  0.43400728769E+02  0.00000000000E+00 0. -1.
         11    1    3    3    0    0 -0.62004791090E+01 -0.36999109640E+01 -0.23113633265E+01  0.75814037626E+01  0.51100000000E-03 0. -1.
        -11    1    3    3    0    0 -0.14022349984E+02  0.24643316492E+01 -0.35992991427E+02  0.38706519628E+02  0.51100000000E-03 0.  1.
        -12    1    3    3    0    0 -0.11175251648E+01 -0.82203909225E+00  0.56871186394E+00  0.14993478407E+01  0.00000000000E+00 0.  1.
</event>
<event>
 7    1  0.5504027E-010  0.4778724E+02  0.7816164E-02  0.1312668E+00
        -11   -1    0    0    0    0  0.00000000000E+00  0.00000000000E+00  0.45593999997E+02  0.45594000000E+02  0.51100000000E-03 0. -1.
         11   -1    0    0    0    0 -0.00000000000E+00 -0.00000000000E+00 -0.45593999997E+02  0.45594000000E+02  0.51100000000E-03 0.  1.
    9900012    2    1    2    0    0 -0.20217492370E+02 -0.23250175672E+02 -0.30566463665E+02  0.47787235404E+02  0.19999837502E+02 0.  0.
         12    1    1    2    0    0  0.20217492370E+02  0.23250175672E+02  0.30566463665E+02  0.43400764596E+02  0.00000000000E+00 0. -1.
         11    1    3    3    0    0 -0.55835980483E+01 -0.99049383942E+01 -0.95448446014E+01  0.14845485189E+02  0.51100000000E-03 0. -1.
        -11    1    3    3    0    0 -0.10896211924E+02 -0.13209684079E+02 -0.71186673443E+01  0.18544503573E+02  0.51100000000E-03 0.  1.
        -12    1    3    3    0    0 -0.37376823980E+01 -0.13555319869E+00 -0.13902951720E+02  0.14397246643E+02  0.00000000000E+00 0.  1.
</event>
<event>
 7    1  0.5504027E-010  0.4778727E+02  0.7816164E-02  0.1312668E+00
        -11   -1    0    0    0    0  0.00000000000E+00  0.00000000000E+00  0.45593999997E+02  0.45594000000E+02  0.51100000000E-03 0.  1.
         11   -1    0    0    0    0 -0.00000000000E+00 -0.00000000000E+00 -0.45593999997E+02  0.45594000000E+02  0.51100000000E-03 0. -1.
    9900012    2    1    2    0    0  0.29177586706E+02 -0.23515515574E+02  0.21893201935E+02  0.47787270402E+02  0.19999997070E+02 0.  0.
         12    1    1    2    0    0 -0.29177586706E+02  0.23515515574E+02 -0.21893201935E+02  0.43400729598E+02  0.00000000000E+00 0. -1.
         11    1    3    3    0    0  0.96927877270E+01 -0.10813534920E+01  0.10020883406E+01  0.98042664488E+01  0.51100000000E-03 0. -1.
        -11    1    3    3    0    0  0.77735519687E+01 -0.12800389265E+02  0.16307834458E+02  0.22140992311E+02  0.51100000000E-03 0.  1.
        -12    1    3    3    0    0  0.11711247010E+02 -0.96337728170E+01  0.45832791369E+01  0.15842011642E+02  0.00000000000E+00 0.  1.
</event>
<event>
 7    1  0.5504027E-010  0.4778727E+02  0.7816164E-02  0.1312668E+00
        -11   -1    0    0    0    0  0.00000000000E+00  0.00000000000E+00  0.45593999997E+02  0.45594000000E+02  0.51100000000E-03 0. -1.
         11   -1    0    0    0    0 -0.00000000000E+00 -0.00000000000E+00 -0.45593999997E+02  0.45594000000E+02  0.51100000000E-03 0.  1.
    9900012    2    1    2    0    0 -0.22033820567E+02  0.36747514245E+02  0.69104341246E+01  0.47787272452E+02  0.20000006416E+02 0.  0.
         12    1    1    2    0    0  0.22033820567E+02 -0.36747514245E+02 -0.69104341246E+01  0.43400727548E+02  0.00000000000E+00 0. -1.
         11    1    3    3    0    0 -0.42202771623E+01  0.15732360929E+02  0.37841955417E+01  0.16722381884E+02  0.51100000000E-03 0. -1.
        -11    1    3    3    0    0 -0.19686849480E+02  0.17119596909E+02  0.46125358237E+01  0.26493926243E+02  0.51100000000E-03 0.  1.
        -12    1    3    3    0    0  0.18733060753E+01  0.38955564066E+01 -0.14862972408E+01  0.45709643246E+01  0.00000000000E+00 0.  1.
</event>
<event>
 7    1  0.5504027E-010  0.4778727E+02  0.7816164E-02  0.1312668E+00
        -11   -1    0    0    0    0  0.00000000000E+00  0.00000000000E+00  0.45593999997E+02  0.45594000000E+02  0.51100000000E-03 0.  1.
         11   -1    0    0    0    0 -0.00000000000E+00 -0.00000000000E+00 -0.45593999997E+02  0.45594000000E+02  0.51100000000E-03 0. -1.
    9900012    2    1    2    0    0  0.14905609183E+02  0.15782644903E+02  0.37581297574E+02  0.47787274285E+02  0.20000014774E+02 0.  0.
         12    1    1    2    0    0 -0.14905609183E+02 -0.15782644903E+02 -0.37581297574E+02  0.43400725715E+02  0.00000000000E+00 0. -1.
         11    1    3    3    0    0  0.93413174470E+01  0.22154979761E+01  0.34705776242E+01  0.10208503918E+02  0.51100000000E-03 0. -1.
        -11    1    3    3    0    0  0.64991038737E+01  0.11101636413E+02  0.30550714719E+02  0.33148617653E+02  0.51100000000E-03 0.  1.
         12    1    3    3    0    0 -0.93481213734E+00  0.24655105147E+01  0.35600052306E+01  0.44301527143E+01  0.00000000000E+00 0. -1.
</event>
<event>
 7    1  0.5504027E-010  0.4778727E+02  0.7816164E-02  0.1312668E+00
        -11   -1    0    0    0    0  0.00000000000E+00  0.00000000000E+00  0.45593999997E+02  0.45594000000E+02  0.51100000000E-03 0.  1.
         11   -1    0    0    0    0 -0.00000000000E+00 -0.00000000000E+00 -0.45593999997E+02  0.45594000000E+02  0.51100000000E-03 0. -1.
    9900012    2    1    2    0    0  0.37429493916E+02 -0.15307879726E+02  0.15758346196E+02  0.47787266466E+02  0.19999979124E+02 0.  0.
         12    1    1    2    0    0 -0.37429493916E+02  0.15307879726E+02 -0.15758346196E+02  0.43400733534E+02  0.00000000000E+00 0. -1.
         11    1    3    3    0    0  0.22694881128E+01 -0.33053370527E+01 -0.23961991831E+01  0.46709313966E+01  0.51100000000E-03 0. -1.
        -11    1    3    3    0    0  0.35846280436E+02 -0.12429958577E+02  0.18531694101E+02  0.42224203697E+02  0.51100000000E-03 0.  1.
         12    1    3    3    0    0 -0.68627463284E+00  0.42741590412E+00 -0.37714872220E+00  0.89213137230E+00  0.00000000000E+00 0. -1.
</event>
<event>
 7    1  0.5504027E-010  0.4778727E+02  0.7816164E-02  0.1312668E+00
        -11   -1    0    0    0    0  0.00000000000E+00  0.00000000000E+00  0.45593999997E+02  0.45594000000E+02  0.51100000000E-03 0.  1.
         11   -1    0    0    0    0 -0.00000000000E+00 -0.00000000000E+00 -0.45593999997E+02  0.45594000000E+02  0.51100000000E-03 0. -1.
    9900012    2    1    2    0    0  0.17734953316E+02 -0.19451403294E+02  0.34507064364E+02  0.47787272468E+02  0.20000006492E+02 0.  0.
         12    1    1    2    0    0 -0.17734953316E+02  0.19451403294E+02 -0.34507064364E+02  0.43400727532E+02  0.00000000000E+00 0. -1.
         11    1    3    3    0    0 -0.38485090608E+01 -0.57758781863E+01  0.44703710790E+01  0.82556652463E+01  0.51100000000E-03 0. -1.
        -11    1    3    3    0    0  0.19187086824E+02 -0.12645773836E+02  0.27999947703E+02  0.36222326931E+02  0.51100000000E-03 0.  1.
         12    1    3    3    0    0  0.23963755532E+01 -0.10297512721E+01  0.20367455825E+01  0.33092802907E+01  0.00000000000E+00 0. -1.
</event>
<event>
 7    1  0.5504027E-010  0.4778727E+02  0.7816164E-02  0.1312668E+00
        -11   -1    0    0    0    0  0.00000000000E+00  0.00000000000E+00  0.45593999997E+02  0.45594000000E+02  0.51100000000E-03 0.  1.
         11   -1    0    0    0    0 -0.00000000000E+00 -0.00000000000E+00 -0.45593999997E+02  0.45594000000E+02  0.51100000000E-03 0. -1.
    9900012    2    1    2    0    0 -0.19675790472E+02  0.31716352097E+02  0.22148572085E+02  0.47787274586E+02  0.20000016147E+02 0.  0.
         12    1    1    2    0    0  0.19675790472E+02 -0.31716352097E+02 -0.22148572085E+02  0.43400725414E+02  0.00000000000E+00 0. -1.
         11    1    3    3    0    0 -0.98899717677E+01  0.23770052475E+02  0.11307507660E+02  0.28119151231E+02  0.51100000000E-03 0. -1.
        -11    1    3    3    0    0 -0.51752277804E+01  0.77102823101E+01  0.17182872701E+01  0.94437252864E+01  0.51100000000E-03 0.  1.
         12    1    3    3    0    0 -0.46105909244E+01  0.23601731216E+00  0.91227771546E+01  0.10224398068E+02  0.00000000000E+00 0. -1.
</event>
<event>
 7    1  0.5504027E-010  0.4778727E+02  0.7816164E-02  0.1312668E+00
        -11   -1    0    0    0    0  0.00000000000E+00  0.00000000000E+00  0.45593999997E+02  0.45594000000E+02  0.51100000000E-03 0.  1.
         11   -1    0    0    0    0 -0.00000000000E+00 -0.00000000000E+00 -0.45593999997E+02  0.45594000000E+02  0.51100000000E-03 0. -1.
    9900012    2    1    2    0    0  0.32727702456E+02  0.28151808682E+02 -0.44717217644E+01  0.47787272637E+02  0.20000007260E+02 0.  0.
         12    1    1    2    0    0 -0.32727702456E+02 -0.28151808682E+02  0.44717217644E+01  0.43400727363E+02  0.00000000000E+00 0. -1.
         11    1    3    3    0    0  0.80352169811E+01  0.10431127959E+01 -0.28272378940E+01  0.85817288823E+01  0.51100000000E-03 0. -1.
        -11    1    3    3    0    0  0.58921350565E+01  0.16691354295E+01 -0.42676436289E+01  0.74643185228E+01  0.51100000000E-03 0.  1.
        -12    1    3    3    0    0  0.18800350419E+02  0.25439560456E+02  0.26231597585E+01  0.31741225232E+02  0.00000000000E+00 0.  1.
</event>
<event>
 7    1  0.5504027E-010  0.4778727E+02  0.7816164E-02  0.1312668E+00
        -11   -1    0    0    0    0  0.00000000000E+00  0.00000000000E+00  0.45593999997E+02  0.45594000000E+02  0.51100000000E-03 0.  1.
         11   -1    0    0    0    0 -0.00000000000E+00 -0.00000000000E+00 -0.45593999997E+02  0.45594000000E+02  0.51100000000E-03 0. -1.
    9900012    2    1    2    0    0 -0.36523268538E+02 -0.23438915847E+02  0.53972892550E+00  0.47787271572E+02  0.20000002407E+02 0.  0.
         12    1    1    2    0    0  0.36523268538E+02  0.23438915847E+02 -0.53972892550E+00  0.43400728428E+02  0.00000000000E+00 0. -1.
         11    1    3    3    0    0 -0.30550795673E+02 -0.13357775053E+02 -0.38687254494E+01  0.33567071774E+02  0.51100000000E-03 0. -1.
        -11    1    3    3    0    0 -0.11207909960E+01 -0.54772480714E+01  0.50069719451E+01  0.75050774288E+01  0.51100000000E-03 0.  1.
         12    1    3    3    0    0 -0.48516818688E+01 -0.46038927225E+01 -0.59851757019E+00  0.67151223695E+01  0.00000000000E+00 0. -1.
</event>
<event>
 7    1  0.5504027E-010  0.4778727E+02  0.7816164E-02  0.1312668E+00
        -11   -1    0    0    0    0  0.00000000000E+00  0.00000000000E+00  0.45593999997E+02  0.45594000000E+02  0.51100000000E-03 0.  1.
         11   -1    0    0    0    0 -0.00000000000E+00 -0.00000000000E+00 -0.45593999997E+02  0.45594000000E+02  0.51100000000E-03 0. -1.
    9900012    2    1    2    0    0 -0.94351803981E+00  0.76224149848E+01  0.42715710980E+02  0.47787269580E+02  0.19999993323E+02 0.  0.
         12    1    1    2    0    0  0.94351803981E+00 -0.76224149848E+01 -0.42715710980E+02  0.43400730420E+02  0.00000000000E+00 0. -1.
         11    1    3    3    0    0 -0.45036998167E+01  0.35990417726E+01  0.28600600855E+01  0.64355541854E+01  0.51100000000E-03 0. -1.
        -11    1    3    3    0    0  0.98680090881E+00  0.35374472909E+01  0.41159369596E+01  0.55161804436E+01  0.51100000000E-03 0.  1.
         12    1    3    3    0    0  0.25733808680E+01  0.48592592128E+00  0.35739713935E+02  0.35835534951E+02  0.00000000000E+00 0. -1.
</event>
<event>
 7    1  0.5504027E-010  0.4778728E+02  0.7816164E-02  0.1312668E+00
        -11   -1    0    0    0    0  0.00000000000E+00  0.00000000000E+00  0.45593999997E+02  0.45594000000E+02  0.51100000000E-03 0. -1.
         11   -1    0    0    0    0 -0.00000000000E+00 -0.00000000000E+00 -0.45593999997E+02  0.45594000000E+02  0.51100000000E-03 0.  1.
    9900012    2    1    2    0    0  0.33976327384E+02  0.22066308649E+02 -0.15566302340E+02  0.47787279172E+02  0.20000037056E+02 0.  0.
         12    1    1    2    0    0 -0.33976327384E+02 -0.22066308649E+02  0.15566302340E+02  0.43400720828E+02  0.00000000000E+00 0. -1.
         11    1    3    3    0    0  0.12813606326E+02  0.10248855037E+02 -0.12356189598E+02  0.20540276490E+02  0.51100000000E-03 0.  1.
        -11    1    3    3    0    0  0.13917502492E+01  0.35554734239E+01 -0.43511048958E+01  0.57888232051E+01  0.51100000000E-03 0. -1.
         12    1    3    3    0    0  0.19770970809E+02  0.82619801886E+01  0.11409921543E+01  0.21458179477E+02  0.00000000000E+00 0. -1.
</event>
<event>
 7    1  0.5504027E-010  0.4778721E+02  0.7816164E-02  0.1312668E+00
        -11   -1    0    0    0    0  0.00000000000E+00  0.00000000000E+00  0.45593999997E+02  0.45594000000E+02  0.51100000000E-03 0.  1.
         11   -1    0    0    0    0 -0.00000000000E+00 -0.00000000000E+00 -0.45593999997E+02  0.45594000000E+02  0.51100000000E-03 0. -1.
    9900012    2    1    2    0    0 -0.26964872347E+02 -0.26681643535E+02  0.21085866694E+02  0.47787214101E+02  0.19999740370E+02 0.  0.
         12    1    1    2    0    0  0.26964872347E+02  0.26681643535E+02 -0.21085866694E+02  0.43400785899E+02  0.00000000000E+00 0. -1.
         11    1    3    3    0    0 -0.21346676043E+02 -0.28215930825E+02  0.14814738138E+02  0.38357473806E+02  0.51100000000E-03 0. -1.
        -11    1    3    3    0    0 -0.58773994260E+00  0.17899451577E+01  0.25350185941E+01  0.31584270518E+01  0.51100000000E-03 0.  1.
         12    1    3    3    0    0 -0.50304563610E+01 -0.25565786776E+00  0.37361099621E+01  0.62713132432E+01  0.00000000000E+00 0. -1.
</event>
<event>
 7    1  0.5504027E-010  0.4778729E+02  0.7816164E-02  0.1312668E+00
        -11   -1    0    0    0    0  0.00000000000E+00  0.00000000000E+00  0.45593999997E+02  0.45594000000E+02  0.51100000000E-03 0.  1.
         11   -1    0    0    0    0 -0.00000000000E+00 -0.00000000000E+00 -0.45593999997E+02  0.45594000000E+02  0.51100000000E-03 0. -1.
    9900012    2    1    2    0    0  0.36235348210E+02 -0.23050205558E+02 -0.62697305453E+01  0.47787286212E+02  0.20000069156E+02 0.  0.
         12    1    1    2    0    0 -0.36235348210E+02  0.23050205558E+02  0.62697305453E+01  0.43400713788E+02  0.00000000000E+00 0. -1.
         11    1    3    3    0    0  0.11369520503E+02 -0.11399049467E+02  0.31902714663E+01  0.16412865610E+02  0.51100000000E-03 0. -1.
        -11    1    3    3    0    0  0.22390419438E+02 -0.60290558146E+01 -0.48390220488E+01  0.23687476253E+02  0.51100000000E-03 0.  1.
        -12    1    3    3    0    0  0.24754082698E+01 -0.56221002756E+01 -0.46209799628E+01  0.76869443492E+01  0.00000000000E+00 0.  1.
</event>
<event>
 7    1  0.5504027E-010  0.4778724E+02  0.7816164E-02  0.1312668E+00
        -11   -1    0    0    0    0  0.00000000000E+00  0.00000000000E+00  0.45593999997E+02  0.45594000000E+02  0.51100000000E-03 0.  1.
         11   -1    0    0    0    0 -0.00000000000E+00 -0.00000000000E+00 -0.45593999997E+02  0.45594000000E+02  0.51100000000E-03 0. -1.
    9900012    2    1    2    0    0 -0.16418353131E+02 -0.75064315397E+01  0.39467924604E+02  0.47787240714E+02  0.19999861712E+02 0.  0.
         12    1    1    2    0    0  0.16418353131E+02  0.75064315397E+01 -0.39467924604E+02  0.43400759286E+02  0.00000000000E+00 0. -1.
         11    1    3    3    0    0  0.30948366487E+00  0.30278192866E+01  0.44166837274E-01  0.30439153638E+01  0.51100000000E-03 0. -1.
        -11    1    3    3    0    0 -0.12055745722E+02 -0.73810398499E+01  0.34406680013E+02  0.37197316892E+02  0.51100000000E-03 0.  1.
        -12    1    3    3    0    0 -0.46720910740E+01 -0.31532109764E+01  0.50170777545E+01  0.75460084588E+01  0.00000000000E+00 0.  1.
</event>
<event>
 7    1  0.5504027E-010  0.4778727E+02  0.7816164E-02  0.1312668E+00
        -11   -1    0    0    0    0  0.00000000000E+00  0.00000000000E+00  0.45593999997E+02  0.45594000000E+02  0.51100000000E-03 0.  1.
         11   -1    0    0    0    0 -0.00000000000E+00 -0.00000000000E+00 -0.45593999997E+02  0.45594000000E+02  0.51100000000E-03 0. -1.
    9900012    2    1    2    0    0  0.12947219996E+02  0.45105305918E+00  0.41422083239E+02  0.47787274956E+02  0.20000017834E+02 0.  0.
         12    1    1    2    0    0 -0.12947219996E+02 -0.45105305918E+00 -0.41422083239E+02  0.43400725044E+02  0.00000000000E+00 0. -1.
         11    1    3    3    0    0  0.10336768732E+01  0.13939644170E+01  0.15226563229E+00  0.17420705376E+01  0.51100000000E-03 0. -1.
        -11    1    3    3    0    0  0.14323688949E+02  0.40323005845E+01  0.29409454917E+02  0.32959726211E+02  0.51100000000E-03 0.  1.
        -12    1    3    3    0    0 -0.24101458266E+01 -0.49752119424E+01  0.11860362690E+02  0.13085478208E+02  0.00000000000E+00 0.  1.
</event>
<event>
 7    1  0.5504027E-010  0.4778727E+02  0.7816164E-02  0.1312668E+00
        -11   -1    0    0    0    0  0.00000000000E+00  0.00000000000E+00  0.45593999997E+02  0.45594000000E+02  0.51100000000E-03 0. -1.
         11   -1    0    0    0    0 -0.00000000000E+00 -0.00000000000E+00 -0.45593999997E+02  0.45594000000E+02  0.51100000000E-03 0.  1.
    9900012    2    1    2    0    0 -0.21356592454E+02  0.18882989032E+02 -0.32725401213E+02  0.47787271889E+02  0.20000003850E+02 0.  0.
         12    1    1    2    0    0  0.21356592454E+02 -0.18882989032E+02  0.32725401213E+02  0.43400728111E+02  0.00000000000E+00 0. -1.
         11    1    3    3    0    0 -0.83146976144E+00  0.46236023703E+01 -0.23806989817E+01  0.52665708716E+01  0.51100000000E-03 0. -1.
        -11    1    3    3    0    0 -0.12978310207E+02  0.73897934527E+01 -0.59480126070E+01  0.16075585132E+02  0.51100000000E-03 0.  1.
        -12    1    3    3    0    0 -0.75468124858E+01  0.68695932089E+01 -0.24396689624E+02  0.26445115885E+02  0.00000000000E+00 0.  1.
</event>
<event>
 7    1  0.5504027E-010  0.4778727E+02  0.7816164E-02  0.1312668E+00
        -11   -1    0    0    0    0  0.00000000000E+00  0.00000000000E+00  0.45593999997E+02  0.45594000000E+02  0.51100000000E-03 0.  1.
         11   -1    0    0    0    0 -0.00000000000E+00 -0.00000000000E+00 -0.45593999997E+02  0.45594000000E+02  0.51100000000E-03 0. -1.
    9900012    2    1    2    0    0 -0.23432115853E+00 -0.60505980616E+00  0.43395879552E+02  0.47787269985E+02  0.19999995167E+02 0.  0.
         12    1    1    2    0    0  0.23432115853E+00  0.60505980616E+00 -0.43395879552E+02  0.43400730015E+02  0.00000000000E+00 0. -1.
         11    1    3    3    0    0  0.15490719573E+01  0.24249473511E+01  0.84698072898E+01  0.89452573676E+01  0.51100000000E-03 0. -1.
        -11    1    3    3    0    0 -0.39104172321E+01  0.52039820226E+01  0.66127372892E+01  0.92790671157E+01  0.51100000000E-03 0.  1.
        -12    1    3    3    0    0  0.21270241163E+01 -0.82339891799E+01  0.28313334973E+02  0.29562945501E+02  0.00000000000E+00 0.  1.
</event>
<event>
 7    1  0.5504027E-010  0.4778727E+02  0.7816164E-02  0.1312668E+00
        -11   -1    0    0    0    0  0.00000000000E+00  0.00000000000E+00  0.45593999997E+02  0.45594000000E+02  0.51100000000E-03 0.  1.
         11   -1    0    0    0    0 -0.00000000000E+00 -0.00000000000E+00 -0.45593999997E+02  0.45594000000E+02  0.51100000000E-03 0. -1.
    9900012    2    1    2    0    0 -0.16081146266E+02  0.35972457396E+02  0.18193474170E+02  0.47787268915E+02  0.19999990289E+02 0.  0.
         12    1    1    2    0    0  0.16081146266E+02 -0.35972457396E+02 -0.18193474170E+02  0.43400731085E+02  0.00000000000E+00 0. -1.
         11    1    3    3    0    0 -0.13430932662E+02  0.21759297522E+02  0.15390523953E+02  0.29845019830E+02  0.51100000000E-03 0. -1.
        -11    1    3    3    0    0  0.33109826443E+01  0.21818735078E+01 -0.78898579859E+00  0.40429787196E+01  0.51100000000E-03 0.  1.
        -12    1    3    3    0    0 -0.59611962486E+01  0.12031286367E+02  0.35919360153E+01  0.13899270366E+02  0.00000000000E+00 0.  1.
</event>
<event>
 7    1  0.5504027E-010  0.4778727E+02  0.7816164E-02  0.1312668E+00
        -11   -1    0    0    0    0  0.00000000000E+00  0.00000000000E+00  0.45593999997E+02  0.45594000000E+02  0.51100000000E-03 0.  1.
         11   -1    0    0    0    0 -0.00000000000E+00 -0.00000000000E+00 -0.45593999997E+02  0.45594000000E+02  0.51100000000E-03 0. -1.
    9900012    2    1    2    0    0 -0.33032210583E+02  0.51831497385E+01  0.27670044339E+02  0.47787270387E+02  0.19999997003E+02 0.  0.
         12    1    1    2    0    0  0.33032210583E+02 -0.51831497385E+01 -0.27670044339E+02  0.43400729613E+02  0.00000000000E+00 0. -1.
         11    1    3    3    0    0 -0.29535449437E+01 -0.49432273466E+01  0.12139632693E+01  0.58849495678E+01  0.51100000000E-03 0. -1.
        -11    1    3    3    0    0 -0.14192970835E+02  0.64466046408E+01  0.89360435415E+01  0.17968083007E+02  0.51100000000E-03 0.  1.
         12    1    3    3    0    0 -0.15885694804E+02  0.36797724443E+01  0.17520037529E+02  0.23934237812E+02  0.00000000000E+00 0. -1.
</event>
<event>
 7    1  0.5504027E-010  0.4778727E+02  0.7816164E-02  0.1312668E+00
        -11   -1    0    0    0    0  0.00000000000E+00  0.00000000000E+00  0.45593999997E+02  0.45594000000E+02  0.51100000000E-03 0.  1.
         11   -1    0    0    0    0 -0.00000000000E+00 -0.00000000000E+00 -0.45593999997E+02  0.45594000000E+02  0.51100000000E-03 0. -1.
    9900012    2    1    2    0    0 -0.23163171516E+02  0.34628696047E+02  0.12163241248E+02  0.47787267953E+02  0.19999985903E+02 0.  0.
         12    1    1    2    0    0  0.23163171516E+02 -0.34628696047E+02 -0.12163241248E+02  0.43400732047E+02  0.00000000000E+00 0. -1.
         11    1    3    3    0    0  0.67643576030E+00 -0.13925108904E+01 -0.14488097152E+01  0.21203069989E+01  0.51100000000E-03 0. -1.
        -11    1    3    3    0    0 -0.20012777628E+02  0.29022426900E+02  0.87425949116E+01  0.36321419267E+02  0.51100000000E-03 0.  1.
        -12    1    3    3    0    0 -0.38268296481E+01  0.69987800380E+01  0.48694560515E+01  0.93455416865E+01  0.00000000000E+00 0.  1.
</event>
<event>
 7    1  0.5504027E-010  0.4778727E+02  0.7816164E-02  0.1312668E+00
        -11   -1    0    0    0    0  0.00000000000E+00  0.00000000000E+00  0.45593999997E+02  0.45594000000E+02  0.51100000000E-03 0.  1.
         11   -1    0    0    0    0 -0.00000000000E+00 -0.00000000000E+00 -0.45593999997E+02  0.45594000000E+02  0.51100000000E-03 0. -1.
    9900012    2    1    2    0    0  0.18549573836E+02 -0.24718944515E+01  0.39158991121E+02  0.47787268009E+02  0.19999986162E+02 0.  0.
         12    1    1    2    0    0 -0.18549573836E+02  0.24718944515E+01 -0.39158991121E+02  0.43400731991E+02  0.00000000000E+00 0. -1.
         11    1    3    3    0    0  0.64343084267E+00  0.24556782211E+01 -0.62562049744E+00  0.26145286464E+01  0.51100000000E-03 0. -1.
        -11    1    3    3    0    0  0.18381511687E+02 -0.21520789519E+01  0.35693691022E+02  0.40206355153E+02  0.51100000000E-03 0.  1.
         12    1    3    3    0    0 -0.47536869300E+00 -0.27754937207E+01  0.40909205970E+01  0.49663842098E+01  0.00000000000E+00 0. -1.
</event>
<event>
 7    1  0.5504027E-010  0.4778727E+02  0.7816164E-02  0.1312668E+00
        -11   -1    0    0    0    0  0.00000000000E+00  0.00000000000E+00  0.45593999997E+02  0.45594000000E+02  0.51100000000E-03 0. -1.
         11   -1    0    0    0    0 -0.00000000000E+00 -0.00000000000E+00 -0.45593999997E+02  0.45594000000E+02  0.51100000000E-03 0.  1.
    9900012    2    1    2    0    0  0.32124206272E+02 -0.10682188147E+02 -0.27157856846E+02  0.47787274653E+02  0.20000016452E+02 0.  0.
         12    1    1    2    0    0 -0.32124206272E+02  0.10682188147E+02  0.27157856846E+02  0.43400725347E+02  0.00000000000E+00 0. -1.
         11    1    3    3    0    0  0.57800381848E+01 -0.49815399284E+01 -0.14513567495E+02  0.16397201687E+02  0.51100000000E-03 0. -1.
        -11    1    3    3    0    0  0.24883055086E+02 -0.78846152605E+01 -0.11421106988E+02  0.28491670244E+02  0.51100000000E-03 0.  1.
        -12    1    3    3    0    0  0.14611130012E+01  0.21839670420E+01 -0.12231823628E+01  0.28984027215E+01  0.00000000000E+00 0.  1.
</event>
<event>
 7    1  0.5504027E-010  0.4778733E+02  0.7816164E-02  0.1312667E+00
        -11   -1    0    0    0    0  0.00000000000E+00  0.00000000000E+00  0.45593999997E+02  0.45594000000E+02  0.51100000000E-03 0.  1.
         11   -1    0    0    0    0 -0.00000000000E+00 -0.00000000000E+00 -0.45593999997E+02  0.45594000000E+02  0.51100000000E-03 0. -1.
    9900012    2    1    2    0    0  0.28374050874E+02  0.26995071152E+02  0.18702864663E+02  0.47787334382E+02  0.20000288779E+02 0.  0.
         12    1    1    2    0    0 -0.28374050874E+02 -0.26995071152E+02 -0.18702864663E+02  0.43400665618E+02  0.00000000000E+00 0. -1.
         11    1    3    3    0    0 -0.28352057980E+01  0.42604026471E+01  0.24949738958E+01  0.56933573254E+01  0.51100000000E-03 0. -1.
        -11    1    3    3    0    0  0.25091606322E+02  0.19937989944E+02  0.14356508349E+02  0.35117253353E+02  0.51100000000E-03 0.  1.
         12    1    3    3    0    0  0.61176503500E+01  0.27966785599E+01  0.18513824185E+01  0.69767237033E+01  0.00000000000E+00 0. -1.
</event>
<event>
 7    1  0.5504027E-010  0.4778727E+02  0.7816164E-02  0.1312668E+00
        -11   -1    0    0    0    0  0.00000000000E+00  0.00000000000E+00  0.45593999997E+02  0.45594000000E+02  0.51100000000E-03 0. -1.
         11   -1    0    0    0    0 -0.00000000000E+00 -0.00000000000E+00 -0.45593999997E+02  0.45594000000E+02  0.51100000000E-03 0.  1.
    9900012    2    1    2    0    0  0.14249923848E+02  0.40929708397E+02 -0.23069353431E+01  0.47787270631E+02  0.19999998114E+02 0.  0.
         12    1    1    2    0    0 -0.14249923848E+02 -0.40929708397E+02  0.23069353431E+01  0.43400729369E+02  0.00000000000E+00 0. -1.
         11    1    3    3    0    0 -0.16660847916E+01  0.82029945729E+01  0.45811305299E+01  0.95421022678E+01  0.51100000000E-03 0. -1.
        -11    1    3    3    0    0  0.57524288816E+01  0.21179482031E+02 -0.17068686961E+01  0.22013048361E+02  0.51100000000E-03 0.  1.
         12    1    3    3    0    0  0.10163579758E+02  0.11547231793E+02 -0.51811971769E+01  0.16232120002E+02  0.00000000000E+00 0. -1.
</event>
<event>
 7    1  0.5504027E-010  0.4778727E+02  0.7816164E-02  0.1312668E+00
        -11   -1    0    0    0    0  0.00000000000E+00  0.00000000000E+00  0.45593999997E+02  0.45594000000E+02  0.51100000000E-03 0.  1.
         11   -1    0    0    0    0 -0.00000000000E+00 -0.00000000000E+00 -0.45593999997E+02  0.45594000000E+02  0.51100000000E-03 0. -1.
    9900012    2    1    2    0    0  0.19047019609E+02 -0.21735448540E+02  0.32379075080E+02  0.47787272100E+02  0.20000004815E+02 0.  0.
         12    1    1    2    0    0 -0.19047019609E+02  0.21735448540E+02 -0.32379075080E+02  0.43400727900E+02  0.00000000000E+00 0. -1.
         11    1    3    3    0    0 -0.15073509231E+01  0.11796523076E+01  0.13050756750E+01  0.23166590493E+01  0.51100000000E-03 0. -1.
        -11    1    3    3    0    0  0.15509599539E+02 -0.12904170161E+02  0.12374745135E+02  0.23668536136E+02  0.51100000000E-03 0.  1.
        -12    1    3    3    0    0  0.50447709936E+01 -0.10010930686E+02  0.18699254270E+02  0.21802076915E+02  0.00000000000E+00 0.  1.
</event>
<event>
 7    1  0.5504027E-010  0.4778727E+02  0.7816164E-02  0.1312668E+00
        -11   -1    0    0    0    0  0.00000000000E+00  0.00000000000E+00  0.45593999997E+02  0.45594000000E+02  0.51100000000E-03 0. -1.
         11   -1    0    0    0    0 -0.00000000000E+00 -0.00000000000E+00 -0.45593999997E+02  0.45594000000E+02  0.51100000000E-03 0.  1.
    9900012    2    1    2    0    0  0.35661649751E+02 -0.87008831308E+01 -0.23155225475E+02  0.47787273082E+02  0.20000009290E+02 0.  0.
         12    1    1    2    0    0 -0.35661649751E+02  0.87008831308E+01  0.23155225475E+02  0.43400726918E+02  0.00000000000E+00 0. -1.
         11    1    3    3    0    0  0.14993814043E+01  0.23687316928E+01 -0.13528453859E+01  0.31127520505E+01  0.51100000000E-03 0. -1.
        -11    1    3    3    0    0  0.34354057741E+00 -0.97376862526E+00  0.18986880572E+01  0.21613102654E+01  0.51100000000E-03 0.  1.
        -12    1    3    3    0    0  0.33818727769E+02 -0.10095846198E+02 -0.23701068147E+02  0.42513210766E+02  0.00000000000E+00 0.  1.
</event>
<event>
 7    1  0.5504027E-010  0.4778727E+02  0.7816164E-02  0.1312668E+00
        -11   -1    0    0    0    0  0.00000000000E+00  0.00000000000E+00  0.45593999997E+02  0.45594000000E+02  0.51100000000E-03 0. -1.
         11   -1    0    0    0    0 -0.00000000000E+00 -0.00000000000E+00 -0.45593999997E+02  0.45594000000E+02  0.51100000000E-03 0.  1.
    9900012    2    1    2    0    0 -0.42574460273E+02  0.13249791166E+00 -0.84273927966E+01  0.47787272212E+02  0.20000005322E+02 0.  0.
         12    1    1    2    0    0  0.42574460273E+02 -0.13249791166E+00  0.84273927966E+01  0.43400727788E+02  0.00000000000E+00 0. -1.
         11    1    3    3    0    0  0.47870571819E-01 -0.20450396927E+01 -0.11532422667E+01  0.23482859543E+01  0.51100000000E-03 0. -1.
        -11    1    3    3    0    0 -0.30278285149E+02  0.77750752389E+01 -0.42074791920E+01  0.31542498758E+02  0.51100000000E-03 0.  1.
        -12    1    3    3    0    0 -0.12344045696E+02 -0.55975376345E+01 -0.30666713379E+01  0.13896487499E+02  0.00000000000E+00 0.  1.
</event>
<event>
 7    1  0.5504027E-010  0.4778727E+02  0.7816164E-02  0.1312668E+00
        -11   -1    0    0    0    0  0.00000000000E+00  0.00000000000E+00  0.45593999997E+02  0.45594000000E+02  0.51100000000E-03 0.  1.
         11   -1    0    0    0    0 -0.00000000000E+00 -0.00000000000E+00 -0.45593999997E+02  0.45594000000E+02  0.51100000000E-03 0. -1.
    9900012    2    1    2    0    0 -0.20043684224E+02  0.33264245360E+01  0.38351132776E+02  0.47787265413E+02  0.19999974325E+02 0.  0.
         12    1    1    2    0    0  0.20043684224E+02 -0.33264245360E+01 -0.38351132776E+02  0.43400734587E+02  0.00000000000E+00 0. -1.
         11    1    3    3    0    0  0.12447549594E+01 -0.54140880249E+00  0.12970396371E+02  0.13041231563E+02  0.51100000000E-03 0. -1.
        -11    1    3    3    0    0 -0.13774816458E+02  0.64809252296E+01  0.12942157269E+02  0.19981176025E+02  0.51100000000E-03 0.  1.
        -12    1    3    3    0    0 -0.75136227259E+01 -0.26130918911E+01  0.12438579135E+02  0.14764857825E+02  0.00000000000E+00 0.  1.
</event>
<event>
 7    1  0.5504027E-010  0.4778727E+02  0.7816164E-02  0.1312668E+00
        -11   -1    0    0    0    0  0.00000000000E+00  0.00000000000E+00  0.45593999997E+02  0.45594000000E+02  0.51100000000E-03 0.  1.
         11   -1    0    0    0    0 -0.00000000000E+00 -0.00000000000E+00 -0.45593999997E+02  0.45594000000E+02  0.51100000000E-03 0. -1.
    9900012    2    1    2    0    0 -0.18158916971E+02  0.42474446087E+01  0.39189743664E+02  0.47787273512E+02  0.20000011249E+02 0.  0.
         12    1    1    2    0    0  0.18158916971E+02 -0.42474446087E+01 -0.39189743664E+02  0.43400726488E+02  0.00000000000E+00 0. -1.
         11    1    3    3    0    0 -0.33599139573E+01  0.39439448961E+01  0.13072421418E+01  0.53434638038E+01  0.51100000000E-03 0. -1.
        -11    1    3    3    0    0 -0.12497091843E+02  0.51520013585E+00  0.38120456374E+02  0.40119969219E+02  0.51100000000E-03 0.  1.
        -12    1    3    3    0    0 -0.23019111707E+01 -0.21170042328E+00 -0.23795485149E+00  0.23238404890E+01  0.00000000000E+00 0.  1.
</event>
<event>
 7    1  0.5504027E-010  0.4778727E+02  0.7816164E-02  0.1312668E+00
        -11   -1    0    0    0    0  0.00000000000E+00  0.00000000000E+00  0.45593999997E+02  0.45594000000E+02  0.51100000000E-03 0. -1.
         11   -1    0    0    0    0 -0.00000000000E+00 -0.00000000000E+00 -0.45593999997E+02  0.45594000000E+02  0.51100000000E-03 0.  1.
    9900012    2    1    2    0    0 -0.41506318008E+02  0.42457240647E+01 -0.11950856987E+02  0.47787267401E+02  0.19999983387E+02 0.  0.
         12    1    1    2    0    0  0.41506318008E+02 -0.42457240647E+01  0.11950856987E+02  0.43400732599E+02  0.00000000000E+00 0. -1.
         11    1    3    3    0    0 -0.91522235990E+01 -0.40350323931E+01  0.21531888162E+01  0.10231368704E+02  0.51100000000E-03 0. -1.
        -11    1    3    3    0    0 -0.31528134830E+02  0.66516725988E+01 -0.14975501656E+02  0.35532150010E+02  0.51100000000E-03 0.  1.
        -12    1    3    3    0    0 -0.82595957869E+00  0.16290838589E+01  0.87145585204E+00  0.20237486867E+01  0.00000000000E+00 0.  1.
</event>
<event>
 7    1  0.5504027E-010  0.4778727E+02  0.7816164E-02  0.1312668E+00
        -11   -1    0    0    0    0  0.00000000000E+00  0.00000000000E+00  0.45593999997E+02  0.45594000000E+02  0.51100000000E-03 0. -1.
         11   -1    0    0    0    0 -0.00000000000E+00 -0.00000000000E+00 -0.45593999997E+02  0.45594000000E+02  0.51100000000E-03 0.  1.
    9900012    2    1    2    0    0 -0.23317206645E+02  0.27633186515E+02 -0.24007040295E+02  0.47787272973E+02  0.20000008795E+02 0.  0.
         12    1    1    2    0    0  0.23317206645E+02 -0.27633186515E+02  0.24007040295E+02  0.43400727027E+02  0.00000000000E+00 0. -1.
         11    1    3    3    0    0 -0.44322448743E+01  0.21139458380E+00 -0.80393423875E+00  0.45095224600E+01  0.51100000000E-03 0. -1.
        -11    1    3    3    0    0 -0.69474468356E+01  0.21242112334E+02 -0.18576358492E+02  0.29061580292E+02  0.51100000000E-03 0.  1.
        -12    1    3    3    0    0 -0.11937514935E+02  0.61796795964E+01 -0.46267475644E+01  0.14216170222E+02  0.00000000000E+00 0.  1.
</event>
<event>
 7    1  0.5504027E-010  0.4778726E+02  0.7816164E-02  0.1312668E+00
        -11   -1    0    0    0    0  0.00000000000E+00  0.00000000000E+00  0.45593999997E+02  0.45594000000E+02  0.51100000000E-03 0.  1.
         11   -1    0    0    0    0 -0.00000000000E+00 -0.00000000000E+00 -0.45593999997E+02  0.45594000000E+02  0.51100000000E-03 0. -1.
    9900012    2    1    2    0    0 -0.21615836037E+02  0.95582328304E+01  0.36400824163E+02  0.47787260581E+02  0.19999952291E+02 0.  0.
         12    1    1    2    0    0  0.21615836037E+02 -0.95582328304E+01 -0.36400824163E+02  0.43400739419E+02  0.00000000000E+00 0. -1.
         11    1    3    3    0    0 -0.45344842494E+01  0.86533955976E+01  0.14364241668E+02  0.17371650519E+02  0.51100000000E-03 0. -1.
        -11    1    3    3    0    0 -0.45559431378E+01 -0.42480294217E+01  0.26566501209E+01  0.67720131400E+01  0.51100000000E-03 0.  1.
        -12    1    3    3    0    0 -0.12525408649E+02  0.51528666545E+01  0.19379932374E+02  0.23643596922E+02  0.00000000000E+00 0.  1.
</event>
<event>
 7    1  0.5504027E-010  0.4778727E+02  0.7816164E-02  0.1312668E+00
        -11   -1    0    0    0    0  0.00000000000E+00  0.00000000000E+00  0.45593999997E+02  0.45594000000E+02  0.51100000000E-03 0. -1.
         11   -1    0    0    0    0 -0.00000000000E+00 -0.00000000000E+00 -0.45593999997E+02  0.45594000000E+02  0.51100000000E-03 0.  1.
    9900012    2    1    2    0    0  0.17620904187E+02  0.31185659645E+02 -0.24506763742E+02  0.47787273036E+02  0.20000009082E+02 0.  0.
         12    1    1    2    0    0 -0.17620904187E+02 -0.31185659645E+02  0.24506763742E+02  0.43400726964E+02  0.00000000000E+00 0. -1.
         11    1    3    3    0    0  0.98277362199E+01  0.28875977558E+02 -0.15887505631E+02  0.34392140302E+02  0.51100000000E-03 0. -1.
        -11    1    3    3    0    0  0.81038660391E+01  0.32698827320E+01 -0.60329991925E+01  0.10618938618E+02  0.51100000000E-03 0.  1.
        -12    1    3    3    0    0 -0.31069807237E+00 -0.96020064506E+00 -0.25862589190E+01  0.27761941155E+01  0.00000000000E+00 0.  1.
</event>
<event>
 7    1  0.5504027E-010  0.4778728E+02  0.7816164E-02  0.1312668E+00
        -11   -1    0    0    0    0  0.00000000000E+00  0.00000000000E+00  0.45593999997E+02  0.45594000000E+02  0.51100000000E-03 0. -1.
         11   -1    0    0    0    0 -0.00000000000E+00 -0.00000000000E+00 -0.45593999997E+02  0.45594000000E+02  0.51100000000E-03 0.  1.
    9900012    2    1    2    0    0  0.17404698846E+02 -0.30544389222E+02 -0.25450726471E+02  0.47787277278E+02  0.20000028421E+02 0.  0.
         12    1    1    2    0    0 -0.17404698846E+02  0.30544389222E+02  0.25450726471E+02  0.43400722722E+02  0.00000000000E+00 0. -1.
         11    1    3    3    0    0  0.31418770495E+00  0.13922748095E+01 -0.31023835756E+00  0.14606132817E+01  0.51100000000E-03 0. -1.
        -11    1    3    3    0    0  0.19276773562E+02 -0.29517425642E+02 -0.20923029037E+02  0.40995677331E+02  0.51100000000E-03 0.  1.
        -12    1    3    3    0    0 -0.21862624206E+01 -0.24192383896E+01 -0.42174590773E+01  0.53309866653E+01  0.00000000000E+00 0.  1.
</event>
<event>
 7    1  0.5504027E-010  0.4778727E+02  0.7816164E-02  0.1312668E+00
        -11   -1    0    0    0    0  0.00000000000E+00  0.00000000000E+00  0.45593999997E+02  0.45594000000E+02  0.51100000000E-03 0.  1.
         11   -1    0    0    0    0 -0.00000000000E+00 -0.00000000000E+00 -0.45593999997E+02  0.45594000000E+02  0.51100000000E-03 0. -1.
    9900012    2    1    2    0    0 -0.31614092704E+02 -0.51166654183E+01  0.29291501115E+02  0.47787272355E+02  0.20000005977E+02 0.  0.
         12    1    1    2    0    0  0.31614092704E+02  0.51166654183E+01 -0.29291501115E+02  0.43400727645E+02  0.00000000000E+00 0. -1.
         11    1    3    3    0    0 -0.28431282400E+02 -0.25714257212E+01  0.15606206063E+02  0.32534654096E+02  0.51100000000E-03 0. -1.
        -11    1    3    3    0    0  0.50006790216E+00 -0.28039198728E+00  0.84207114043E+01  0.84402054707E+01  0.51100000000E-03 0.  1.
        -12    1    3    3    0    0 -0.36828782061E+01 -0.22648477099E+01  0.52645836473E+01  0.68124127891E+01  0.00000000000E+00 0.  1.
</event>
<event>
 7    1  0.5504027E-010  0.4778726E+02  0.7816164E-02  0.1312668E+00
        -11   -1    0    0    0    0  0.00000000000E+00  0.00000000000E+00  0.45593999997E+02  0.45594000000E+02  0.51100000000E-03 0.  1.
         11   -1    0    0    0    0 -0.00000000000E+00 -0.00000000000E+00 -0.45593999997E+02  0.45594000000E+02  0.51100000000E-03 0. -1.
    9900012    2    1    2    0    0 -0.74114853155E+01 -0.13001906765E+02  0.40738734584E+02  0.47787260494E+02  0.19999951898E+02 0.  0.
         12    1    1    2    0    0  0.74114853155E+01  0.13001906765E+02 -0.40738734584E+02  0.43400739506E+02  0.00000000000E+00 0. -1.
         11    1    3    3    0    0  0.75357988255E+00 -0.73601807950E+01  0.13829107124E+02  0.15683888169E+02  0.51100000000E-03 0. -1.
        -11    1    3    3    0    0 -0.11837117545E+02 -0.52522015355E+01  0.15989994318E+02  0.20576270101E+02  0.51100000000E-03 0.  1.
        -12    1    3    3    0    0  0.36720523470E+01 -0.38952443433E+00  0.10919633143E+02  0.11527102224E+02  0.00000000000E+00 0.  1.
</event>
<event>
 7    1  0.5504027E-010  0.4778727E+02  0.7816164E-02  0.1312668E+00
        -11   -1    0    0    0    0  0.00000000000E+00  0.00000000000E+00  0.45593999997E+02  0.45594000000E+02  0.51100000000E-03 0.  1.
         11   -1    0    0    0    0 -0.00000000000E+00 -0.00000000000E+00 -0.45593999997E+02  0.45594000000E+02  0.51100000000E-03 0. -1.
    9900012    2    1    2    0    0  0.25978952215E+02 -0.21745913082E+02  0.27126229141E+02  0.47787274184E+02  0.20000014314E+02 0.  0.
         12    1    1    2    0    0 -0.25978952215E+02  0.21745913082E+02 -0.27126229141E+02  0.43400725816E+02  0.00000000000E+00 0. -1.
         11    1    3    3    0    0 -0.45248110883E-01 -0.11876372109E+01 -0.54327132237E+00  0.13067798311E+01  0.51100000000E-03 0. -1.
        -11    1    3    3    0    0  0.20187661836E+02 -0.19766743519E+02  0.13865644874E+02  0.31472558647E+02  0.51100000000E-03 0.  1.
        -12    1    3    3    0    0  0.58365384896E+01 -0.79153235120E+00  0.13803855589E+02  0.15007935705E+02  0.00000000000E+00 0.  1.
</event>
<event>
 7    1  0.5504027E-010  0.4778725E+02  0.7816164E-02  0.1312668E+00
        -11   -1    0    0    0    0  0.00000000000E+00  0.00000000000E+00  0.45593999997E+02  0.45594000000E+02  0.51100000000E-03 0.  1.
         11   -1    0    0    0    0 -0.00000000000E+00 -0.00000000000E+00 -0.45593999997E+02  0.45594000000E+02  0.51100000000E-03 0. -1.
    9900012    2    1    2    0    0  0.42226152404E+02 -0.13129019988E+01 -0.99424915378E+01  0.47787253503E+02  0.19999920021E+02 0.  0.
         12    1    1    2    0    0 -0.42226152404E+02  0.13129019988E+01  0.99424915378E+01  0.43400746497E+02  0.00000000000E+00 0. -1.
         11    1    3    3    0    0  0.11143613102E+02  0.35024442758E+01 -0.55853886976E+01  0.12947733239E+02  0.51100000000E-03 0. -1.
        -11    1    3    3    0    0  0.21510591384E+02 -0.91826811323E+01 -0.61094404488E+01  0.24173382827E+02  0.51100000000E-03 0.  1.
        -12    1    3    3    0    0  0.95719479185E+01  0.43673348577E+01  0.17523376086E+01  0.10666137436E+02  0.00000000000E+00 0.  1.
</event>
<event>
 7    1  0.5504027E-010  0.4778727E+02  0.7816164E-02  0.1312668E+00
        -11   -1    0    0    0    0  0.00000000000E+00  0.00000000000E+00  0.45593999997E+02  0.45594000000E+02  0.51100000000E-03 0.  1.
         11   -1    0    0    0    0 -0.00000000000E+00 -0.00000000000E+00 -0.45593999997E+02  0.45594000000E+02  0.51100000000E-03 0. -1.
    9900012    2    1    2    0    0 -0.39331139965E+02  0.17864409734E+01  0.18261799463E+02  0.47787271182E+02  0.20000000628E+02 0.  0.
         12    1    1    2    0    0  0.39331139965E+02 -0.17864409734E+01 -0.18261799463E+02  0.43400728818E+02  0.00000000000E+00 0. -1.
         11    1    3    3    0    0 -0.51123898171E+01 -0.39595695581E+01  0.32179625431E+01  0.72228805831E+01  0.51100000000E-03 0. -1.
        -11    1    3    3    0    0 -0.27302032361E+02  0.89359869208E+01  0.71682893004E+01  0.29608059799E+02  0.51100000000E-03 0.  1.
        -12    1    3    3    0    0 -0.69167177870E+01 -0.31899763893E+01  0.78755476191E+01  0.10956330800E+02  0.00000000000E+00 0.  1.
</event>
<event>
 7    1  0.5504027E-010  0.4778727E+02  0.7816164E-02  0.1312668E+00
        -11   -1    0    0    0    0  0.00000000000E+00  0.00000000000E+00  0.45593999997E+02  0.45594000000E+02  0.51100000000E-03 0.  1.
         11   -1    0    0    0    0 -0.00000000000E+00 -0.00000000000E+00 -0.45593999997E+02  0.45594000000E+02  0.51100000000E-03 0. -1.
    9900012    2    1    2    0    0  0.27176350041E+02 -0.30132487658E+02  0.15398121737E+02  0.47787274579E+02  0.20000016117E+02 0.  0.
         12    1    1    2    0    0 -0.27176350041E+02  0.30132487658E+02 -0.15398121737E+02  0.43400725421E+02  0.00000000000E+00 0. -1.
         11    1    3    3    0    0  0.26845518893E+01  0.19734382647E+01 -0.18899160654E+01  0.38305430981E+01  0.51100000000E-03 0. -1.
        -11    1    3    3    0    0  0.99525389647E+01 -0.12021223441E+02  0.72214607127E+01  0.17196288552E+02  0.51100000000E-03 0.  1.
         12    1    3    3    0    0  0.14539259187E+02 -0.20084702481E+02  0.10066577090E+02  0.26760442930E+02  0.00000000000E+00 0. -1.
</event>
<event>
 7    1  0.5504027E-010  0.4778726E+02  0.7816164E-02  0.1312668E+00
        -11   -1    0    0    0    0  0.00000000000E+00  0.00000000000E+00  0.45593999997E+02  0.45594000000E+02  0.51100000000E-03 0.  1.
         11   -1    0    0    0    0 -0.00000000000E+00 -0.00000000000E+00 -0.45593999997E+02  0.45594000000E+02  0.51100000000E-03 0. -1.
    9900012    2    1    2    0    0  0.26683240518E+02  0.14892511248E+02  0.30819508427E+02  0.47787259044E+02  0.19999945287E+02 0.  0.
         12    1    1    2    0    0 -0.26683240518E+02 -0.14892511248E+02 -0.30819508427E+02  0.43400740956E+02  0.00000000000E+00 0. -1.
         11    1    3    3    0    0  0.22160329231E+01  0.81474776757E+01  0.10297289571E+02  0.13316394676E+02  0.51100000000E-03 0. -1.
        -11    1    3    3    0    0  0.24084473446E+02  0.84637325750E+01  0.17425827250E+02  0.30908835078E+02  0.51100000000E-03 0.  1.
        -12    1    3    3    0    0  0.38273414925E+00 -0.17186990025E+01  0.30963916058E+01  0.35620292905E+01  0.00000000000E+00 0.  1.
</event>
<event>
 7    1  0.5504027E-010  0.4778727E+02  0.7816164E-02  0.1312668E+00
        -11   -1    0    0    0    0  0.00000000000E+00  0.00000000000E+00  0.45593999997E+02  0.45594000000E+02  0.51100000000E-03 0.  1.
         11   -1    0    0    0    0 -0.00000000000E+00 -0.00000000000E+00 -0.45593999997E+02  0.45594000000E+02  0.51100000000E-03 0. -1.
    9900012    2    1    2    0    0 -0.42493060945E+02 -0.31798924752E+01  0.82372023175E+01  0.47787269054E+02  0.19999990925E+02 0.  0.
         12    1    1    2    0    0  0.42493060945E+02  0.31798924752E+01 -0.82372023175E+01  0.43400730946E+02  0.00000000000E+00 0. -1.
         11    1    3    3    0    0 -0.24386896751E+01 -0.37156242032E+01  0.26483228790E+01  0.51736529535E+01  0.51100000000E-03 0. -1.
        -11    1    3    3    0    0 -0.21156353517E+02  0.65575868669E+01  0.53120507296E+01  0.22777425730E+02  0.51100000000E-03 0.  1.
        -12    1    3    3    0    0 -0.18898017753E+02 -0.60218551389E+01  0.27682870890E+00  0.19836190371E+02  0.00000000000E+00 0.  1.
</event>
<event>
 7    1  0.5504027E-010  0.4778727E+02  0.7816164E-02  0.1312668E+00
        -11   -1    0    0    0    0  0.00000000000E+00  0.00000000000E+00  0.45593999997E+02  0.45594000000E+02  0.51100000000E-03 0.  1.
         11   -1    0    0    0    0 -0.00000000000E+00 -0.00000000000E+00 -0.45593999997E+02  0.45594000000E+02  0.51100000000E-03 0. -1.
    9900012    2    1    2    0    0 -0.14223054461E+02  0.22815790004E+02  0.34070036737E+02  0.47787274718E+02  0.20000016750E+02 0.  0.
         12    1    1    2    0    0  0.14223054461E+02 -0.22815790004E+02 -0.34070036737E+02  0.43400725282E+02  0.00000000000E+00 0. -1.
         11    1    3    3    0    0 -0.68469613342E+01  0.59446307758E+01  0.43785827345E+01  0.10069334715E+02  0.51100000000E-03 0. -1.
        -11    1    3    3    0    0  0.20469894908E+01  0.10640147975E+02  0.20367186979E+02  0.23070006948E+02  0.51100000000E-03 0.  1.
        -12    1    3    3    0    0 -0.94230826174E+01  0.62310112534E+01  0.93242670240E+01  0.14647933055E+02  0.00000000000E+00 0.  1.
</event>
<event>
 7    1  0.5504027E-010  0.4778727E+02  0.7816164E-02  0.1312668E+00
        -11   -1    0    0    0    0  0.00000000000E+00  0.00000000000E+00  0.45593999997E+02  0.45594000000E+02  0.51100000000E-03 0. -1.
         11   -1    0    0    0    0 -0.00000000000E+00 -0.00000000000E+00 -0.45593999997E+02  0.45594000000E+02  0.51100000000E-03 0.  1.
    9900012    2    1    2    0    0 -0.14698805908E+02  0.37777705993E+01 -0.40660753927E+02  0.47787270102E+02  0.19999995701E+02 0.  0.
         12    1    1    2    0    0  0.14698805908E+02 -0.37777705993E+01  0.40660753927E+02  0.43400729898E+02  0.00000000000E+00 0. -1.
         11    1    3    3    0    0 -0.11866764003E+02  0.45015846691E+01 -0.12920393016E+02  0.18111347504E+02  0.51100000000E-03 0. -1.
        -11    1    3    3    0    0 -0.41131866402E+01  0.22033188153E+01 -0.25102577742E+02  0.25532573855E+02  0.51100000000E-03 0.  1.
         12    1    3    3    0    0  0.12811447350E+01 -0.29271328850E+01 -0.26377831688E+01  0.41433487428E+01  0.00000000000E+00 0. -1.
</event>
<event>
 7    1  0.5504027E-010  0.4778727E+02  0.7816164E-02  0.1312668E+00
        -11   -1    0    0    0    0  0.00000000000E+00  0.00000000000E+00  0.45593999997E+02  0.45594000000E+02  0.51100000000E-03 0. -1.
         11   -1    0    0    0    0 -0.00000000000E+00 -0.00000000000E+00 -0.45593999997E+02  0.45594000000E+02  0.51100000000E-03 0.  1.
    9900012    2    1    2    0    0 -0.32866517982E+02  0.18856450320E+02 -0.21162455020E+02  0.47787271603E+02  0.20000002545E+02 0.  0.
         12    1    1    2    0    0  0.32866517982E+02 -0.18856450320E+02  0.21162455020E+02  0.43400728397E+02  0.00000000000E+00 0. -1.
         11    1    3    3    0    0 -0.35590963486E+01  0.10961698924E+02 -0.66454576650E+01  0.13303688134E+02  0.51100000000E-03 0. -1.
        -11    1    3    3    0    0 -0.13576292844E+02  0.37504756135E+01 -0.10921687753E+02  0.17823160728E+02  0.51100000000E-03 0.  1.
         12    1    3    3    0    0 -0.15731128790E+02  0.41442757828E+01 -0.35953096016E+01  0.16660422741E+02  0.00000000000E+00 0. -1.
</event>
<event>
 7    1  0.5504027E-010  0.4778727E+02  0.7816164E-02  0.1312668E+00
        -11   -1    0    0    0    0  0.00000000000E+00  0.00000000000E+00  0.45593999997E+02  0.45594000000E+02  0.51100000000E-03 0. -1.
         11   -1    0    0    0    0 -0.00000000000E+00 -0.00000000000E+00 -0.45593999997E+02  0.45594000000E+02  0.51100000000E-03 0.  1.
    9900012    2    1    2    0    0 -0.18180695672E+02  0.27821872186E+02 -0.27911095598E+02  0.47787268157E+02  0.19999986833E+02 0.  0.
         12    1    1    2    0    0  0.18180695672E+02 -0.27821872186E+02  0.27911095598E+02  0.43400731843E+02  0.00000000000E+00 0. -1.
         11    1    3    3    0    0 -0.95851689104E+00  0.66726449728E+01  0.79764378542E-02  0.67411430372E+01  0.51100000000E-03 0. -1.
        -11    1    3    3    0    0 -0.12226355049E+02  0.75980808953E+01 -0.19793942396E+02  0.24474777771E+02  0.51100000000E-03 0.  1.
        -12    1    3    3    0    0 -0.49958237322E+01  0.13551146318E+02 -0.81251296399E+01  0.16571347349E+02  0.00000000000E+00 0.  1.
</event>
<event>
 7    1  0.5504027E-010  0.4778727E+02  0.7816164E-02  0.1312668E+00
        -11   -1    0    0    0    0  0.00000000000E+00  0.00000000000E+00  0.45593999997E+02  0.45594000000E+02  0.51100000000E-03 0.  1.
         11   -1    0    0    0    0 -0.00000000000E+00 -0.00000000000E+00 -0.45593999997E+02  0.45594000000E+02  0.51100000000E-03 0. -1.
    9900012    2    1    2    0    0  0.16425285141E+02  0.21976322950E+02  0.33628480866E+02  0.47787268581E+02  0.19999988767E+02 0.  0.
         12    1    1    2    0    0 -0.16425285141E+02 -0.21976322950E+02 -0.33628480866E+02  0.43400731419E+02  0.00000000000E+00 0. -1.
         11    1    3    3    0    0  0.10685998667E+02  0.92731864821E+01  0.54505850119E+01  0.15162171094E+02  0.51100000000E-03 0. -1.
        -11    1    3    3    0    0  0.41266175650E+01  0.12208190749E+01  0.11783629626E+02  0.12544851500E+02  0.51100000000E-03 0.  1.
         12    1    3    3    0    0  0.16126689094E+01  0.11482317393E+02  0.16394266229E+02  0.20080245987E+02  0.00000000000E+00 0. -1.
</event>
<event>
 7    1  0.5504027E-010  0.4778729E+02  0.7816164E-02  0.1312668E+00
        -11   -1    0    0    0    0  0.00000000000E+00  0.00000000000E+00  0.45593999997E+02  0.45594000000E+02  0.51100000000E-03 0.  1.
         11   -1    0    0    0    0 -0.00000000000E+00 -0.00000000000E+00 -0.45593999997E+02  0.45594000000E+02  0.51100000000E-03 0. -1.
    9900012    2    1    2    0    0 -0.12403395414E+02  0.38067918569E+02  0.16751457273E+02  0.47787286150E+02  0.20000068871E+02 0.  0.
         12    1    1    2    0    0  0.12403395414E+02 -0.38067918569E+02 -0.16751457273E+02  0.43400713850E+02  0.00000000000E+00 0. -1.
         11    1    3    3    0    0 -0.36034334488E+01  0.17541236243E+01  0.46220412751E+00  0.40342676195E+01  0.51100000000E-03 0. -1.
        -11    1    3    3    0    0 -0.10172386257E+02  0.30223025485E+02  0.71434361046E+01  0.32679311364E+02  0.51100000000E-03 0.  1.
        -12    1    3    3    0    0  0.13724242922E+01  0.60907694601E+01  0.91458170405E+01  0.11073707166E+02  0.00000000000E+00 0.  1.
</event>
<event>
 7    1  0.5504027E-010  0.4778727E+02  0.7816164E-02  0.1312668E+00
        -11   -1    0    0    0    0  0.00000000000E+00  0.00000000000E+00  0.45593999997E+02  0.45594000000E+02  0.51100000000E-03 0.  1.
         11   -1    0    0    0    0 -0.00000000000E+00 -0.00000000000E+00 -0.45593999997E+02  0.45594000000E+02  0.51100000000E-03 0. -1.
    9900012    2    1    2    0    0  0.13925776489E+02  0.17670175671E+01  0.41067916660E+02  0.47787269814E+02  0.19999994390E+02 0.  0.
         12    1    1    2    0    0 -0.13925776489E+02 -0.17670175671E+01 -0.41067916660E+02  0.43400730186E+02  0.00000000000E+00 0. -1.
         11    1    3    3    0    0  0.28001719778E+01  0.39152811099E+01  0.28507789370E+00  0.48219974017E+01  0.51100000000E-03 0. -1.
        -11    1    3    3    0    0  0.40936964630E+01 -0.35815140654E+01  0.25604591547E+02  0.26175956569E+02  0.51100000000E-03 0.  1.
         12    1    3    3    0    0  0.70319080484E+01  0.14332505227E+01  0.15178247219E+02  0.16789315844E+02  0.00000000000E+00 0. -1.
</event>
<event>
 7    1  0.5504027E-010  0.4778727E+02  0.7816164E-02  0.1312668E+00
        -11   -1    0    0    0    0  0.00000000000E+00  0.00000000000E+00  0.45593999997E+02  0.45594000000E+02  0.51100000000E-03 0.  1.
         11   -1    0    0    0    0 -0.00000000000E+00 -0.00000000000E+00 -0.45593999997E+02  0.45594000000E+02  0.51100000000E-03 0. -1.
    9900012    2    1    2    0    0 -0.39236646189E+02 -0.23110946354E+01 -0.18405641820E+02  0.47787271742E+02  0.20000003179E+02 0.  0.
         12    1    1    2    0    0  0.39236646189E+02  0.23110946354E+01  0.18405641820E+02  0.43400728258E+02  0.00000000000E+00 0. -1.
         11    1    3    3    0    0 -0.42253065184E+01 -0.15880819516E+01 -0.26341190523E+01  0.52262608911E+01  0.51100000000E-03 0. -1.
        -11    1    3    3    0    0 -0.71996725713E+01 -0.40147547446E+01  0.30816591434E+01  0.88005774885E+01  0.51100000000E-03 0.  1.
        -12    1    3    3    0    0 -0.27811667099E+02  0.32917420608E+01 -0.18853181911E+02  0.33760433362E+02  0.00000000000E+00 0.  1.
</event>
<event>
 7    1  0.5504027E-010  0.4778724E+02  0.7816164E-02  0.1312668E+00
        -11   -1    0    0    0    0  0.00000000000E+00  0.00000000000E+00  0.45593999997E+02  0.45594000000E+02  0.51100000000E-03 0. -1.
         11   -1    0    0    0    0 -0.00000000000E+00 -0.00000000000E+00 -0.45593999997E+02  0.45594000000E+02  0.51100000000E-03 0.  1.
    9900012    2    1    2    0    0  0.27014576145E+02 -0.33139872524E+02  0.74556798414E+01  0.47787243818E+02  0.19999875865E+02 0.  0.
         12    1    1    2    0    0 -0.27014576145E+02  0.33139872524E+02 -0.74556798414E+01  0.43400756182E+02  0.00000000000E+00 0. -1.
         11    1    3    3    0    0 -0.49234098904E+00  0.57996264403E+00 -0.12894999491E+01  0.14971862602E+01  0.51100000000E-03 0. -1.
        -11    1    3    3    0    0  0.28426119031E+02 -0.33365705802E+02  0.71454896338E+01  0.44411401567E+02  0.51100000000E-03 0.  1.
        -12    1    3    3    0    0 -0.91920189635E+00 -0.35412936686E+00  0.15996901567E+01  0.18786559909E+01  0.00000000000E+00 0.  1.
</event>
<event>
 7    1  0.5504027E-010  0.4778727E+02  0.7816164E-02  0.1312668E+00
        -11   -1    0    0    0    0  0.00000000000E+00  0.00000000000E+00  0.45593999997E+02  0.45594000000E+02  0.51100000000E-03 0. -1.
         11   -1    0    0    0    0 -0.00000000000E+00 -0.00000000000E+00 -0.45593999997E+02  0.45594000000E+02  0.51100000000E-03 0.  1.
    9900012    2    1    2    0    0  0.33439811406E+02  0.24274334473E+02  0.13272499988E+02  0.47787267783E+02  0.19999985132E+02 0.  0.
         12    1    1    2    0    0 -0.33439811406E+02 -0.24274334473E+02 -0.13272499988E+02  0.43400732217E+02  0.00000000000E+00 0. -1.
         11    1    3    3    0    0  0.11305805750E+02  0.10092179576E+02  0.91493059972E+01  0.17702630673E+02  0.51100000000E-03 0. -1.
        -11    1    3    3    0    0  0.34435903773E+01  0.78205658036E+01 -0.30579452473E+01  0.90758246772E+01  0.51100000000E-03 0.  1.
        -12    1    3    3    0    0  0.18690415279E+02  0.63615890936E+01  0.71811392385E+01  0.21008812433E+02  0.00000000000E+00 0.  1.
</event>
<event>
 7    1  0.5504027E-010  0.4778727E+02  0.7816164E-02  0.1312668E+00
        -11   -1    0    0    0    0  0.00000000000E+00  0.00000000000E+00  0.45593999997E+02  0.45594000000E+02  0.51100000000E-03 0.  1.
         11   -1    0    0    0    0 -0.00000000000E+00 -0.00000000000E+00 -0.45593999997E+02  0.45594000000E+02  0.51100000000E-03 0. -1.
    9900012    2    1    2    0    0 -0.30185416595E+02 -0.30921720986E+02  0.40386755446E+01  0.47787273002E+02  0.20000008926E+02 0.  0.
         12    1    1    2    0    0  0.30185416595E+02  0.30921720986E+02 -0.40386755446E+01  0.43400726998E+02  0.00000000000E+00 0. -1.
         11    1    3    3    0    0 -0.44091760235E+01 -0.16822793994E+02  0.79194077664E+00  0.17409032179E+02  0.51100000000E-03 0. -1.
        -11    1    3    3    0    0 -0.16775233276E+02 -0.12803928191E+02  0.25742386579E+01  0.21259720918E+02  0.51100000000E-03 0.  1.
         12    1    3    3    0    0 -0.90010072960E+01 -0.12949988010E+01  0.67249611008E+00  0.91185199048E+01  0.00000000000E+00 0. -1.
</event>
<event>
 7    1  0.5504027E-010  0.4778727E+02  0.7816164E-02  0.1312668E+00
        -11   -1    0    0    0    0  0.00000000000E+00  0.00000000000E+00  0.45593999997E+02  0.45594000000E+02  0.51100000000E-03 0.  1.
         11   -1    0    0    0    0 -0.00000000000E+00 -0.00000000000E+00 -0.45593999997E+02  0.45594000000E+02  0.51100000000E-03 0. -1.
    9900012    2    1    2    0    0 -0.12876596646E+02 -0.33366199514E+02  0.24586857675E+02  0.47787267500E+02  0.19999983838E+02 0.  0.
         12    1    1    2    0    0  0.12876596646E+02  0.33366199514E+02 -0.24586857675E+02  0.43400732500E+02  0.00000000000E+00 0. -1.
         11    1    3    3    0    0 -0.14494723980E+01 -0.14912257493E+02  0.16267198749E+02  0.22115563506E+02  0.51100000000E-03 0. -1.
        -11    1    3    3    0    0 -0.97235066495E+00 -0.95277352605E+01 -0.49849808235E-01  0.95773529890E+01  0.51100000000E-03 0.  1.
         12    1    3    3    0    0 -0.10454773583E+02 -0.89262067603E+01  0.83695087345E+01  0.16094351005E+02  0.00000000000E+00 0. -1.
</event>
<event>
 7    1  0.5504027E-010  0.4778728E+02  0.7816164E-02  0.1312668E+00
        -11   -1    0    0    0    0  0.00000000000E+00  0.00000000000E+00  0.45593999997E+02  0.45594000000E+02  0.51100000000E-03 0. -1.
         11   -1    0    0    0    0 -0.00000000000E+00 -0.00000000000E+00 -0.45593999997E+02  0.45594000000E+02  0.51100000000E-03 0.  1.
    9900012    2    1    2    0    0  0.50320532678E-01  0.40611099004E+02  0.15308779250E+02  0.47787278616E+02  0.20000034523E+02 0.  0.
         12    1    1    2    0    0 -0.50320532678E-01 -0.40611099004E+02 -0.15308779250E+02  0.43400721384E+02  0.00000000000E+00 0. -1.
         11    1    3    3    0    0 -0.13909382172E+01  0.38215406590E+00 -0.28748784650E+01  0.32164696958E+01  0.51100000000E-03 0. -1.
        -11    1    3    3    0    0  0.36676711676E+01  0.26616578500E+02  0.11179704708E+02  0.29101200327E+02  0.51100000000E-03 0.  1.
         12    1    3    3    0    0 -0.22264124177E+01  0.13612366438E+02  0.70039530073E+01  0.15469608593E+02  0.00000000000E+00 0. -1.
</event>
<event>
 7    1  0.5504027E-010  0.4778728E+02  0.7816164E-02  0.1312668E+00
        -11   -1    0    0    0    0  0.00000000000E+00  0.00000000000E+00  0.45593999997E+02  0.45594000000E+02  0.51100000000E-03 0.  1.
         11   -1    0    0    0    0 -0.00000000000E+00 -0.00000000000E+00 -0.45593999997E+02  0.45594000000E+02  0.51100000000E-03 0. -1.
    9900012    2    1    2    0    0  0.13205881451E+02  0.52489486143E+01  0.41008240794E+02  0.47787279045E+02  0.20000036476E+02 0.  0.
         12    1    1    2    0    0 -0.13205881451E+02 -0.52489486143E+01 -0.41008240794E+02  0.43400720955E+02  0.00000000000E+00 0. -1.
         11    1    3    3    0    0 -0.37928154696E+01  0.14509630609E+01  0.31032245404E+01  0.51108458986E+01  0.51100000000E-03 0. -1.
        -11    1    3    3    0    0  0.23493812759E+01 -0.24304485061E+01  0.99290519099E+01  0.10488696030E+02  0.51100000000E-03 0.  1.
         12    1    3    3    0    0  0.14649315644E+02  0.62284340596E+01  0.27975964344E+02  0.32187737116E+02  0.00000000000E+00 0. -1.
</event>
<event>
 7    1  0.5504027E-010  0.4778725E+02  0.7816164E-02  0.1312668E+00
        -11   -1    0    0    0    0  0.00000000000E+00  0.00000000000E+00  0.45593999997E+02  0.45594000000E+02  0.51100000000E-03 0.  1.
         11   -1    0    0    0    0 -0.00000000000E+00 -0.00000000000E+00 -0.45593999997E+02  0.45594000000E+02  0.51100000000E-03 0. -1.
    9900012    2    1    2    0    0  0.22834975510E+02  0.26338881150E+02  0.25854445309E+02  0.47787249903E+02  0.19999903605E+02 0.  0.
         12    1    1    2    0    0 -0.22834975510E+02 -0.26338881150E+02 -0.25854445309E+02  0.43400750097E+02  0.00000000000E+00 0. -1.
         11    1    3    3    0    0  0.57350662216E+00 -0.29193200863E+01  0.16979203370E+01  0.34255325635E+01  0.51100000000E-03 0. -1.
        -11    1    3    3    0    0  0.13296695167E+02  0.17156556669E+02  0.17561689523E+02  0.27920646093E+02  0.51100000000E-03 0.  1.
        -12    1    3    3    0    0  0.89647737206E+01  0.12101644568E+02  0.65948354487E+01  0.16441071246E+02  0.00000000000E+00 0.  1.
</event>
<event>
 7    1  0.5504027E-010  0.4778728E+02  0.7816164E-02  0.1312668E+00
        -11   -1    0    0    0    0  0.00000000000E+00  0.00000000000E+00  0.45593999997E+02  0.45594000000E+02  0.51100000000E-03 0.  1.
         11   -1    0    0    0    0 -0.00000000000E+00 -0.00000000000E+00 -0.45593999997E+02  0.45594000000E+02  0.51100000000E-03 0. -1.
    9900012    2    1    2    0    0 -0.40340079802E+01  0.67416651038E+00  0.43207580820E+02  0.47787276951E+02  0.20000026928E+02 0.  0.
         12    1    1    2    0    0  0.40340079802E+01 -0.67416651038E+00 -0.43207580820E+02  0.43400723049E+02  0.00000000000E+00 0. -1.
         11    1    3    3    0    0 -0.88500409958E+00 -0.72588237578E+01  0.13457149806E+02  0.15315633704E+02  0.51100000000E-03 0.  1.
        -11    1    3    3    0    0 -0.33879031676E+01  0.67185698771E+01  0.92052995159E+01  0.11889264422E+02  0.51100000000E-03 0. -1.
        -12    1    3    3    0    0  0.23889928689E+00  0.12144203911E+01  0.20545131499E+02  0.20582378824E+02  0.00000000000E+00 0.  1.
</event>
<event>
 7    1  0.5504027E-010  0.4778727E+02  0.7816164E-02  0.1312668E+00
        -11   -1    0    0    0    0  0.00000000000E+00  0.00000000000E+00  0.45593999997E+02  0.45594000000E+02  0.51100000000E-03 0. -1.
         11   -1    0    0    0    0 -0.00000000000E+00 -0.00000000000E+00 -0.45593999997E+02  0.45594000000E+02  0.51100000000E-03 0.  1.
    9900012    2    1    2    0    0 -0.33980810389E+02  0.41429932794E+00 -0.26995489435E+02  0.47787267650E+02  0.19999984524E+02 0.  0.
         12    1    1    2    0    0  0.33980810389E+02 -0.41429932794E+00  0.26995489435E+02  0.43400732350E+02  0.00000000000E+00 0. -1.
         11    1    3    3    0    0 -0.96949867169E+01  0.59068591475E+01 -0.12432571983E+02  0.16836050571E+02  0.51100000000E-03 0. -1.
        -11    1    3    3    0    0 -0.19438219168E+02 -0.89016140570E+01 -0.11653536181E+02  0.24349291633E+02  0.51100000000E-03 0.  1.
         12    1    3    3    0    0 -0.48476045048E+01  0.34090542374E+01 -0.29093812707E+01  0.66019254469E+01  0.00000000000E+00 0. -1.
</event>
<event>
 7    1  0.5504027E-010  0.4778727E+02  0.7816164E-02  0.1312668E+00
        -11   -1    0    0    0    0  0.00000000000E+00  0.00000000000E+00  0.45593999997E+02  0.45594000000E+02  0.51100000000E-03 0.  1.
         11   -1    0    0    0    0 -0.00000000000E+00 -0.00000000000E+00 -0.45593999997E+02  0.45594000000E+02  0.51100000000E-03 0. -1.
    9900012    2    1    2    0    0 -0.57308158336E+01  0.14547866057E+01  0.42996101693E+02  0.47787269419E+02  0.19999992588E+02 0.  0.
         12    1    1    2    0    0  0.57308158336E+01 -0.14547866057E+01 -0.42996101693E+02  0.43400730581E+02  0.00000000000E+00 0. -1.
         11    1    3    3    0    0 -0.92271384652E+01  0.64257213121E+01  0.22354868540E+02  0.25023391583E+02  0.51100000000E-03 0. -1.
        -11    1    3    3    0    0  0.49524141799E+01 -0.48044592003E+01  0.10812726463E+02  0.12826702158E+02  0.51100000000E-03 0.  1.
        -12    1    3    3    0    0 -0.14560915484E+01 -0.16647550607E+00  0.98285066902E+01  0.99371756778E+01  0.00000000000E+00 0.  1.
</event>
<event>
 7    1  0.5504027E-010  0.4778727E+02  0.7816164E-02  0.1312668E+00
        -11   -1    0    0    0    0  0.00000000000E+00  0.00000000000E+00  0.45593999997E+02  0.45594000000E+02  0.51100000000E-03 0.  1.
         11   -1    0    0    0    0 -0.00000000000E+00 -0.00000000000E+00 -0.45593999997E+02  0.45594000000E+02  0.51100000000E-03 0. -1.
    9900012    2    1    2    0    0  0.17501948237E+02 -0.37765437526E+02  0.12291329024E+02  0.47787271518E+02  0.20000002159E+02 0.  0.
         12    1    1    2    0    0 -0.17501948237E+02  0.37765437526E+02 -0.12291329024E+02  0.43400728482E+02  0.00000000000E+00 0. -1.
         11    1    3    3    0    0  0.61833628029E+01 -0.27118771402E+02  0.22317568615E+01  0.27904165941E+02  0.51100000000E-03 0. -1.
        -11    1    3    3    0    0  0.79044484365E+01 -0.10905473753E+02  0.93233390819E+01  0.16380913124E+02  0.51100000000E-03 0.  1.
         12    1    3    3    0    0  0.34141369981E+01  0.25880762971E+00  0.73623308036E+00  0.35021924532E+01  0.00000000000E+00 0. -1.
</event>
<event>
 7    1  0.5504027E-010  0.4778727E+02  0.7816164E-02  0.1312668E+00
        -11   -1    0    0    0    0  0.00000000000E+00  0.00000000000E+00  0.45593999997E+02  0.45594000000E+02  0.51100000000E-03 0.  1.
         11   -1    0    0    0    0 -0.00000000000E+00 -0.00000000000E+00 -0.45593999997E+02  0.45594000000E+02  0.51100000000E-03 0. -1.
    9900012    2    1    2    0    0  0.25310435690E+02 -0.15275185154E+01  0.35223172118E+02  0.47787270493E+02  0.19999997487E+02 0.  0.
         12    1    1    2    0    0 -0.25310435690E+02  0.15275185154E+01 -0.35223172118E+02  0.43400729507E+02  0.00000000000E+00 0. -1.
         11    1    3    3    0    0  0.85715969657E+01 -0.64766383529E+01  0.22462450762E+02  0.24899413916E+02  0.51100000000E-03 0. -1.
        -11    1    3    3    0    0  0.12952010319E+02  0.42662160200E+01  0.13244337591E+02  0.19009672509E+02  0.51100000000E-03 0.  1.
         12    1    3    3    0    0  0.37868284057E+01  0.68290381748E+00 -0.48361623465E+00  0.38781840674E+01  0.00000000000E+00 0. -1.
</event>
<event>
 7    1  0.5504027E-010  0.4778727E+02  0.7816164E-02  0.1312668E+00
        -11   -1    0    0    0    0  0.00000000000E+00  0.00000000000E+00  0.45593999997E+02  0.45594000000E+02  0.51100000000E-03 0.  1.
         11   -1    0    0    0    0 -0.00000000000E+00 -0.00000000000E+00 -0.45593999997E+02  0.45594000000E+02  0.51100000000E-03 0. -1.
    9900012    2    1    2    0    0  0.77684406278E+01  0.29750564389E+01  0.42596053162E+02  0.47787269873E+02  0.19999994658E+02 0.  0.
         12    1    1    2    0    0 -0.77684406278E+01 -0.29750564389E+01 -0.42596053162E+02  0.43400730127E+02  0.00000000000E+00 0. -1.
         11    1    3    3    0    0 -0.54734045521E+00  0.85727471211E+01  0.23621348846E+02  0.25134830342E+02  0.51100000000E-03 0. -1.
        -11    1    3    3    0    0  0.84853238302E+01 -0.19915260863E+01  0.12488518648E+02  0.15229248010E+02  0.51100000000E-03 0.  1.
         12    1    3    3    0    0 -0.16954274718E+00 -0.36061645959E+01  0.64861856678E+01  0.74231915207E+01  0.00000000000E+00 0. -1.
</event>
<event>
 7    1  0.5504027E-010  0.4778728E+02  0.7816164E-02  0.1312668E+00
        -11   -1    0    0    0    0  0.00000000000E+00  0.00000000000E+00  0.45593999997E+02  0.45594000000E+02  0.51100000000E-03 0.  1.
         11   -1    0    0    0    0 -0.00000000000E+00 -0.00000000000E+00 -0.45593999997E+02  0.45594000000E+02  0.51100000000E-03 0. -1.
    9900012    2    1    2    0    0 -0.40196506788E+02  0.15064023352E+02  0.63983460883E+01  0.47787276617E+02  0.20000025408E+02 0.  0.
         12    1    1    2    0    0  0.40196506788E+02 -0.15064023352E+02 -0.63983460883E+01  0.43400723383E+02  0.00000000000E+00 0. -1.
         11    1    3    3    0    0 -0.63177785724E+01  0.64632931419E-01 -0.30757049604E+01  0.70269811989E+01  0.51100000000E-03 0. -1.
        -11    1    3    3    0    0 -0.27861650765E+02  0.13386978697E+02  0.13077885820E+02  0.33563579662E+02  0.51100000000E-03 0.  1.
        -12    1    3    3    0    0 -0.60170774508E+01  0.16124117238E+01 -0.36038347710E+01  0.71967157560E+01  0.00000000000E+00 0.  1.
</event>
<event>
 7    1  0.5504027E-010  0.4778727E+02  0.7816164E-02  0.1312668E+00
        -11   -1    0    0    0    0  0.00000000000E+00  0.00000000000E+00  0.45593999997E+02  0.45594000000E+02  0.51100000000E-03 0.  1.
         11   -1    0    0    0    0 -0.00000000000E+00 -0.00000000000E+00 -0.45593999997E+02  0.45594000000E+02  0.51100000000E-03 0. -1.
    9900012    2    1    2    0    0 -0.22303649571E+02 -0.33884483611E+02 -0.15427661561E+02  0.47787265502E+02  0.19999974728E+02 0.  0.
         12    1    1    2    0    0  0.22303649571E+02  0.33884483611E+02  0.15427661561E+02  0.43400734498E+02  0.00000000000E+00 0. -1.
         11    1    3    3    0    0 -0.26770116091E+00 -0.11352419037E+02  0.16498359724E+01  0.11474800256E+02  0.51100000000E-03 0. -1.
        -11    1    3    3    0    0 -0.12542298913E+02 -0.86837574648E+01 -0.82757413889E+01  0.17355252851E+02  0.51100000000E-03 0.  1.
         12    1    3    3    0    0 -0.94936494975E+01 -0.13848307109E+02 -0.88017561446E+01  0.18957212395E+02  0.00000000000E+00 0. -1.
</event>
<event>
 7    1  0.5504027E-010  0.4778728E+02  0.7816164E-02  0.1312668E+00
        -11   -1    0    0    0    0  0.00000000000E+00  0.00000000000E+00  0.45593999997E+02  0.45594000000E+02  0.51100000000E-03 0.  1.
         11   -1    0    0    0    0 -0.00000000000E+00 -0.00000000000E+00 -0.45593999997E+02  0.45594000000E+02  0.51100000000E-03 0. -1.
    9900012    2    1    2    0    0  0.59732599078E+01  0.32897893821E+02  0.27670765707E+02  0.47787279654E+02  0.20000039252E+02 0.  0.
         12    1    1    2    0    0 -0.59732599078E+01 -0.32897893821E+02 -0.27670765707E+02  0.43400720346E+02  0.00000000000E+00 0. -1.
         11    1    3    3    0    0  0.41150837911E+01  0.26585505667E+01  0.85212517680E+01  0.98292185691E+01  0.51100000000E-03 0.  1.
        -11    1    3    3    0    0  0.11993081814E+01  0.10712767415E+02  0.26114027337E+00  0.10782853069E+02  0.51100000000E-03 0. -1.
        -12    1    3    3    0    0  0.65886793526E+00  0.19526575839E+02  0.18888373666E+02  0.27175208016E+02  0.00000000000E+00 0.  1.
</event>
<event>
 7    1  0.5504027E-010  0.4778727E+02  0.7816164E-02  0.1312668E+00
        -11   -1    0    0    0    0  0.00000000000E+00  0.00000000000E+00  0.45593999997E+02  0.45594000000E+02  0.51100000000E-03 0.  1.
         11   -1    0    0    0    0 -0.00000000000E+00 -0.00000000000E+00 -0.45593999997E+02  0.45594000000E+02  0.51100000000E-03 0. -1.
    9900012    2    1    2    0    0 -0.18345127296E+02  0.30526782478E+02  0.24803127016E+02  0.47787271277E+02  0.20000001059E+02 0.  0.
         12    1    1    2    0    0  0.18345127296E+02 -0.30526782478E+02 -0.24803127016E+02  0.43400728723E+02  0.00000000000E+00 0. -1.
         11    1    3    3    0    0 -0.10448966101E+02  0.11038409641E+02  0.18896973613E+02  0.24251247226E+02  0.51100000000E-03 0. -1.
        -11    1    3    3    0    0 -0.64812717058E+01  0.94747639111E+01  0.68683088812E+01  0.13377283029E+02  0.51100000000E-03 0.  1.
         12    1    3    3    0    0 -0.14148894892E+01  0.10013608926E+02 -0.96215547903E+00  0.10158741022E+02  0.00000000000E+00 0. -1.
</event>
<event>
 7    1  0.5504027E-010  0.4778728E+02  0.7816164E-02  0.1312668E+00
        -11   -1    0    0    0    0  0.00000000000E+00  0.00000000000E+00  0.45593999997E+02  0.45594000000E+02  0.51100000000E-03 0.  1.
         11   -1    0    0    0    0 -0.00000000000E+00 -0.00000000000E+00 -0.45593999997E+02  0.45594000000E+02  0.51100000000E-03 0. -1.
    9900012    2    1    2    0    0  0.64850749149E+01  0.19481137390E+02  0.38236786771E+02  0.47787276812E+02  0.20000026297E+02 0.  0.
         12    1    1    2    0    0 -0.64850749149E+01 -0.19481137390E+02 -0.38236786771E+02  0.43400723188E+02  0.00000000000E+00 0. -1.
         11    1    3    3    0    0 -0.29228152232E+01  0.65216345298E+01  0.55959093558E+01  0.90768258520E+01  0.51100000000E-03 0. -1.
        -11    1    3    3    0    0  0.85269224949E+01  0.35215143187E+01  0.24625402019E+02  0.26296765869E+02  0.51100000000E-03 0.  1.
        -12    1    3    3    0    0  0.88096764320E+00  0.94379885419E+01  0.80154753966E+01  0.12413685091E+02  0.00000000000E+00 0.  1.
</event>
<event>
 7    1  0.5504027E-010  0.4778727E+02  0.7816164E-02  0.1312668E+00
        -11   -1    0    0    0    0  0.00000000000E+00  0.00000000000E+00  0.45593999997E+02  0.45594000000E+02  0.51100000000E-03 0.  1.
         11   -1    0    0    0    0 -0.00000000000E+00 -0.00000000000E+00 -0.45593999997E+02  0.45594000000E+02  0.51100000000E-03 0. -1.
    9900012    2    1    2    0    0 -0.11668842085E+02  0.21202300815E+02  0.36026715381E+02  0.47787266636E+02  0.19999979898E+02 0.  0.
         12    1    1    2    0    0  0.11668842085E+02 -0.21202300815E+02 -0.36026715381E+02  0.43400733364E+02  0.00000000000E+00 0. -1.
         11    1    3    3    0    0 -0.67343304027E+01  0.54203922685E+01  0.34004594918E+01  0.92895093161E+01  0.51100000000E-03 0. -1.
        -11    1    3    3    0    0  0.30223034675E+01  0.45016773001E+01  0.15966772493E+02  0.16862302359E+02  0.51100000000E-03 0.  1.
         12    1    3    3    0    0 -0.79568151501E+01  0.11280231246E+02  0.16659483396E+02  0.21635454960E+02  0.00000000000E+00 0. -1.
</event>
<event>
 7    1  0.5504027E-010  0.4778727E+02  0.7816164E-02  0.1312668E+00
        -11   -1    0    0    0    0  0.00000000000E+00  0.00000000000E+00  0.45593999997E+02  0.45594000000E+02  0.51100000000E-03 0.  1.
         11   -1    0    0    0    0 -0.00000000000E+00 -0.00000000000E+00 -0.45593999997E+02  0.45594000000E+02  0.51100000000E-03 0. -1.
    9900012    2    1    2    0    0 -0.19452949212E+02  0.90912289221E+01  0.37716779375E+02  0.47787272786E+02  0.20000007939E+02 0.  0.
         12    1    1    2    0    0  0.19452949212E+02 -0.90912289221E+01 -0.37716779375E+02  0.43400727214E+02  0.00000000000E+00 0. -1.
         11    1    3    3    0    0 -0.13771264335E+02 -0.11688809965E+01  0.16072050465E+02  0.21197283095E+02  0.51100000000E-03 0. -1.
        -11    1    3    3    0    0  0.10046713386E+00  0.87808639870E+01  0.88282684829E+01  0.12451987418E+02  0.51100000000E-03 0.  1.
        -12    1    3    3    0    0 -0.57821520105E+01  0.14792459317E+01  0.12816460426E+02  0.14138002273E+02  0.00000000000E+00 0.  1.
</event>
<event>
 7    1  0.5504027E-010  0.4778727E+02  0.7816164E-02  0.1312668E+00
        -11   -1    0    0    0    0  0.00000000000E+00  0.00000000000E+00  0.45593999997E+02  0.45594000000E+02  0.51100000000E-03 0.  1.
         11   -1    0    0    0    0 -0.00000000000E+00 -0.00000000000E+00 -0.45593999997E+02  0.45594000000E+02  0.51100000000E-03 0. -1.
    9900012    2    1    2    0    0  0.24841973173E+02  0.31997578278E+02 -0.15577374949E+02  0.47787271238E+02  0.20000000883E+02 0.  0.
         12    1    1    2    0    0 -0.24841973173E+02 -0.31997578278E+02  0.15577374949E+02  0.43400728762E+02  0.00000000000E+00 0. -1.
         11    1    3    3    0    0 -0.66133876338E+00  0.60846018021E+01 -0.31649417191E+01  0.68903268715E+01  0.51100000000E-03 0. -1.
        -11    1    3    3    0    0  0.17719712021E+02  0.22422758092E+02 -0.38967257816E+01  0.28843591085E+02  0.51100000000E-03 0.  1.
        -12    1    3    3    0    0  0.77835999148E+01  0.34902183838E+01 -0.85157074479E+01  0.12053353282E+02  0.00000000000E+00 0.  1.
</event>
<event>
 7    1  0.5504027E-010  0.4778727E+02  0.7816164E-02  0.1312668E+00
        -11   -1    0    0    0    0  0.00000000000E+00  0.00000000000E+00  0.45593999997E+02  0.45594000000E+02  0.51100000000E-03 0.  1.
         11   -1    0    0    0    0 -0.00000000000E+00 -0.00000000000E+00 -0.45593999997E+02  0.45594000000E+02  0.51100000000E-03 0. -1.
    9900012    2    1    2    0    0 -0.32705029855E+02  0.21164334390E+02  0.19133100777E+02  0.47787267594E+02  0.19999984270E+02 0.  0.
         12    1    1    2    0    0  0.32705029855E+02 -0.21164334390E+02 -0.19133100777E+02  0.43400732406E+02  0.00000000000E+00 0. -1.
         11    1    3    3    0    0 -0.26828798588E+02  0.10495977009E+02  0.58272480803E+01  0.29392291293E+02  0.51100000000E-03 0. -1.
        -11    1    3    3    0    0 -0.38302085735E+01  0.40935478079E+01  0.76496270729E+01  0.94839035206E+01  0.51100000000E-03 0.  1.
         12    1    3    3    0    0 -0.20460226939E+01  0.65748095734E+01  0.56562256236E+01  0.89110727803E+01  0.00000000000E+00 0. -1.
</event>
<event>
 7    1  0.5504027E-010  0.4778727E+02  0.7816164E-02  0.1312668E+00
        -11   -1    0    0    0    0  0.00000000000E+00  0.00000000000E+00  0.45593999997E+02  0.45594000000E+02  0.51100000000E-03 0.  1.
         11   -1    0    0    0    0 -0.00000000000E+00 -0.00000000000E+00 -0.45593999997E+02  0.45594000000E+02  0.51100000000E-03 0. -1.
    9900012    2    1    2    0    0  0.20927861314E+02  0.30706418624E+02  0.22422392874E+02  0.47787271595E+02  0.20000002512E+02 0.  0.
         12    1    1    2    0    0 -0.20927861314E+02 -0.30706418624E+02 -0.22422392874E+02  0.43400728405E+02  0.00000000000E+00 0. -1.
         11    1    3    3    0    0  0.50514786555E+01  0.10754378794E+02  0.41757160727E+01  0.12594074195E+02  0.51100000000E-03 0. -1.
        -11    1    3    3    0    0  0.68540448005E+00  0.75627381066E+01 -0.10743322275E+01  0.76693530996E+01  0.51100000000E-03 0.  1.
        -12    1    3    3    0    0  0.15190978178E+02  0.12389301723E+02  0.19321009029E+02  0.27523844300E+02  0.00000000000E+00 0.  1.
</event>
<event>
 7    1  0.5504027E-010  0.4778727E+02  0.7816164E-02  0.1312668E+00
        -11   -1    0    0    0    0  0.00000000000E+00  0.00000000000E+00  0.45593999997E+02  0.45594000000E+02  0.51100000000E-03 0.  1.
         11   -1    0    0    0    0 -0.00000000000E+00 -0.00000000000E+00 -0.45593999997E+02  0.45594000000E+02  0.51100000000E-03 0. -1.
    9900012    2    1    2    0    0 -0.65352090593E+01 -0.41803742698E+02 -0.96623794778E+01  0.47787269151E+02  0.19999991369E+02 0.  0.
         12    1    1    2    0    0  0.65352090593E+01  0.41803742698E+02  0.96623794778E+01  0.43400730849E+02  0.00000000000E+00 0. -1.
         11    1    3    3    0    0 -0.98077889060E+01 -0.21487257910E+02 -0.75102736940E+01  0.24785059753E+02  0.51100000000E-03 0. -1.
        -11    1    3    3    0    0  0.48858916018E+01 -0.16006040537E+02 -0.51498002805E+01  0.17509589190E+02  0.51100000000E-03 0.  1.
        -12    1    3    3    0    0 -0.16133117550E+01 -0.43104442511E+01  0.29976944967E+01  0.54926202087E+01  0.00000000000E+00 0.  1.
</event>
<event>
 7    1  0.5504027E-010  0.4778727E+02  0.7816164E-02  0.1312668E+00
        -11   -1    0    0    0    0  0.00000000000E+00  0.00000000000E+00  0.45593999997E+02  0.45594000000E+02  0.51100000000E-03 0.  1.
         11   -1    0    0    0    0 -0.00000000000E+00 -0.00000000000E+00 -0.45593999997E+02  0.45594000000E+02  0.51100000000E-03 0. -1.
    9900012    2    1    2    0    0  0.87625969813E+01 -0.12780878950E+02  0.40539972273E+02  0.47787270461E+02  0.19999997341E+02 0.  0.
         12    1    1    2    0    0 -0.87625969813E+01  0.12780878950E+02 -0.40539972273E+02  0.43400729539E+02  0.00000000000E+00 0. -1.
         11    1    3    3    0    0 -0.90442822028E+00  0.53087702735E+00  0.89487746615E+00  0.13786322078E+01  0.51100000000E-03 0. -1.
        -11    1    3    3    0    0 -0.48604140340E+01 -0.95472615705E+00  0.99806715534E+01  0.11142213942E+02  0.51100000000E-03 0.  1.
        -12    1    3    3    0    0  0.14527439236E+02 -0.12357029820E+02  0.29664423254E+02  0.35266424311E+02  0.00000000000E+00 0.  1.
</event>
<event>
 7    1  0.5504027E-010  0.4778727E+02  0.7816164E-02  0.1312668E+00
        -11   -1    0    0    0    0  0.00000000000E+00  0.00000000000E+00  0.45593999997E+02  0.45594000000E+02  0.51100000000E-03 0. -1.
         11   -1    0    0    0    0 -0.00000000000E+00 -0.00000000000E+00 -0.45593999997E+02  0.45594000000E+02  0.51100000000E-03 0.  1.
    9900012    2    1    2    0    0  0.23973164090E+02 -0.31295405284E+02 -0.18152363716E+02  0.47787270780E+02  0.19999998795E+02 0.  0.
         12    1    1    2    0    0 -0.23973164090E+02  0.31295405284E+02  0.18152363716E+02  0.43400729220E+02  0.00000000000E+00 0. -1.
         11    1    3    3    0    0  0.71859797024E+00 -0.52046189254E+01 -0.49244121873E+01  0.72009913798E+01  0.51100000000E-03 0. -1.
        -11    1    3    3    0    0  0.75730952628E+01 -0.18318139062E+02 -0.23050773372E+01  0.19955434657E+02  0.51100000000E-03 0.  1.
        -12    1    3    3    0    0  0.15681470857E+02 -0.77726472961E+01 -0.10922874191E+02  0.20630844743E+02  0.00000000000E+00 0.  1.
</event>
<event>
 7    1  0.5504027E-010  0.4778727E+02  0.7816164E-02  0.1312668E+00
        -11   -1    0    0    0    0  0.00000000000E+00  0.00000000000E+00  0.45593999997E+02  0.45594000000E+02  0.51100000000E-03 0.  1.
         11   -1    0    0    0    0 -0.00000000000E+00 -0.00000000000E+00 -0.45593999997E+02  0.45594000000E+02  0.51100000000E-03 0. -1.
    9900012    2    1    2    0    0 -0.33953271820E+02  0.18802003966E+02  0.19423779344E+02  0.47787271614E+02  0.20000002597E+02 0.  0.
         12    1    1    2    0    0  0.33953271820E+02 -0.18802003966E+02 -0.19423779344E+02  0.43400728386E+02  0.00000000000E+00 0. -1.
         11    1    3    3    0    0 -0.24677480294E+01  0.19859087112E+00  0.79710365394E+01  0.83466545660E+01  0.51100000000E-03 0. -1.
        -11    1    3    3    0    0 -0.28448682332E+02  0.12837349620E+02  0.98679088683E+01  0.32733785259E+02  0.51100000000E-03 0.  1.
         12    1    3    3    0    0 -0.30368414592E+01  0.57660634748E+01  0.15848339364E+01  0.67068317893E+01  0.00000000000E+00 0. -1.
</event>
<event>
 7    1  0.5504027E-010  0.4778726E+02  0.7816164E-02  0.1312668E+00
        -11   -1    0    0    0    0  0.00000000000E+00  0.00000000000E+00  0.45593999997E+02  0.45594000000E+02  0.51100000000E-03 0.  1.
         11   -1    0    0    0    0 -0.00000000000E+00 -0.00000000000E+00 -0.45593999997E+02  0.45594000000E+02  0.51100000000E-03 0. -1.
    9900012    2    1    2    0    0 -0.39847721295E+02  0.23793588274E+01  0.17032965098E+02  0.47787261057E+02  0.19999954462E+02 0.  0.
         12    1    1    2    0    0  0.39847721295E+02 -0.23793588274E+01 -0.17032965098E+02  0.43400738943E+02  0.00000000000E+00 0. -1.
         11    1    3    3    0    0 -0.10403435559E+02 -0.77974942457E+00 -0.37494891005E+01  0.11085943774E+02  0.51100000000E-03 0. -1.
        -11    1    3    3    0    0 -0.15286385592E+02  0.43315709383E+01  0.91098520671E+01  0.18314625200E+02  0.51100000000E-03 0.  1.
         12    1    3    3    0    0 -0.14157900144E+02 -0.11724626863E+01  0.11672602131E+02  0.18386692083E+02  0.00000000000E+00 0. -1.
</event>
<event>
 7    1  0.5504027E-010  0.4778727E+02  0.7816164E-02  0.1312668E+00
        -11   -1    0    0    0    0  0.00000000000E+00  0.00000000000E+00  0.45593999997E+02  0.45594000000E+02  0.51100000000E-03 0.  1.
         11   -1    0    0    0    0 -0.00000000000E+00 -0.00000000000E+00 -0.45593999997E+02  0.45594000000E+02  0.51100000000E-03 0. -1.
    9900012    2    1    2    0    0 -0.38878831020E+02  0.18898021644E+02  0.38632712531E+01  0.47787267422E+02  0.19999983486E+02 0.  0.
         12    1    1    2    0    0  0.38878831020E+02 -0.18898021644E+02 -0.38632712531E+01  0.43400732578E+02  0.00000000000E+00 0. -1.
         11    1    3    3    0    0 -0.20311921182E+01  0.17675132510E+01  0.46752691035E+01  0.53951817360E+01  0.51100000000E-03 0. -1.
        -11    1    3    3    0    0 -0.22973927612E+02  0.48516999416E+01 -0.32533358409E+01  0.23704947513E+02  0.51100000000E-03 0.  1.
        -12    1    3    3    0    0 -0.13873711289E+02  0.12278808451E+02  0.24413379905E+01  0.18687138173E+02  0.00000000000E+00 0.  1.
</event>
<event>
 7    1  0.5504027E-010  0.4778727E+02  0.7816164E-02  0.1312668E+00
        -11   -1    0    0    0    0  0.00000000000E+00  0.00000000000E+00  0.45593999997E+02  0.45594000000E+02  0.51100000000E-03 0.  1.
         11   -1    0    0    0    0 -0.00000000000E+00 -0.00000000000E+00 -0.45593999997E+02  0.45594000000E+02  0.51100000000E-03 0. -1.
    9900012    2    1    2    0    0 -0.39902563166E+02  0.77749873126E+00  0.17052988129E+02  0.47787268950E+02  0.19999990451E+02 0.  0.
         12    1    1    2    0    0  0.39902563166E+02 -0.77749873126E+00 -0.17052988129E+02  0.43400731050E+02  0.00000000000E+00 0. -1.
         11    1    3    3    0    0 -0.59649545757E+01  0.41041081840E+01  0.83563280175E+01  0.11056790008E+02  0.51100000000E-03 0. -1.
        -11    1    3    3    0    0 -0.20984306991E+02 -0.68305115417E+01  0.35162362073E+01  0.22346385505E+02  0.51100000000E-03 0.  1.
        -12    1    3    3    0    0 -0.12953301600E+02  0.35039020890E+01  0.51804239044E+01  0.14384093438E+02  0.00000000000E+00 0.  1.
</event>
<event>
 7    1  0.5504027E-010  0.4778727E+02  0.7816164E-02  0.1312668E+00
        -11   -1    0    0    0    0  0.00000000000E+00  0.00000000000E+00  0.45593999997E+02  0.45594000000E+02  0.51100000000E-03 0.  1.
         11   -1    0    0    0    0 -0.00000000000E+00 -0.00000000000E+00 -0.45593999997E+02  0.45594000000E+02  0.51100000000E-03 0. -1.
    9900012    2    1    2    0    0  0.31265763221E+02 -0.35496374326E+01  0.29891055816E+02  0.47787273122E+02  0.20000009475E+02 0.  0.
         12    1    1    2    0    0 -0.31265763221E+02  0.35496374326E+01 -0.29891055816E+02  0.43400726878E+02  0.00000000000E+00 0. -1.
         11    1    3    3    0    0  0.76638995786E+01 -0.28489796666E+01 -0.14262697506E+01  0.82997763557E+01  0.51100000000E-03 0. -1.
        -11    1    3    3    0    0  0.13018197954E+02  0.44926609640E+00  0.20661655716E+02  0.24424973596E+02  0.51100000000E-03 0.  1.
         12    1    3    3    0    0  0.10583665688E+02 -0.11499238624E+01  0.10655669851E+02  0.15062523171E+02  0.00000000000E+00 0. -1.
</event>
<event>
 7    1  0.5504027E-010  0.4778727E+02  0.7816164E-02  0.1312668E+00
        -11   -1    0    0    0    0  0.00000000000E+00  0.00000000000E+00  0.45593999997E+02  0.45594000000E+02  0.51100000000E-03 0.  1.
         11   -1    0    0    0    0 -0.00000000000E+00 -0.00000000000E+00 -0.45593999997E+02  0.45594000000E+02  0.51100000000E-03 0. -1.
    9900012    2    1    2    0    0  0.11386005647E+02  0.28141844041E+02  0.31016423947E+02  0.47787273450E+02  0.20000010966E+02 0.  0.
         12    1    1    2    0    0 -0.11386005647E+02 -0.28141844041E+02 -0.31016423947E+02  0.43400726550E+02  0.00000000000E+00 0. -1.
         11    1    3    3    0    0 -0.10627246749E+01  0.22909856388E+01  0.18720669413E+00  0.25323991667E+01  0.51100000000E-03 0. -1.
        -11    1    3    3    0    0 -0.17377637700E+01  0.15064388264E+02  0.16282356579E+02  0.22250185454E+02  0.51100000000E-03 0.  1.
        -12    1    3    3    0    0  0.14186494092E+02  0.10786470138E+02  0.14546860674E+02  0.23004688829E+02  0.00000000000E+00 0.  1.
</event>
<event>
 7    1  0.5504027E-010  0.4778727E+02  0.7816164E-02  0.1312668E+00
        -11   -1    0    0    0    0  0.00000000000E+00  0.00000000000E+00  0.45593999997E+02  0.45594000000E+02  0.51100000000E-03 0. -1.
         11   -1    0    0    0    0 -0.00000000000E+00 -0.00000000000E+00 -0.45593999997E+02  0.45594000000E+02  0.51100000000E-03 0.  1.
    9900012    2    1    2    0    0  0.90910168019E+01  0.42410047840E+02  0.15376215899E+01  0.47787273918E+02  0.20000013100E+02 0.  0.
         12    1    1    2    0    0 -0.90910168019E+01 -0.42410047840E+02 -0.15376215899E+01  0.43400726082E+02  0.00000000000E+00 0. -1.
         11    1    3    3    0    0 -0.28347430994E+01  0.67370859239E+01  0.50239374448E+01  0.88692752181E+01  0.51100000000E-03 0. -1.
        -11    1    3    3    0    0  0.83968778279E+01  0.32600945460E+02 -0.11407798666E+01  0.33684277951E+02  0.51100000000E-03 0.  1.
        -12    1    3    3    0    0  0.35288820734E+01  0.30720164566E+01 -0.23455359883E+01  0.52337207482E+01  0.00000000000E+00 0.  1.
</event>
<event>
 7    1  0.5504027E-010  0.4778727E+02  0.7816164E-02  0.1312668E+00
        -11   -1    0    0    0    0  0.00000000000E+00  0.00000000000E+00  0.45593999997E+02  0.45594000000E+02  0.51100000000E-03 0. -1.
         11   -1    0    0    0    0 -0.00000000000E+00 -0.00000000000E+00 -0.45593999997E+02  0.45594000000E+02  0.51100000000E-03 0.  1.
    9900012    2    1    2    0    0 -0.33731093883E+02  0.26177343759E+02  0.77835208743E+01  0.47787271688E+02  0.20000002936E+02 0.  0.
         12    1    1    2    0    0  0.33731093883E+02 -0.26177343759E+02 -0.77835208743E+01  0.43400728312E+02  0.00000000000E+00 0. -1.
         11    1    3    3    0    0 -0.21215154470E+02  0.16269477343E+02  0.13940720139E+02  0.30151655849E+02  0.51100000000E-03 0. -1.
        -11    1    3    3    0    0 -0.37594118732E+01  0.54051315518E+01 -0.34023107743E+01  0.74110959777E+01  0.51100000000E-03 0.  1.
        -12    1    3    3    0    0 -0.87565275397E+01  0.45027348633E+01 -0.27548884901E+01  0.10224519861E+02  0.00000000000E+00 0.  1.
</event>
<event>
 7    1  0.5504027E-010  0.4778726E+02  0.7816164E-02  0.1312668E+00
        -11   -1    0    0    0    0  0.00000000000E+00  0.00000000000E+00  0.45593999997E+02  0.45594000000E+02  0.51100000000E-03 0.  1.
         11   -1    0    0    0    0 -0.00000000000E+00 -0.00000000000E+00 -0.45593999997E+02  0.45594000000E+02  0.51100000000E-03 0. -1.
    9900012    2    1    2    0    0 -0.17358597282E+01  0.24443921948E+02  0.35820461050E+02  0.47787263151E+02  0.19999964012E+02 0.  0.
         12    1    1    2    0    0  0.17358597282E+01 -0.24443921948E+02 -0.35820461050E+02  0.43400736849E+02  0.00000000000E+00 0. -1.
         11    1    3    3    0    0  0.41957773998E+01  0.24044517845E+01  0.28131083152E+01  0.55945969495E+01  0.51100000000E-03 0. -1.
        -11    1    3    3    0    0 -0.51315755188E+01  0.17649827577E+02  0.15249976679E+02  0.23883284318E+02  0.51100000000E-03 0.  1.
        -12    1    3    3    0    0 -0.80006160922E+00  0.43896425859E+01  0.17757376055E+02  0.18309381884E+02  0.00000000000E+00 0.  1.
</event>
<event>
 7    1  0.5504027E-010  0.4778727E+02  0.7816164E-02  0.1312668E+00
        -11   -1    0    0    0    0  0.00000000000E+00  0.00000000000E+00  0.45593999997E+02  0.45594000000E+02  0.51100000000E-03 0. -1.
         11   -1    0    0    0    0 -0.00000000000E+00 -0.00000000000E+00 -0.45593999997E+02  0.45594000000E+02  0.51100000000E-03 0.  1.
    9900012    2    1    2    0    0 -0.15949928412E+02  0.43650440815E+01 -0.40126914239E+02  0.47787273364E+02  0.20000010576E+02 0.  0.
         12    1    1    2    0    0  0.15949928412E+02 -0.43650440815E+01  0.40126914239E+02  0.43400726636E+02  0.00000000000E+00 0. -1.
         11    1    3    3    0    0 -0.80867803639E+01 -0.43234689901E+01 -0.31227603389E+02  0.32546145923E+02  0.51100000000E-03 0.  1.
        -11    1    3    3    0    0 -0.66888981117E+01  0.46560551219E+01 -0.63105995170E+01  0.10307466894E+02  0.51100000000E-03 0. -1.
        -12    1    3    3    0    0 -0.11742499362E+01  0.40324579497E+01 -0.25887113333E+01  0.49336605473E+01  0.00000000000E+00 0.  1.
</event>
<event>
 7    1  0.5504027E-010  0.4778727E+02  0.7816164E-02  0.1312668E+00
        -11   -1    0    0    0    0  0.00000000000E+00  0.00000000000E+00  0.45593999997E+02  0.45594000000E+02  0.51100000000E-03 0.  1.
         11   -1    0    0    0    0 -0.00000000000E+00 -0.00000000000E+00 -0.45593999997E+02  0.45594000000E+02  0.51100000000E-03 0. -1.
    9900012    2    1    2    0    0 -0.32255782015E+02  0.22564325830E+02  0.18276740816E+02  0.47787268112E+02  0.19999986629E+02 0.  0.
         12    1    1    2    0    0  0.32255782015E+02 -0.22564325830E+02 -0.18276740816E+02  0.43400731888E+02  0.00000000000E+00 0. -1.
         11    1    3    3    0    0 -0.15483308408E+02  0.38897433776E+01  0.12529423880E+02  0.20294073170E+02  0.51100000000E-03 0. -1.
        -11    1    3    3    0    0 -0.33755652486E+01  0.17955745053E-01  0.27019262289E+01  0.43237910176E+01  0.51100000000E-03 0.  1.
         12    1    3    3    0    0 -0.13396908359E+02  0.18656626707E+02  0.30453907072E+01  0.23169403924E+02  0.00000000000E+00 0. -1.
</event>
<event>
 7    1  0.5504027E-010  0.4778727E+02  0.7816164E-02  0.1312668E+00
        -11   -1    0    0    0    0  0.00000000000E+00  0.00000000000E+00  0.45593999997E+02  0.45594000000E+02  0.51100000000E-03 0.  1.
         11   -1    0    0    0    0 -0.00000000000E+00 -0.00000000000E+00 -0.45593999997E+02  0.45594000000E+02  0.51100000000E-03 0. -1.
    9900012    2    1    2    0    0 -0.21122600261E+02  0.10217185826E+02  0.36511205266E+02  0.47787271458E+02  0.20000001887E+02 0.  0.
         12    1    1    2    0    0  0.21122600261E+02 -0.10217185826E+02 -0.36511205266E+02  0.43400728542E+02  0.00000000000E+00 0. -1.
         11    1    3    3    0    0 -0.56609622639E+01  0.53182325755E+01  0.64368802370E+01  0.10087790587E+02  0.51100000000E-03 0. -1.
        -11    1    3    3    0    0 -0.12103899092E+02  0.28618240055E+01  0.31221750502E+02  0.33607917438E+02  0.51100000000E-03 0.  1.
        -12    1    3    3    0    0 -0.33577389045E+01  0.20371292446E+01 -0.11474254728E+01  0.40915634330E+01  0.00000000000E+00 0.  1.
</event>
<event>
 7    1  0.5504027E-010  0.4778727E+02  0.7816164E-02  0.1312668E+00
        -11   -1    0    0    0    0  0.00000000000E+00  0.00000000000E+00  0.45593999997E+02  0.45594000000E+02  0.51100000000E-03 0.  1.
         11   -1    0    0    0    0 -0.00000000000E+00 -0.00000000000E+00 -0.45593999997E+02  0.45594000000E+02  0.51100000000E-03 0. -1.
    9900012    2    1    2    0    0 -0.15758784460E+02 -0.35483735894E+02  0.19395577924E+02  0.47787271393E+02  0.20000001588E+02 0.  0.
         12    1    1    2    0    0  0.15758784460E+02  0.35483735894E+02 -0.19395577924E+02  0.43400728607E+02  0.00000000000E+00 0. -1.
         11    1    3    3    0    0  0.92657563435E+00 -0.27487310447E+01  0.11068875985E+01  0.31047166020E+01  0.51100000000E-03 0. -1.
        -11    1    3    3    0    0 -0.15553344274E+01 -0.57263727005E+01 -0.34413727225E+01  0.68595521692E+01  0.51100000000E-03 0.  1.
        -12    1    3    3    0    0 -0.15130025667E+02 -0.27008632149E+02  0.21730063048E+02  0.37823002621E+02  0.00000000000E+00 0.  1.
</event>
<event>
 7    1  0.5504027E-010  0.4778728E+02  0.7816164E-02  0.1312668E+00
        -11   -1    0    0    0    0  0.00000000000E+00  0.00000000000E+00  0.45593999997E+02  0.45594000000E+02  0.51100000000E-03 0. -1.
         11   -1    0    0    0    0 -0.00000000000E+00 -0.00000000000E+00 -0.45593999997E+02  0.45594000000E+02  0.51100000000E-03 0.  1.
    9900012    2    1    2    0    0  0.11730293876E+02 -0.36353834495E+02 -0.20601485210E+02  0.47787282612E+02  0.20000052742E+02 0.  0.
         12    1    1    2    0    0 -0.11730293876E+02  0.36353834495E+02  0.20601485210E+02  0.43400717388E+02  0.00000000000E+00 0. -1.
         11    1    3    3    0    0  0.13609362496E+02 -0.24834539296E+02 -0.10414579364E+02  0.30173374906E+02  0.51100000000E-03 0. -1.
        -11    1    3    3    0    0  0.19403906633E+01 -0.10069426221E+02 -0.77828936605E+01  0.12873690005E+02  0.51100000000E-03 0.  1.
         12    1    3    3    0    0 -0.38194592838E+01 -0.14498689783E+01 -0.24040121849E+01  0.47402177018E+01  0.00000000000E+00 0. -1.
</event>
<event>
 7    1  0.5504027E-010  0.4778727E+02  0.7816164E-02  0.1312668E+00
        -11   -1    0    0    0    0  0.00000000000E+00  0.00000000000E+00  0.45593999997E+02  0.45594000000E+02  0.51100000000E-03 0.  1.
         11   -1    0    0    0    0 -0.00000000000E+00 -0.00000000000E+00 -0.45593999997E+02  0.45594000000E+02  0.51100000000E-03 0. -1.
    9900012    2    1    2    0    0 -0.14400786722E+02  0.50965052119E+01  0.40623471609E+02  0.47787268794E+02  0.19999989740E+02 0.  0.
         12    1    1    2    0    0  0.14400786722E+02 -0.50965052119E+01 -0.40623471609E+02  0.43400731206E+02  0.00000000000E+00 0. -1.
         11    1    3    3    0    0 -0.17282963824E+01  0.67621831930E+01  0.64865940610E+01  0.95283803815E+01  0.51100000000E-03 0. -1.
        -11    1    3    3    0    0 -0.14171174588E+02  0.82195526302E+00  0.30169725991E+02  0.33342317951E+02  0.51100000000E-03 0.  1.
        -12    1    3    3    0    0  0.14986842483E+01 -0.24876332441E+01  0.39671515570E+01  0.49165704622E+01  0.00000000000E+00 0.  1.
</event>
<event>
 7    1  0.5504027E-010  0.4778727E+02  0.7816164E-02  0.1312668E+00
        -11   -1    0    0    0    0  0.00000000000E+00  0.00000000000E+00  0.45593999997E+02  0.45594000000E+02  0.51100000000E-03 0.  1.
         11   -1    0    0    0    0 -0.00000000000E+00 -0.00000000000E+00 -0.45593999997E+02  0.45594000000E+02  0.51100000000E-03 0. -1.
    9900012    2    1    2    0    0  0.28735643136E+02 -0.31746955730E+02 -0.70722622263E+01  0.47787271002E+02  0.19999999805E+02 0.  0.
         12    1    1    2    0    0 -0.28735643136E+02  0.31746955730E+02  0.70722622263E+01  0.43400728998E+02  0.00000000000E+00 0. -1.
         11    1    3    3    0    0  0.22890053830E+01 -0.12523156369E+02  0.38680158988E+01  0.13305282347E+02  0.51100000000E-03 0. -1.
        -11    1    3    3    0    0  0.15373371035E+02 -0.10986847029E+02 -0.65795976902E+01  0.20008559435E+02  0.51100000000E-03 0.  1.
         12    1    3    3    0    0  0.11073266718E+02 -0.82369523323E+01 -0.43606804349E+01  0.14473429220E+02  0.00000000000E+00 0. -1.
</event>
<event>
 7    1  0.5504027E-010  0.4778727E+02  0.7816164E-02  0.1312668E+00
        -11   -1    0    0    0    0  0.00000000000E+00  0.00000000000E+00  0.45593999997E+02  0.45594000000E+02  0.51100000000E-03 0.  1.
         11   -1    0    0    0    0 -0.00000000000E+00 -0.00000000000E+00 -0.45593999997E+02  0.45594000000E+02  0.51100000000E-03 0. -1.
    9900012    2    1    2    0    0  0.38828531112E+02 -0.19019557651E+02 -0.37715983451E+01  0.47787270102E+02  0.19999995705E+02 0.  0.
         12    1    1    2    0    0 -0.38828531112E+02  0.19019557651E+02  0.37715983451E+01  0.43400729898E+02  0.00000000000E+00 0. -1.
         11    1    3    3    0    0  0.28966449620E+02 -0.11349012431E+02  0.35660347905E+01  0.31314084549E+02  0.51100000000E-03 0. -1.
        -11    1    3    3    0    0  0.23370496555E+01 -0.54698738197E+01 -0.32949733849E+00  0.59573391252E+01  0.51100000000E-03 0.  1.
         12    1    3    3    0    0  0.75250318365E+01 -0.22006714009E+01 -0.70081357971E+01  0.10515846428E+02  0.00000000000E+00 0. -1.
</event>
<event>
 7    1  0.5504027E-010  0.4778726E+02  0.7816164E-02  0.1312668E+00
        -11   -1    0    0    0    0  0.00000000000E+00  0.00000000000E+00  0.45593999997E+02  0.45594000000E+02  0.51100000000E-03 0. -1.
         11   -1    0    0    0    0 -0.00000000000E+00 -0.00000000000E+00 -0.45593999997E+02  0.45594000000E+02  0.51100000000E-03 0.  1.
    9900012    2    1    2    0    0  0.35995185309E+02  0.21726683964E+02 -0.10766694592E+02  0.47787264131E+02  0.19999968480E+02 0.  0.
         12    1    1    2    0    0 -0.35995185309E+02 -0.21726683964E+02  0.10766694592E+02  0.43400735869E+02  0.00000000000E+00 0. -1.
         11    1    3    3    0    0  0.13373114891E+02  0.67243969707E+01 -0.99485550534E+01  0.17973076098E+02  0.51100000000E-03 0.  1.
        -11    1    3    3    0    0  0.10985260422E+02  0.11734635679E+02  0.43750328424E+01  0.16658887529E+02  0.51100000000E-03 0. -1.
         12    1    3    3    0    0  0.11636809996E+02  0.32676513143E+01 -0.51931723812E+01  0.13155300505E+02  0.00000000000E+00 0. -1.
</event>
<event>
 7    1  0.5504027E-010  0.4778727E+02  0.7816164E-02  0.1312668E+00
        -11   -1    0    0    0    0  0.00000000000E+00  0.00000000000E+00  0.45593999997E+02  0.45594000000E+02  0.51100000000E-03 0.  1.
         11   -1    0    0    0    0 -0.00000000000E+00 -0.00000000000E+00 -0.45593999997E+02  0.45594000000E+02  0.51100000000E-03 0. -1.
    9900012    2    1    2    0    0  0.34063968119E+02  0.15788594193E+02  0.21771307218E+02  0.47787269031E+02  0.19999990822E+02 0.  0.
         12    1    1    2    0    0 -0.34063968119E+02 -0.15788594193E+02 -0.21771307218E+02  0.43400730969E+02  0.00000000000E+00 0. -1.
         11    1    3    3    0    0  0.14206272711E+02 -0.35902600650E+01  0.85464469458E+01  0.16963192722E+02  0.51100000000E-03 0. -1.
        -11    1    3    3    0    0  0.15947576635E+02  0.16243744957E+02  0.11644073738E+02  0.25568905026E+02  0.51100000000E-03 0.  1.
         12    1    3    3    0    0  0.39101187730E+01  0.31351093009E+01  0.15807865347E+01  0.52551712832E+01  0.00000000000E+00 0. -1.
</event>
<event>
 7    1  0.5504027E-010  0.4778727E+02  0.7816164E-02  0.1312668E+00
        -11   -1    0    0    0    0  0.00000000000E+00  0.00000000000E+00  0.45593999997E+02  0.45594000000E+02  0.51100000000E-03 0. -1.
         11   -1    0    0    0    0 -0.00000000000E+00 -0.00000000000E+00 -0.45593999997E+02  0.45594000000E+02  0.51100000000E-03 0.  1.
    9900012    2    1    2    0    0 -0.19328487985E+02  0.44776338445E+01 -0.38600309185E+02  0.47787268188E+02  0.19999986977E+02 0.  0.
         12    1    1    2    0    0  0.19328487985E+02 -0.44776338445E+01  0.38600309185E+02  0.43400731812E+02  0.00000000000E+00 0. -1.
         11    1    3    3    0    0 -0.76421709614E+01 -0.36837200399E+01 -0.54390785288E+01  0.10077506926E+02  0.51100000000E-03 0. -1.
        -11    1    3    3    0    0 -0.11911391670E+02  0.34098533604E+01 -0.28373601970E+02  0.30960775837E+02  0.51100000000E-03 0.  1.
         12    1    3    3    0    0  0.22507464677E+00  0.47515005241E+01 -0.47876286865E+01  0.67489854250E+01  0.00000000000E+00 0. -1.
</event>
<event>
 7    1  0.5504027E-010  0.4778727E+02  0.7816164E-02  0.1312668E+00
        -11   -1    0    0    0    0  0.00000000000E+00  0.00000000000E+00  0.45593999997E+02  0.45594000000E+02  0.51100000000E-03 0.  1.
         11   -1    0    0    0    0 -0.00000000000E+00 -0.00000000000E+00 -0.45593999997E+02  0.45594000000E+02  0.51100000000E-03 0. -1.
    9900012    2    1    2    0    0 -0.80384857028E+01  0.42327070887E+02  0.52369105730E+01  0.47787269423E+02  0.19999992606E+02 0.  0.
         12    1    1    2    0    0  0.80384857028E+01 -0.42327070887E+02 -0.52369105730E+01  0.43400730577E+02  0.00000000000E+00 0. -1.
         11    1    3    3    0    0  0.44826567564E+01  0.13430361207E+02 -0.28111959399E+01  0.14435083533E+02  0.51100000000E-03 0. -1.
        -11    1    3    3    0    0 -0.77824124056E+01  0.25140939320E+02  0.66913627915E+01  0.27155240912E+02  0.51100000000E-03 0.  1.
         12    1    3    3    0    0 -0.47387300537E+01  0.37557703607E+01  0.13567437214E+01  0.61969449771E+01  0.00000000000E+00 0. -1.
</event>
<event>
 7    1  0.5504027E-010  0.4778727E+02  0.7816164E-02  0.1312668E+00
        -11   -1    0    0    0    0  0.00000000000E+00  0.00000000000E+00  0.45593999997E+02  0.45594000000E+02  0.51100000000E-03 0.  1.
         11   -1    0    0    0    0 -0.00000000000E+00 -0.00000000000E+00 -0.45593999997E+02  0.45594000000E+02  0.51100000000E-03 0. -1.
    9900012    2    1    2    0    0 -0.30752047649E+02  0.30233577511E+02  0.48852875732E+01  0.47787266385E+02  0.19999978754E+02 0.  0.
         12    1    1    2    0    0  0.30752047649E+02 -0.30233577511E+02 -0.48852875732E+01  0.43400733615E+02  0.00000000000E+00 0. -1.
         11    1    3    3    0    0 -0.83782378580E+01  0.18981838766E+02  0.33981086221E+01  0.21025037813E+02  0.51100000000E-03 0. -1.
        -11    1    3    3    0    0 -0.14560441080E+02  0.55771420269E+01  0.51705818584E+01  0.16426986170E+02  0.51100000000E-03 0.  1.
         12    1    3    3    0    0 -0.78133687113E+01  0.56745967175E+01 -0.36834029073E+01  0.10335242402E+02  0.00000000000E+00 0. -1.
</event>
<event>
 7    1  0.5504027E-010  0.4778727E+02  0.7816164E-02  0.1312668E+00
        -11   -1    0    0    0    0  0.00000000000E+00  0.00000000000E+00  0.45593999997E+02  0.45594000000E+02  0.51100000000E-03 0.  1.
         11   -1    0    0    0    0 -0.00000000000E+00 -0.00000000000E+00 -0.45593999997E+02  0.45594000000E+02  0.51100000000E-03 0. -1.
    9900012    2    1    2    0    0 -0.99218805478E+01  0.38747396444E+02  0.16846932458E+02  0.47787267540E+02  0.19999984023E+02 0.  0.
         12    1    1    2    0    0  0.99218805478E+01 -0.38747396444E+02 -0.16846932458E+02  0.43400732460E+02  0.00000000000E+00 0. -1.
         11    1    3    3    0    0  0.26645971510E+01  0.10605749195E+02  0.26136546454E+01  0.11243361811E+02  0.51100000000E-03 0. -1.
        -11    1    3    3    0    0 -0.13568301154E+02  0.15057784612E+02  0.10866488217E+02  0.22998179060E+02  0.51100000000E-03 0.  1.
        -12    1    3    3    0    0  0.98182345535E+00  0.13083862637E+02  0.33667895961E+01  0.13545726669E+02  0.00000000000E+00 0.  1.
</event>
<event>
 7    1  0.5504027E-010  0.4778726E+02  0.7816164E-02  0.1312668E+00
        -11   -1    0    0    0    0  0.00000000000E+00  0.00000000000E+00  0.45593999997E+02  0.45594000000E+02  0.51100000000E-03 0. -1.
         11   -1    0    0    0    0 -0.00000000000E+00 -0.00000000000E+00 -0.45593999997E+02  0.45594000000E+02  0.51100000000E-03 0.  1.
    9900012    2    1    2    0    0 -0.24699650921E+02 -0.18016220035E+02 -0.30805315061E+02  0.47787258348E+02  0.19999942110E+02 0.  0.
         12    1    1    2    0    0  0.24699650921E+02  0.18016220035E+02  0.30805315061E+02  0.43400741652E+02  0.00000000000E+00 0. -1.
         11    1    3    3    0    0 -0.19212839394E+01  0.31670444118E+01 -0.43865764098E+01  0.57413896525E+01  0.51100000000E-03 0. -1.
        -11    1    3    3    0    0 -0.19860022202E+02 -0.13683085697E+02 -0.22916849823E+02  0.33269044502E+02  0.51100000000E-03 0.  1.
         12    1    3    3    0    0 -0.29183447799E+01 -0.75001787507E+01 -0.35018888285E+01  0.87768241929E+01  0.00000000000E+00 0. -1.
</event>
<event>
 7    1  0.5504027E-010  0.4778727E+02  0.7816164E-02  0.1312668E+00
        -11   -1    0    0    0    0  0.00000000000E+00  0.00000000000E+00  0.45593999997E+02  0.45594000000E+02  0.51100000000E-03 0.  1.
         11   -1    0    0    0    0 -0.00000000000E+00 -0.00000000000E+00 -0.45593999997E+02  0.45594000000E+02  0.51100000000E-03 0. -1.
    9900012    2    1    2    0    0  0.29082173933E+02  0.12624093544E+02  0.29639212714E+02  0.47787268338E+02  0.19999987660E+02 0.  0.
         12    1    1    2    0    0 -0.29082173933E+02 -0.12624093544E+02 -0.29639212714E+02  0.43400731662E+02  0.00000000000E+00 0. -1.
         11    1    3    3    0    0  0.16561747826E+02  0.11702316993E+02  0.26952498460E+02  0.33729406866E+02  0.51100000000E-03 0. -1.
        -11    1    3    3    0    0  0.11448210610E+02  0.26580994883E+01  0.24266942079E+01  0.12000660986E+02  0.51100000000E-03 0.  1.
         12    1    3    3    0    0  0.10722154971E+01 -0.17363229374E+01  0.26002004649E+00  0.20572004860E+01  0.00000000000E+00 0. -1.
</event>
<event>
 7    1  0.5504027E-010  0.4778727E+02  0.7816164E-02  0.1312668E+00
        -11   -1    0    0    0    0  0.00000000000E+00  0.00000000000E+00  0.45593999997E+02  0.45594000000E+02  0.51100000000E-03 0. -1.
         11   -1    0    0    0    0 -0.00000000000E+00 -0.00000000000E+00 -0.45593999997E+02  0.45594000000E+02  0.51100000000E-03 0.  1.
    9900012    2    1    2    0    0  0.23108959939E+02 -0.15261968380E+02 -0.33416638426E+02  0.47787269222E+02  0.19999991693E+02 0.  0.
         12    1    1    2    0    0 -0.23108959939E+02  0.15261968380E+02  0.33416638426E+02  0.43400730778E+02  0.00000000000E+00 0. -1.
         11    1    3    3    0    0  0.62034393696E+01 -0.10390047391E+02 -0.59726033788E+01  0.13494729941E+02  0.51100000000E-03 0. -1.
        -11    1    3    3    0    0  0.16375010213E+02 -0.35734353230E+01 -0.17430530945E+02  0.24181269793E+02  0.51100000000E-03 0.  1.
        -12    1    3    3    0    0  0.53051035637E+00 -0.12984856655E+01 -0.10013504102E+02  0.10111269488E+02  0.00000000000E+00 0.  1.
</event>
<event>
 7    1  0.5504027E-010  0.4778724E+02  0.7816164E-02  0.1312668E+00
        -11   -1    0    0    0    0  0.00000000000E+00  0.00000000000E+00  0.45593999997E+02  0.45594000000E+02  0.51100000000E-03 0.  1.
         11   -1    0    0    0    0 -0.00000000000E+00 -0.00000000000E+00 -0.45593999997E+02  0.45594000000E+02  0.51100000000E-03 0. -1.
    9900012    2    1    2    0    0 -0.19085025134E+02 -0.14023232799E+02  0.36369442829E+02  0.47787244083E+02  0.19999877070E+02 0.  0.
         12    1    1    2    0    0  0.19085025134E+02  0.14023232799E+02 -0.36369442829E+02  0.43400755917E+02  0.00000000000E+00 0. -1.
         11    1    3    3    0    0 -0.12735967498E+02 -0.43310507582E+01  0.11207008362E+02  0.17508852203E+02  0.51100000000E-03 0. -1.
        -11    1    3    3    0    0  0.22157311597E+00 -0.51251347680E+01  0.20248191226E+02  0.20887923526E+02  0.51100000000E-03 0.  1.
        -12    1    3    3    0    0 -0.65706307523E+01 -0.45670472729E+01  0.49142432417E+01  0.93904683543E+01  0.00000000000E+00 0.  1.
</event>
<event>
 7    1  0.5504027E-010  0.4778727E+02  0.7816164E-02  0.1312668E+00
        -11   -1    0    0    0    0  0.00000000000E+00  0.00000000000E+00  0.45593999997E+02  0.45594000000E+02  0.51100000000E-03 0. -1.
         11   -1    0    0    0    0 -0.00000000000E+00 -0.00000000000E+00 -0.45593999997E+02  0.45594000000E+02  0.51100000000E-03 0.  1.
    9900012    2    1    2    0    0  0.71580769414E+01  0.99614261755E+01 -0.41631178248E+02  0.47787273286E+02  0.20000010221E+02 0.  0.
         12    1    1    2    0    0 -0.71580769414E+01 -0.99614261755E+01  0.41631178248E+02  0.43400726714E+02  0.00000000000E+00 0. -1.
         11    1    3    3    0    0 -0.26319823716E+01  0.35256587240E+01 -0.11492724683E+01  0.45473539680E+01  0.51100000000E-03 0. -1.
        -11    1    3    3    0    0  0.10874419247E+02  0.39243473527E+01 -0.25336396058E+02  0.27849352983E+02  0.51100000000E-03 0.  1.
         12    1    3    3    0    0 -0.10843599336E+01  0.25114200988E+01 -0.15145509722E+02  0.15390566335E+02  0.00000000000E+00 0. -1.
</event>
<event>
 7    1  0.5504027E-010  0.4778727E+02  0.7816164E-02  0.1312668E+00
        -11   -1    0    0    0    0  0.00000000000E+00  0.00000000000E+00  0.45593999997E+02  0.45594000000E+02  0.51100000000E-03 0.  1.
         11   -1    0    0    0    0 -0.00000000000E+00 -0.00000000000E+00 -0.45593999997E+02  0.45594000000E+02  0.51100000000E-03 0. -1.
    9900012    2    1    2    0    0  0.11403716295E+02 -0.12886615500E+02  0.39843617854E+02  0.47787268576E+02  0.19999988747E+02 0.  0.
         12    1    1    2    0    0 -0.11403716295E+02  0.12886615500E+02 -0.39843617854E+02  0.43400731424E+02  0.00000000000E+00 0. -1.
         11    1    3    3    0    0 -0.11507311070E+01  0.10590635369E+01 -0.46235313014E+00  0.16308183019E+01  0.51100000000E-03 0. -1.
        -11    1    3    3    0    0  0.11651357302E+02 -0.13207784714E+02  0.41120730273E+02  0.44733814531E+02  0.51100000000E-03 0.  1.
        -12    1    3    3    0    0  0.90309009994E+00 -0.73789432361E+00 -0.81475928859E+00  0.14226357439E+01  0.00000000000E+00 0.  1.
</event>
<event>
 7    1  0.5504027E-010  0.4778727E+02  0.7816164E-02  0.1312668E+00
        -11   -1    0    0    0    0  0.00000000000E+00  0.00000000000E+00  0.45593999997E+02  0.45594000000E+02  0.51100000000E-03 0.  1.
         11   -1    0    0    0    0 -0.00000000000E+00 -0.00000000000E+00 -0.45593999997E+02  0.45594000000E+02  0.51100000000E-03 0. -1.
    9900012    2    1    2    0    0 -0.41327366190E+02  0.12909741614E+02  0.30017899485E+01  0.47787269964E+02  0.19999995075E+02 0.  0.
         12    1    1    2    0    0  0.41327366190E+02 -0.12909741614E+02 -0.30017899485E+01  0.43400730036E+02  0.00000000000E+00 0. -1.
         11    1    3    3    0    0 -0.12287188515E+02  0.49433142006E+01 -0.27961268256E+01  0.13536235902E+02  0.51100000000E-03 0. -1.
        -11    1    3    3    0    0 -0.25815795221E+02  0.34071492559E+01 -0.22101865548E+00  0.26040599042E+02  0.51100000000E-03 0.  1.
        -12    1    3    3    0    0 -0.32243824536E+01  0.45592781579E+01  0.60189354295E+01  0.82104350209E+01  0.00000000000E+00 0.  1.
</event>
<event>
 7    1  0.5504027E-010  0.4778727E+02  0.7816164E-02  0.1312668E+00
        -11   -1    0    0    0    0  0.00000000000E+00  0.00000000000E+00  0.45593999997E+02  0.45594000000E+02  0.51100000000E-03 0. -1.
         11   -1    0    0    0    0 -0.00000000000E+00 -0.00000000000E+00 -0.45593999997E+02  0.45594000000E+02  0.51100000000E-03 0.  1.
    9900012    2    1    2    0    0 -0.23122014289E+02 -0.28776240299E+02 -0.22823761727E+02  0.47787266712E+02  0.19999980249E+02 0.  0.
         12    1    1    2    0    0  0.23122014289E+02  0.28776240299E+02  0.22823761727E+02  0.43400733288E+02  0.00000000000E+00 0. -1.
         11    1    3    3    0    0 -0.10637827387E+02 -0.20745750943E+02 -0.40580231754E+01  0.23664680561E+02  0.51100000000E-03 0. -1.
        -11    1    3    3    0    0 -0.80673870444E+01 -0.59556552864E+01 -0.10465308602E+02  0.14493972816E+02  0.51100000000E-03 0.  1.
         12    1    3    3    0    0 -0.44167998578E+01 -0.20748340695E+01 -0.83004299497E+01  0.96286133347E+01  0.00000000000E+00 0. -1.
</event>
<event>
 7    1  0.5504027E-010  0.4778727E+02  0.7816164E-02  0.1312668E+00
        -11   -1    0    0    0    0  0.00000000000E+00  0.00000000000E+00  0.45593999997E+02  0.45594000000E+02  0.51100000000E-03 0.  1.
         11   -1    0    0    0    0 -0.00000000000E+00 -0.00000000000E+00 -0.45593999997E+02  0.45594000000E+02  0.51100000000E-03 0. -1.
    9900012    2    1    2    0    0 -0.10611748653E+02 -0.38550410785E+02 -0.16878383732E+02  0.47787271682E+02  0.20000002906E+02 0.  0.
         12    1    1    2    0    0  0.10611748653E+02  0.38550410785E+02  0.16878383732E+02  0.43400728318E+02  0.00000000000E+00 0. -1.
         11    1    3    3    0    0 -0.92157612535E+01 -0.73381878495E+01 -0.37454714437E+01  0.12361545736E+02  0.51100000000E-03 0. -1.
        -11    1    3    3    0    0  0.26904855710E+01 -0.13258145302E+02 -0.98201597442E+01  0.16716837833E+02  0.51100000000E-03 0.  1.
         12    1    3    3    0    0 -0.40864729703E+01 -0.17954077633E+02 -0.33127525440E+01  0.18708888113E+02  0.00000000000E+00 0. -1.
</event>
<event>
 7    1  0.5504027E-010  0.4778729E+02  0.7816164E-02  0.1312668E+00
        -11   -1    0    0    0    0  0.00000000000E+00  0.00000000000E+00  0.45593999997E+02  0.45594000000E+02  0.51100000000E-03 0. -1.
         11   -1    0    0    0    0 -0.00000000000E+00 -0.00000000000E+00 -0.45593999997E+02  0.45594000000E+02  0.51100000000E-03 0.  1.
    9900012    2    1    2    0    0 -0.33606338140E+02 -0.23299936638E+02 -0.14537824354E+02  0.47787293238E+02  0.20000101188E+02 0.  0.
         12    1    1    2    0    0  0.33606338140E+02  0.23299936638E+02  0.14537824354E+02  0.43400706762E+02  0.00000000000E+00 0. -1.
         11    1    3    3    0    0 -0.28166628949E+02 -0.14540203888E+02 -0.15764995585E+02  0.35402141199E+02  0.51100000000E-03 0.  1.
        -11    1    3    3    0    0 -0.30209120577E+01 -0.90779529156E+01 -0.17938842501E+00  0.95690814223E+01  0.51100000000E-03 0. -1.
        -12    1    3    3    0    0 -0.24187971336E+01  0.31822016605E+00  0.14065596562E+01  0.28160706159E+01  0.00000000000E+00 0.  1.
</event>
<event>
 7    1  0.5504027E-010  0.4778727E+02  0.7816164E-02  0.1312668E+00
        -11   -1    0    0    0    0  0.00000000000E+00  0.00000000000E+00  0.45593999997E+02  0.45594000000E+02  0.51100000000E-03 0.  1.
         11   -1    0    0    0    0 -0.00000000000E+00 -0.00000000000E+00 -0.45593999997E+02  0.45594000000E+02  0.51100000000E-03 0. -1.
    9900012    2    1    2    0    0 -0.11039145666E+02 -0.11736793590E+02  0.40298984880E+02  0.47787271398E+02  0.20000001614E+02 0.  0.
         12    1    1    2    0    0  0.11039145666E+02  0.11736793590E+02 -0.40298984880E+02  0.43400728602E+02  0.00000000000E+00 0. -1.
         11    1    3    3    0    0 -0.38236977588E+01  0.35110779503E+01  0.97526915061E+01  0.11048227224E+02  0.51100000000E-03 0.  1.
        -11    1    3    3    0    0 -0.25985848811E+01 -0.15221040554E+02  0.26121566462E+02  0.30344174954E+02  0.51100000000E-03 0. -1.
         12    1    3    3    0    0 -0.46168630260E+01 -0.26830986101E-01  0.44247269119E+01  0.63948692206E+01  0.00000000000E+00 0. -1.
</event>
<event>
 7    1  0.5504027E-010  0.4778727E+02  0.7816164E-02  0.1312668E+00
        -11   -1    0    0    0    0  0.00000000000E+00  0.00000000000E+00  0.45593999997E+02  0.45594000000E+02  0.51100000000E-03 0.  1.
         11   -1    0    0    0    0 -0.00000000000E+00 -0.00000000000E+00 -0.45593999997E+02  0.45594000000E+02  0.51100000000E-03 0. -1.
    9900012    2    1    2    0    0 -0.39818650418E+02  0.10529020395E+02  0.13683497448E+02  0.47787270813E+02  0.19999998944E+02 0.  0.
         12    1    1    2    0    0  0.39818650418E+02 -0.10529020395E+02 -0.13683497448E+02  0.43400729187E+02  0.00000000000E+00 0. -1.
         11    1    3    3    0    0 -0.26624590202E+02 -0.26012210096E+01  0.74946164620E+01  0.27781368403E+02  0.51100000000E-03 0. -1.
        -11    1    3    3    0    0 -0.10970246907E+02  0.12409365490E+02  0.46372046219E+01  0.17200067908E+02  0.51100000000E-03 0.  1.
         12    1    3    3    0    0 -0.22238133087E+01  0.72087591521E+00  0.15516763638E+01  0.28058345025E+01  0.00000000000E+00 0. -1.
</event>
<event>
 7    1  0.5504027E-010  0.4778727E+02  0.7816164E-02  0.1312668E+00
        -11   -1    0    0    0    0  0.00000000000E+00  0.00000000000E+00  0.45593999997E+02  0.45594000000E+02  0.51100000000E-03 0.  1.
         11   -1    0    0    0    0 -0.00000000000E+00 -0.00000000000E+00 -0.45593999997E+02  0.45594000000E+02  0.51100000000E-03 0. -1.
    9900012    2    1    2    0    0 -0.34773016793E+02  0.11064114236E+02  0.23495667777E+02  0.47787265847E+02  0.19999976304E+02 0.  0.
         12    1    1    2    0    0  0.34773016793E+02 -0.11064114236E+02 -0.23495667777E+02  0.43400734153E+02  0.00000000000E+00 0. -1.
         11    1    3    3    0    0  0.11987883162E+01  0.21948293148E+01  0.26393226613E+01  0.36359859076E+01  0.51100000000E-03 0. -1.
        -11    1    3    3    0    0 -0.19300063813E+02  0.22320147726E+01  0.46627708008E+01  0.19980385005E+02  0.51100000000E-03 0.  1.
        -12    1    3    3    0    0 -0.16671741296E+02  0.66372701489E+01  0.16193574315E+02  0.24170894935E+02  0.00000000000E+00 0.  1.
</event>
<event>
 7    1  0.5504027E-010  0.4778728E+02  0.7816164E-02  0.1312668E+00
        -11   -1    0    0    0    0  0.00000000000E+00  0.00000000000E+00  0.45593999997E+02  0.45594000000E+02  0.51100000000E-03 0.  1.
         11   -1    0    0    0    0 -0.00000000000E+00 -0.00000000000E+00 -0.45593999997E+02  0.45594000000E+02  0.51100000000E-03 0. -1.
    9900012    2    1    2    0    0  0.29544902970E+02 -0.10993948756E+02  0.29830427769E+02  0.47787278559E+02  0.20000034260E+02 0.  0.
         12    1    1    2    0    0 -0.29544902970E+02  0.10993948756E+02 -0.29830427769E+02  0.43400721441E+02  0.00000000000E+00 0. -1.
         11    1    3    3    0    0 -0.34735860569E+00 -0.57929380985E+00  0.63939210945E+01  0.64294997118E+01  0.51100000000E-03 0. -1.
        -11    1    3    3    0    0  0.25224467425E+02 -0.11802538758E+02  0.23572516935E+02  0.36486123841E+02  0.51100000000E-03 0.  1.
        -12    1    3    3    0    0  0.46677941506E+01  0.13878838116E+01 -0.13601026092E+00  0.48716550061E+01  0.00000000000E+00 0.  1.
</event>
<event>
 7    1  0.5504027E-010  0.4778727E+02  0.7816164E-02  0.1312668E+00
        -11   -1    0    0    0    0  0.00000000000E+00  0.00000000000E+00  0.45593999997E+02  0.45594000000E+02  0.51100000000E-03 0.  1.
         11   -1    0    0    0    0 -0.00000000000E+00 -0.00000000000E+00 -0.45593999997E+02  0.45594000000E+02  0.51100000000E-03 0. -1.
    9900012    2    1    2    0    0 -0.29516775025E+02 -0.53595282829E+00  0.31813458629E+02  0.47787269554E+02  0.19999993205E+02 0.  0.
         12    1    1    2    0    0  0.29516775025E+02  0.53595282829E+00 -0.31813458629E+02  0.43400730446E+02  0.00000000000E+00 0. -1.
         11    1    3    3    0    0 -0.12074939178E+01  0.17221653507E+01 -0.22286858454E+01  0.30644633976E+01  0.51100000000E-03 0. -1.
        -11    1    3    3    0    0 -0.26731472250E+02 -0.34061504236E+01  0.30669387446E+02  0.40826275803E+02  0.51100000000E-03 0.  1.
        -12    1    3    3    0    0 -0.15778088576E+01  0.11480322446E+01  0.33727570280E+01  0.38965303535E+01  0.00000000000E+00 0.  1.
</event>
<event>
 7    1  0.5504027E-010  0.4778729E+02  0.7816164E-02  0.1312668E+00
        -11   -1    0    0    0    0  0.00000000000E+00  0.00000000000E+00  0.45593999997E+02  0.45594000000E+02  0.51100000000E-03 0. -1.
         11   -1    0    0    0    0 -0.00000000000E+00 -0.00000000000E+00 -0.45593999997E+02  0.45594000000E+02  0.51100000000E-03 0.  1.
    9900012    2    1    2    0    0 -0.24591377139E+02  0.35623331902E+02 -0.31407496958E+01  0.47787286710E+02  0.20000071426E+02 0.  0.
         12    1    1    2    0    0  0.24591377139E+02 -0.35623331902E+02  0.31407496958E+01  0.43400713290E+02  0.00000000000E+00 0. -1.
         11    1    3    3    0    0 -0.10645571419E+02  0.16129462214E+02 -0.10188669076E+02  0.21847121549E+02  0.51100000000E-03 0. -1.
        -11    1    3    3    0    0 -0.23180344192E+01  0.92797156123E-01  0.31878081259E+00  0.23416909165E+01  0.51100000000E-03 0.  1.
         12    1    3    3    0    0 -0.11627771301E+02  0.19401072532E+02  0.67291385680E+01  0.23598474245E+02  0.00000000000E+00 0. -1.
</event>
<event>
 7    1  0.5504027E-010  0.4778725E+02  0.7816164E-02  0.1312668E+00
        -11   -1    0    0    0    0  0.00000000000E+00  0.00000000000E+00  0.45593999997E+02  0.45594000000E+02  0.51100000000E-03 0.  1.
         11   -1    0    0    0    0 -0.00000000000E+00 -0.00000000000E+00 -0.45593999997E+02  0.45594000000E+02  0.51100000000E-03 0. -1.
    9900012    2    1    2    0    0  0.14979498309E+02 -0.26176324071E+02  0.31209608981E+02  0.47787251110E+02  0.19999909110E+02 0.  0.
         12    1    1    2    0    0 -0.14979498309E+02  0.26176324071E+02 -0.31209608981E+02  0.43400748890E+02  0.00000000000E+00 0. -1.
         11    1    3    3    0    0 -0.25825700898E+01 -0.24369919151E+01  0.67724105388E+01  0.76468387344E+01  0.51100000000E-03 0. -1.
        -11    1    3    3    0    0  0.15750185869E+02 -0.22511089095E+02  0.25693868316E+02  0.37616384149E+02  0.51100000000E-03 0.  1.
         12    1    3    3    0    0  0.18118825296E+01 -0.12282430609E+01 -0.12566698733E+01  0.25240282265E+01  0.00000000000E+00 0. -1.
</event>
<event>
 7    1  0.5504027E-010  0.4778727E+02  0.7816164E-02  0.1312668E+00
        -11   -1    0    0    0    0  0.00000000000E+00  0.00000000000E+00  0.45593999997E+02  0.45594000000E+02  0.51100000000E-03 0. -1.
         11   -1    0    0    0    0 -0.00000000000E+00 -0.00000000000E+00 -0.45593999997E+02  0.45594000000E+02  0.51100000000E-03 0.  1.
    9900012    2    1    2    0    0 -0.42120653855E+02 -0.28682404474E+01 -0.10062157211E+02  0.47787270833E+02  0.19999999037E+02 0.  0.
         12    1    1    2    0    0  0.42120653855E+02  0.28682404474E+01  0.10062157211E+02  0.43400729167E+02  0.00000000000E+00 0. -1.
         11    1    3    3    0    0 -0.10739618439E+02  0.13987929785E+01  0.37453268788E+01  0.11459646578E+02  0.51100000000E-03 0. -1.
        -11    1    3    3    0    0 -0.30019646817E+02 -0.67207705932E+01 -0.12199341601E+02  0.33093381335E+02  0.51100000000E-03 0.  1.
        -12    1    3    3    0    0 -0.13613885990E+01  0.24537371673E+01 -0.16081424886E+01  0.32342429203E+01  0.00000000000E+00 0.  1.
</event>
<event>
 7    1  0.5504027E-010  0.4778727E+02  0.7816164E-02  0.1312668E+00
        -11   -1    0    0    0    0  0.00000000000E+00  0.00000000000E+00  0.45593999997E+02  0.45594000000E+02  0.51100000000E-03 0. -1.
         11   -1    0    0    0    0 -0.00000000000E+00 -0.00000000000E+00 -0.45593999997E+02  0.45594000000E+02  0.51100000000E-03 0.  1.
    9900012    2    1    2    0    0 -0.34992545733E+02  0.88085465125E+00 -0.25658704840E+02  0.47787270791E+02  0.19999998843E+02 0.  0.
         12    1    1    2    0    0  0.34992545733E+02 -0.88085465125E+00  0.25658704840E+02  0.43400729209E+02  0.00000000000E+00 0. -1.
         11    1    3    3    0    0 -0.12518082693E+02 -0.22458840009E+01 -0.82155349023E+01  0.15140720037E+02  0.51100000000E-03 0.  1.
        -11    1    3    3    0    0 -0.24723362931E+02  0.38154992429E+01 -0.14631129513E+02  0.28980556588E+02  0.51100000000E-03 0. -1.
         12    1    3    3    0    0  0.22488998904E+01 -0.68876059079E+00 -0.28120404249E+01  0.36659941652E+01  0.00000000000E+00 0. -1.
</event>
<event>
 7    1  0.5504027E-010  0.4778727E+02  0.7816164E-02  0.1312668E+00
        -11   -1    0    0    0    0  0.00000000000E+00  0.00000000000E+00  0.45593999997E+02  0.45594000000E+02  0.51100000000E-03 0.  1.
         11   -1    0    0    0    0 -0.00000000000E+00 -0.00000000000E+00 -0.45593999997E+02  0.45594000000E+02  0.51100000000E-03 0. -1.
    9900012    2    1    2    0    0  0.10387893766E+02 -0.39322507198E+02  0.15147784006E+02  0.47787271095E+02  0.20000000231E+02 0.  0.
         12    1    1    2    0    0 -0.10387893766E+02  0.39322507198E+02 -0.15147784006E+02  0.43400728905E+02  0.00000000000E+00 0. -1.
         11    1    3    3    0    0  0.43059768275E+01 -0.11019903189E+01  0.49665838236E+01  0.66650412032E+01  0.51100000000E-03 0. -1.
        -11    1    3    3    0    0  0.61445560178E+01 -0.17971674768E+02  0.84855031939E+01  0.20802413979E+02  0.51100000000E-03 0.  1.
         12    1    3    3    0    0 -0.62639079685E-01 -0.20248842110E+02  0.16956969884E+01  0.20319815913E+02  0.00000000000E+00 0. -1.
</event>
<event>
 7    1  0.5504027E-010  0.4778730E+02  0.7816164E-02  0.1312668E+00
        -11   -1    0    0    0    0  0.00000000000E+00  0.00000000000E+00  0.45593999997E+02  0.45594000000E+02  0.51100000000E-03 0.  1.
         11   -1    0    0    0    0 -0.00000000000E+00 -0.00000000000E+00 -0.45593999997E+02  0.45594000000E+02  0.51100000000E-03 0. -1.
    9900012    2    1    2    0    0  0.33280482695E+02 -0.29047787523E+01  0.27705464446E+02  0.47787296916E+02  0.20000117956E+02 0.  0.
         12    1    1    2    0    0 -0.33280482695E+02  0.29047787523E+01 -0.27705464446E+02  0.43400703084E+02  0.00000000000E+00 0. -1.
         11    1    3    3    0    0 -0.87718706897E+00 -0.37156969521E+01  0.60992648691E+01  0.71956162486E+01  0.51100000000E-03 0. -1.
        -11    1    3    3    0    0  0.21275765649E+02 -0.13841156923E+00  0.15376907488E+02  0.26251221798E+02  0.51100000000E-03 0.  1.
        -12    1    3    3    0    0  0.12881904115E+02  0.94932976902E+00  0.62292920891E+01  0.14340458869E+02  0.00000000000E+00 0.  1.
</event>
<event>
 7    1  0.5504027E-010  0.4778727E+02  0.7816164E-02  0.1312668E+00
        -11   -1    0    0    0    0  0.00000000000E+00  0.00000000000E+00  0.45593999997E+02  0.45594000000E+02  0.51100000000E-03 0. -1.
         11   -1    0    0    0    0 -0.00000000000E+00 -0.00000000000E+00 -0.45593999997E+02  0.45594000000E+02  0.51100000000E-03 0.  1.
    9900012    2    1    2    0    0  0.18924911586E+02  0.38967980729E+02  0.26395846372E+01  0.47787271806E+02  0.20000003474E+02 0.  0.
         12    1    1    2    0    0 -0.18924911586E+02 -0.38967980729E+02 -0.26395846372E+01  0.43400728194E+02  0.00000000000E+00 0. -1.
         11    1    3    3    0    0  0.13259345555E+02  0.25737473636E+02  0.10267162713E+02  0.30718763389E+02  0.51100000000E-03 0. -1.
        -11    1    3    3    0    0  0.50640811628E+01  0.13602050370E+02 -0.75409334651E+01  0.16356233371E+02  0.51100000000E-03 0.  1.
        -12    1    3    3    0    0  0.60148486848E+00 -0.37154327669E+00 -0.86644610737E-01  0.71227504662E+00  0.00000000000E+00 0.  1.
</event>
<event>
 7    1  0.5504027E-010  0.4778727E+02  0.7816164E-02  0.1312668E+00
        -11   -1    0    0    0    0  0.00000000000E+00  0.00000000000E+00  0.45593999997E+02  0.45594000000E+02  0.51100000000E-03 0.  1.
         11   -1    0    0    0    0 -0.00000000000E+00 -0.00000000000E+00 -0.45593999997E+02  0.45594000000E+02  0.51100000000E-03 0. -1.
    9900012    2    1    2    0    0  0.25938272546E+02 -0.71101312950E+01  0.34062814264E+02  0.47787271144E+02  0.20000000452E+02 0.  0.
         12    1    1    2    0    0 -0.25938272546E+02  0.71101312950E+01 -0.34062814264E+02  0.43400728856E+02  0.00000000000E+00 0. -1.
         11    1    3    3    0    0  0.15729821610E+02  0.14167654301E+01  0.18661370127E+02  0.24447520272E+02  0.51100000000E-03 0. -1.
        -11    1    3    3    0    0  0.56643402097E+01  0.20505526395E+01  0.52072763143E+01  0.79627409234E+01  0.51100000000E-03 0.  1.
         12    1    3    3    0    0  0.45441107258E+01 -0.10577449365E+02  0.10194167823E+02  0.15377009948E+02  0.00000000000E+00 0. -1.
</event>
<event>
 7    1  0.5504027E-010  0.4778723E+02  0.7816164E-02  0.1312668E+00
        -11   -1    0    0    0    0  0.00000000000E+00  0.00000000000E+00  0.45593999997E+02  0.45594000000E+02  0.51100000000E-03 0.  1.
         11   -1    0    0    0    0 -0.00000000000E+00 -0.00000000000E+00 -0.45593999997E+02  0.45594000000E+02  0.51100000000E-03 0. -1.
    9900012    2    1    2    0    0 -0.31693751308E+02 -0.26150484764E+02  0.13974429416E+02  0.47787234997E+02  0.19999835645E+02 0.  0.
         12    1    1    2    0    0  0.31693751308E+02  0.26150484764E+02 -0.13974429416E+02  0.43400765003E+02  0.00000000000E+00 0. -1.
         11    1    3    3    0    0 -0.12365367477E+02 -0.82043937097E+01  0.11310197505E+02  0.18658374979E+02  0.51100000000E-03 0. -1.
        -11    1    3    3    0    0 -0.11604700672E+02 -0.54937458097E+01 -0.33818512928E+01  0.13277320480E+02  0.51100000000E-03 0.  1.
        -12    1    3    3    0    0 -0.77236831589E+01 -0.12452345244E+02  0.60460832031E+01  0.15851539538E+02  0.00000000000E+00 0.  1.
</event>
<event>
 7    1  0.5504027E-010  0.4778727E+02  0.7816164E-02  0.1312668E+00
        -11   -1    0    0    0    0  0.00000000000E+00  0.00000000000E+00  0.45593999997E+02  0.45594000000E+02  0.51100000000E-03 0.  1.
         11   -1    0    0    0    0 -0.00000000000E+00 -0.00000000000E+00 -0.45593999997E+02  0.45594000000E+02  0.51100000000E-03 0. -1.
    9900012    2    1    2    0    0  0.12918862528E+02  0.30719796061E+02  0.27803243394E+02  0.47787271639E+02  0.20000002711E+02 0.  0.
         12    1    1    2    0    0 -0.12918862528E+02 -0.30719796061E+02 -0.27803243394E+02  0.43400728361E+02  0.00000000000E+00 0. -1.
         11    1    3    3    0    0  0.71446035108E+01  0.32523170731E+01  0.76449003716E+01  0.10957528354E+02  0.51100000000E-03 0. -1.
        -11    1    3    3    0    0  0.91854798459E+01  0.12909977041E+02  0.95985554027E+01  0.18524924110E+02  0.51100000000E-03 0.  1.
         12    1    3    3    0    0 -0.34112208283E+01  0.14557501947E+02  0.10559787619E+02  0.18304819175E+02  0.00000000000E+00 0. -1.
</event>
<event>
 7    1  0.5504027E-010  0.4778728E+02  0.7816164E-02  0.1312668E+00
        -11   -1    0    0    0    0  0.00000000000E+00  0.00000000000E+00  0.45593999997E+02  0.45594000000E+02  0.51100000000E-03 0.  1.
         11   -1    0    0    0    0 -0.00000000000E+00 -0.00000000000E+00 -0.45593999997E+02  0.45594000000E+02  0.51100000000E-03 0. -1.
    9900012    2    1    2    0    0 -0.33384325030E+02 -0.18831959483E+02  0.20358461410E+02  0.47787276427E+02  0.20000024541E+02 0.  0.
         12    1    1    2    0    0  0.33384325030E+02  0.18831959483E+02 -0.20358461410E+02  0.43400723573E+02  0.00000000000E+00 0. -1.
         11    1    3    3    0    0 -0.67174040118E+01  0.32005342837E+01  0.24703737591E+01  0.78402603994E+01  0.51100000000E-03 0.  1.
        -11    1    3    3    0    0 -0.10354533404E+02 -0.12112126143E+02  0.42739353815E+01  0.16498075210E+02  0.51100000000E-03 0. -1.
        -12    1    3    3    0    0 -0.16312387614E+02 -0.99203676240E+01  0.13614152269E+02  0.23448940818E+02  0.00000000000E+00 0.  1.
</event>
<event>
 7    1  0.5504027E-010  0.4778727E+02  0.7816164E-02  0.1312668E+00
        -11   -1    0    0    0    0  0.00000000000E+00  0.00000000000E+00  0.45593999997E+02  0.45594000000E+02  0.51100000000E-03 0.  1.
         11   -1    0    0    0    0 -0.00000000000E+00 -0.00000000000E+00 -0.45593999997E+02  0.45594000000E+02  0.51100000000E-03 0. -1.
    9900012    2    1    2    0    0  0.38872142302E+02 -0.14395569765E+02  0.12858740905E+02  0.47787273121E+02  0.20000009466E+02 0.  0.
         12    1    1    2    0    0 -0.38872142302E+02  0.14395569765E+02 -0.12858740905E+02  0.43400726879E+02  0.00000000000E+00 0. -1.
         11    1    3    3    0    0  0.68876929751E+01 -0.58503208270E+01  0.88463127825E+01  0.12646098940E+02  0.51100000000E-03 0. -1.
        -11    1    3    3    0    0  0.32468360192E+02 -0.68960824514E+01  0.38249119748E+01  0.33412277962E+02  0.51100000000E-03 0.  1.
        -12    1    3    3    0    0 -0.48391086550E+00 -0.16491664871E+01  0.18751614807E+00  0.17288962184E+01  0.00000000000E+00 0.  1.
</event>
<event>
 7    1  0.5504027E-010  0.4778727E+02  0.7816164E-02  0.1312668E+00
        -11   -1    0    0    0    0  0.00000000000E+00  0.00000000000E+00  0.45593999997E+02  0.45594000000E+02  0.51100000000E-03 0.  1.
         11   -1    0    0    0    0 -0.00000000000E+00 -0.00000000000E+00 -0.45593999997E+02  0.45594000000E+02  0.51100000000E-03 0. -1.
    9900012    2    1    2    0    0 -0.76415774795E+01  0.35294470889E+02  0.24073424662E+02  0.47787272395E+02  0.20000006157E+02 0.  0.
         12    1    1    2    0    0  0.76415774795E+01 -0.35294470889E+02 -0.24073424662E+02  0.43400727605E+02  0.00000000000E+00 0. -1.
         11    1    3    3    0    0  0.92361601954E+00  0.53877898930E+01  0.13800412788E+02  0.14843609394E+02  0.51100000000E-03 0. -1.
        -11    1    3    3    0    0 -0.30824333736E+01  0.16989731355E+02  0.55084077131E+01  0.18124428896E+02  0.51100000000E-03 0.  1.
         12    1    3    3    0    0 -0.54827601254E+01  0.12916949642E+02  0.47646041610E+01  0.14819234105E+02  0.00000000000E+00 0. -1.
</event>
<event>
 7    1  0.5504027E-010  0.4778727E+02  0.7816164E-02  0.1312668E+00
        -11   -1    0    0    0    0  0.00000000000E+00  0.00000000000E+00  0.45593999997E+02  0.45594000000E+02  0.51100000000E-03 0.  1.
         11   -1    0    0    0    0 -0.00000000000E+00 -0.00000000000E+00 -0.45593999997E+02  0.45594000000E+02  0.51100000000E-03 0. -1.
    9900012    2    1    2    0    0 -0.78800719362E+01  0.26851570467E+02  0.33174098778E+02  0.47787271896E+02  0.20000003882E+02 0.  0.
         12    1    1    2    0    0  0.78800719362E+01 -0.26851570467E+02 -0.33174098778E+02  0.43400728104E+02  0.00000000000E+00 0. -1.
         11    1    3    3    0    0 -0.17151609659E+01 -0.15015052470E+01  0.98110985630E+00  0.24817074680E+01  0.51100000000E-03 0. -1.
        -11    1    3    3    0    0  0.11449312014E+01  0.21272446976E+02  0.24987898869E+02  0.32836305486E+02  0.51100000000E-03 0.  1.
        -12    1    3    3    0    0 -0.73098421718E+01  0.70806287377E+01  0.72050900523E+01  0.12469258942E+02  0.00000000000E+00 0.  1.
</event>
<event>
 7    1  0.5504027E-010  0.4778728E+02  0.7816164E-02  0.1312668E+00
        -11   -1    0    0    0    0  0.00000000000E+00  0.00000000000E+00  0.45593999997E+02  0.45594000000E+02  0.51100000000E-03 0. -1.
         11   -1    0    0    0    0 -0.00000000000E+00 -0.00000000000E+00 -0.45593999997E+02  0.45594000000E+02  0.51100000000E-03 0.  1.
    9900012    2    1    2    0    0  0.40452855684E+02 -0.15705588735E+02  0.72354418636E+00  0.47787279192E+02  0.20000037146E+02 0.  0.
         12    1    1    2    0    0 -0.40452855684E+02  0.15705588735E+02 -0.72354418636E+00  0.43400720808E+02  0.00000000000E+00 0. -1.
         11    1    3    3    0    0  0.32563087745E+02 -0.10657851606E+02  0.25730876252E+00  0.34263839428E+02  0.51100000000E-03 0. -1.
        -11    1    3    3    0    0  0.65907164917E+01 -0.79234076955E+01  0.86702790305E+00  0.10342614323E+02  0.51100000000E-03 0.  1.
         12    1    3    3    0    0  0.12990514477E+01  0.28756705666E+01 -0.40079247920E+00  0.31808254404E+01  0.00000000000E+00 0. -1.
</event>
<event>
 7    1  0.5504027E-010  0.4778727E+02  0.7816164E-02  0.1312668E+00
        -11   -1    0    0    0    0  0.00000000000E+00  0.00000000000E+00  0.45593999997E+02  0.45594000000E+02  0.51100000000E-03 0.  1.
         11   -1    0    0    0    0 -0.00000000000E+00 -0.00000000000E+00 -0.45593999997E+02  0.45594000000E+02  0.51100000000E-03 0. -1.
    9900012    2    1    2    0    0  0.14159069459E+02 -0.27448112179E+02  0.30491722623E+02  0.47787271219E+02  0.20000000797E+02 0.  0.
         12    1    1    2    0    0 -0.14159069459E+02  0.27448112179E+02 -0.30491722623E+02  0.43400728781E+02  0.00000000000E+00 0. -1.
         11    1    3    3    0    0  0.48561515526E+01 -0.10538445873E+02  0.10553727452E+01  0.11651388810E+02  0.51100000000E-03 0.  1.
        -11    1    3    3    0    0  0.60595282484E+01 -0.40060052726E+01  0.13879262444E+02  0.15665244559E+02  0.51100000000E-03 0. -1.
         12    1    3    3    0    0  0.32433896582E+01 -0.12903661034E+02  0.15557087434E+02  0.20470637850E+02  0.00000000000E+00 0. -1.
</event>
<event>
 7    1  0.5504027E-010  0.4778727E+02  0.7816164E-02  0.1312668E+00
        -11   -1    0    0    0    0  0.00000000000E+00  0.00000000000E+00  0.45593999997E+02  0.45594000000E+02  0.51100000000E-03 0. -1.
         11   -1    0    0    0    0 -0.00000000000E+00 -0.00000000000E+00 -0.45593999997E+02  0.45594000000E+02  0.51100000000E-03 0.  1.
    9900012    2    1    2    0    0 -0.34854785389E+02  0.22830757053E+02 -0.12145932109E+02  0.47787271907E+02  0.20000003935E+02 0.  0.
         12    1    1    2    0    0  0.34854785389E+02 -0.22830757053E+02  0.12145932109E+02  0.43400728093E+02  0.00000000000E+00 0. -1.
         11    1    3    3    0    0 -0.17100003013E+02  0.82792147285E+01 -0.14554098743E+01  0.19054493374E+02  0.51100000000E-03 0. -1.
        -11    1    3    3    0    0 -0.61981032551E+01  0.72561787739E+01 -0.11617740700E+02  0.15034643780E+02  0.51100000000E-03 0.  1.
        -12    1    3    3    0    0 -0.11556679121E+02  0.72953635510E+01  0.92721846490E+00  0.13698134754E+02  0.00000000000E+00 0.  1.
</event>
<event>
 7    1  0.5504027E-010  0.4778727E+02  0.7816164E-02  0.1312668E+00
        -11   -1    0    0    0    0  0.00000000000E+00  0.00000000000E+00  0.45593999997E+02  0.45594000000E+02  0.51100000000E-03 0.  1.
         11   -1    0    0    0    0 -0.00000000000E+00 -0.00000000000E+00 -0.45593999997E+02  0.45594000000E+02  0.51100000000E-03 0. -1.
    9900012    2    1    2    0    0 -0.14035042821E+02 -0.62034386049E+01  0.40597515674E+02  0.47787270094E+02  0.19999995665E+02 0.  0.
         12    1    1    2    0    0  0.14035042821E+02  0.62034386049E+01 -0.40597515674E+02  0.43400729906E+02  0.00000000000E+00 0. -1.
         11    1    3    3    0    0 -0.64804696136E+01  0.67509279371E+01  0.13839442396E+02  0.16706336538E+02  0.51100000000E-03 0. -1.
        -11    1    3    3    0    0 -0.76639626864E+01 -0.88763959375E+01  0.19481773254E+02  0.22739090093E+02  0.51100000000E-03 0.  1.
         12    1    3    3    0    0  0.10938947934E+00 -0.40779706045E+01  0.72763000244E+01  0.83418434626E+01  0.00000000000E+00 0. -1.
</event>
<event>
 7    1  0.5504027E-010  0.4778727E+02  0.7816164E-02  0.1312668E+00
        -11   -1    0    0    0    0  0.00000000000E+00  0.00000000000E+00  0.45593999997E+02  0.45594000000E+02  0.51100000000E-03 0. -1.
         11   -1    0    0    0    0 -0.00000000000E+00 -0.00000000000E+00 -0.45593999997E+02  0.45594000000E+02  0.51100000000E-03 0.  1.
    9900012    2    1    2    0    0  0.22963726952E+02  0.36437306237E+02 -0.53491281079E+01  0.47787271748E+02  0.20000003206E+02 0.  0.
         12    1    1    2    0    0 -0.22963726952E+02 -0.36437306237E+02  0.53491281079E+01  0.43400728252E+02  0.00000000000E+00 0. -1.
         11    1    3    3    0    0  0.18027454022E+01  0.19483953532E+01 -0.18165182278E+01  0.32165002986E+01  0.51100000000E-03 0. -1.
        -11    1    3    3    0    0  0.22914644357E+02  0.33361196629E+02 -0.64514053753E+01  0.40983789455E+02  0.51100000000E-03 0.  1.
        -12    1    3    3    0    0 -0.17536628073E+01  0.11277142543E+01  0.29187954951E+01  0.35869819938E+01  0.00000000000E+00 0.  1.
</event>
<event>
 7    1  0.5504027E-010  0.4778727E+02  0.7816164E-02  0.1312668E+00
        -11   -1    0    0    0    0  0.00000000000E+00  0.00000000000E+00  0.45593999997E+02  0.45594000000E+02  0.51100000000E-03 0.  1.
         11   -1    0    0    0    0 -0.00000000000E+00 -0.00000000000E+00 -0.45593999997E+02  0.45594000000E+02  0.51100000000E-03 0. -1.
    9900012    2    1    2    0    0 -0.94936789636E+00  0.11882816059E+02  0.41731530145E+02  0.47787271606E+02  0.20000002558E+02 0.  0.
         12    1    1    2    0    0  0.94936789636E+00 -0.11882816059E+02 -0.41731530145E+02  0.43400728394E+02  0.00000000000E+00 0. -1.
         11    1    3    3    0    0 -0.48019997266E+01 -0.27430826692E+01  0.46204845468E+01  0.72064264107E+01  0.51100000000E-03 0. -1.
        -11    1    3    3    0    0  0.52358210922E+01  0.86358555335E+01  0.25817433425E+02  0.27722404156E+02  0.51100000000E-03 0.  1.
         12    1    3    3    0    0 -0.13831892620E+01  0.59900431946E+01  0.11293612174E+02  0.12858441039E+02  0.00000000000E+00 0. -1.
</event>
<event>
 7    1  0.5504027E-010  0.4778727E+02  0.7816164E-02  0.1312668E+00
        -11   -1    0    0    0    0  0.00000000000E+00  0.00000000000E+00  0.45593999997E+02  0.45594000000E+02  0.51100000000E-03 0. -1.
         11   -1    0    0    0    0 -0.00000000000E+00 -0.00000000000E+00 -0.45593999997E+02  0.45594000000E+02  0.51100000000E-03 0.  1.
    9900012    2    1    2    0    0 -0.28510721924E+02  0.20973944452E+00 -0.32721825830E+02  0.47787272576E+02  0.20000006983E+02 0.  0.
         12    1    1    2    0    0  0.28510721924E+02 -0.20973944452E+00  0.32721825830E+02  0.43400727424E+02  0.00000000000E+00 0. -1.
         11    1    3    3    0    0 -0.67299845615E+01  0.64503501059E+01 -0.13844593676E+02  0.16690490796E+02  0.51100000000E-03 0. -1.
        -11    1    3    3    0    0 -0.88909136324E+01 -0.74440055047E+01 -0.71090708628E+01  0.13601487123E+02  0.51100000000E-03 0.  1.
        -12    1    3    3    0    0 -0.12889823731E+02  0.12033948433E+01 -0.11768161291E+02  0.17495294657E+02  0.00000000000E+00 0.  1.
</event>
<event>
 7    1  0.5620894E-010  0.4778727E+02  0.7816164E-02  0.1312668E+00
        -11   -1    0    0    0    0  0.00000000000E+00  0.00000000000E+00  0.45593999997E+02  0.45594000000E+02  0.51100000000E-03 0. -1.
         11   -1    0    0    0    0 -0.00000000000E+00 -0.00000000000E+00 -0.45593999997E+02  0.45594000000E+02  0.51100000000E-03 0.  1.
    9900012    2    1    2    0    0 -0.39106796224E+02  0.74445701639E+01  0.17287570354E+02  0.47787271612E+02  0.20000002587E+02 0.  0.
         12    1    1    2    0    0  0.39106796224E+02 -0.74445701639E+01 -0.17287570354E+02  0.43400728388E+02  0.00000000000E+00 0. -1.
         11    1    3    3    0    0 -0.14167193703E+01  0.34237973988E+01 -0.19830046342E+01  0.42025932521E+01  0.51100000000E-03 0. -1.
        -11    1    3    3    0    0 -0.29848017609E+02  0.43358270776E+01  0.10798865459E+02  0.32036214619E+02  0.51100000000E-03 0.  1.
        -12    1    3    3    0    0 -0.78420592447E+01 -0.31505431250E+00  0.84717095295E+01  0.11548463741E+02  0.00000000000E+00 0.  1.
</event>
<event>
 7    1  0.6431423E-010  0.4778727E+02  0.7816164E-02  0.1312668E+00
        -11   -1    0    0    0    0  0.00000000000E+00  0.00000000000E+00  0.45593999997E+02  0.45594000000E+02  0.51100000000E-03 0.  1.
         11   -1    0    0    0    0 -0.00000000000E+00 -0.00000000000E+00 -0.45593999997E+02  0.45594000000E+02  0.51100000000E-03 0. -1.
    9900012    2    1    2    0    0  0.35600544059E+02  0.13028123342E+02  0.21130369948E+02  0.47787271098E+02  0.20000000243E+02 0.  0.
         12    1    1    2    0    0 -0.35600544059E+02 -0.13028123342E+02 -0.21130369948E+02  0.43400728902E+02  0.00000000000E+00 0. -1.
         11    1    3    3    0    0  0.98831841946E+01  0.18946281940E+01 -0.16181083785E+01  0.10192409961E+02  0.51100000000E-03 0. -1.
        -11    1    3    3    0    0  0.24647076320E+02  0.69764494570E+01  0.18951171943E+02  0.31863711906E+02  0.51100000000E-03 0.  1.
         12    1    3    3    0    0  0.10702835443E+01  0.41570456905E+01  0.37973063841E+01  0.57311492314E+01  0.00000000000E+00 0. -1.
</event>
<event>
 7    1  0.5504027E-010  0.4778727E+02  0.7816164E-02  0.1312668E+00
        -11   -1    0    0    0    0  0.00000000000E+00  0.00000000000E+00  0.45593999997E+02  0.45594000000E+02  0.51100000000E-03 0.  1.
         11   -1    0    0    0    0 -0.00000000000E+00 -0.00000000000E+00 -0.45593999997E+02  0.45594000000E+02  0.51100000000E-03 0. -1.
    9900012    2    1    2    0    0 -0.67769764067E+01  0.15632052686E+02  0.39916595909E+02  0.47787272940E+02  0.20000008643E+02 0.  0.
         12    1    1    2    0    0  0.67769764067E+01 -0.15632052686E+02 -0.39916595909E+02  0.43400727060E+02  0.00000000000E+00 0. -1.
         11    1    3    3    0    0 -0.43994969374E+01  0.62466525056E+01  0.11382913075E+01  0.77247620151E+01  0.51100000000E-03 0. -1.
        -11    1    3    3    0    0 -0.16693284196E+01  0.90867102509E+01  0.34494069097E+02  0.35709883277E+02  0.51100000000E-03 0.  1.
         12    1    3    3    0    0 -0.70815104975E+00  0.29868992925E+00  0.42842355045E+01  0.43526276479E+01  0.00000000000E+00 0. -1.
</event>
<event>
 7    1  0.5504027E-010  0.4778726E+02  0.7816164E-02  0.1312668E+00
        -11   -1    0    0    0    0  0.00000000000E+00  0.00000000000E+00  0.45593999997E+02  0.45594000000E+02  0.51100000000E-03 0.  1.
         11   -1    0    0    0    0 -0.00000000000E+00 -0.00000000000E+00 -0.45593999997E+02  0.45594000000E+02  0.51100000000E-03 0. -1.
    9900012    2    1    2    0    0 -0.83424058313E+01 -0.18621129923E+01  0.42550682717E+02  0.47787264988E+02  0.19999972387E+02 0.  0.
         12    1    1    2    0    0  0.83424058313E+01  0.18621129923E+01 -0.42550682717E+02  0.43400735012E+02  0.00000000000E+00 0. -1.
         11    1    3    3    0    0 -0.67893422192E+00 -0.15278808483E+01  0.18355418825E+02  0.18431407219E+02  0.51100000000E-03 0.  1.
        -11    1    3    3    0    0 -0.27248330636E+01  0.69910439164E+01  0.13848064246E+02  0.15750183932E+02  0.51100000000E-03 0. -1.
        -12    1    3    3    0    0 -0.49386385459E+01 -0.73252760604E+01  0.10347199647E+02  0.13605673838E+02  0.00000000000E+00 0.  1.
</event>
<event>
 7    1  0.5504027E-010  0.4778727E+02  0.7816164E-02  0.1312668E+00
        -11   -1    0    0    0    0  0.00000000000E+00  0.00000000000E+00  0.45593999997E+02  0.45594000000E+02  0.51100000000E-03 0.  1.
         11   -1    0    0    0    0 -0.00000000000E+00 -0.00000000000E+00 -0.45593999997E+02  0.45594000000E+02  0.51100000000E-03 0. -1.
    9900012    2    1    2    0    0 -0.37874479825E+02 -0.17474963568E+02  0.11990524398E+02  0.47787271331E+02  0.20000001305E+02 0.  0.
         12    1    1    2    0    0  0.37874479825E+02  0.17474963568E+02 -0.11990524398E+02  0.43400728669E+02  0.00000000000E+00 0. -1.
         11    1    3    3    0    0 -0.19673048162E+02 -0.79235931915E+01  0.14646621541E+02  0.25774710005E+02  0.51100000000E-03 0.  1.
        -11    1    3    3    0    0 -0.17517109607E+02 -0.94472618416E+01 -0.67465157520E+00  0.19913689771E+02  0.51100000000E-03 0. -1.
        -12    1    3    3    0    0 -0.68432205624E+00 -0.10410853494E+00 -0.19814455677E+01  0.20988715543E+01  0.00000000000E+00 0.  1.
</event>
<event>
 7    1  0.5504027E-010  0.4778728E+02  0.7816164E-02  0.1312668E+00
        -11   -1    0    0    0    0  0.00000000000E+00  0.00000000000E+00  0.45593999997E+02  0.45594000000E+02  0.51100000000E-03 0.  1.
         11   -1    0    0    0    0 -0.00000000000E+00 -0.00000000000E+00 -0.45593999997E+02  0.45594000000E+02  0.51100000000E-03 0. -1.
    9900012    2    1    2    0    0  0.20150195073E+02  0.14329961563E+02  0.35668536879E+02  0.47787277852E+02  0.20000031037E+02 0.  0.
         12    1    1    2    0    0 -0.20150195073E+02 -0.14329961563E+02 -0.35668536879E+02  0.43400722148E+02  0.00000000000E+00 0. -1.
         11    1    3    3    0    0 -0.30939207680E+01  0.40971642430E+01  0.19132191986E+01  0.54790061614E+01  0.51100000000E-03 0. -1.
        -11    1    3    3    0    0  0.22140391270E+02  0.91572118806E+01  0.31494631055E+02  0.39572253418E+02  0.51100000000E-03 0.  1.
         12    1    3    3    0    0  0.11037245708E+01  0.10755854397E+01  0.22606866259E+01  0.27360182724E+01  0.00000000000E+00 0. -1.
</event>
<event>
 7    1  0.5504027E-010  0.4778731E+02  0.7816164E-02  0.1312668E+00
        -11   -1    0    0    0    0  0.00000000000E+00  0.00000000000E+00  0.45593999997E+02  0.45594000000E+02  0.51100000000E-03 0. -1.
         11   -1    0    0    0    0 -0.00000000000E+00 -0.00000000000E+00 -0.45593999997E+02  0.45594000000E+02  0.51100000000E-03 0.  1.
    9900012    2    1    2    0    0  0.13625287934E+02  0.30768797442E+02 -0.27408991569E+02  0.47787306617E+02  0.20000162189E+02 0.  0.
         12    1    1    2    0    0 -0.13625287934E+02 -0.30768797442E+02  0.27408991569E+02  0.43400693383E+02  0.00000000000E+00 0. -1.
         11    1    3    3    0    0  0.99640171885E+01  0.15194051219E+02 -0.55737542570E+01  0.19005461524E+02  0.51100000000E-03 0. -1.
        -11    1    3    3    0    0  0.47505461974E+01  0.77906539116E+01 -0.55005071025E+01  0.10654461797E+02  0.51100000000E-03 0.  1.
         12    1    3    3    0    0 -0.10892754522E+01  0.77840923115E+01 -0.16334730209E+02  0.18127383295E+02  0.00000000000E+00 0. -1.
</event>
<event>
 7    1  0.5504027E-010  0.4778728E+02  0.7816164E-02  0.1312668E+00
        -11   -1    0    0    0    0  0.00000000000E+00  0.00000000000E+00  0.45593999997E+02  0.45594000000E+02  0.51100000000E-03 0.  1.
         11   -1    0    0    0    0 -0.00000000000E+00 -0.00000000000E+00 -0.45593999997E+02  0.45594000000E+02  0.51100000000E-03 0. -1.
    9900012    2    1    2    0    0  0.33155672870E+01 -0.20450522384E+01  0.43225535719E+02  0.47787283839E+02  0.20000058335E+02 0.  0.
         12    1    1    2    0    0 -0.33155672870E+01  0.20450522384E+01 -0.43225535719E+02  0.43400716161E+02  0.00000000000E+00 0. -1.
         11    1    3    3    0    0  0.13486541517E+01  0.58803233507E+01  0.60286838324E+01  0.85288979207E+01  0.51100000000E-03 0. -1.
        -11    1    3    3    0    0  0.34541783473E+01 -0.24184072889E+01  0.28801199573E+02  0.29108231464E+02  0.51100000000E-03 0.  1.
        -12    1    3    3    0    0 -0.14872652121E+01 -0.55069683003E+01  0.83956523138E+01  0.10150154454E+02  0.00000000000E+00 0.  1.
</event>
<event>
 7    1  0.5504027E-010  0.4778726E+02  0.7816164E-02  0.1312668E+00
        -11   -1    0    0    0    0  0.00000000000E+00  0.00000000000E+00  0.45593999997E+02  0.45594000000E+02  0.51100000000E-03 0.  1.
         11   -1    0    0    0    0 -0.00000000000E+00 -0.00000000000E+00 -0.45593999997E+02  0.45594000000E+02  0.51100000000E-03 0. -1.
    9900012    2    1    2    0    0 -0.31444396376E+02 -0.29213531003E+02  0.64376973440E+01  0.47787258023E+02  0.19999940630E+02 0.  0.
         12    1    1    2    0    0  0.31444396376E+02  0.29213531003E+02 -0.64376973440E+01  0.43400741977E+02  0.00000000000E+00 0. -1.
         11    1    3    3    0    0 -0.20523397288E+02 -0.61326663502E+01  0.26326192823E+00  0.21421688540E+02  0.51100000000E-03 0. -1.
        -11    1    3    3    0    0 -0.72574242601E+01 -0.17549461094E+02  0.43073513590E+01  0.19473239781E+02  0.51100000000E-03 0.  1.
         12    1    3    3    0    0 -0.36635748272E+01 -0.55314035587E+01  0.18670840567E+01  0.68923297018E+01  0.00000000000E+00 0. -1.
</event>
<event>
 7    1  0.5504027E-010  0.4778727E+02  0.7816164E-02  0.1312668E+00
        -11   -1    0    0    0    0  0.00000000000E+00  0.00000000000E+00  0.45593999997E+02  0.45594000000E+02  0.51100000000E-03 0.  1.
         11   -1    0    0    0    0 -0.00000000000E+00 -0.00000000000E+00 -0.45593999997E+02  0.45594000000E+02  0.51100000000E-03 0. -1.
    9900012    2    1    2    0    0 -0.42498358173E+02  0.61449714818E+01  0.63049185193E+01  0.47787272824E+02  0.20000008112E+02 0.  0.
         12    1    1    2    0    0  0.42498358173E+02 -0.61449714818E+01 -0.63049185193E+01  0.43400727176E+02  0.00000000000E+00 0. -1.
         11    1    3    3    0    0 -0.24084083807E+02 -0.46551528588E+01 -0.12636533916E+00  0.24530175487E+02  0.51100000000E-03 0. -1.
        -11    1    3    3    0    0 -0.68589014710E+01  0.35974281541E+01  0.57086362225E+01  0.96215667381E+01  0.51100000000E-03 0.  1.
         12    1    3    3    0    0 -0.11555372895E+02  0.72026961865E+01  0.72264763595E+00  0.13635530599E+02  0.00000000000E+00 0. -1.
</event>
<event>
 7    1  0.5504027E-010  0.4778727E+02  0.7816164E-02  0.1312668E+00
        -11   -1    0    0    0    0  0.00000000000E+00  0.00000000000E+00  0.45593999997E+02  0.45594000000E+02  0.51100000000E-03 0.  1.
         11   -1    0    0    0    0 -0.00000000000E+00 -0.00000000000E+00 -0.45593999997E+02  0.45594000000E+02  0.51100000000E-03 0. -1.
    9900012    2    1    2    0    0 -0.16639327181E+02  0.22726114113E+02  0.33019382602E+02  0.47787273057E+02  0.20000009177E+02 0.  0.
         12    1    1    2    0    0  0.16639327181E+02 -0.22726114113E+02 -0.33019382602E+02  0.43400726943E+02  0.00000000000E+00 0. -1.
         11    1    3    3    0    0 -0.95099488381E+01  0.16537466188E+02  0.22672163493E+02  0.29630287081E+02  0.51100000000E-03 0.  1.
        -11    1    3    3    0    0 -0.84253907472E+01  0.31416827275E+01  0.20490222236E+01  0.92225740408E+01  0.51100000000E-03 0. -1.
         12    1    3    3    0    0  0.12960124039E+01  0.30469651975E+01  0.82981968860E+01  0.89344119350E+01  0.00000000000E+00 0. -1.
</event>
<event>
 7    1  0.5504027E-010  0.4778727E+02  0.7816164E-02  0.1312668E+00
        -11   -1    0    0    0    0  0.00000000000E+00  0.00000000000E+00  0.45593999997E+02  0.45594000000E+02  0.51100000000E-03 0. -1.
         11   -1    0    0    0    0 -0.00000000000E+00 -0.00000000000E+00 -0.45593999997E+02  0.45594000000E+02  0.51100000000E-03 0.  1.
    9900012    2    1    2    0    0 -0.21412592093E+01  0.34413162003E+02 -0.26358541251E+02  0.47787269512E+02  0.19999993012E+02 0.  0.
         12    1    1    2    0    0  0.21412592093E+01 -0.34413162003E+02  0.26358541251E+02  0.43400730488E+02  0.00000000000E+00 0. -1.
         11    1    3    3    0    0  0.55820027563E+01  0.65958162100E+01 -0.70219510796E+00  0.86692920402E+01  0.51100000000E-03 0. -1.
        -11    1    3    3    0    0 -0.59807360377E+01  0.25181377882E+02 -0.20276045252E+02  0.32878397268E+02  0.51100000000E-03 0.  1.
         12    1    3    3    0    0 -0.17425259280E+01  0.26359679105E+01 -0.53803008912E+01  0.62395802035E+01  0.00000000000E+00 0. -1.
</event>
<event>
 7    1  0.5504027E-010  0.4778727E+02  0.7816164E-02  0.1312668E+00
        -11   -1    0    0    0    0  0.00000000000E+00  0.00000000000E+00  0.45593999997E+02  0.45594000000E+02  0.51100000000E-03 0.  1.
         11   -1    0    0    0    0 -0.00000000000E+00 -0.00000000000E+00 -0.45593999997E+02  0.45594000000E+02  0.51100000000E-03 0. -1.
    9900012    2    1    2    0    0 -0.40977805958E+01  0.42797660715E+02 -0.59322478641E+01  0.47787272665E+02  0.20000007387E+02 0.  0.
         12    1    1    2    0    0  0.40977805958E+01 -0.42797660715E+02  0.59322478641E+01  0.43400727335E+02  0.00000000000E+00 0. -1.
         11    1    3    3    0    0 -0.67106090776E+01  0.36149526618E+02  0.24811370893E+00  0.36767949488E+02  0.51100000000E-03 0. -1.
        -11    1    3    3    0    0  0.22898353109E+01  0.76938625541E+01 -0.53822355016E+01  0.96647465569E+01  0.51100000000E-03 0.  1.
         12    1    3    3    0    0  0.32299317085E+00 -0.10457284564E+01 -0.79812607139E+00  0.13545766198E+01  0.00000000000E+00 0. -1.
</event>
<event>
 7    1  0.5504027E-010  0.4778727E+02  0.7816164E-02  0.1312668E+00
        -11   -1    0    0    0    0  0.00000000000E+00  0.00000000000E+00  0.45593999997E+02  0.45594000000E+02  0.51100000000E-03 0. -1.
         11   -1    0    0    0    0 -0.00000000000E+00 -0.00000000000E+00 -0.45593999997E+02  0.45594000000E+02  0.51100000000E-03 0.  1.
    9900012    2    1    2    0    0  0.35572965186E+02  0.52180941684E+01 -0.24309653960E+02  0.47787266889E+02  0.19999981055E+02 0.  0.
         12    1    1    2    0    0 -0.35572965186E+02 -0.52180941684E+01  0.24309653960E+02  0.43400733111E+02  0.00000000000E+00 0. -1.
         11    1    3    3    0    0  0.30590690356E+00  0.16347936536E+01 -0.68611444130E+01  0.70598464743E+01  0.51100000000E-03 0. -1.
        -11    1    3    3    0    0  0.27706681865E+02  0.68581174943E+01 -0.12997689839E+02  0.31362938908E+02  0.51100000000E-03 0.  1.
        -12    1    3    3    0    0  0.75603764177E+01 -0.32748169794E+01 -0.44508197083E+01  0.93644815073E+01  0.00000000000E+00 0.  1.
</event>
<event>
 7    1  0.5504027E-010  0.4778727E+02  0.7816164E-02  0.1312668E+00
        -11   -1    0    0    0    0  0.00000000000E+00  0.00000000000E+00  0.45593999997E+02  0.45594000000E+02  0.51100000000E-03 0. -1.
         11   -1    0    0    0    0 -0.00000000000E+00 -0.00000000000E+00 -0.45593999997E+02  0.45594000000E+02  0.51100000000E-03 0.  1.
    9900012    2    1    2    0    0 -0.26796341491E+01  0.20662795539E+02 -0.38072192105E+02  0.47787269933E+02  0.19999994934E+02 0.  0.
         12    1    1    2    0    0  0.26796341491E+01 -0.20662795539E+02  0.38072192105E+02  0.43400730067E+02  0.00000000000E+00 0. -1.
         11    1    3    3    0    0 -0.78271667336E+01  0.71576547490E+01 -0.16610238000E+02  0.19707779359E+02  0.51100000000E-03 0. -1.
        -11    1    3    3    0    0  0.83799705358E+01  0.11643788429E+02 -0.17672563837E+02  0.22762276424E+02  0.51100000000E-03 0.  1.
        -12    1    3    3    0    0 -0.32324379513E+01  0.18613523610E+01 -0.37893902680E+01  0.53172141507E+01  0.00000000000E+00 0.  1.
</event>
<event>
 7    1  0.5504027E-010  0.4778727E+02  0.7816164E-02  0.1312668E+00
        -11   -1    0    0    0    0  0.00000000000E+00  0.00000000000E+00  0.45593999997E+02  0.45594000000E+02  0.51100000000E-03 0.  1.
         11   -1    0    0    0    0 -0.00000000000E+00 -0.00000000000E+00 -0.45593999997E+02  0.45594000000E+02  0.51100000000E-03 0. -1.
    9900012    2    1    2    0    0 -0.29944502426E+02 -0.16495471677E+02  0.26736668017E+02  0.47787271573E+02  0.20000002408E+02 0.  0.
         12    1    1    2    0    0  0.29944502426E+02  0.16495471677E+02 -0.26736668017E+02  0.43400728427E+02  0.00000000000E+00 0. -1.
         11    1    3    3    0    0  0.71786844763E+00 -0.43866815099E+01  0.25102906643E+01  0.51048868017E+01  0.51100000000E-03 0. -1.
        -11    1    3    3    0    0 -0.17746963619E+02 -0.33751202468E+01  0.19052011761E+02  0.26255005366E+02  0.51100000000E-03 0.  1.
        -12    1    3    3    0    0 -0.12915407255E+02 -0.87336699204E+01  0.51743655916E+01  0.16427379405E+02  0.00000000000E+00 0.  1.
</event>
<event>
 7    1  0.5504027E-010  0.4778727E+02  0.7816164E-02  0.1312668E+00
        -11   -1    0    0    0    0  0.00000000000E+00  0.00000000000E+00  0.45593999997E+02  0.45594000000E+02  0.51100000000E-03 0.  1.
         11   -1    0    0    0    0 -0.00000000000E+00 -0.00000000000E+00 -0.45593999997E+02  0.45594000000E+02  0.51100000000E-03 0. -1.
    9900012    2    1    2    0    0  0.18795150965E+02  0.32248613124E+02  0.22144814297E+02  0.47787267881E+02  0.19999985575E+02 0.  0.
         12    1    1    2    0    0 -0.18795150965E+02 -0.32248613124E+02 -0.22144814297E+02  0.43400732119E+02  0.00000000000E+00 0. -1.
         11    1    3    3    0    0  0.60491366335E+01  0.53386065264E+01  0.13928571289E+02  0.16096517390E+02  0.51100000000E-03 0. -1.
        -11    1    3    3    0    0  0.12729967482E+02  0.23681669216E+02  0.90285645544E+01  0.28361743725E+02  0.51100000000E-03 0.  1.
         12    1    3    3    0    0  0.16046849289E-01  0.32283373819E+01 -0.81232154643E+00  0.33290067659E+01  0.00000000000E+00 0. -1.
</event>
<event>
 7    1  0.5504027E-010  0.4778728E+02  0.7816164E-02  0.1312668E+00
        -11   -1    0    0    0    0  0.00000000000E+00  0.00000000000E+00  0.45593999997E+02  0.45594000000E+02  0.51100000000E-03 0.  1.
         11   -1    0    0    0    0 -0.00000000000E+00 -0.00000000000E+00 -0.45593999997E+02  0.45594000000E+02  0.51100000000E-03 0. -1.
    9900012    2    1    2    0    0 -0.19565235764E+02  0.36189592733E+02  0.13825261382E+02  0.47787275064E+02  0.20000018326E+02 0.  0.
         12    1    1    2    0    0  0.19565235764E+02 -0.36189592733E+02 -0.13825261382E+02  0.43400724936E+02  0.00000000000E+00 0. -1.
         11    1    3    3    0    0 -0.11294662998E+02  0.22426494144E+02 -0.15872999947E+01  0.25160218071E+02  0.51100000000E-03 0. -1.
        -11    1    3    3    0    0 -0.81183632563E+01  0.13037974853E+02  0.13060915339E+02  0.20161451336E+02  0.51100000000E-03 0.  1.
        -12    1    3    3    0    0 -0.15220951024E+00  0.72512373625E+00  0.23516460382E+01  0.24656056572E+01  0.00000000000E+00 0.  1.
</event>
<event>
 7    1  0.5504027E-010  0.4778726E+02  0.7816164E-02  0.1312668E+00
        -11   -1    0    0    0    0  0.00000000000E+00  0.00000000000E+00  0.45593999997E+02  0.45594000000E+02  0.51100000000E-03 0. -1.
         11   -1    0    0    0    0 -0.00000000000E+00 -0.00000000000E+00 -0.45593999997E+02  0.45594000000E+02  0.51100000000E-03 0.  1.
    9900012    2    1    2    0    0  0.17736198466E+02  0.22041105164E+02 -0.32912622907E+02  0.47787264989E+02  0.19999972393E+02 0.  0.
         12    1    1    2    0    0 -0.17736198466E+02 -0.22041105164E+02  0.32912622907E+02  0.43400735011E+02  0.00000000000E+00 0. -1.
         11    1    3    3    0    0 -0.15833566903E+01  0.71882465008E+01 -0.58873909634E+01  0.94254590754E+01  0.51100000000E-03 0. -1.
        -11    1    3    3    0    0  0.17363125816E+02  0.12895713902E+02 -0.15758482422E+02  0.26760182056E+02  0.51100000000E-03 0.  1.
        -12    1    3    3    0    0  0.19564293397E+01  0.19571447614E+01 -0.11266749521E+02  0.11601623858E+02  0.00000000000E+00 0.  1.
</event>
<event>
 7    1  0.5504027E-010  0.4778727E+02  0.7816164E-02  0.1312668E+00
        -11   -1    0    0    0    0  0.00000000000E+00  0.00000000000E+00  0.45593999997E+02  0.45594000000E+02  0.51100000000E-03 0. -1.
         11   -1    0    0    0    0 -0.00000000000E+00 -0.00000000000E+00 -0.45593999997E+02  0.45594000000E+02  0.51100000000E-03 0.  1.
    9900012    2    1    2    0    0 -0.30120310107E+02  0.24459341063E+02 -0.19445584637E+02  0.47787271803E+02  0.20000003458E+02 0.  0.
         12    1    1    2    0    0  0.30120310107E+02 -0.24459341063E+02  0.19445584637E+02  0.43400728197E+02  0.00000000000E+00 0. -1.
         11    1    3    3    0    0  0.17938437437E+00  0.30240746836E+01 -0.14125886506E+01  0.33425459462E+01  0.51100000000E-03 0. -1.
        -11    1    3    3    0    0 -0.31520313091E+02  0.22699867426E+02 -0.17534911701E+02  0.42617921666E+02  0.51100000000E-03 0.  1.
        -12    1    3    3    0    0  0.12206186094E+01 -0.12646010466E+01 -0.49808428554E+00  0.18268041909E+01  0.00000000000E+00 0.  1.
</event>
<event>
 7    1  0.5504027E-010  0.4778727E+02  0.7816164E-02  0.1312668E+00
        -11   -1    0    0    0    0  0.00000000000E+00  0.00000000000E+00  0.45593999997E+02  0.45594000000E+02  0.51100000000E-03 0.  1.
         11   -1    0    0    0    0 -0.00000000000E+00 -0.00000000000E+00 -0.45593999997E+02  0.45594000000E+02  0.51100000000E-03 0. -1.
    9900012    2    1    2    0    0 -0.10290048716E+02 -0.39439844438E+02  0.14907614749E+02  0.47787269484E+02  0.19999992884E+02 0.  0.
         12    1    1    2    0    0  0.10290048716E+02  0.39439844438E+02 -0.14907614749E+02  0.43400730516E+02  0.00000000000E+00 0. -1.
         11    1    3    3    0    0 -0.68032832364E+01 -0.64809360212E+01 -0.20219365193E+01  0.96112133498E+01  0.51100000000E-03 0. -1.
        -11    1    3    3    0    0 -0.49582995309E+01 -0.18356311341E+02  0.62134103224E+01  0.20003633880E+02  0.51100000000E-03 0.  1.
         12    1    3    3    0    0  0.14715340511E+01 -0.14602597075E+02  0.10716140946E+02  0.18172422254E+02  0.00000000000E+00 0. -1.
</event>
<event>
 7    1  0.5504027E-010  0.4778727E+02  0.7816164E-02  0.1312668E+00
        -11   -1    0    0    0    0  0.00000000000E+00  0.00000000000E+00  0.45593999997E+02  0.45594000000E+02  0.51100000000E-03 0.  1.
         11   -1    0    0    0    0 -0.00000000000E+00 -0.00000000000E+00 -0.45593999997E+02  0.45594000000E+02  0.51100000000E-03 0. -1.
    9900012    2    1    2    0    0 -0.15728908412E+02  0.95317399314E+00  0.40439042035E+02  0.47787271651E+02  0.20000002768E+02 0.  0.
         12    1    1    2    0    0  0.15728908412E+02 -0.95317399314E+00 -0.40439042035E+02  0.43400728349E+02  0.00000000000E+00 0. -1.
         11    1    3    3    0    0 -0.76109471629E+01 -0.87614041796E+01  0.23130916112E+02  0.25879103546E+02  0.51100000000E-03 0. -1.
        -11    1    3    3    0    0 -0.56369095927E+01  0.34584142438E+01  0.73292728322E+01  0.98718599741E+01  0.51100000000E-03 0.  1.
         12    1    3    3    0    0 -0.24810516568E+01  0.62561639289E+01  0.99788530901E+01  0.12036308131E+02  0.00000000000E+00 0. -1.
</event>
<event>
 7    1  0.5504027E-010  0.4778724E+02  0.7816164E-02  0.1312668E+00
        -11   -1    0    0    0    0  0.00000000000E+00  0.00000000000E+00  0.45593999997E+02  0.45594000000E+02  0.51100000000E-03 0. -1.
         11   -1    0    0    0    0 -0.00000000000E+00 -0.00000000000E+00 -0.45593999997E+02  0.45594000000E+02  0.51100000000E-03 0.  1.
    9900012    2    1    2    0    0  0.24771134279E+02  0.33659447691E+02  0.11707194666E+02  0.47787240568E+02  0.19999861045E+02 0.  0.
         12    1    1    2    0    0 -0.24771134279E+02 -0.33659447691E+02 -0.11707194666E+02  0.43400759432E+02  0.00000000000E+00 0. -1.
         11    1    3    3    0    0  0.31290458914E+01  0.53547608051E+01  0.53624337024E+01  0.81987856994E+01  0.51100000000E-03 0. -1.
        -11    1    3    3    0    0  0.22455688094E+02  0.21903877911E+02  0.89636570167E+01  0.32624912915E+02  0.51100000000E-03 0.  1.
        -12    1    3    3    0    0 -0.81359970622E+00  0.64008089744E+01 -0.26188960526E+01  0.69635419538E+01  0.00000000000E+00 0.  1.
</event>
<event>
 7    1  0.5504027E-010  0.4778728E+02  0.7816164E-02  0.1312668E+00
        -11   -1    0    0    0    0  0.00000000000E+00  0.00000000000E+00  0.45593999997E+02  0.45594000000E+02  0.51100000000E-03 0.  1.
         11   -1    0    0    0    0 -0.00000000000E+00 -0.00000000000E+00 -0.45593999997E+02  0.45594000000E+02  0.51100000000E-03 0. -1.
    9900012    2    1    2    0    0  0.23196702694E+02  0.34012572980E+00  0.36679963593E+02  0.47787280759E+02  0.20000044294E+02 0.  0.
         12    1    1    2    0    0 -0.23196702694E+02 -0.34012572980E+00 -0.36679963593E+02  0.43400719241E+02  0.00000000000E+00 0. -1.
         11    1    3    3    0    0  0.56116644398E+01  0.81109548779E+01  0.74088408245E+01  0.12335691689E+02  0.51100000000E-03 0. -1.
        -11    1    3    3    0    0  0.16986555550E+02 -0.65438255184E+01  0.28668086925E+02  0.33959150903E+02  0.51100000000E-03 0.  1.
         12    1    3    3    0    0  0.59848270422E+00 -0.12270036298E+01  0.60303584411E+00  0.14924381676E+01  0.00000000000E+00 0. -1.
</event>
<event>
 7    1  0.5504027E-010  0.4778727E+02  0.7816164E-02  0.1312668E+00
        -11   -1    0    0    0    0  0.00000000000E+00  0.00000000000E+00  0.45593999997E+02  0.45594000000E+02  0.51100000000E-03 0. -1.
         11   -1    0    0    0    0 -0.00000000000E+00 -0.00000000000E+00 -0.45593999997E+02  0.45594000000E+02  0.51100000000E-03 0.  1.
    9900012    2    1    2    0    0 -0.15572885467E+02  0.40510011937E+02 -0.21742349966E+00  0.47787273026E+02  0.20000009035E+02 0.  0.
         12    1    1    2    0    0  0.15572885467E+02 -0.40510011937E+02  0.21742349966E+00  0.43400726974E+02  0.00000000000E+00 0. -1.
         11    1    3    3    0    0 -0.13610393680E+02  0.17206799316E+02  0.60770750547E+01  0.22765052170E+02  0.51100000000E-03 0. -1.
        -11    1    3    3    0    0 -0.89476222983E+00  0.40021383176E+01  0.12259533866E+01  0.42802654741E+01  0.51100000000E-03 0.  1.
         12    1    3    3    0    0 -0.10677295570E+01  0.19301074303E+02 -0.75204519410E+01  0.20741955382E+02  0.00000000000E+00 0. -1.
</event>
<event>
 7    1  0.5504027E-010  0.4778725E+02  0.7816164E-02  0.1312668E+00
        -11   -1    0    0    0    0  0.00000000000E+00  0.00000000000E+00  0.45593999997E+02  0.45594000000E+02  0.51100000000E-03 0.  1.
         11   -1    0    0    0    0 -0.00000000000E+00 -0.00000000000E+00 -0.45593999997E+02  0.45594000000E+02  0.51100000000E-03 0. -1.
    9900012    2    1    2    0    0  0.26616278008E+02 -0.28126029894E+02 -0.19599114135E+02  0.47787250150E+02  0.19999904735E+02 0.  0.
         12    1    1    2    0    0 -0.26616278008E+02  0.28126029894E+02  0.19599114135E+02  0.43400749850E+02  0.00000000000E+00 0. -1.
         11    1    3    3    0    0  0.76952366609E+01 -0.18154983883E+02 -0.42072962311E+01  0.20162377064E+02  0.51100000000E-03 0. -1.
        -11    1    3    3    0    0  0.73481844803E+00 -0.74393579379E+00  0.10104020403E+01  0.14540671102E+01  0.51100000000E-03 0.  1.
         12    1    3    3    0    0  0.18186222899E+02 -0.92271102177E+01 -0.16402219945E+02  0.26170805976E+02  0.00000000000E+00 0. -1.
</event>
<event>
 7    1  0.5504027E-010  0.4778727E+02  0.7816164E-02  0.1312668E+00
        -11   -1    0    0    0    0  0.00000000000E+00  0.00000000000E+00  0.45593999997E+02  0.45594000000E+02  0.51100000000E-03 0.  1.
         11   -1    0    0    0    0 -0.00000000000E+00 -0.00000000000E+00 -0.45593999997E+02  0.45594000000E+02  0.51100000000E-03 0. -1.
    9900012    2    1    2    0    0 -0.25355405063E+02  0.18284045487E+02  0.30106817696E+02  0.47787270086E+02  0.19999995632E+02 0.  0.
         12    1    1    2    0    0  0.25355405063E+02 -0.18284045487E+02 -0.30106817696E+02  0.43400729914E+02  0.00000000000E+00 0. -1.
         11    1    3    3    0    0 -0.20618817737E+02  0.14983909118E+02  0.25545659867E+02  0.36086478294E+02  0.51100000000E-03 0. -1.
        -11    1    3    3    0    0 -0.19202690816E+00  0.26727963832E+01  0.62594178236E+01  0.68088931987E+01  0.51100000000E-03 0.  1.
         12    1    3    3    0    0 -0.45445604174E+01  0.62733998550E+00 -0.16982599946E+01  0.48918985940E+01  0.00000000000E+00 0. -1.
</event>
<event>
 7    1  0.5504027E-010  0.4778727E+02  0.7816164E-02  0.1312668E+00
        -11   -1    0    0    0    0  0.00000000000E+00  0.00000000000E+00  0.45593999997E+02  0.45594000000E+02  0.51100000000E-03 0.  1.
         11   -1    0    0    0    0 -0.00000000000E+00 -0.00000000000E+00 -0.45593999997E+02  0.45594000000E+02  0.51100000000E-03 0. -1.
    9900012    2    1    2    0    0 -0.31543071813E+01  0.12094996413E+02  0.41561815459E+02  0.47787273090E+02  0.20000009327E+02 0.  0.
         12    1    1    2    0    0  0.31543071813E+01 -0.12094996413E+02 -0.41561815459E+02  0.43400726910E+02  0.00000000000E+00 0. -1.
         11    1    3    3    0    0 -0.54495121507E+01  0.12870939503E+01  0.27849181863E+01  0.62537639133E+01  0.51100000000E-03 0. -1.
        -11    1    3    3    0    0  0.41314072849E+01  0.67416750164E+01  0.34350249653E+02  0.35248522801E+02  0.51100000000E-03 0.  1.
        -12    1    3    3    0    0 -0.18362023155E+01  0.40662274466E+01  0.44266476199E+01  0.62849863756E+01  0.00000000000E+00 0.  1.
</event>
<event>
 7    1  0.5504027E-010  0.4778728E+02  0.7816164E-02  0.1312668E+00
        -11   -1    0    0    0    0  0.00000000000E+00  0.00000000000E+00  0.45593999997E+02  0.45594000000E+02  0.51100000000E-03 0.  1.
         11   -1    0    0    0    0 -0.00000000000E+00 -0.00000000000E+00 -0.45593999997E+02  0.45594000000E+02  0.51100000000E-03 0. -1.
    9900012    2    1    2    0    0  0.74225178219E+01 -0.27801430320E+02  0.32490133624E+02  0.47787284781E+02  0.20000062628E+02 0.  0.
         12    1    1    2    0    0 -0.74225178219E+01  0.27801430320E+02 -0.32490133624E+02  0.43400715219E+02  0.00000000000E+00 0. -1.
         11    1    3    3    0    0  0.10554138301E+02 -0.98783734774E+01  0.17490722133E+02  0.22691352072E+02  0.51100000000E-03 0. -1.
        -11    1    3    3    0    0 -0.51039349919E+01 -0.17114636389E+02  0.12439189254E+02  0.21764520686E+02  0.51100000000E-03 0.  1.
        -12    1    3    3    0    0  0.19723145129E+01 -0.80842045382E+00  0.25602222366E+01  0.33314120232E+01  0.00000000000E+00 0.  1.
</event>
<event>
 7    1  0.5504027E-010  0.4778727E+02  0.7816164E-02  0.1312668E+00
        -11   -1    0    0    0    0  0.00000000000E+00  0.00000000000E+00  0.45593999997E+02  0.45594000000E+02  0.51100000000E-03 0.  1.
         11   -1    0    0    0    0 -0.00000000000E+00 -0.00000000000E+00 -0.45593999997E+02  0.45594000000E+02  0.51100000000E-03 0. -1.
    9900012    2    1    2    0    0  0.24070432626E+02  0.28908135530E+02  0.21646181221E+02  0.47787272033E+02  0.20000004507E+02 0.  0.
         12    1    1    2    0    0 -0.24070432626E+02 -0.28908135530E+02 -0.21646181221E+02  0.43400727967E+02  0.00000000000E+00 0. -1.
         11    1    3    3    0    0  0.10332321722E+02  0.10055469764E+02  0.12019045036E+02  0.18770369953E+02  0.51100000000E-03 0. -1.
        -11    1    3    3    0    0  0.12822454767E+01  0.13739775229E+02  0.35762882095E+01  0.14255364409E+02  0.51100000000E-03 0.  1.
        -12    1    3    3    0    0  0.12455865427E+02  0.51128905372E+01  0.60508479754E+01  0.14761537671E+02  0.00000000000E+00 0.  1.
</event>
<event>
 7    1  0.5504027E-010  0.4778728E+02  0.7816164E-02  0.1312668E+00
        -11   -1    0    0    0    0  0.00000000000E+00  0.00000000000E+00  0.45593999997E+02  0.45594000000E+02  0.51100000000E-03 0.  1.
         11   -1    0    0    0    0 -0.00000000000E+00 -0.00000000000E+00 -0.45593999997E+02  0.45594000000E+02  0.51100000000E-03 0. -1.
    9900012    2    1    2    0    0 -0.13338003221E+02  0.56746059748E+00  0.41296468475E+02  0.47787278232E+02  0.20000032771E+02 0.  0.
         12    1    1    2    0    0  0.13338003221E+02 -0.56746059748E+00 -0.41296468475E+02  0.43400721768E+02  0.00000000000E+00 0. -1.
         11    1    3    3    0    0 -0.11191114344E+02  0.50386337430E+00  0.13364603793E+02  0.17438679806E+02  0.51100000000E-03 0. -1.
        -11    1    3    3    0    0  0.47790773887E+01  0.45457273538E+00  0.92736441879E+01  0.10442542499E+02  0.51100000000E-03 0.  1.
        -12    1    3    3    0    0 -0.69259662658E+01 -0.39097551220E+00  0.18658220494E+02  0.19906055927E+02  0.00000000000E+00 0.  1.
</event>
<event>
 7    1  0.5504027E-010  0.4778727E+02  0.7816164E-02  0.1312668E+00
        -11   -1    0    0    0    0  0.00000000000E+00  0.00000000000E+00  0.45593999997E+02  0.45594000000E+02  0.51100000000E-03 0.  1.
         11   -1    0    0    0    0 -0.00000000000E+00 -0.00000000000E+00 -0.45593999997E+02  0.45594000000E+02  0.51100000000E-03 0. -1.
    9900012    2    1    2    0    0 -0.17561778306E+02  0.21370372947E+02  0.33444194357E+02  0.47787273815E+02  0.20000012634E+02 0.  0.
         12    1    1    2    0    0  0.17561778306E+02 -0.21370372947E+02 -0.33444194357E+02  0.43400726185E+02  0.00000000000E+00 0. -1.
         11    1    3    3    0    0 -0.15058024023E+02  0.33822583198E+01  0.18726547338E+02  0.24266588848E+02  0.51100000000E-03 0. -1.
        -11    1    3    3    0    0 -0.21617661372E+01  0.12178253851E+02  0.85219639110E+01  0.15020218669E+02  0.51100000000E-03 0.  1.
         12    1    3    3    0    0 -0.34198814542E+00  0.58098607766E+01  0.61956831075E+01  0.85004662992E+01  0.00000000000E+00 0. -1.
</event>
<event>
 7    1  0.5504027E-010  0.4778728E+02  0.7816164E-02  0.1312668E+00
        -11   -1    0    0    0    0  0.00000000000E+00  0.00000000000E+00  0.45593999997E+02  0.45594000000E+02  0.51100000000E-03 0.  1.
         11   -1    0    0    0    0 -0.00000000000E+00 -0.00000000000E+00 -0.45593999997E+02  0.45594000000E+02  0.51100000000E-03 0. -1.
    9900012    2    1    2    0    0  0.17067385420E+02 -0.17147103551E+02  0.36031978092E+02  0.47787282835E+02  0.20000053758E+02 0.  0.
         12    1    1    2    0    0 -0.17067385420E+02  0.17147103551E+02 -0.36031978092E+02  0.43400717165E+02  0.00000000000E+00 0. -1.
         11    1    3    3    0    0  0.11077363355E+02 -0.51799601301E+01  0.25280687925E+02  0.28082969004E+02  0.51100000000E-03 0. -1.
        -11    1    3    3    0    0  0.22879976217E+01  0.13213519558E+01  0.10652684511E+01  0.28488069858E+01  0.51100000000E-03 0.  1.
         12    1    3    3    0    0  0.37020244432E+01 -0.13288495376E+02  0.96860217152E+01  0.16855506845E+02  0.00000000000E+00 0. -1.
</event>
<event>
 7    1  0.5504027E-010  0.4778727E+02  0.7816164E-02  0.1312668E+00
        -11   -1    0    0    0    0  0.00000000000E+00  0.00000000000E+00  0.45593999997E+02  0.45594000000E+02  0.51100000000E-03 0.  1.
         11   -1    0    0    0    0 -0.00000000000E+00 -0.00000000000E+00 -0.45593999997E+02  0.45594000000E+02  0.51100000000E-03 0. -1.
    9900012    2    1    2    0    0  0.51606817504E+01  0.30852242147E+02  0.30085370645E+02  0.47787274102E+02  0.20000013941E+02 0.  0.
         12    1    1    2    0    0 -0.51606817504E+01 -0.30852242147E+02 -0.30085370645E+02  0.43400725898E+02  0.00000000000E+00 0. -1.
         11    1    3    3    0    0  0.55313112871E+01  0.66215438549E+01  0.33307475025E+00  0.86343029034E+01  0.51100000000E-03 0. -1.
        -11    1    3    3    0    0 -0.11513457806E+01  0.23441430935E+02  0.29923707356E+02  0.38029653477E+02  0.51100000000E-03 0.  1.
        -12    1    3    3    0    0  0.78071624391E+00  0.78926735738E+00 -0.17141146145E+00  0.11233177218E+01  0.00000000000E+00 0.  1.
</event>
<event>
 7    1  0.5504027E-010  0.4778730E+02  0.7816164E-02  0.1312668E+00
        -11   -1    0    0    0    0  0.00000000000E+00  0.00000000000E+00  0.45593999997E+02  0.45594000000E+02  0.51100000000E-03 0.  1.
         11   -1    0    0    0    0 -0.00000000000E+00 -0.00000000000E+00 -0.45593999997E+02  0.45594000000E+02  0.51100000000E-03 0. -1.
    9900012    2    1    2    0    0  0.15062954698E+02  0.17013638980E+02  0.36976537309E+02  0.47787299235E+02  0.20000128530E+02 0.  0.
         12    1    1    2    0    0 -0.15062954698E+02 -0.17013638980E+02 -0.36976537309E+02  0.43400700765E+02  0.00000000000E+00 0. -1.
         11    1    3    3    0    0  0.39357530137E+01  0.12026339872E+02  0.56828097820E+01  0.13871457378E+02  0.51100000000E-03 0. -1.
        -11    1    3    3    0    0  0.83242339572E+01  0.12773930688E+01  0.19719298169E+02  0.21442372177E+02  0.51100000000E-03 0.  1.
         12    1    3    3    0    0  0.28029677271E+01  0.37099060388E+01  0.11574429358E+02  0.12473469680E+02  0.00000000000E+00 0. -1.
</event>
<event>
 7    1  0.5504027E-010  0.4778725E+02  0.7816164E-02  0.1312668E+00
        -11   -1    0    0    0    0  0.00000000000E+00  0.00000000000E+00  0.45593999997E+02  0.45594000000E+02  0.51100000000E-03 0.  1.
         11   -1    0    0    0    0 -0.00000000000E+00 -0.00000000000E+00 -0.45593999997E+02  0.45594000000E+02  0.51100000000E-03 0. -1.
    9900012    2    1    2    0    0 -0.41737147733E+02 -0.11647102350E+02 -0.24455239277E+01  0.47787250222E+02  0.19999905060E+02 0.  0.
         12    1    1    2    0    0  0.41737147733E+02  0.11647102350E+02  0.24455239277E+01  0.43400749778E+02  0.00000000000E+00 0. -1.
         11    1    3    3    0    0 -0.27186666319E+01 -0.47093239161E+01  0.37849639177E+01  0.66253175110E+01  0.51100000000E-03 0. -1.
        -11    1    3    3    0    0 -0.19783679252E+02 -0.21749884286E+01 -0.75868322350E+01  0.21299872371E+02  0.51100000000E-03 0.  1.
         12    1    3    3    0    0 -0.19234801849E+02 -0.47627900052E+01  0.13563443896E+01  0.19862060339E+02  0.00000000000E+00 0. -1.
</event>
<event>
 7    1  0.5504027E-010  0.4778727E+02  0.7816164E-02  0.1312668E+00
        -11   -1    0    0    0    0  0.00000000000E+00  0.00000000000E+00  0.45593999997E+02  0.45594000000E+02  0.51100000000E-03 0.  1.
         11   -1    0    0    0    0 -0.00000000000E+00 -0.00000000000E+00 -0.45593999997E+02  0.45594000000E+02  0.51100000000E-03 0. -1.
    9900012    2    1    2    0    0 -0.15694939975E+02 -0.40339122770E+02 -0.31697441793E+01  0.47787271379E+02  0.20000001523E+02 0.  0.
         12    1    1    2    0    0  0.15694939975E+02  0.40339122770E+02  0.31697441793E+01  0.43400728621E+02  0.00000000000E+00 0. -1.
         11    1    3    3    0    0 -0.15840019181E+01 -0.22656958654E+01  0.27399206210E+01  0.38922493628E+01  0.51100000000E-03 0. -1.
        -11    1    3    3    0    0 -0.27180908505E+00  0.13029877819E+01  0.89840190582E+00  0.16058591420E+01  0.51100000000E-03 0.  1.
        -12    1    3    3    0    0 -0.13839128972E+02 -0.39376414687E+02 -0.68080667062E+01  0.42289162874E+02  0.00000000000E+00 0.  1.
</event>
<event>
 7    1  0.5504027E-010  0.4778727E+02  0.7816164E-02  0.1312668E+00
        -11   -1    0    0    0    0  0.00000000000E+00  0.00000000000E+00  0.45593999997E+02  0.45594000000E+02  0.51100000000E-03 0. -1.
         11   -1    0    0    0    0 -0.00000000000E+00 -0.00000000000E+00 -0.45593999997E+02  0.45594000000E+02  0.51100000000E-03 0.  1.
    9900012    2    1    2    0    0  0.15698445235E+02 -0.38322183441E+02  0.12984311265E+02  0.47787271141E+02  0.20000000438E+02 0.  0.
         12    1    1    2    0    0 -0.15698445235E+02  0.38322183441E+02 -0.12984311265E+02  0.43400728859E+02  0.00000000000E+00 0. -1.
         11    1    3    3    0    0  0.56878236603E+01 -0.53792828470E+01  0.78733639191E+01  0.11103057309E+02  0.51100000000E-03 0. -1.
        -11    1    3    3    0    0  0.49207136125E+01 -0.29062500391E+02  0.63813698860E+01  0.30158982631E+02  0.51100000000E-03 0.  1.
        -12    1    3    3    0    0  0.50899079618E+01 -0.38804002035E+01 -0.12704225398E+01  0.65252312012E+01  0.00000000000E+00 0.  1.
</event>
<event>
 7    1  0.5504027E-010  0.4778727E+02  0.7816164E-02  0.1312668E+00
        -11   -1    0    0    0    0  0.00000000000E+00  0.00000000000E+00  0.45593999997E+02  0.45594000000E+02  0.51100000000E-03 0.  1.
         11   -1    0    0    0    0 -0.00000000000E+00 -0.00000000000E+00 -0.45593999997E+02  0.45594000000E+02  0.51100000000E-03 0. -1.
    9900012    2    1    2    0    0 -0.11962229981E+02  0.20638929283E+02  0.36256898048E+02  0.47787274152E+02  0.20000014168E+02 0.  0.
         12    1    1    2    0    0  0.11962229981E+02 -0.20638929283E+02 -0.36256898048E+02  0.43400725848E+02  0.00000000000E+00 0. -1.
         11    1    3    3    0    0 -0.97830277712E+01  0.55537667352E+01  0.70258435925E+01  0.13263273946E+02  0.51100000000E-03 0. -1.
        -11    1    3    3    0    0 -0.26409720554E+01  0.94901478335E+01  0.83881588180E+01  0.12938270669E+02  0.51100000000E-03 0.  1.
         12    1    3    3    0    0  0.46176984530E+00  0.55950147139E+01  0.20842895638E+02  0.21585729536E+02  0.00000000000E+00 0. -1.
</event>
<event>
 7    1  0.5504027E-010  0.4778733E+02  0.7816164E-02  0.1312668E+00
        -11   -1    0    0    0    0  0.00000000000E+00  0.00000000000E+00  0.45593999997E+02  0.45594000000E+02  0.51100000000E-03 0.  1.
         11   -1    0    0    0    0 -0.00000000000E+00 -0.00000000000E+00 -0.45593999997E+02  0.45594000000E+02  0.51100000000E-03 0. -1.
    9900012    2    1    2    0    0 -0.32870786279E+02 -0.20520453045E+02  0.19545864093E+02  0.47787327345E+02  0.20000256695E+02 0.  0.
         12    1    1    2    0    0  0.32870786279E+02  0.20520453045E+02 -0.19545864093E+02  0.43400672655E+02  0.00000000000E+00 0. -1.
         11    1    3    3    0    0 -0.37241756576E+01 -0.90404655386E+01 -0.20146243424E-01  0.97775205250E+01  0.51100000000E-03 0. -1.
        -11    1    3    3    0    0 -0.62525872519E+01  0.13284190760E+00  0.71335368479E+01  0.94868246814E+01  0.51100000000E-03 0.  1.
         12    1    3    3    0    0 -0.22894023369E+02 -0.11612829414E+02  0.12432473489E+02  0.28522982139E+02  0.00000000000E+00 0. -1.
</event>
<event>
 7    1  0.5504027E-010  0.4778723E+02  0.7816164E-02  0.1312668E+00
        -11   -1    0    0    0    0  0.00000000000E+00  0.00000000000E+00  0.45593999997E+02  0.45594000000E+02  0.51100000000E-03 0.  1.
         11   -1    0    0    0    0 -0.00000000000E+00 -0.00000000000E+00 -0.45593999997E+02  0.45594000000E+02  0.51100000000E-03 0. -1.
    9900012    2    1    2    0    0 -0.17267907096E+00  0.16085410753E+02  0.40309508865E+02  0.47787230858E+02  0.19999816774E+02 0.  0.
         12    1    1    2    0    0  0.17267907096E+00 -0.16085410753E+02 -0.40309508865E+02  0.43400769142E+02  0.00000000000E+00 0. -1.
         11    1    3    3    0    0  0.32185285171E+01  0.68145532259E+01  0.30534088931E+02  0.31450399817E+02  0.51100000000E-03 0. -1.
        -11    1    3    3    0    0 -0.53003856969E+00  0.46144265553E+01  0.98291552873E+01  0.10871346156E+02  0.51100000000E-03 0.  1.
         12    1    3    3    0    0 -0.28611690184E+01  0.46564309719E+01 -0.53735353605E-01  0.54654848857E+01  0.00000000000E+00 0. -1.
</event>
<event>
 7    1  0.5504027E-010  0.4778727E+02  0.7816164E-02  0.1312668E+00
        -11   -1    0    0    0    0  0.00000000000E+00  0.00000000000E+00  0.45593999997E+02  0.45594000000E+02  0.51100000000E-03 0.  1.
         11   -1    0    0    0    0 -0.00000000000E+00 -0.00000000000E+00 -0.45593999997E+02  0.45594000000E+02  0.51100000000E-03 0. -1.
    9900012    2    1    2    0    0  0.19120747460E+02  0.38732514134E+02 -0.42204952027E+01  0.47787271731E+02  0.20000003130E+02 0.  0.
         12    1    1    2    0    0 -0.19120747460E+02 -0.38732514134E+02  0.42204952027E+01  0.43400728269E+02  0.00000000000E+00 0. -1.
         11    1    3    3    0    0  0.71214616635E+01  0.21857986021E+01  0.71783232518E+00  0.74838636587E+01  0.51100000000E-03 0. -1.
        -11    1    3    3    0    0  0.13840142492E+02  0.34597137030E+02 -0.40668982822E+01  0.37484011215E+02  0.51100000000E-03 0.  1.
         12    1    3    3    0    0 -0.18408566958E+01  0.19495785017E+01 -0.87142924562E+00  0.28193968573E+01  0.00000000000E+00 0. -1.
</event>
<event>
 7    1  0.5504027E-010  0.4778730E+02  0.7816164E-02  0.1312668E+00
        -11   -1    0    0    0    0  0.00000000000E+00  0.00000000000E+00  0.45593999997E+02  0.45594000000E+02  0.51100000000E-03 0.  1.
         11   -1    0    0    0    0 -0.00000000000E+00 -0.00000000000E+00 -0.45593999997E+02  0.45594000000E+02  0.51100000000E-03 0. -1.
    9900012    2    1    2    0    0 -0.12253682669E+02  0.15381071715E+02  0.38689675249E+02  0.47787296354E+02  0.20000115396E+02 0.  0.
         12    1    1    2    0    0  0.12253682669E+02 -0.15381071715E+02 -0.38689675249E+02  0.43400703646E+02  0.00000000000E+00 0. -1.
         11    1    3    3    0    0 -0.10059475524E+02  0.78216291185E+01  0.88467936169E+01  0.15512468774E+02  0.51100000000E-03 0. -1.
        -11    1    3    3    0    0 -0.16644314631E+01 -0.26471490023E+00  0.17951396082E+02  0.18030336315E+02  0.51100000000E-03 0.  1.
        -12    1    3    3    0    0 -0.52977568156E+00  0.78241574971E+01  0.11891485550E+02  0.14244491265E+02  0.00000000000E+00 0.  1.
</event>
<event>
 7    1  0.5504027E-010  0.4778727E+02  0.7816164E-02  0.1312668E+00
        -11   -1    0    0    0    0  0.00000000000E+00  0.00000000000E+00  0.45593999997E+02  0.45594000000E+02  0.51100000000E-03 0. -1.
         11   -1    0    0    0    0 -0.00000000000E+00 -0.00000000000E+00 -0.45593999997E+02  0.45594000000E+02  0.51100000000E-03 0.  1.
    9900012    2    1    2    0    0  0.66982077290E+01 -0.37665835353E+02 -0.20494928230E+02  0.47787271633E+02  0.20000002683E+02 0.  0.
         12    1    1    2    0    0 -0.66982077290E+01  0.37665835353E+02  0.20494928230E+02  0.43400728367E+02  0.00000000000E+00 0. -1.
         11    1    3    3    0    0 -0.75808378615E+00 -0.20952871039E+02 -0.25765215064E+01  0.21124297838E+02  0.51100000000E-03 0.  1.
        -11    1    3    3    0    0  0.29358559799E+01 -0.32428761192E+01 -0.86663678176E+01  0.97078023914E+01  0.51100000000E-03 0. -1.
         12    1    3    3    0    0  0.45204355352E+01 -0.13470088195E+02 -0.92520389058E+01  0.16955171404E+02  0.00000000000E+00 0. -1.
</event>
<event>
 7    1  0.5504027E-010  0.4778727E+02  0.7816164E-02  0.1312668E+00
        -11   -1    0    0    0    0  0.00000000000E+00  0.00000000000E+00  0.45593999997E+02  0.45594000000E+02  0.51100000000E-03 0. -1.
         11   -1    0    0    0    0 -0.00000000000E+00 -0.00000000000E+00 -0.45593999997E+02  0.45594000000E+02  0.51100000000E-03 0.  1.
    9900012    2    1    2    0    0 -0.19364561756E+02  0.29859259301E+02 -0.24840728601E+02  0.47787269413E+02  0.19999992564E+02 0.  0.
         12    1    1    2    0    0  0.19364561756E+02 -0.29859259301E+02  0.24840728601E+02  0.43400730587E+02  0.00000000000E+00 0. -1.
         11    1    3    3    0    0 -0.10449588787E+02  0.16048340565E+02 -0.17196097411E+02  0.25738082817E+02  0.51100000000E-03 0. -1.
        -11    1    3    3    0    0 -0.25452437917E+01  0.20872830790E+01 -0.80539141702E+01  0.87006063199E+01  0.51100000000E-03 0.  1.
         12    1    3    3    0    0 -0.63697291778E+01  0.11723635658E+02  0.40928298038E+00  0.13348580276E+02  0.00000000000E+00 0. -1.
</event>
<event>
 7    1  0.5504027E-010  0.4778726E+02  0.7816164E-02  0.1312668E+00
        -11   -1    0    0    0    0  0.00000000000E+00  0.00000000000E+00  0.45593999997E+02  0.45594000000E+02  0.51100000000E-03 0. -1.
         11   -1    0    0    0    0 -0.00000000000E+00 -0.00000000000E+00 -0.45593999997E+02  0.45594000000E+02  0.51100000000E-03 0.  1.
    9900012    2    1    2    0    0 -0.14469983829E+02  0.22508040886E+01 -0.40855566152E+02  0.47787264561E+02  0.19999970440E+02 0.  0.
         12    1    1    2    0    0  0.14469983829E+02 -0.22508040886E+01  0.40855566152E+02  0.43400735439E+02  0.00000000000E+00 0. -1.
         11    1    3    3    0    0 -0.20065528873E+01 -0.14791624025E+01 -0.23995023810E+02  0.24124165142E+02  0.51100000000E-03 0.  1.
        -11    1    3    3    0    0 -0.97052534239E+01 -0.11951741125E+01 -0.14622298002E+02  0.17590678904E+02  0.51100000000E-03 0. -1.
         12    1    3    3    0    0 -0.27581775178E+01  0.49251406036E+01 -0.22382443395E+01  0.60724205148E+01  0.00000000000E+00 0. -1.
</event>
<event>
 7    1  0.5504027E-010  0.4778728E+02  0.7816164E-02  0.1312668E+00
        -11   -1    0    0    0    0  0.00000000000E+00  0.00000000000E+00  0.45593999997E+02  0.45594000000E+02  0.51100000000E-03 0.  1.
         11   -1    0    0    0    0 -0.00000000000E+00 -0.00000000000E+00 -0.45593999997E+02  0.45594000000E+02  0.51100000000E-03 0. -1.
    9900012    2    1    2    0    0  0.25209677351E+02  0.19949803002E+02  0.29156478790E+02  0.47787277340E+02  0.20000028705E+02 0.  0.
         12    1    1    2    0    0 -0.25209677351E+02 -0.19949803002E+02 -0.29156478790E+02  0.43400722660E+02  0.00000000000E+00 0. -1.
         11    1    3    3    0    0  0.85064052977E+01  0.30560427233E+01  0.16678723966E+02  0.18970454966E+02  0.51100000000E-03 0. -1.
        -11    1    3    3    0    0  0.18150774136E+02  0.14783921763E+02  0.11047524643E+02  0.25885570216E+02  0.51100000000E-03 0.  1.
        -12    1    3    3    0    0 -0.14475020827E+01  0.21098385159E+01  0.14302301804E+01  0.29312521576E+01  0.00000000000E+00 0.  1.
</event>
<event>
 7    1  0.5504027E-010  0.4778727E+02  0.7816164E-02  0.1312668E+00
        -11   -1    0    0    0    0  0.00000000000E+00  0.00000000000E+00  0.45593999997E+02  0.45594000000E+02  0.51100000000E-03 0.  1.
         11   -1    0    0    0    0 -0.00000000000E+00 -0.00000000000E+00 -0.45593999997E+02  0.45594000000E+02  0.51100000000E-03 0. -1.
    9900012    2    1    2    0    0 -0.13836977328E+02  0.35554587615E+02 -0.20688949223E+02  0.47787271181E+02  0.20000000622E+02 0.  0.
         12    1    1    2    0    0  0.13836977328E+02 -0.35554587615E+02  0.20688949223E+02  0.43400728819E+02  0.00000000000E+00 0. -1.
         11    1    3    3    0    0  0.32734292682E+01  0.35836513795E+01 -0.63234865560E+01  0.79714728168E+01  0.51100000000E-03 0. -1.
        -11    1    3    3    0    0 -0.16835589384E+02  0.28280174028E+02 -0.10702176482E+02  0.34608407861E+02  0.51100000000E-03 0.  1.
        -12    1    3    3    0    0 -0.27481721212E+00  0.36907622076E+01 -0.36632861853E+01  0.52073905028E+01  0.00000000000E+00 0.  1.
</event>
<event>
 7    1  0.5504027E-010  0.4778727E+02  0.7816164E-02  0.1312668E+00
        -11   -1    0    0    0    0  0.00000000000E+00  0.00000000000E+00  0.45593999997E+02  0.45594000000E+02  0.51100000000E-03 0.  1.
         11   -1    0    0    0    0 -0.00000000000E+00 -0.00000000000E+00 -0.45593999997E+02  0.45594000000E+02  0.51100000000E-03 0. -1.
    9900012    2    1    2    0    0 -0.15229092187E+02 -0.52149651455E+01  0.40305117001E+02  0.47787267670E+02  0.19999984614E+02 0.  0.
         12    1    1    2    0    0  0.15229092187E+02  0.52149651455E+01 -0.40305117001E+02  0.43400732330E+02  0.00000000000E+00 0. -1.
         11    1    3    3    0    0 -0.77882838871E+01  0.10411218244E+01  0.83502401129E+01  0.11465941338E+02  0.51100000000E-03 0. -1.
        -11    1    3    3    0    0  0.33288654248E+01 -0.12732924771E+01  0.19667488706E+01  0.40707149409E+01  0.51100000000E-03 0.  1.
        -12    1    3    3    0    0 -0.10769673724E+02 -0.49827944928E+01  0.29988128018E+02  0.32250611391E+02  0.00000000000E+00 0.  1.
</event>
<event>
 7    1  0.5504027E-010  0.4778727E+02  0.7816164E-02  0.1312668E+00
        -11   -1    0    0    0    0  0.00000000000E+00  0.00000000000E+00  0.45593999997E+02  0.45594000000E+02  0.51100000000E-03 0.  1.
         11   -1    0    0    0    0 -0.00000000000E+00 -0.00000000000E+00 -0.45593999997E+02  0.45594000000E+02  0.51100000000E-03 0. -1.
    9900012    2    1    2    0    0 -0.88360546922E+00  0.29744513048E+02  0.31592822748E+02  0.47787271155E+02  0.20000000502E+02 0.  0.
         12    1    1    2    0    0  0.88360546922E+00 -0.29744513048E+02 -0.31592822748E+02  0.43400728845E+02  0.00000000000E+00 0. -1.
         11    1    3    3    0    0 -0.69814170106E+01  0.15138993116E+02  0.10839134990E+02  0.19885073388E+02  0.51100000000E-03 0. -1.
        -11    1    3    3    0    0  0.14845761915E+01  0.10331160668E+02  0.64307175965E+01  0.12259322016E+02  0.51100000000E-03 0.  1.
         12    1    3    3    0    0  0.46132353499E+01  0.42743592643E+01  0.14322970161E+02  0.15642875751E+02  0.00000000000E+00 0. -1.
</event>
<event>
 7    1  0.5504027E-010  0.4778727E+02  0.7816164E-02  0.1312668E+00
        -11   -1    0    0    0    0  0.00000000000E+00  0.00000000000E+00  0.45593999997E+02  0.45594000000E+02  0.51100000000E-03 0.  1.
         11   -1    0    0    0    0 -0.00000000000E+00 -0.00000000000E+00 -0.45593999997E+02  0.45594000000E+02  0.51100000000E-03 0. -1.
    9900012    2    1    2    0    0  0.18535034551E+01 -0.24731354275E+02  0.35616680676E+02  0.47787270723E+02  0.19999998537E+02 0.  0.
         12    1    1    2    0    0 -0.18535034551E+01  0.24731354275E+02 -0.35616680676E+02  0.43400729277E+02  0.00000000000E+00 0. -1.
         11    1    3    3    0    0 -0.75603127060E+01 -0.13414095928E+02  0.21430786828E+02  0.26388916653E+02  0.51100000000E-03 0. -1.
        -11    1    3    3    0    0  0.79992041765E+01 -0.94158302138E+01  0.14452272433E+02  0.19013503223E+02  0.51100000000E-03 0.  1.
         12    1    3    3    0    0  0.14146119847E+01 -0.19014281327E+01 -0.26637858544E+00  0.23848508468E+01  0.00000000000E+00 0. -1.
</event>
<event>
 7    1  0.5504027E-010  0.4778727E+02  0.7816164E-02  0.1312668E+00
        -11   -1    0    0    0    0  0.00000000000E+00  0.00000000000E+00  0.45593999997E+02  0.45594000000E+02  0.51100000000E-03 0. -1.
         11   -1    0    0    0    0 -0.00000000000E+00 -0.00000000000E+00 -0.45593999997E+02  0.45594000000E+02  0.51100000000E-03 0.  1.
    9900012    2    1    2    0    0 -0.37085892493E+02 -0.22508444224E+02 -0.12765661711E+01  0.47787272994E+02  0.20000008891E+02 0.  0.
         12    1    1    2    0    0  0.37085892493E+02  0.22508444224E+02  0.12765661711E+01  0.43400727006E+02  0.00000000000E+00 0. -1.
         11    1    3    3    0    0 -0.18055184243E+02 -0.33333864788E+01 -0.68577144072E+01  0.19599219133E+02  0.51100000000E-03 0. -1.
        -11    1    3    3    0    0 -0.92643252981E+01 -0.80764396805E+01  0.53447173548E+01  0.13402335804E+02  0.51100000000E-03 0.  1.
         12    1    3    3    0    0 -0.97663829526E+01 -0.11098618065E+02  0.23643088127E+00  0.14785718058E+02  0.00000000000E+00 0. -1.
</event>
<event>
 7    1  0.5504027E-010  0.4778727E+02  0.7816164E-02  0.1312668E+00
        -11   -1    0    0    0    0  0.00000000000E+00  0.00000000000E+00  0.45593999997E+02  0.45594000000E+02  0.51100000000E-03 0. -1.
         11   -1    0    0    0    0 -0.00000000000E+00 -0.00000000000E+00 -0.45593999997E+02  0.45594000000E+02  0.51100000000E-03 0.  1.
    9900012    2    1    2    0    0  0.24983283312E+02  0.26577014835E+02 -0.23518536610E+02  0.47787265826E+02  0.19999976207E+02 0.  0.
         12    1    1    2    0    0 -0.24983283312E+02 -0.26577014835E+02  0.23518536610E+02  0.43400734174E+02  0.00000000000E+00 0. -1.
         11    1    3    3    0    0  0.67188740594E+01  0.12330843945E+01 -0.37837415544E+01  0.78089990499E+01  0.51100000000E-03 0. -1.
        -11    1    3    3    0    0  0.67158864494E+01  0.21551501239E+02 -0.11919639167E+02  0.25527399683E+02  0.51100000000E-03 0.  1.
        -12    1    3    3    0    0  0.11548522803E+02  0.37924292020E+01 -0.78151558887E+01  0.14450867093E+02  0.00000000000E+00 0.  1.
</event>
<event>
 7    1  0.5504027E-010  0.4778728E+02  0.7816164E-02  0.1312668E+00
        -11   -1    0    0    0    0  0.00000000000E+00  0.00000000000E+00  0.45593999997E+02  0.45594000000E+02  0.51100000000E-03 0.  1.
         11   -1    0    0    0    0 -0.00000000000E+00 -0.00000000000E+00 -0.45593999997E+02  0.45594000000E+02  0.51100000000E-03 0. -1.
    9900012    2    1    2    0    0 -0.33074124822E+02 -0.31413341666E+01  0.27925914216E+02  0.47787281136E+02  0.20000046013E+02 0.  0.
         12    1    1    2    0    0  0.33074124822E+02  0.31413341666E+01 -0.27925914216E+02  0.43400718864E+02  0.00000000000E+00 0. -1.
         11    1    3    3    0    0 -0.18719595142E+02 -0.90101615320E+01  0.12676272153E+02  0.24337093685E+02  0.51100000000E-03 0. -1.
        -11    1    3    3    0    0 -0.11182427928E+02  0.57671112553E-01  0.99826248911E+01  0.14990090736E+02  0.51100000000E-03 0.  1.
         12    1    3    3    0    0 -0.31721017525E+01  0.58111562528E+01  0.52670171724E+01  0.84600967144E+01  0.00000000000E+00 0. -1.
</event>
<event>
 7    1  0.5504027E-010  0.4778727E+02  0.7816164E-02  0.1312668E+00
        -11   -1    0    0    0    0  0.00000000000E+00  0.00000000000E+00  0.45593999997E+02  0.45594000000E+02  0.51100000000E-03 0. -1.
         11   -1    0    0    0    0 -0.00000000000E+00 -0.00000000000E+00 -0.45593999997E+02  0.45594000000E+02  0.51100000000E-03 0.  1.
    9900012    2    1    2    0    0 -0.32095965613E+02 -0.10107100059E+02 -0.27410199820E+02  0.47787268043E+02  0.19999986316E+02 0.  0.
         12    1    1    2    0    0  0.32095965613E+02  0.10107100059E+02  0.27410199820E+02  0.43400731957E+02  0.00000000000E+00 0. -1.
         11    1    3    3    0    0 -0.22155851145E+02 -0.50815842353E+01 -0.66039513016E+01  0.23671003598E+02  0.51100000000E-03 0. -1.
        -11    1    3    3    0    0 -0.10206724014E+02 -0.41561244351E+01 -0.20237815789E+02  0.23043866290E+02  0.51100000000E-03 0.  1.
         12    1    3    3    0    0  0.26660954539E+00 -0.86939138811E+00 -0.56843272897E+00  0.10723981550E+01  0.00000000000E+00 0. -1.
</event>
<event>
 7    1  0.5504027E-010  0.4778727E+02  0.7816164E-02  0.1312668E+00
        -11   -1    0    0    0    0  0.00000000000E+00  0.00000000000E+00  0.45593999997E+02  0.45594000000E+02  0.51100000000E-03 0.  1.
         11   -1    0    0    0    0 -0.00000000000E+00 -0.00000000000E+00 -0.45593999997E+02  0.45594000000E+02  0.51100000000E-03 0. -1.
    9900012    2    1    2    0    0 -0.31111918503E+02 -0.30028958053E+02  0.37328133523E+01  0.47787266248E+02  0.19999978129E+02 0.  0.
         12    1    1    2    0    0  0.31111918503E+02  0.30028958053E+02 -0.37328133523E+01  0.43400733752E+02  0.00000000000E+00 0. -1.
         11    1    3    3    0    0 -0.46105116430E+01 -0.12668788960E+02  0.31899304801E+01  0.13853905156E+02  0.51100000000E-03 0. -1.
        -11    1    3    3    0    0 -0.13447875661E+02 -0.25448944847E+01 -0.26229363842E+01  0.13935624969E+02  0.51100000000E-03 0.  1.
        -12    1    3    3    0    0 -0.13053531199E+02 -0.14815274608E+02  0.31658192564E+01  0.19997736123E+02  0.00000000000E+00 0.  1.
</event>
<event>
 7    1  0.7477265E-010  0.4778733E+02  0.7816164E-02  0.1312667E+00
        -11   -1    0    0    0    0  0.00000000000E+00  0.00000000000E+00  0.45593999997E+02  0.45594000000E+02  0.51100000000E-03 0. -1.
         11   -1    0    0    0    0 -0.00000000000E+00 -0.00000000000E+00 -0.45593999997E+02  0.45594000000E+02  0.51100000000E-03 0.  1.
    9900012    2    1    2    0    0 -0.19691244526E+02 -0.17098421388E+02 -0.34691737731E+02  0.47787334202E+02  0.20000287959E+02 0.  0.
         12    1    1    2    0    0  0.19691244526E+02  0.17098421388E+02  0.34691737731E+02  0.43400665798E+02  0.00000000000E+00 0. -1.
         11    1    3    3    0    0 -0.80812974260E+01 -0.76568804516E+01 -0.28764195003E+01  0.11498216198E+02  0.51100000000E-03 0. -1.
        -11    1    3    3    0    0 -0.66652859491E+01 -0.98260131127E+01 -0.17574841771E+02  0.21209706128E+02  0.51100000000E-03 0.  1.
         12    1    3    3    0    0 -0.49446611511E+01  0.38447217674E+00 -0.14240476459E+02  0.15079411876E+02  0.00000000000E+00 0. -1.
</event>
<event>
 7    1  0.5504027E-010  0.4778727E+02  0.7816164E-02  0.1312668E+00
        -11   -1    0    0    0    0  0.00000000000E+00  0.00000000000E+00  0.45593999997E+02  0.45594000000E+02  0.51100000000E-03 0. -1.
         11   -1    0    0    0    0 -0.00000000000E+00 -0.00000000000E+00 -0.45593999997E+02  0.45594000000E+02  0.51100000000E-03 0.  1.
    9900012    2    1    2    0    0  0.21935479938E+02  0.20208616321E+02 -0.31528873694E+02  0.47787270397E+02  0.19999997047E+02 0.  0.
         12    1    1    2    0    0 -0.21935479938E+02 -0.20208616321E+02  0.31528873694E+02  0.43400729603E+02  0.00000000000E+00 0. -1.
         11    1    3    3    0    0  0.45890301419E+01  0.34526198276E+01 -0.19209703315E+02  0.20049750199E+02  0.51100000000E-03 0. -1.
        -11    1    3    3    0    0  0.73777750184E+01  0.96266971609E+01 -0.34516938046E+01  0.12610275684E+02  0.51100000000E-03 0.  1.
        -12    1    3    3    0    0  0.99686747774E+01  0.71292993321E+01 -0.88674765741E+01  0.15127244514E+02  0.00000000000E+00 0.  1.
</event>
<event>
 7    1  0.5504027E-010  0.4778727E+02  0.7816164E-02  0.1312668E+00
        -11   -1    0    0    0    0  0.00000000000E+00  0.00000000000E+00  0.45593999997E+02  0.45594000000E+02  0.51100000000E-03 0.  1.
         11   -1    0    0    0    0 -0.00000000000E+00 -0.00000000000E+00 -0.45593999997E+02  0.45594000000E+02  0.51100000000E-03 0. -1.
    9900012    2    1    2    0    0  0.21625787008E+02  0.27057972825E+02  0.26149848119E+02  0.47787272889E+02  0.20000008410E+02 0.  0.
         12    1    1    2    0    0 -0.21625787008E+02 -0.27057972825E+02 -0.26149848119E+02  0.43400727111E+02  0.00000000000E+00 0. -1.
         11    1    3    3    0    0  0.82959782287E+01  0.17898107758E+02  0.45970288449E+01  0.20255818684E+02  0.51100000000E-03 0. -1.
        -11    1    3    3    0    0  0.51920642264E+01  0.42854930648E+01  0.13511488889E+02  0.15095804516E+02  0.51100000000E-03 0.  1.
         12    1    3    3    0    0  0.81377445529E+01  0.48743720024E+01  0.80413303850E+01  0.12435649689E+02  0.00000000000E+00 0. -1.
</event>
<event>
 7    1  0.5504027E-010  0.4778727E+02  0.7816164E-02  0.1312668E+00
        -11   -1    0    0    0    0  0.00000000000E+00  0.00000000000E+00  0.45593999997E+02  0.45594000000E+02  0.51100000000E-03 0.  1.
         11   -1    0    0    0    0 -0.00000000000E+00 -0.00000000000E+00 -0.45593999997E+02  0.45594000000E+02  0.51100000000E-03 0. -1.
    9900012    2    1    2    0    0  0.19448983414E+02  0.35354826005E+02  0.15981128346E+02  0.47787272576E+02  0.20000006985E+02 0.  0.
         12    1    1    2    0    0 -0.19448983414E+02 -0.35354826005E+02 -0.15981128346E+02  0.43400727424E+02  0.00000000000E+00 0. -1.
         11    1    3    3    0    0  0.43077520433E+01  0.56188292656E+01 -0.33891648872E+01  0.78494846249E+01  0.51100000000E-03 0. -1.
        -11    1    3    3    0    0  0.14426318917E+01  0.11027358833E+01  0.45658982004E+01  0.49137195525E+01  0.51100000000E-03 0.  1.
         12    1    3    3    0    0  0.13698599479E+02  0.28633260856E+02  0.14804395032E+02  0.35024068399E+02  0.00000000000E+00 0. -1.
</event>
<event>
 7    1  0.5504027E-010  0.4778728E+02  0.7816164E-02  0.1312668E+00
        -11   -1    0    0    0    0  0.00000000000E+00  0.00000000000E+00  0.45593999997E+02  0.45594000000E+02  0.51100000000E-03 0.  1.
         11   -1    0    0    0    0 -0.00000000000E+00 -0.00000000000E+00 -0.45593999997E+02  0.45594000000E+02  0.51100000000E-03 0. -1.
    9900012    2    1    2    0    0  0.16462037074E+02 -0.13719298989E+02  0.37741290056E+02  0.47787276452E+02  0.20000024657E+02 0.  0.
         12    1    1    2    0    0 -0.16462037074E+02  0.13719298989E+02 -0.37741290056E+02  0.43400723548E+02  0.00000000000E+00 0. -1.
         11    1    3    3    0    0  0.35646575242E+01 -0.58887200617E+01  0.23033845330E+02  0.24040420923E+02  0.51100000000E-03 0. -1.
        -11    1    3    3    0    0  0.15399895892E+01 -0.61671395493E+01  0.87478101280E+01  0.10813388019E+02  0.51100000000E-03 0.  1.
         12    1    3    3    0    0  0.11357389961E+02 -0.16634393781E+01  0.59596345978E+01  0.12933467510E+02  0.00000000000E+00 0. -1.
</event>
<event>
 7    1  0.5504027E-010  0.4778726E+02  0.7816164E-02  0.1312668E+00
        -11   -1    0    0    0    0  0.00000000000E+00  0.00000000000E+00  0.45593999997E+02  0.45594000000E+02  0.51100000000E-03 0.  1.
         11   -1    0    0    0    0 -0.00000000000E+00 -0.00000000000E+00 -0.45593999997E+02  0.45594000000E+02  0.51100000000E-03 0. -1.
    9900012    2    1    2    0    0  0.15408310977E+02 -0.12355293887E+01  0.40554671175E+02  0.47787263437E+02  0.19999965317E+02 0.  0.
         12    1    1    2    0    0 -0.15408310977E+02  0.12355293887E+01 -0.40554671175E+02  0.43400736563E+02  0.00000000000E+00 0. -1.
         11    1    3    3    0    0  0.23102090992E+01  0.51823609376E+01  0.41568417309E+01  0.70337233672E+01  0.51100000000E-03 0. -1.
        -11    1    3    3    0    0  0.13925667048E+02 -0.80077139586E+01  0.34893458110E+02  0.38413553659E+02  0.51100000000E-03 0.  1.
        -12    1    3    3    0    0 -0.82756517030E+00  0.15898236323E+01  0.15043713342E+01  0.23399864111E+01  0.00000000000E+00 0.  1.
</event>
<event>
 7    1  0.5504027E-010  0.4778726E+02  0.7816164E-02  0.1312668E+00
        -11   -1    0    0    0    0  0.00000000000E+00  0.00000000000E+00  0.45593999997E+02  0.45594000000E+02  0.51100000000E-03 0.  1.
         11   -1    0    0    0    0 -0.00000000000E+00 -0.00000000000E+00 -0.45593999997E+02  0.45594000000E+02  0.51100000000E-03 0. -1.
    9900012    2    1    2    0    0  0.16571180535E+02  0.31297224059E+02  0.25089912958E+02  0.47787262790E+02  0.19999962364E+02 0.  0.
         12    1    1    2    0    0 -0.16571180535E+02 -0.31297224059E+02 -0.25089912958E+02  0.43400737210E+02  0.00000000000E+00 0. -1.
         11    1    3    3    0    0  0.84067504664E+01  0.72946130980E+01  0.14709946476E+02  0.18446337285E+02  0.51100000000E-03 0. -1.
        -11    1    3    3    0    0 -0.31046960190E+00 -0.89813342860E-01  0.26322994412E+01  0.26520668203E+01  0.51100000000E-03 0.  1.
         12    1    3    3    0    0  0.84748996704E+01  0.24092424304E+02  0.77476670407E+01  0.26688858684E+02  0.00000000000E+00 0. -1.
</event>
<event>
 7    1  0.5504027E-010  0.4778727E+02  0.7816164E-02  0.1312668E+00
        -11   -1    0    0    0    0  0.00000000000E+00  0.00000000000E+00  0.45593999997E+02  0.45594000000E+02  0.51100000000E-03 0. -1.
         11   -1    0    0    0    0 -0.00000000000E+00 -0.00000000000E+00 -0.45593999997E+02  0.45594000000E+02  0.51100000000E-03 0.  1.
    9900012    2    1    2    0    0  0.19479120099E+02 -0.35933199935E+02 -0.14594258458E+02  0.47787270083E+02  0.19999995618E+02 0.  0.
         12    1    1    2    0    0 -0.19479120099E+02  0.35933199935E+02  0.14594258458E+02  0.43400729917E+02  0.00000000000E+00 0. -1.
         11    1    3    3    0    0  0.50616936746E+01 -0.92770912450E+01 -0.12050001650E+02  0.16027716770E+02  0.51100000000E-03 0. -1.
        -11    1    3    3    0    0  0.11745109019E+02 -0.26428753731E+02 -0.28456466221E+01  0.29060700518E+02  0.51100000000E-03 0.  1.
         12    1    3    3    0    0  0.26723174053E+01 -0.22735495855E+00  0.30138981450E+00  0.26988527956E+01  0.00000000000E+00 0. -1.
</event>
<event>
 7    1  0.5504027E-010  0.4778727E+02  0.7816164E-02  0.1312668E+00
        -11   -1    0    0    0    0  0.00000000000E+00  0.00000000000E+00  0.45593999997E+02  0.45594000000E+02  0.51100000000E-03 0.  1.
         11   -1    0    0    0    0 -0.00000000000E+00 -0.00000000000E+00 -0.45593999997E+02  0.45594000000E+02  0.51100000000E-03 0. -1.
    9900012    2    1    2    0    0  0.32893166541E+02  0.27984382504E+02  0.43054665205E+01  0.47787272919E+02  0.20000008546E+02 0.  0.
         12    1    1    2    0    0 -0.32893166541E+02 -0.27984382504E+02 -0.43054665205E+01  0.43400727081E+02  0.00000000000E+00 0. -1.
         11    1    3    3    0    0  0.15427878666E+02  0.21677250857E+02  0.64500784744E+01  0.27377475366E+02  0.51100000000E-03 0.  1.
        -11    1    3    3    0    0  0.63421335021E+01  0.10202267455E+01 -0.45364280708E+01  0.78640129624E+01  0.51100000000E-03 0. -1.
        -12    1    3    3    0    0  0.11123154373E+02  0.52869049015E+01  0.23918161168E+01  0.12545784590E+02  0.00000000000E+00 0.  1.
</event>
<event>
 7    1  0.5504027E-010  0.4778727E+02  0.7816164E-02  0.1312668E+00
        -11   -1    0    0    0    0  0.00000000000E+00  0.00000000000E+00  0.45593999997E+02  0.45594000000E+02  0.51100000000E-03 0.  1.
         11   -1    0    0    0    0 -0.00000000000E+00 -0.00000000000E+00 -0.45593999997E+02  0.45594000000E+02  0.51100000000E-03 0. -1.
    9900012    2    1    2    0    0  0.16561218059E+01 -0.30973973898E+02  0.30356111989E+02  0.47787270357E+02  0.19999996865E+02 0.  0.
         12    1    1    2    0    0 -0.16561218059E+01  0.30973973898E+02 -0.30356111989E+02  0.43400729643E+02  0.00000000000E+00 0. -1.
         11    1    3    3    0    0 -0.15234786972E+01  0.34230526018E+00 -0.18177909419E+01  0.23963564847E+01  0.51100000000E-03 0. -1.
        -11    1    3    3    0    0  0.30703893577E+01 -0.15871776024E+02  0.12836494010E+02  0.20642580838E+02  0.51100000000E-03 0.  1.
         12    1    3    3    0    0  0.10921114534E+00 -0.15444503134E+02  0.19337408922E+02  0.24748333034E+02  0.00000000000E+00 0. -1.
</event>
<event>
 7    1  0.5504027E-010  0.4778727E+02  0.7816164E-02  0.1312668E+00
        -11   -1    0    0    0    0  0.00000000000E+00  0.00000000000E+00  0.45593999997E+02  0.45594000000E+02  0.51100000000E-03 0. -1.
         11   -1    0    0    0    0 -0.00000000000E+00 -0.00000000000E+00 -0.45593999997E+02  0.45594000000E+02  0.51100000000E-03 0.  1.
    9900012    2    1    2    0    0 -0.95299008548E+01  0.21227836890E+02 -0.36635817517E+02  0.47787271959E+02  0.20000004171E+02 0.  0.
         12    1    1    2    0    0  0.95299008548E+01 -0.21227836890E+02  0.36635817517E+02  0.43400728041E+02  0.00000000000E+00 0. -1.
         11    1    3    3    0    0 -0.54601935337E+01  0.22331262971E+02 -0.22796204880E+02  0.32375391526E+02  0.51100000000E-03 0. -1.
        -11    1    3    3    0    0 -0.14094422943E+00 -0.24135942746E+01 -0.71120918143E+01  0.75118009049E+01  0.51100000000E-03 0.  1.
         12    1    3    3    0    0 -0.39287630916E+01  0.13101681933E+01 -0.67275208231E+01  0.79000795281E+01  0.00000000000E+00 0. -1.
</event>
<event>
 7    1  0.5504027E-010  0.4778727E+02  0.7816164E-02  0.1312668E+00
        -11   -1    0    0    0    0  0.00000000000E+00  0.00000000000E+00  0.45593999997E+02  0.45594000000E+02  0.51100000000E-03 0.  1.
         11   -1    0    0    0    0 -0.00000000000E+00 -0.00000000000E+00 -0.45593999997E+02  0.45594000000E+02  0.51100000000E-03 0. -1.
    9900012    2    1    2    0    0 -0.34829600624E+00  0.19793302166E+02  0.38622888916E+02  0.47787266493E+02  0.19999979246E+02 0.  0.
         12    1    1    2    0    0  0.34829600624E+00 -0.19793302166E+02 -0.38622888916E+02  0.43400733507E+02  0.00000000000E+00 0. -1.
         11    1    3    3    0    0  0.32806753563E+01  0.84651493234E+00  0.14767901491E+02  0.15151578566E+02  0.51100000000E-03 0. -1.
        -11    1    3    3    0    0 -0.18231227778E+01  0.17650268808E+02  0.24563746671E+02  0.30302366515E+02  0.51100000000E-03 0.  1.
        -12    1    3    3    0    0 -0.18058485848E+01  0.12965184262E+01 -0.70875924595E+00  0.23333214115E+01  0.00000000000E+00 0.  1.
</event>
<event>
 7    1  0.5504027E-010  0.4778727E+02  0.7816164E-02  0.1312668E+00
        -11   -1    0    0    0    0  0.00000000000E+00  0.00000000000E+00  0.45593999997E+02  0.45594000000E+02  0.51100000000E-03 0.  1.
         11   -1    0    0    0    0 -0.00000000000E+00 -0.00000000000E+00 -0.45593999997E+02  0.45594000000E+02  0.51100000000E-03 0. -1.
    9900012    2    1    2    0    0  0.29753718287E+02 -0.69977285476E+01  0.30811872770E+02  0.47787268897E+02  0.19999990207E+02 0.  0.
         12    1    1    2    0    0 -0.29753718287E+02  0.69977285476E+01 -0.30811872770E+02  0.43400731103E+02  0.00000000000E+00 0. -1.
         11    1    3    3    0    0 -0.17065974227E+01 -0.17464447772E+01  0.49772595944E+01  0.55439748785E+01  0.51100000000E-03 0. -1.
        -11    1    3    3    0    0  0.38725104343E+01  0.58475288893E+00  0.79202599917E+01  0.88356545656E+01  0.51100000000E-03 0.  1.
         12    1    3    3    0    0  0.27587805275E+02 -0.58360366594E+01  0.17914353184E+02  0.33407639452E+02  0.00000000000E+00 0. -1.
</event>
<event>
 7    1  0.5504027E-010  0.4778727E+02  0.7816164E-02  0.1312668E+00
        -11   -1    0    0    0    0  0.00000000000E+00  0.00000000000E+00  0.45593999997E+02  0.45594000000E+02  0.51100000000E-03 0. -1.
         11   -1    0    0    0    0 -0.00000000000E+00 -0.00000000000E+00 -0.45593999997E+02  0.45594000000E+02  0.51100000000E-03 0.  1.
    9900012    2    1    2    0    0  0.17774448674E+02 -0.88304602001E+00 -0.39584242708E+02  0.47787273431E+02  0.20000010881E+02 0.  0.
         12    1    1    2    0    0 -0.17774448674E+02  0.88304602001E+00  0.39584242708E+02  0.43400726569E+02  0.00000000000E+00 0. -1.
         11    1    3    3    0    0  0.16530991747E+02 -0.21809203756E+01 -0.19090176873E+02  0.25346892416E+02  0.51100000000E-03 0. -1.
        -11    1    3    3    0    0 -0.15360763718E+01 -0.21369396871E+01 -0.15706406557E+02  0.15925364957E+02  0.51100000000E-03 0.  1.
        -12    1    3    3    0    0  0.27795332987E+01  0.34348140427E+01 -0.47876592788E+01  0.65150160580E+01  0.00000000000E+00 0.  1.
</event>
<event>
 7    1  0.5504027E-010  0.4778727E+02  0.7816164E-02  0.1312668E+00
        -11   -1    0    0    0    0  0.00000000000E+00  0.00000000000E+00  0.45593999997E+02  0.45594000000E+02  0.51100000000E-03 0.  1.
         11   -1    0    0    0    0 -0.00000000000E+00 -0.00000000000E+00 -0.45593999997E+02  0.45594000000E+02  0.51100000000E-03 0. -1.
    9900012    2    1    2    0    0 -0.47933731474E+00  0.42897101262E+02  0.65750997386E+01  0.47787274228E+02  0.20000014515E+02 0.  0.
         12    1    1    2    0    0  0.47933731474E+00 -0.42897101262E+02 -0.65750997386E+01  0.43400725772E+02  0.00000000000E+00 0. -1.
         11    1    3    3    0    0  0.50337745943E+01  0.20812288961E+02  0.94533303393E+01  0.23406317806E+02  0.51100000000E-03 0. -1.
        -11    1    3    3    0    0 -0.29067758071E+01  0.71746011975E+01  0.27749603303E+01  0.82234210053E+01  0.51100000000E-03 0.  1.
         12    1    3    3    0    0 -0.26063361019E+01  0.14910211104E+02 -0.56531909310E+01  0.16157535417E+02  0.00000000000E+00 0. -1.
</event>
<event>
 7    1  0.5504027E-010  0.4778727E+02  0.7816164E-02  0.1312668E+00
        -11   -1    0    0    0    0  0.00000000000E+00  0.00000000000E+00  0.45593999997E+02  0.45594000000E+02  0.51100000000E-03 0. -1.
         11   -1    0    0    0    0 -0.00000000000E+00 -0.00000000000E+00 -0.45593999997E+02  0.45594000000E+02  0.51100000000E-03 0.  1.
    9900012    2    1    2    0    0 -0.59161648107E+01  0.41715260661E+02 -0.10414377344E+02  0.47787271509E+02  0.20000002116E+02 0.  0.
         12    1    1    2    0    0  0.59161648107E+01 -0.41715260661E+02  0.10414377344E+02  0.43400728491E+02  0.00000000000E+00 0. -1.
         11    1    3    3    0    0 -0.50497005881E+01  0.11063680802E+02 -0.97729180462E+01  0.15601744656E+02  0.51100000000E-03 0. -1.
        -11    1    3    3    0    0 -0.39831787500E+01  0.54653143083E+01  0.50205142613E+00  0.67814031983E+01  0.51100000000E-03 0.  1.
         12    1    3    3    0    0  0.31167145273E+01  0.25186265551E+02 -0.11435107241E+01  0.25404123654E+02  0.00000000000E+00 0. -1.
</event>
<event>
 7    1  0.5504027E-010  0.4778727E+02  0.7816164E-02  0.1312668E+00
        -11   -1    0    0    0    0  0.00000000000E+00  0.00000000000E+00  0.45593999997E+02  0.45594000000E+02  0.51100000000E-03 0.  1.
         11   -1    0    0    0    0 -0.00000000000E+00 -0.00000000000E+00 -0.45593999997E+02  0.45594000000E+02  0.51100000000E-03 0. -1.
    9900012    2    1    2    0    0 -0.86464379590E+01 -0.23158041892E+02  0.35673063644E+02  0.47787271165E+02  0.20000000551E+02 0.  0.
         12    1    1    2    0    0  0.86464379590E+01  0.23158041892E+02 -0.35673063644E+02  0.43400728835E+02  0.00000000000E+00 0. -1.
         11    1    3    3    0    0  0.12844941485E+01  0.27058590410E+01  0.55287800723E+01  0.62880050665E+01  0.51100000000E-03 0. -1.
        -11    1    3    3    0    0 -0.63148002573E+01 -0.18988531614E+02  0.25622205193E+02  0.32510589572E+02  0.51100000000E-03 0.  1.
         12    1    3    3    0    0 -0.36161318502E+01 -0.68753693192E+01  0.45220783786E+01  0.89886765264E+01  0.00000000000E+00 0. -1.
</event>
<event>
 7    1  0.5504027E-010  0.4778727E+02  0.7816164E-02  0.1312668E+00
        -11   -1    0    0    0    0  0.00000000000E+00  0.00000000000E+00  0.45593999997E+02  0.45594000000E+02  0.51100000000E-03 0.  1.
         11   -1    0    0    0    0 -0.00000000000E+00 -0.00000000000E+00 -0.45593999997E+02  0.45594000000E+02  0.51100000000E-03 0. -1.
    9900012    2    1    2    0    0  0.33786670237E+02 -0.25014799451E+02  0.10786294536E+02  0.47787269279E+02  0.19999991951E+02 0.  0.
         12    1    1    2    0    0 -0.33786670237E+02  0.25014799451E+02 -0.10786294536E+02  0.43400730721E+02  0.00000000000E+00 0. -1.
         11    1    3    3    0    0  0.16974588650E+02 -0.38068848528E+01 -0.67920654715E+00  0.17409490340E+02  0.51100000000E-03 0. -1.
        -11    1    3    3    0    0  0.14842399311E+02 -0.17563239613E+02  0.12408141069E+02  0.26129029221E+02  0.51100000000E-03 0.  1.
         12    1    3    3    0    0  0.19696822764E+01 -0.36446749857E+01 -0.94263998532E+00  0.42487497176E+01  0.00000000000E+00 0. -1.
</event>
<event>
 7    1  0.5504027E-010  0.4778727E+02  0.7816164E-02  0.1312668E+00
        -11   -1    0    0    0    0  0.00000000000E+00  0.00000000000E+00  0.45593999997E+02  0.45594000000E+02  0.51100000000E-03 0.  1.
         11   -1    0    0    0    0 -0.00000000000E+00 -0.00000000000E+00 -0.45593999997E+02  0.45594000000E+02  0.51100000000E-03 0. -1.
    9900012    2    1    2    0    0  0.13321544213E+01 -0.43076554498E+02  0.51243643207E+01  0.47787270830E+02  0.19999999023E+02 0.  0.
         12    1    1    2    0    0 -0.13321544213E+01  0.43076554498E+02 -0.51243643207E+01  0.43400729170E+02  0.00000000000E+00 0. -1.
         11    1    3    3    0    0  0.31042556659E+01 -0.14806737265E+02 -0.33414676390E+01  0.15493265566E+02  0.51100000000E-03 0. -1.
        -11    1    3    3    0    0 -0.31915558143E+01 -0.21046558721E+01  0.43127714902E+01  0.57632979312E+01  0.51100000000E-03 0.  1.
        -12    1    3    3    0    0  0.14194545697E+01 -0.26165161361E+02  0.41530604695E+01  0.26530707333E+02  0.00000000000E+00 0.  1.
</event>
<event>
 7    1  0.5504027E-010  0.4778727E+02  0.7816164E-02  0.1312668E+00
        -11   -1    0    0    0    0  0.00000000000E+00  0.00000000000E+00  0.45593999997E+02  0.45594000000E+02  0.51100000000E-03 0.  1.
         11   -1    0    0    0    0 -0.00000000000E+00 -0.00000000000E+00 -0.45593999997E+02  0.45594000000E+02  0.51100000000E-03 0. -1.
    9900012    2    1    2    0    0  0.41160835395E+02  0.11553359769E+02  0.74785421269E+01  0.47787273224E+02  0.20000009937E+02 0.  0.
         12    1    1    2    0    0 -0.41160835395E+02 -0.11553359769E+02 -0.74785421269E+01  0.43400726776E+02  0.00000000000E+00 0. -1.
         11    1    3    3    0    0  0.85038607989E+01  0.83766138049E+01  0.43812140949E+01  0.12715279963E+02  0.51100000000E-03 0.  1.
        -11    1    3    3    0    0  0.18907651093E+02 -0.50260840306E+00 -0.37419783900E+01  0.19280930672E+02  0.51100000000E-03 0. -1.
        -12    1    3    3    0    0  0.13749323503E+02  0.36793543674E+01  0.68393064220E+01  0.15791062589E+02  0.00000000000E+00 0.  1.
</event>
<event>
 7    1  0.5504027E-010  0.4778727E+02  0.7816164E-02  0.1312668E+00
        -11   -1    0    0    0    0  0.00000000000E+00  0.00000000000E+00  0.45593999997E+02  0.45594000000E+02  0.51100000000E-03 0.  1.
         11   -1    0    0    0    0 -0.00000000000E+00 -0.00000000000E+00 -0.45593999997E+02  0.45594000000E+02  0.51100000000E-03 0. -1.
    9900012    2    1    2    0    0 -0.23876892129E+02 -0.10828357496E+02  0.34587048973E+02  0.47787271199E+02  0.20000000705E+02 0.  0.
         12    1    1    2    0    0  0.23876892129E+02  0.10828357496E+02 -0.34587048973E+02  0.43400728801E+02  0.00000000000E+00 0. -1.
         11    1    3    3    0    0 -0.20771589263E+01 -0.60985899019E+01  0.16817667792E+01  0.66585079227E+01  0.51100000000E-03 0. -1.
        -11    1    3    3    0    0 -0.11527187576E+02 -0.47472661456E+00  0.24853295178E+02  0.27400505474E+02  0.51100000000E-03 0.  1.
         12    1    3    3    0    0 -0.10272545626E+02 -0.42550409797E+01  0.80519870158E+01  0.13728257802E+02  0.00000000000E+00 0. -1.
</event>
<event>
 7    1  0.5504027E-010  0.4778725E+02  0.7816164E-02  0.1312668E+00
        -11   -1    0    0    0    0  0.00000000000E+00  0.00000000000E+00  0.45593999997E+02  0.45594000000E+02  0.51100000000E-03 0. -1.
         11   -1    0    0    0    0 -0.00000000000E+00 -0.00000000000E+00 -0.45593999997E+02  0.45594000000E+02  0.51100000000E-03 0.  1.
    9900012    2    1    2    0    0  0.96291229599E+01 -0.42291273374E+02 -0.15340628206E+01  0.47787249300E+02  0.19999900857E+02 0.  0.
         12    1    1    2    0    0 -0.96291229599E+01  0.42291273374E+02  0.15340628206E+01  0.43400750700E+02  0.00000000000E+00 0. -1.
         11    1    3    3    0    0  0.38615416487E+01 -0.84861304225E+01 -0.34817062325E+01  0.99522958156E+01  0.51100000000E-03 0. -1.
        -11    1    3    3    0    0 -0.14486850302E+01 -0.28772655133E+02 -0.68316628281E-01  0.28809183244E+02  0.51100000000E-03 0.  1.
        -12    1    3    3    0    0  0.72162663414E+01 -0.50324878186E+01  0.20159600401E+01  0.90257702406E+01  0.00000000000E+00 0.  1.
</event>
<event>
 7    1  0.5504027E-010  0.4778727E+02  0.7816164E-02  0.1312668E+00
        -11   -1    0    0    0    0  0.00000000000E+00  0.00000000000E+00  0.45593999997E+02  0.45594000000E+02  0.51100000000E-03 0.  1.
         11   -1    0    0    0    0 -0.00000000000E+00 -0.00000000000E+00 -0.45593999997E+02  0.45594000000E+02  0.51100000000E-03 0. -1.
    9900012    2    1    2    0    0 -0.27551891230E+02 -0.30023322908E+02  0.14937088070E+02  0.47787271564E+02  0.20000002369E+02 0.  0.
         12    1    1    2    0    0  0.27551891230E+02  0.30023322908E+02 -0.14937088070E+02  0.43400728436E+02  0.00000000000E+00 0. -1.
         11    1    3    3    0    0 -0.56576882266E+01 -0.23890915223E+01  0.19037812901E+01  0.64297416615E+01  0.51100000000E-03 0. -1.
        -11    1    3    3    0    0 -0.13057664255E+02 -0.48158054351E+01  0.89571291236E+01  0.16550671895E+02  0.51100000000E-03 0.  1.
        -12    1    3    3    0    0 -0.88365387480E+01 -0.22818425951E+02  0.40761776559E+01  0.24806858007E+02  0.00000000000E+00 0.  1.
</event>
<event>
 7    1  0.6308672E-010  0.4778727E+02  0.7816164E-02  0.1312668E+00
        -11   -1    0    0    0    0  0.00000000000E+00  0.00000000000E+00  0.45593999997E+02  0.45594000000E+02  0.51100000000E-03 0.  1.
         11   -1    0    0    0    0 -0.00000000000E+00 -0.00000000000E+00 -0.45593999997E+02  0.45594000000E+02  0.51100000000E-03 0. -1.
    9900012    2    1    2    0    0 -0.32605175447E+02 -0.28432779195E+02  0.34788853997E+01  0.47787273712E+02  0.20000012161E+02 0.  0.
         12    1    1    2    0    0  0.32605175447E+02  0.28432779195E+02 -0.34788853997E+01  0.43400726288E+02  0.00000000000E+00 0. -1.
         11    1    3    3    0    0  0.30392017092E+00  0.49140562352E-01  0.21334099409E+01  0.21555093370E+01  0.51100000000E-03 0. -1.
        -11    1    3    3    0    0 -0.26590307576E+02 -0.23590342366E+02  0.64816755794E+01  0.36132545282E+02  0.51100000000E-03 0.  1.
        -12    1    3    3    0    0 -0.63187880420E+01 -0.48915773913E+01 -0.51362001206E+01  0.94992190928E+01  0.00000000000E+00 0.  1.
</event>
<event>
 7    1  0.5504027E-010  0.4778727E+02  0.7816164E-02  0.1312668E+00
        -11   -1    0    0    0    0  0.00000000000E+00  0.00000000000E+00  0.45593999997E+02  0.45594000000E+02  0.51100000000E-03 0.  1.
         11   -1    0    0    0    0 -0.00000000000E+00 -0.00000000000E+00 -0.45593999997E+02  0.45594000000E+02  0.51100000000E-03 0. -1.
    9900012    2    1    2    0    0  0.25607805391E+02  0.92704437297E+01  0.33792341836E+02  0.47787272003E+02  0.20000004371E+02 0.  0.
         12    1    1    2    0    0 -0.25607805391E+02 -0.92704437297E+01 -0.33792341836E+02  0.43400727997E+02  0.00000000000E+00 0. -1.
         11    1    3    3    0    0  0.47597552543E+01 -0.17043740083E+01  0.89561074524E+01  0.10284552581E+02  0.51100000000E-03 0.  1.
        -11    1    3    3    0    0 -0.16747866699E+01 -0.65357164427E-01  0.57342259816E+01  0.59741551552E+01  0.51100000000E-03 0. -1.
        -12    1    3    3    0    0  0.22522836807E+02  0.11040174902E+02  0.19102008402E+02  0.31528564266E+02  0.00000000000E+00 0.  1.
</event>
<event>
 7    1  0.5504027E-010  0.4778727E+02  0.7816164E-02  0.1312668E+00
        -11   -1    0    0    0    0  0.00000000000E+00  0.00000000000E+00  0.45593999997E+02  0.45594000000E+02  0.51100000000E-03 0.  1.
         11   -1    0    0    0    0 -0.00000000000E+00 -0.00000000000E+00 -0.45593999997E+02  0.45594000000E+02  0.51100000000E-03 0. -1.
    9900012    2    1    2    0    0  0.21321348527E+00  0.33898304839E+02  0.27101338098E+02  0.47787273536E+02  0.20000011358E+02 0.  0.
         12    1    1    2    0    0 -0.21321348527E+00 -0.33898304839E+02 -0.27101338098E+02  0.43400726464E+02  0.00000000000E+00 0. -1.
         11    1    3    3    0    0  0.19154473139E+01  0.49081930103E+00 -0.20414919307E+00  0.19878428390E+01  0.51100000000E-03 0. -1.
        -11    1    3    3    0    0 -0.33413171188E+01  0.59406550402E+01 -0.30049384706E+00  0.68224687034E+01  0.51100000000E-03 0.  1.
        -12    1    3    3    0    0  0.16390832902E+01  0.27466830498E+02  0.27605981138E+02  0.38976961993E+02  0.00000000000E+00 0.  1.
</event>
<event>
 7    1  0.5504027E-010  0.4778727E+02  0.7816164E-02  0.1312668E+00
        -11   -1    0    0    0    0  0.00000000000E+00  0.00000000000E+00  0.45593999997E+02  0.45594000000E+02  0.51100000000E-03 0.  1.
         11   -1    0    0    0    0 -0.00000000000E+00 -0.00000000000E+00 -0.45593999997E+02  0.45594000000E+02  0.51100000000E-03 0. -1.
    9900012    2    1    2    0    0  0.11583439711E+02 -0.41312767014E+02  0.65347261947E+01  0.47787269127E+02  0.19999991258E+02 0.  0.
         12    1    1    2    0    0 -0.11583439711E+02  0.41312767014E+02 -0.65347261947E+01  0.43400730873E+02  0.00000000000E+00 0. -1.
         11    1    3    3    0    0  0.69557116742E+01 -0.17045883039E+02  0.85883962520E+01  0.20315132387E+02  0.51100000000E-03 0. -1.
        -11    1    3    3    0    0  0.54485631383E+01 -0.97967898271E+01 -0.56295693653E+01  0.12544161299E+02  0.51100000000E-03 0.  1.
        -12    1    3    3    0    0 -0.82083510158E+00 -0.14470094148E+02  0.35758993080E+01  0.14927975441E+02  0.00000000000E+00 0.  1.
</event>
