<event>
 7    1  0.1519238E-008  0.4614232E+02  0.7816164E-02  0.1320468E+00
        -11   -1    0    0    0    0  0.00000000000E+00  0.00000000000E+00  0.45593999997E+02  0.45594000000E+02  0.51100000000E-03 0. -1.
         11   -1    0    0    0    0 -0.00000000000E+00 -0.00000000000E+00 -0.45593999997E+02  0.45594000000E+02  0.51100000000E-03 0.  1.
    9900012    2    1    2    0    0  0.36117153165E+02 -0.71791879754E+01  0.25944632993E+02  0.46142317922E+02  0.10000001467E+02 0.  0.
        -12    1    1    2    0    0 -0.36117153165E+02  0.71791879754E+01 -0.25944632993E+02  0.45045682078E+02  0.00000000000E+00 0.  1.
         11    1    3    3    0    0  0.32426893252E+02 -0.82014002190E+01  0.23638586062E+02  0.40957894511E+02  0.51100000000E-03 0. -1.
        -11    1    3    3    0    0  0.17192411272E+01  0.15345136102E+01  0.29665077464E+00  0.23234724050E+01  0.51100000000E-03 0.  1.
        -12    1    3    3    0    0  0.19710187862E+01 -0.51230136663E+00  0.20093961565E+01  0.28609510061E+01  0.00000000000E+00 0.  1.
</event>
<event>
 7    1  0.1519238E-008  0.4614232E+02  0.7816164E-02  0.1320468E+00
        -11   -1    0    0    0    0  0.00000000000E+00  0.00000000000E+00  0.45593999997E+02  0.45594000000E+02  0.51100000000E-03 0.  1.
         11   -1    0    0    0    0 -0.00000000000E+00 -0.00000000000E+00 -0.45593999997E+02  0.45594000000E+02  0.51100000000E-03 0. -1.
    9900012    2    1    2    0    0 -0.33593045712E+02  0.51752220820E+01 -0.29560750493E+02  0.46142316372E+02  0.99999873336E+01 0.  0.
        -12    1    1    2    0    0  0.33593045712E+02 -0.51752220820E+01  0.29560750493E+02  0.45045683628E+02  0.00000000000E+00 0.  1.
         11    1    3    3    0    0 -0.24229462788E+01  0.23148015888E+01 -0.38979623785E+01  0.51403390968E+01  0.51100000000E-03 0. -1.
        -11    1    3    3    0    0 -0.29030059031E+02  0.24991607653E+01 -0.25669181434E+02  0.38831649561E+02  0.51100000000E-03 0.  1.
        -12    1    3    3    0    0 -0.21400404023E+01  0.36125972796E+00  0.63933190857E-02  0.21703277147E+01  0.00000000000E+00 0.  1.
</event>
<event>
 7    1  0.1519238E-008  0.4614232E+02  0.7816164E-02  0.1320468E+00
        -11   -1    0    0    0    0  0.00000000000E+00  0.00000000000E+00  0.45593999997E+02  0.45594000000E+02  0.51100000000E-03 0. -1.
         11   -1    0    0    0    0 -0.00000000000E+00 -0.00000000000E+00 -0.45593999997E+02  0.45594000000E+02  0.51100000000E-03 0.  1.
    9900012    2    1    2    0    0  0.20889628287E+02 -0.31056819699E+02  0.25064136832E+02  0.46142316801E+02  0.99999912438E+01 0.  0.
        -12    1    1    2    0    0 -0.20889628287E+02  0.31056819699E+02 -0.25064136832E+02  0.45045683199E+02  0.00000000000E+00 0.  1.
         11    1    3    3    0    0  0.32563580725E+01 -0.72444878543E+01  0.99868958585E+01  0.12760272776E+02  0.51100000000E-03 0. -1.
        -11    1    3    3    0    0  0.11130544555E+02 -0.13017326906E+02  0.76914067460E+01  0.18774918372E+02  0.51100000000E-03 0.  1.
         12    1    3    3    0    0  0.65027256594E+01 -0.10795004938E+02  0.73858342275E+01  0.14607125653E+02  0.00000000000E+00 0. -1.
</event>
<event>
 7    1  0.1519238E-008  0.4614232E+02  0.7816164E-02  0.1320468E+00
        -11   -1    0    0    0    0  0.00000000000E+00  0.00000000000E+00  0.45593999997E+02  0.45594000000E+02  0.51100000000E-03 0.  1.
         11   -1    0    0    0    0 -0.00000000000E+00 -0.00000000000E+00 -0.45593999997E+02  0.45594000000E+02  0.51100000000E-03 0. -1.
    9900012    2    1    2    0    0 -0.17928420993E+02 -0.18614983243E+02 -0.36894004646E+02  0.46142318084E+02  0.10000002948E+02 0.  0.
        -12    1    1    2    0    0  0.17928420993E+02  0.18614983243E+02  0.36894004646E+02  0.45045681916E+02  0.00000000000E+00 0.  1.
         11    1    3    3    0    0 -0.20165482714E+01  0.25640803412E+00 -0.57524160644E+01  0.61010247377E+01  0.51100000000E-03 0.  1.
        -11    1    3    3    0    0 -0.56562323314E+01 -0.10405223541E+02 -0.13734039066E+02  0.18135199763E+02  0.51100000000E-03 0. -1.
        -12    1    3    3    0    0 -0.10255640390E+02 -0.84661677354E+01 -0.17407549516E+02  0.21906093583E+02  0.00000000000E+00 0.  1.
</event>
<event>
 7    1  0.1519238E-008  0.4614232E+02  0.7816164E-02  0.1320468E+00
        -11   -1    0    0    0    0  0.00000000000E+00  0.00000000000E+00  0.45593999997E+02  0.45594000000E+02  0.51100000000E-03 0.  1.
         11   -1    0    0    0    0 -0.00000000000E+00 -0.00000000000E+00 -0.45593999997E+02  0.45594000000E+02  0.51100000000E-03 0. -1.
    9900012    2    1    2    0    0  0.14382388290E+02  0.22257058660E+02 -0.36426413127E+02  0.46142319559E+02  0.10000016392E+02 0.  0.
        -12    1    1    2    0    0 -0.14382388290E+02 -0.22257058660E+02  0.36426413127E+02  0.45045680441E+02  0.00000000000E+00 0.  1.
         11    1    3    3    0    0  0.13551157789E+02  0.18525389138E+02 -0.25258082789E+02  0.34129088276E+02  0.51100000000E-03 0. -1.
        -11    1    3    3    0    0  0.39490204959E+00  0.33001359405E+01 -0.10794615923E+02  0.11294714606E+02  0.51100000000E-03 0.  1.
        -12    1    3    3    0    0  0.43632845100E+00  0.43153358241E+00 -0.37371441446E+00  0.71851667585E+00  0.00000000000E+00 0.  1.
</event>
<event>
 7    1  0.1519238E-008  0.4614232E+02  0.7816164E-02  0.1320468E+00
        -11   -1    0    0    0    0  0.00000000000E+00  0.00000000000E+00  0.45593999997E+02  0.45594000000E+02  0.51100000000E-03 0.  1.
         11   -1    0    0    0    0 -0.00000000000E+00 -0.00000000000E+00 -0.45593999997E+02  0.45594000000E+02  0.51100000000E-03 0. -1.
    9900012    2    1    2    0    0 -0.39859359411E+01 -0.28798649436E+02 -0.34407319441E+02  0.46142317346E+02  0.99999962109E+01 0.  0.
        -12    1    1    2    0    0  0.39859359411E+01  0.28798649436E+02  0.34407319441E+02  0.45045682654E+02  0.00000000000E+00 0.  1.
         11    1    3    3    0    0  0.50598173786E-01 -0.41024897761E+01 -0.77074877453E+01  0.87314575040E+01  0.51100000000E-03 0. -1.
        -11    1    3    3    0    0  0.19099987575E+01 -0.30433872398E+01 -0.23783753843E+01  0.43089408066E+01  0.51100000000E-03 0.  1.
        -12    1    3    3    0    0 -0.59465328724E+01 -0.21652772420E+02 -0.24321456312E+02  0.33101919035E+02  0.00000000000E+00 0.  1.
</event>
<event>
 7    1  0.1519238E-008  0.4614232E+02  0.7816164E-02  0.1320468E+00
        -11   -1    0    0    0    0  0.00000000000E+00  0.00000000000E+00  0.45593999997E+02  0.45594000000E+02  0.51100000000E-03 0. -1.
         11   -1    0    0    0    0 -0.00000000000E+00 -0.00000000000E+00 -0.45593999997E+02  0.45594000000E+02  0.51100000000E-03 0.  1.
    9900012    2    1    2    0    0 -0.26468530127E+02  0.15690794586E+02  0.32898773656E+02  0.46142318410E+02  0.10000005916E+02 0.  0.
        -12    1    1    2    0    0  0.26468530127E+02 -0.15690794586E+02 -0.32898773656E+02  0.45045681590E+02  0.00000000000E+00 0.  1.
         11    1    3    3    0    0 -0.16164658183E+02  0.62626007384E+01  0.13077170336E+02  0.21714712212E+02  0.51100000000E-03 0. -1.
        -11    1    3    3    0    0 -0.97447569130E+00  0.62968752144E+00  0.56180023359E+00  0.12890806845E+01  0.51100000000E-03 0.  1.
         12    1    3    3    0    0 -0.93293962528E+01  0.87985063264E+01  0.19259803087E+02  0.23138525514E+02  0.00000000000E+00 0. -1.
</event>
<event>
 7    1  0.1519238E-008  0.4614232E+02  0.7816164E-02  0.1320468E+00
        -11   -1    0    0    0    0  0.00000000000E+00  0.00000000000E+00  0.45593999997E+02  0.45594000000E+02  0.51100000000E-03 0. -1.
         11   -1    0    0    0    0 -0.00000000000E+00 -0.00000000000E+00 -0.45593999997E+02  0.45594000000E+02  0.51100000000E-03 0.  1.
    9900012    2    1    2    0    0  0.32608939931E+02 -0.29222147620E+02  0.10575283631E+02  0.46142317645E+02  0.99999989401E+01 0.  0.
        -12    1    1    2    0    0 -0.32608939931E+02  0.29222147620E+02 -0.10575283631E+02  0.45045682355E+02  0.00000000000E+00 0.  1.
         11    1    3    3    0    0  0.63895410986E+01 -0.11437641626E+02  0.42304151290E+01  0.13767435994E+02  0.51100000000E-03 0.  1.
        -11    1    3    3    0    0  0.21303081034E+02 -0.13565005865E+02  0.46746933745E+01  0.25684302678E+02  0.51100000000E-03 0. -1.
        -12    1    3    3    0    0  0.49163177982E+01 -0.42195001289E+01  0.16701751274E+01  0.66905789725E+01  0.00000000000E+00 0.  1.
</event>
<event>
 7    1  0.1519238E-008  0.4614232E+02  0.7816164E-02  0.1320468E+00
        -11   -1    0    0    0    0  0.00000000000E+00  0.00000000000E+00  0.45593999997E+02  0.45594000000E+02  0.51100000000E-03 0.  1.
         11   -1    0    0    0    0 -0.00000000000E+00 -0.00000000000E+00 -0.45593999997E+02  0.45594000000E+02  0.51100000000E-03 0. -1.
    9900012    2    1    2    0    0  0.24278624610E+02  0.31179771482E+02 -0.21621371121E+02  0.46142318167E+02  0.10000003703E+02 0.  0.
        -12    1    1    2    0    0 -0.24278624610E+02 -0.31179771482E+02  0.21621371121E+02  0.45045681833E+02  0.00000000000E+00 0.  1.
         11    1    3    3    0    0  0.16977161497E+02  0.24023476691E+02 -0.17220017757E+02  0.34086367606E+02  0.51100000000E-03 0. -1.
        -11    1    3    3    0    0  0.38870395320E+01  0.43721509047E+01 -0.48880445186E+01  0.76235004646E+01  0.51100000000E-03 0.  1.
         12    1    3    3    0    0  0.34144235816E+01  0.27841438865E+01  0.48669115439E+00  0.44324500962E+01  0.00000000000E+00 0. -1.
</event>
<event>
 7    1  0.1519238E-008  0.4614232E+02  0.7816164E-02  0.1320468E+00
        -11   -1    0    0    0    0  0.00000000000E+00  0.00000000000E+00  0.45593999997E+02  0.45594000000E+02  0.51100000000E-03 0.  1.
         11   -1    0    0    0    0 -0.00000000000E+00 -0.00000000000E+00 -0.45593999997E+02  0.45594000000E+02  0.51100000000E-03 0. -1.
    9900012    2    1    2    0    0 -0.39706380918E+02  0.85723776547E+01 -0.19468721972E+02  0.46142317860E+02  0.10000000897E+02 0.  0.
        -12    1    1    2    0    0  0.39706380918E+02 -0.85723776547E+01  0.19468721972E+02  0.45045682140E+02  0.00000000000E+00 0.  1.
         11    1    3    3    0    0 -0.15990526940E+02  0.17122890204E+01 -0.12444744979E+02  0.20334713260E+02  0.51100000000E-03 0.  1.
        -11    1    3    3    0    0 -0.99714258479E+01  0.42489112424E+01 -0.33007856372E+01  0.11330391267E+02  0.51100000000E-03 0. -1.
        -12    1    3    3    0    0 -0.13744428130E+02  0.26111773919E+01 -0.37231913560E+01  0.14477213332E+02  0.00000000000E+00 0.  1.
</event>
<event>
 7    1  0.1519238E-008  0.4614232E+02  0.7816164E-02  0.1320468E+00
        -11   -1    0    0    0    0  0.00000000000E+00  0.00000000000E+00  0.45593999997E+02  0.45594000000E+02  0.51100000000E-03 0. -1.
         11   -1    0    0    0    0 -0.00000000000E+00 -0.00000000000E+00 -0.45593999997E+02  0.45594000000E+02  0.51100000000E-03 0.  1.
    9900012    2    1    2    0    0  0.27585402856E+02  0.34521152171E+02  0.87435148145E+01  0.46142318196E+02  0.10000003964E+02 0.  0.
        -12    1    1    2    0    0 -0.27585402856E+02 -0.34521152171E+02 -0.87435148145E+01  0.45045681804E+02  0.00000000000E+00 0.  1.
         11    1    3    3    0    0  0.22262794026E+02  0.28096782721E+02  0.84403515528E+01  0.36827988429E+02  0.51100000000E-03 0. -1.
        -11    1    3    3    0    0  0.15526641347E+01  0.41513036181E+01  0.16207160692E+01  0.47191957454E+01  0.51100000000E-03 0.  1.
         12    1    3    3    0    0  0.37699446945E+01  0.22730658312E+01 -0.13175528075E+01  0.45951340212E+01  0.00000000000E+00 0. -1.
</event>
<event>
 7    1  0.1519238E-008  0.4614232E+02  0.7816164E-02  0.1320468E+00
        -11   -1    0    0    0    0  0.00000000000E+00  0.00000000000E+00  0.45593999997E+02  0.45594000000E+02  0.51100000000E-03 0. -1.
         11   -1    0    0    0    0 -0.00000000000E+00 -0.00000000000E+00 -0.45593999997E+02  0.45594000000E+02  0.51100000000E-03 0.  1.
    9900012    2    1    2    0    0 -0.39106449470E+02 -0.20789831154E+02 -0.82208284359E+01  0.46142317746E+02  0.99999998666E+01 0.  0.
        -12    1    1    2    0    0  0.39106449470E+02  0.20789831154E+02  0.82208284359E+01  0.45045682254E+02  0.00000000000E+00 0.  1.
         11    1    3    3    0    0 -0.18309504101E+01  0.61109336289E+00 -0.16158166517E+00  0.19369882287E+01  0.51100000000E-03 0.  1.
        -11    1    3    3    0    0 -0.19030445160E+02 -0.10437298601E+02 -0.73231909630E+01  0.22906858607E+02  0.51100000000E-03 0. -1.
        -12    1    3    3    0    0 -0.18245053900E+02 -0.10963625915E+02 -0.73605580777E+00  0.21298470911E+02  0.00000000000E+00 0.  1.
</event>
<event>
 7    1  0.1519238E-008  0.4614232E+02  0.7816164E-02  0.1320468E+00
        -11   -1    0    0    0    0  0.00000000000E+00  0.00000000000E+00  0.45593999997E+02  0.45594000000E+02  0.51100000000E-03 0.  1.
         11   -1    0    0    0    0 -0.00000000000E+00 -0.00000000000E+00 -0.45593999997E+02  0.45594000000E+02  0.51100000000E-03 0. -1.
    9900012    2    1    2    0    0 -0.14707377261E+02 -0.31554908451E+02 -0.28584860490E+02  0.46142318271E+02  0.10000004648E+02 0.  0.
        -12    1    1    2    0    0  0.14707377261E+02  0.31554908451E+02  0.28584860490E+02  0.45045681729E+02  0.00000000000E+00 0.  1.
         11    1    3    3    0    0 -0.24980629774E+01 -0.75804346531E+01 -0.86169418870E+01  0.11745424467E+02  0.51100000000E-03 0. -1.
        -11    1    3    3    0    0 -0.83538458762E+01 -0.21920563436E+02 -0.15317504527E+02  0.28016491349E+02  0.51100000000E-03 0.  1.
        -12    1    3    3    0    0 -0.38554684076E+01 -0.20539103611E+01 -0.46504140756E+01  0.63804024550E+01  0.00000000000E+00 0.  1.
</event>
<event>
 7    1  0.1519238E-008  0.4614232E+02  0.7816164E-02  0.1320468E+00
        -11   -1    0    0    0    0  0.00000000000E+00  0.00000000000E+00  0.45593999997E+02  0.45594000000E+02  0.51100000000E-03 0. -1.
         11   -1    0    0    0    0 -0.00000000000E+00 -0.00000000000E+00 -0.45593999997E+02  0.45594000000E+02  0.51100000000E-03 0.  1.
    9900012    2    1    2    0    0 -0.36812583696E+02  0.98550178322E+01  0.24017197524E+02  0.46142317945E+02  0.10000001680E+02 0.  0.
        -12    1    1    2    0    0  0.36812583696E+02 -0.98550178322E+01 -0.24017197524E+02  0.45045682055E+02  0.00000000000E+00 0.  1.
         11    1    3    3    0    0 -0.20816695216E+02  0.29528307249E+01  0.96106167643E+01  0.23117481780E+02  0.51100000000E-03 0. -1.
        -11    1    3    3    0    0 -0.33464999544E+01  0.22286620851E-01  0.14237179937E+01  0.36368299142E+01  0.51100000000E-03 0.  1.
         12    1    3    3    0    0 -0.12649388526E+02  0.68799004864E+01  0.12982862766E+02  0.19388006251E+02  0.00000000000E+00 0. -1.
</event>
<event>
 7    1  0.1519238E-008  0.4614232E+02  0.7816164E-02  0.1320468E+00
        -11   -1    0    0    0    0  0.00000000000E+00  0.00000000000E+00  0.45593999997E+02  0.45594000000E+02  0.51100000000E-03 0. -1.
         11   -1    0    0    0    0 -0.00000000000E+00 -0.00000000000E+00 -0.45593999997E+02  0.45594000000E+02  0.51100000000E-03 0.  1.
    9900012    2    1    2    0    0 -0.30887557124E+02 -0.25968417052E+02 -0.20017832667E+02  0.46142317698E+02  0.99999994284E+01 0.  0.
        -12    1    1    2    0    0  0.30887557124E+02  0.25968417052E+02  0.20017832667E+02  0.45045682302E+02  0.00000000000E+00 0.  1.
         11    1    3    3    0    0 -0.47218599579E+01 -0.49495805030E+01 -0.28615990112E+01  0.74150561549E+01  0.51100000000E-03 0. -1.
        -11    1    3    3    0    0 -0.23817479431E+02 -0.17187967775E+02 -0.17552062907E+02  0.34216567263E+02  0.51100000000E-03 0.  1.
        -12    1    3    3    0    0 -0.23482177349E+01 -0.38308687741E+01  0.39582925109E+00  0.45106942804E+01  0.00000000000E+00 0.  1.
</event>
<event>
 7    1  0.1519238E-008  0.4614232E+02  0.7816164E-02  0.1320468E+00
        -11   -1    0    0    0    0  0.00000000000E+00  0.00000000000E+00  0.45593999997E+02  0.45594000000E+02  0.51100000000E-03 0.  1.
         11   -1    0    0    0    0 -0.00000000000E+00 -0.00000000000E+00 -0.45593999997E+02  0.45594000000E+02  0.51100000000E-03 0. -1.
    9900012    2    1    2    0    0  0.13553087283E+02 -0.27831938751E+02 -0.32723232576E+02  0.46142323850E+02  0.10000055524E+02 0.  0.
        -12    1    1    2    0    0 -0.13553087283E+02  0.27831938751E+02  0.32723232576E+02  0.45045676150E+02  0.00000000000E+00 0.  1.
         11    1    3    3    0    0  0.21533040188E+01 -0.12196503835E+02 -0.13007747285E+02  0.17960871741E+02  0.51100000000E-03 0. -1.
        -11    1    3    3    0    0  0.57399971442E+01 -0.81413243759E+01 -0.62332897522E+01  0.11750856616E+02  0.51100000000E-03 0.  1.
         12    1    3    3    0    0  0.56597861204E+01 -0.74941105400E+01 -0.13482195540E+02  0.16430595494E+02  0.00000000000E+00 0. -1.
</event>
<event>
 7    1  0.1519238E-008  0.4614232E+02  0.7816164E-02  0.1320468E+00
        -11   -1    0    0    0    0  0.00000000000E+00  0.00000000000E+00  0.45593999997E+02  0.45594000000E+02  0.51100000000E-03 0.  1.
         11   -1    0    0    0    0 -0.00000000000E+00 -0.00000000000E+00 -0.45593999997E+02  0.45594000000E+02  0.51100000000E-03 0. -1.
    9900012    2    1    2    0    0  0.10249289315E+02  0.43850335455E+02 -0.11016682673E+01  0.46142317366E+02  0.99999963942E+01 0.  0.
        -12    1    1    2    0    0 -0.10249289315E+02 -0.43850335455E+02  0.11016682673E+01  0.45045682634E+02  0.00000000000E+00 0.  1.
         11    1    3    3    0    0 -0.10189153979E+01  0.74973838596E+01 -0.99191748456E+00  0.76310453992E+01  0.51100000000E-03 0. -1.
        -11    1    3    3    0    0  0.12003324082E+01  0.20182147670E+01  0.13360780939E+01  0.27016834881E+01  0.51100000000E-03 0.  1.
         12    1    3    3    0    0  0.10067872305E+02  0.34334736829E+02 -0.14458288766E+01  0.35809588478E+02  0.00000000000E+00 0. -1.
</event>
<event>
 7    1  0.1519238E-008  0.4614232E+02  0.7816164E-02  0.1320468E+00
        -11   -1    0    0    0    0  0.00000000000E+00  0.00000000000E+00  0.45593999997E+02  0.45594000000E+02  0.51100000000E-03 0. -1.
         11   -1    0    0    0    0 -0.00000000000E+00 -0.00000000000E+00 -0.45593999997E+02  0.45594000000E+02  0.51100000000E-03 0.  1.
    9900012    2    1    2    0    0 -0.22549066900E+02 -0.25765591459E+02  0.29270931847E+02  0.46142316828E+02  0.99999914870E+01 0.  0.
        -12    1    1    2    0    0  0.22549066900E+02  0.25765591459E+02 -0.29270931847E+02  0.45045683172E+02  0.00000000000E+00 0.  1.
         11    1    3    3    0    0 -0.31997972366E+01 -0.94925811227E+01  0.11222627407E+02  0.15043110214E+02  0.51100000000E-03 0. -1.
        -11    1    3    3    0    0 -0.14918495019E+02 -0.12103640415E+02  0.14356670233E+02  0.23982776849E+02  0.51100000000E-03 0.  1.
         12    1    3    3    0    0 -0.44307746436E+01 -0.41693699207E+01  0.36916342079E+01  0.71164297652E+01  0.00000000000E+00 0. -1.
</event>
<event>
 7    1  0.1519238E-008  0.4614232E+02  0.7816164E-02  0.1320468E+00
        -11   -1    0    0    0    0  0.00000000000E+00  0.00000000000E+00  0.45593999997E+02  0.45594000000E+02  0.51100000000E-03 0.  1.
         11   -1    0    0    0    0 -0.00000000000E+00 -0.00000000000E+00 -0.45593999997E+02  0.45594000000E+02  0.51100000000E-03 0. -1.
    9900012    2    1    2    0    0  0.41231851631E+02  0.18092761361E+02  0.13036738252E+01  0.46142321317E+02  0.10000032426E+02 0.  0.
        -12    1    1    2    0    0 -0.41231851631E+02 -0.18092761361E+02 -0.13036738252E+01  0.45045678683E+02  0.00000000000E+00 0.  1.
         11    1    3    3    0    0  0.11345984035E+02  0.24403616964E+01  0.25160720544E+01  0.11875072117E+02  0.51100000000E-03 0. -1.
        -11    1    3    3    0    0  0.20026779602E+02  0.11939996973E+02 -0.32369309881E+01  0.23539608141E+02  0.51100000000E-03 0.  1.
        -12    1    3    3    0    0  0.98590879935E+01  0.37124026922E+01  0.20245327590E+01  0.10727641060E+02  0.00000000000E+00 0.  1.
</event>
<event>
 7    1  0.1519238E-008  0.4614232E+02  0.7816164E-02  0.1320468E+00
        -11   -1    0    0    0    0  0.00000000000E+00  0.00000000000E+00  0.45593999997E+02  0.45594000000E+02  0.51100000000E-03 0.  1.
         11   -1    0    0    0    0 -0.00000000000E+00 -0.00000000000E+00 -0.45593999997E+02  0.45594000000E+02  0.51100000000E-03 0. -1.
    9900012    2    1    2    0    0 -0.41425537752E+01  0.40259514635E+02  0.19776862268E+02  0.46142317059E+02  0.99999935983E+01 0.  0.
        -12    1    1    2    0    0  0.41425537752E+01 -0.40259514635E+02 -0.19776862268E+02  0.45045682941E+02  0.00000000000E+00 0.  1.
         11    1    3    3    0    0  0.17491289168E+01  0.13500256438E+02  0.27785153749E+01  0.13893758448E+02  0.51100000000E-03 0. -1.
        -11    1    3    3    0    0 -0.37198483494E+01  0.17274586358E+02  0.10693187881E+02  0.20654124840E+02  0.51100000000E-03 0.  1.
         12    1    3    3    0    0 -0.21718343426E+01  0.94846718393E+01  0.63051590122E+01  0.11594433771E+02  0.00000000000E+00 0. -1.
</event>
<event>
 7    1  0.1519238E-008  0.4614232E+02  0.7816164E-02  0.1320468E+00
        -11   -1    0    0    0    0  0.00000000000E+00  0.00000000000E+00  0.45593999997E+02  0.45594000000E+02  0.51100000000E-03 0.  1.
         11   -1    0    0    0    0 -0.00000000000E+00 -0.00000000000E+00 -0.45593999997E+02  0.45594000000E+02  0.51100000000E-03 0. -1.
    9900012    2    1    2    0    0  0.34317258061E+02 -0.23710352443E+02 -0.17007599404E+02  0.46142318173E+02  0.10000003752E+02 0.  0.
        -12    1    1    2    0    0 -0.34317258061E+02  0.23710352443E+02  0.17007599404E+02  0.45045681827E+02  0.00000000000E+00 0.  1.
         11    1    3    3    0    0  0.10359854304E+02 -0.28305793844E+01 -0.54625375411E+01  0.12048986576E+02  0.51100000000E-03 0. -1.
        -11    1    3    3    0    0  0.35841383387E+01 -0.19896014291E+01 -0.28074114067E+01  0.49685129108E+01  0.51100000000E-03 0.  1.
         12    1    3    3    0    0  0.20373265418E+02 -0.18890171629E+02 -0.87376504566E+01  0.29124818686E+02  0.00000000000E+00 0. -1.
</event>
<event>
 7    1  0.1519238E-008  0.4614232E+02  0.7816164E-02  0.1320468E+00
        -11   -1    0    0    0    0  0.00000000000E+00  0.00000000000E+00  0.45593999997E+02  0.45594000000E+02  0.51100000000E-03 0.  1.
         11   -1    0    0    0    0 -0.00000000000E+00 -0.00000000000E+00 -0.45593999997E+02  0.45594000000E+02  0.51100000000E-03 0. -1.
    9900012    2    1    2    0    0  0.17472341615E+02  0.41413442031E+02  0.29593131707E+01  0.46142318333E+02  0.10000005218E+02 0.  0.
        -12    1    1    2    0    0 -0.17472341615E+02 -0.41413442031E+02 -0.29593131707E+01  0.45045681667E+02  0.00000000000E+00 0.  1.
         11    1    3    3    0    0  0.36838572838E+01  0.98457727109E+01  0.28434685423E+01  0.10890149603E+02  0.51100000000E-03 0. -1.
        -11    1    3    3    0    0  0.12793633512E+02  0.27535644088E+02  0.24968095192E+01  0.30465108104E+02  0.51100000000E-03 0.  1.
        -12    1    3    3    0    0  0.99485081898E+00  0.40320252326E+01 -0.23809648907E+01  0.47870606262E+01  0.00000000000E+00 0.  1.
</event>
<event>
 7    1  0.1519238E-008  0.4614232E+02  0.7816164E-02  0.1320468E+00
        -11   -1    0    0    0    0  0.00000000000E+00  0.00000000000E+00  0.45593999997E+02  0.45594000000E+02  0.51100000000E-03 0.  1.
         11   -1    0    0    0    0 -0.00000000000E+00 -0.00000000000E+00 -0.45593999997E+02  0.45594000000E+02  0.51100000000E-03 0. -1.
    9900012    2    1    2    0    0 -0.36034597322E+02  0.62164523929E+01 -0.26305455860E+02  0.46142317715E+02  0.99999995807E+01 0.  0.
        -12    1    1    2    0    0  0.36034597322E+02 -0.62164523929E+01  0.26305455860E+02  0.45045682285E+02  0.00000000000E+00 0.  1.
         11    1    3    3    0    0 -0.70745346952E+01  0.20250008510E+01 -0.67558051474E+01  0.99895231643E+01  0.51100000000E-03 0. -1.
        -11    1    3    3    0    0 -0.84656627567E+01  0.26836167185E+01 -0.19405521558E+01  0.90903788442E+01  0.51100000000E-03 0.  1.
        -12    1    3    3    0    0 -0.20494399870E+02  0.15078348234E+01 -0.17609098557E+02  0.27062415707E+02  0.00000000000E+00 0.  1.
</event>
<event>
 7    1  0.1519238E-008  0.4614232E+02  0.7816164E-02  0.1320468E+00
        -11   -1    0    0    0    0  0.00000000000E+00  0.00000000000E+00  0.45593999997E+02  0.45594000000E+02  0.51100000000E-03 0. -1.
         11   -1    0    0    0    0 -0.00000000000E+00 -0.00000000000E+00 -0.45593999997E+02  0.45594000000E+02  0.51100000000E-03 0.  1.
    9900012    2    1    2    0    0 -0.28650932539E+02  0.14610570963E+02  0.31539957810E+02  0.46142315880E+02  0.99999828474E+01 0.  0.
        -12    1    1    2    0    0  0.28650932539E+02 -0.14610570963E+02 -0.31539957810E+02  0.45045684120E+02  0.00000000000E+00 0.  1.
         11    1    3    3    0    0 -0.12494960670E+02  0.43129778445E+01  0.73503907493E+01  0.15124617828E+02  0.51100000000E-03 0. -1.
        -11    1    3    3    0    0 -0.81731207165E+01  0.63714202436E+01  0.11043251341E+02  0.15144249688E+02  0.51100000000E-03 0.  1.
        -12    1    3    3    0    0 -0.79828511522E+01  0.39261728745E+01  0.13146315720E+02  0.15873448364E+02  0.00000000000E+00 0.  1.
</event>
<event>
 7    1  0.1519238E-008  0.4614232E+02  0.7816164E-02  0.1320468E+00
        -11   -1    0    0    0    0  0.00000000000E+00  0.00000000000E+00  0.45593999997E+02  0.45594000000E+02  0.51100000000E-03 0.  1.
         11   -1    0    0    0    0 -0.00000000000E+00 -0.00000000000E+00 -0.45593999997E+02  0.45594000000E+02  0.51100000000E-03 0. -1.
    9900012    2    1    2    0    0  0.13518414531E+02 -0.32738728495E+00 -0.42968116291E+02  0.46142315063E+02  0.99999753986E+01 0.  0.
        -12    1    1    2    0    0 -0.13518414531E+02  0.32738728495E+00  0.42968116291E+02  0.45045684937E+02  0.00000000000E+00 0.  1.
         11    1    3    3    0    0  0.21060825043E+00  0.23850761851E+01 -0.96052498359E+01  0.98991802143E+01  0.51100000000E-03 0. -1.
        -11    1    3    3    0    0  0.33805509164E+01 -0.19364079516E+00 -0.46048074338E+01  0.57157565570E+01  0.51100000000E-03 0.  1.
         12    1    3    3    0    0  0.99272553638E+01 -0.25188226749E+01 -0.28758059021E+02  0.30527378292E+02  0.00000000000E+00 0. -1.
</event>
<event>
 7    1  0.1519238E-008  0.4614232E+02  0.7816164E-02  0.1320468E+00
        -11   -1    0    0    0    0  0.00000000000E+00  0.00000000000E+00  0.45593999997E+02  0.45594000000E+02  0.51100000000E-03 0.  1.
         11   -1    0    0    0    0 -0.00000000000E+00 -0.00000000000E+00 -0.45593999997E+02  0.45594000000E+02  0.51100000000E-03 0. -1.
    9900012    2    1    2    0    0  0.45688924707E+01 -0.38185599135E+02 -0.23454180419E+02  0.46142319421E+02  0.10000015135E+02 0.  0.
        -12    1    1    2    0    0 -0.45688924707E+01  0.38185599135E+02  0.23454180419E+02  0.45045680579E+02  0.00000000000E+00 0.  1.
         11    1    3    3    0    0  0.65146988058E+01 -0.26350566201E+02 -0.16452226937E+02  0.31740658643E+02  0.51100000000E-03 0. -1.
        -11    1    3    3    0    0 -0.27942632130E+01 -0.74104315755E+01 -0.33372498520E+01  0.85941631282E+01  0.51100000000E-03 0.  1.
        -12    1    3    3    0    0  0.84845687791E+00 -0.44246013589E+01 -0.36647036296E+01  0.58074976497E+01  0.00000000000E+00 0.  1.
</event>
<event>
 7    1  0.1519238E-008  0.4614232E+02  0.7816164E-02  0.1320468E+00
        -11   -1    0    0    0    0  0.00000000000E+00  0.00000000000E+00  0.45593999997E+02  0.45594000000E+02  0.51100000000E-03 0.  1.
         11   -1    0    0    0    0 -0.00000000000E+00 -0.00000000000E+00 -0.45593999997E+02  0.45594000000E+02  0.51100000000E-03 0. -1.
    9900012    2    1    2    0    0 -0.26598171462E+02 -0.32028282549E+02 -0.17199996878E+02  0.46142317623E+02  0.99999987402E+01 0.  0.
        -12    1    1    2    0    0  0.26598171462E+02  0.32028282549E+02  0.17199996878E+02  0.45045682377E+02  0.00000000000E+00 0.  1.
         11    1    3    3    0    0 -0.26283597066E+01 -0.46887733177E+01  0.62379568956E+00  0.54112837012E+01  0.51100000000E-03 0.  1.
        -11    1    3    3    0    0 -0.17546233451E+02 -0.20066849467E+02 -0.15173961961E+02  0.30672428624E+02  0.51100000000E-03 0. -1.
         12    1    3    3    0    0 -0.64235783048E+01 -0.72726597651E+01 -0.26498306075E+01  0.10058605298E+02  0.00000000000E+00 0. -1.
</event>
<event>
 7    1  0.1519238E-008  0.4614232E+02  0.7816164E-02  0.1320468E+00
        -11   -1    0    0    0    0  0.00000000000E+00  0.00000000000E+00  0.45593999997E+02  0.45594000000E+02  0.51100000000E-03 0.  1.
         11   -1    0    0    0    0 -0.00000000000E+00 -0.00000000000E+00 -0.45593999997E+02  0.45594000000E+02  0.51100000000E-03 0. -1.
    9900012    2    1    2    0    0 -0.13537980049E+02  0.27139614112E+02 -0.33305822604E+02  0.46142318994E+02  0.10000011242E+02 0.  0.
        -12    1    1    2    0    0  0.13537980049E+02 -0.27139614112E+02  0.33305822604E+02  0.45045681006E+02  0.00000000000E+00 0.  1.
         11    1    3    3    0    0 -0.61066991993E+01  0.11545399526E+02 -0.15048277578E+02  0.19925829560E+02  0.51100000000E-03 0. -1.
        -11    1    3    3    0    0  0.76649086643E+00  0.33494449415E+00 -0.30615568534E+01  0.31737716821E+01  0.51100000000E-03 0.  1.
        -12    1    3    3    0    0 -0.81977717159E+01  0.15259270092E+02 -0.15195988173E+02  0.23042717752E+02  0.00000000000E+00 0.  1.
</event>
<event>
 7    1  0.1519238E-008  0.4614232E+02  0.7816164E-02  0.1320468E+00
        -11   -1    0    0    0    0  0.00000000000E+00  0.00000000000E+00  0.45593999997E+02  0.45594000000E+02  0.51100000000E-03 0. -1.
         11   -1    0    0    0    0 -0.00000000000E+00 -0.00000000000E+00 -0.45593999997E+02  0.45594000000E+02  0.51100000000E-03 0.  1.
    9900012    2    1    2    0    0  0.13668573693E+02 -0.30296124545E+02  0.30404414654E+02  0.46142317635E+02  0.99999988487E+01 0.  0.
        -12    1    1    2    0    0 -0.13668573693E+02  0.30296124545E+02 -0.30404414654E+02  0.45045682365E+02  0.00000000000E+00 0.  1.
         11    1    3    3    0    0  0.65899863404E+01 -0.19573413123E+02  0.17918148467E+02  0.27342393202E+02  0.51100000000E-03 0. -1.
        -11    1    3    3    0    0  0.48467057464E+00 -0.23164995033E+01 -0.49075894094E-04  0.23666592020E+01  0.51100000000E-03 0.  1.
        -12    1    3    3    0    0  0.65939167783E+01 -0.84062119186E+01  0.12486315263E+02  0.16433265231E+02  0.00000000000E+00 0.  1.
</event>
<event>
 7    1  0.1519238E-008  0.4614232E+02  0.7816164E-02  0.1320468E+00
        -11   -1    0    0    0    0  0.00000000000E+00  0.00000000000E+00  0.45593999997E+02  0.45594000000E+02  0.51100000000E-03 0. -1.
         11   -1    0    0    0    0 -0.00000000000E+00 -0.00000000000E+00 -0.45593999997E+02  0.45594000000E+02  0.51100000000E-03 0.  1.
    9900012    2    1    2    0    0  0.14917630538E+02 -0.19908924366E+02  0.37552794001E+02  0.46142319767E+02  0.10000018295E+02 0.  0.
        -12    1    1    2    0    0 -0.14917630538E+02  0.19908924366E+02 -0.37552794001E+02  0.45045680233E+02  0.00000000000E+00 0.  1.
         11    1    3    3    0    0  0.63324471556E+01 -0.12766779068E+02  0.18031576583E+02  0.22983217552E+02  0.51100000000E-03 0. -1.
        -11    1    3    3    0    0  0.51941758570E+01 -0.23595761001E+01  0.53419833692E+01  0.78156157008E+01  0.51100000000E-03 0.  1.
        -12    1    3    3    0    0  0.33910075259E+01 -0.47825691987E+01  0.14179234050E+02  0.15343486514E+02  0.00000000000E+00 0.  1.
</event>
<event>
 7    1  0.1519238E-008  0.4614232E+02  0.7816164E-02  0.1320468E+00
        -11   -1    0    0    0    0  0.00000000000E+00  0.00000000000E+00  0.45593999997E+02  0.45594000000E+02  0.51100000000E-03 0.  1.
         11   -1    0    0    0    0 -0.00000000000E+00 -0.00000000000E+00 -0.45593999997E+02  0.45594000000E+02  0.51100000000E-03 0. -1.
    9900012    2    1    2    0    0  0.41011376638E+02  0.18329813051E+02  0.33463969887E+01  0.46142318375E+02  0.10000005600E+02 0.  0.
        -12    1    1    2    0    0 -0.41011376638E+02 -0.18329813051E+02 -0.33463969887E+01  0.45045681625E+02  0.00000000000E+00 0.  1.
         11    1    3    3    0    0  0.45689739653E+00 -0.43984112580E+00 -0.45105498981E+00  0.77824566292E+00  0.51100000000E-03 0. -1.
        -11    1    3    3    0    0  0.30725054819E+02  0.15253091951E+02  0.14228688707E+00  0.34303149324E+02  0.51100000000E-03 0.  1.
         12    1    3    3    0    0  0.98294244226E+01  0.35165622257E+01  0.36551650915E+01  0.11060923389E+02  0.00000000000E+00 0. -1.
</event>
<event>
 7    1  0.1519238E-008  0.4614232E+02  0.7816164E-02  0.1320468E+00
        -11   -1    0    0    0    0  0.00000000000E+00  0.00000000000E+00  0.45593999997E+02  0.45594000000E+02  0.51100000000E-03 0.  1.
         11   -1    0    0    0    0 -0.00000000000E+00 -0.00000000000E+00 -0.45593999997E+02  0.45594000000E+02  0.51100000000E-03 0. -1.
    9900012    2    1    2    0    0 -0.25884137715E+02 -0.25362632446E+02 -0.26755593150E+02  0.46142317914E+02  0.10000001391E+02 0.  0.
        -12    1    1    2    0    0  0.25884137715E+02  0.25362632446E+02  0.26755593150E+02  0.45045682086E+02  0.00000000000E+00 0.  1.
         11    1    3    3    0    0 -0.17415934463E+02 -0.11556132642E+02 -0.15813946876E+02  0.26209538167E+02  0.51100000000E-03 0. -1.
        -11    1    3    3    0    0 -0.84443829617E+01 -0.13520188648E+02 -0.97035330495E+01  0.18661769975E+02  0.51100000000E-03 0.  1.
        -12    1    3    3    0    0 -0.23820290178E-01 -0.28631115569E+00 -0.12381132250E+01  0.12710097726E+01  0.00000000000E+00 0.  1.
</event>
<event>
 7    1  0.1519238E-008  0.4614232E+02  0.7816164E-02  0.1320468E+00
        -11   -1    0    0    0    0  0.00000000000E+00  0.00000000000E+00  0.45593999997E+02  0.45594000000E+02  0.51100000000E-03 0.  1.
         11   -1    0    0    0    0 -0.00000000000E+00 -0.00000000000E+00 -0.45593999997E+02  0.45594000000E+02  0.51100000000E-03 0. -1.
    9900012    2    1    2    0    0 -0.27299030446E+02  0.33118087867E+02 -0.13677298964E+02  0.46142319694E+02  0.10000017624E+02 0.  0.
        -12    1    1    2    0    0  0.27299030446E+02 -0.33118087867E+02  0.13677298964E+02  0.45045680306E+02  0.00000000000E+00 0.  1.
         11    1    3    3    0    0 -0.26770744196E+02  0.31691556169E+02 -0.10842500877E+02  0.42878751180E+02  0.51100000000E-03 0. -1.
        -11    1    3    3    0    0 -0.26335569611E+00  0.31196134139E+00 -0.11981939364E+01  0.12658376956E+01  0.51100000000E-03 0.  1.
         12    1    3    3    0    0 -0.26493055443E+00  0.11145703574E+01 -0.16366041499E+01  0.19977308186E+01  0.00000000000E+00 0. -1.
</event>
<event>
 7    1  0.1519238E-008  0.4614232E+02  0.7816164E-02  0.1320468E+00
        -11   -1    0    0    0    0  0.00000000000E+00  0.00000000000E+00  0.45593999997E+02  0.45594000000E+02  0.51100000000E-03 0.  1.
         11   -1    0    0    0    0 -0.00000000000E+00 -0.00000000000E+00 -0.45593999997E+02  0.45594000000E+02  0.51100000000E-03 0. -1.
    9900012    2    1    2    0    0  0.26979583638E+01 -0.29885897424E+02 -0.33595648717E+02  0.46142318111E+02  0.10000003189E+02 0.  0.
        -12    1    1    2    0    0 -0.26979583638E+01  0.29885897424E+02  0.33595648717E+02  0.45045681889E+02  0.00000000000E+00 0.  1.
         11    1    3    3    0    0 -0.48834299958E+00 -0.24713991646E+02 -0.25610027612E+02  0.35593445696E+02  0.51100000000E-03 0. -1.
        -11    1    3    3    0    0  0.15013467178E+01 -0.33301857169E+01 -0.22415951042E+01  0.42858987095E+01  0.51100000000E-03 0.  1.
         12    1    3    3    0    0  0.16849546455E+01 -0.18417200611E+01 -0.57440260006E+01  0.62629737056E+01  0.00000000000E+00 0. -1.
</event>
<event>
 7    1  0.1519238E-008  0.4614232E+02  0.7816164E-02  0.1320468E+00
        -11   -1    0    0    0    0  0.00000000000E+00  0.00000000000E+00  0.45593999997E+02  0.45594000000E+02  0.51100000000E-03 0. -1.
         11   -1    0    0    0    0 -0.00000000000E+00 -0.00000000000E+00 -0.45593999997E+02  0.45594000000E+02  0.51100000000E-03 0.  1.
    9900012    2    1    2    0    0 -0.52464512743E+01  0.22893063193E+02  0.38438208697E+02  0.46142317841E+02  0.10000000730E+02 0.  0.
        -12    1    1    2    0    0  0.52464512743E+01 -0.22893063193E+02 -0.38438208697E+02  0.45045682159E+02  0.00000000000E+00 0.  1.
         11    1    3    3    0    0 -0.17240252925E+01  0.11674745359E+02  0.25753069431E+02  0.28328299063E+02  0.51100000000E-03 0. -1.
        -11    1    3    3    0    0 -0.16765074687E+01  0.37834817288E+01  0.18223880974E+01  0.45217817200E+01  0.51100000000E-03 0.  1.
         12    1    3    3    0    0 -0.18459185130E+01  0.74348361052E+01  0.10862751169E+02  0.13292237059E+02  0.00000000000E+00 0. -1.
</event>
<event>
 7    1  0.1519238E-008  0.4614232E+02  0.7816164E-02  0.1320468E+00
        -11   -1    0    0    0    0  0.00000000000E+00  0.00000000000E+00  0.45593999997E+02  0.45594000000E+02  0.51100000000E-03 0. -1.
         11   -1    0    0    0    0 -0.00000000000E+00 -0.00000000000E+00 -0.45593999997E+02  0.45594000000E+02  0.51100000000E-03 0.  1.
    9900012    2    1    2    0    0 -0.35545861343E+02  0.10366782901E+02  0.25654142662E+02  0.46142317831E+02  0.10000000637E+02 0.  0.
        -12    1    1    2    0    0  0.35545861343E+02 -0.10366782901E+02 -0.25654142662E+02  0.45045682169E+02  0.00000000000E+00 0.  1.
         11    1    3    3    0    0 -0.18496857477E+02  0.10498121255E+02  0.14588854441E+02  0.25791063580E+02  0.51100000000E-03 0. -1.
        -11    1    3    3    0    0 -0.45420170177E+01 -0.23359213334E+00  0.34428355390E+01  0.57041739703E+01  0.51100000000E-03 0.  1.
         12    1    3    3    0    0 -0.12506986848E+02  0.10225377915E+00  0.76224526818E+01  0.14647080281E+02  0.00000000000E+00 0. -1.
</event>
<event>
 7    1  0.1519238E-008  0.4614232E+02  0.7816164E-02  0.1320468E+00
        -11   -1    0    0    0    0  0.00000000000E+00  0.00000000000E+00  0.45593999997E+02  0.45594000000E+02  0.51100000000E-03 0. -1.
         11   -1    0    0    0    0 -0.00000000000E+00 -0.00000000000E+00 -0.45593999997E+02  0.45594000000E+02  0.51100000000E-03 0.  1.
    9900012    2    1    2    0    0 -0.41156897065E+02  0.16180519359E+02 -0.85682089140E+01  0.46142316669E+02  0.99999900452E+01 0.  0.
        -12    1    1    2    0    0  0.41156897065E+02 -0.16180519359E+02  0.85682089140E+01  0.45045683331E+02  0.00000000000E+00 0.  1.
         11    1    3    3    0    0 -0.26066170417E+02  0.10757749115E+02 -0.71642743025E+01  0.29094694237E+02  0.51100000000E-03 0. -1.
        -11    1    3    3    0    0 -0.92531005758E+01  0.53601686781E+01  0.98712572892E+00  0.10738980212E+02  0.51100000000E-03 0.  1.
         12    1    3    3    0    0 -0.58376260722E+01  0.62601566210E-01 -0.23910603404E+01  0.63086422206E+01  0.00000000000E+00 0. -1.
</event>
<event>
 7    1  0.1519238E-008  0.4614232E+02  0.7816164E-02  0.1320468E+00
        -11   -1    0    0    0    0  0.00000000000E+00  0.00000000000E+00  0.45593999997E+02  0.45594000000E+02  0.51100000000E-03 0.  1.
         11   -1    0    0    0    0 -0.00000000000E+00 -0.00000000000E+00 -0.45593999997E+02  0.45594000000E+02  0.51100000000E-03 0. -1.
    9900012    2    1    2    0    0  0.37471172350E+02 -0.11202569172E+02 -0.22350107264E+02  0.46142316432E+02  0.99999878839E+01 0.  0.
        -12    1    1    2    0    0 -0.37471172350E+02  0.11202569172E+02  0.22350107264E+02  0.45045683568E+02  0.00000000000E+00 0.  1.
         11    1    3    3    0    0  0.26468313443E+02 -0.11115080455E+02 -0.16351882344E+02  0.33037867463E+02  0.51100000000E-03 0. -1.
        -11    1    3    3    0    0  0.62566943509E+01 -0.16286708708E+01 -0.21859785399E+01  0.68247560721E+01  0.51100000000E-03 0.  1.
         12    1    3    3    0    0  0.47461645556E+01  0.15411821532E+01 -0.38122463802E+01  0.62796928971E+01  0.00000000000E+00 0. -1.
</event>
<event>
 7    1  0.1519238E-008  0.4614232E+02  0.7816164E-02  0.1320468E+00
        -11   -1    0    0    0    0  0.00000000000E+00  0.00000000000E+00  0.45593999997E+02  0.45594000000E+02  0.51100000000E-03 0. -1.
         11   -1    0    0    0    0 -0.00000000000E+00 -0.00000000000E+00 -0.45593999997E+02  0.45594000000E+02  0.51100000000E-03 0.  1.
    9900012    2    1    2    0    0  0.13211263726E+02 -0.20178181139E+02  0.38044934668E+02  0.46142317219E+02  0.99999950569E+01 0.  0.
        -12    1    1    2    0    0 -0.13211263726E+02  0.20178181139E+02 -0.38044934668E+02  0.45045682781E+02  0.00000000000E+00 0.  1.
         11    1    3    3    0    0  0.97626536304E+01 -0.13024521744E+02  0.21621659944E+02  0.27063698040E+02  0.51100000000E-03 0. -1.
        -11    1    3    3    0    0 -0.20228956033E+00 -0.54560844073E+01  0.11407396079E+02  0.12646677971E+02  0.51100000000E-03 0.  1.
        -12    1    3    3    0    0  0.36508996560E+01 -0.16975749876E+01  0.50158786440E+01  0.64319412084E+01  0.00000000000E+00 0.  1.
</event>
<event>
 7    1  0.1519238E-008  0.4614232E+02  0.7816164E-02  0.1320468E+00
        -11   -1    0    0    0    0  0.00000000000E+00  0.00000000000E+00  0.45593999997E+02  0.45594000000E+02  0.51100000000E-03 0.  1.
         11   -1    0    0    0    0 -0.00000000000E+00 -0.00000000000E+00 -0.45593999997E+02  0.45594000000E+02  0.51100000000E-03 0. -1.
    9900012    2    1    2    0    0  0.51337140944E+01 -0.50646682515E+01 -0.44464678767E+02  0.46142317157E+02  0.99999944941E+01 0.  0.
        -12    1    1    2    0    0 -0.51337140944E+01  0.50646682515E+01  0.44464678767E+02  0.45045682843E+02  0.00000000000E+00 0.  1.
         11    1    3    3    0    0 -0.18169140585E+01 -0.50533534889E+00 -0.11952142644E+02  0.12100010519E+02  0.51100000000E-03 0. -1.
        -11    1    3    3    0    0  0.58850970233E+01 -0.34171479067E+01 -0.15133264546E+02  0.16592979324E+02  0.51100000000E-03 0.  1.
        -12    1    3    3    0    0  0.10655311297E+01 -0.11421849959E+01 -0.17379271578E+02  0.17449327314E+02  0.00000000000E+00 0.  1.
</event>
<event>
 7    1  0.1519238E-008  0.4614232E+02  0.7816164E-02  0.1320468E+00
        -11   -1    0    0    0    0  0.00000000000E+00  0.00000000000E+00  0.45593999997E+02  0.45594000000E+02  0.51100000000E-03 0. -1.
         11   -1    0    0    0    0 -0.00000000000E+00 -0.00000000000E+00 -0.45593999997E+02  0.45594000000E+02  0.51100000000E-03 0.  1.
    9900012    2    1    2    0    0  0.22678126936E+02 -0.29776309882E+02  0.25063665744E+02  0.46142318608E+02  0.10000007726E+02 0.  0.
        -12    1    1    2    0    0 -0.22678126936E+02  0.29776309882E+02 -0.25063665744E+02  0.45045681392E+02  0.00000000000E+00 0.  1.
         11    1    3    3    0    0  0.13809357909E+02 -0.13419370652E+02  0.10519269642E+02  0.21941579446E+02  0.51100000000E-03 0. -1.
        -11    1    3    3    0    0  0.40043800721E+01 -0.12041970966E+02  0.11005081052E+02  0.16797497842E+02  0.51100000000E-03 0.  1.
        -12    1    3    3    0    0  0.48643889547E+01 -0.43149682639E+01  0.35393150503E+01  0.74032413203E+01  0.00000000000E+00 0.  1.
</event>
<event>
 7    1  0.1519238E-008  0.4614232E+02  0.7816164E-02  0.1320468E+00
        -11   -1    0    0    0    0  0.00000000000E+00  0.00000000000E+00  0.45593999997E+02  0.45594000000E+02  0.51100000000E-03 0.  1.
         11   -1    0    0    0    0 -0.00000000000E+00 -0.00000000000E+00 -0.45593999997E+02  0.45594000000E+02  0.51100000000E-03 0. -1.
    9900012    2    1    2    0    0  0.22927245848E+02 -0.10229740010E+02 -0.37400633254E+02  0.46142317069E+02  0.99999936913E+01 0.  0.
        -12    1    1    2    0    0 -0.22927245848E+02  0.10229740010E+02  0.37400633254E+02  0.45045682931E+02  0.00000000000E+00 0.  1.
         11    1    3    3    0    0  0.21735277925E+02 -0.10981895389E+02 -0.33046589455E+02  0.41049986695E+02  0.51100000000E-03 0. -1.
        -11    1    3    3    0    0  0.45199514710E+00  0.11675349041E+01 -0.91646858637E+00  0.15515644673E+01  0.51100000000E-03 0.  1.
         12    1    3    3    0    0  0.73997277552E+00 -0.41537952566E+00 -0.34375752131E+01  0.35407659065E+01  0.00000000000E+00 0. -1.
</event>
<event>
 7    1  0.1519238E-008  0.4614232E+02  0.7816164E-02  0.1320468E+00
        -11   -1    0    0    0    0  0.00000000000E+00  0.00000000000E+00  0.45593999997E+02  0.45594000000E+02  0.51100000000E-03 0.  1.
         11   -1    0    0    0    0 -0.00000000000E+00 -0.00000000000E+00 -0.45593999997E+02  0.45594000000E+02  0.51100000000E-03 0. -1.
    9900012    2    1    2    0    0  0.30513909388E+02 -0.22362166672E+02 -0.24452981481E+02  0.46142317990E+02  0.10000002089E+02 0.  0.
        -12    1    1    2    0    0 -0.30513909388E+02  0.22362166672E+02  0.24452981481E+02  0.45045682010E+02  0.00000000000E+00 0.  1.
         11    1    3    3    0    0  0.11220015698E+02 -0.10466161397E+02 -0.65613912973E+01  0.16687754273E+02  0.51100000000E-03 0. -1.
        -11    1    3    3    0    0  0.12719812577E+02 -0.87990622285E+01 -0.87284911268E+01  0.17759608265E+02  0.51100000000E-03 0.  1.
         12    1    3    3    0    0  0.65740811126E+01 -0.30969430469E+01 -0.91630990573E+01  0.11694955453E+02  0.00000000000E+00 0. -1.
</event>
<event>
 7    1  0.1519238E-008  0.4614232E+02  0.7816164E-02  0.1320468E+00
        -11   -1    0    0    0    0  0.00000000000E+00  0.00000000000E+00  0.45593999997E+02  0.45594000000E+02  0.51100000000E-03 0.  1.
         11   -1    0    0    0    0 -0.00000000000E+00 -0.00000000000E+00 -0.45593999997E+02  0.45594000000E+02  0.51100000000E-03 0. -1.
    9900012    2    1    2    0    0 -0.41319720798E+02 -0.44282469403E+01 -0.17383463619E+02  0.46142317575E+02  0.99999983030E+01 0.  0.
        -12    1    1    2    0    0  0.41319720798E+02  0.44282469403E+01  0.17383463619E+02  0.45045682425E+02  0.00000000000E+00 0.  1.
         11    1    3    3    0    0 -0.18802727208E+02 -0.75332664640E+00 -0.12300369746E+02  0.22481306627E+02  0.51100000000E-03 0. -1.
        -11    1    3    3    0    0 -0.94740859887E+00 -0.59047121633E+00 -0.98748753275E+00  0.14904265158E+01  0.51100000000E-03 0.  1.
         12    1    3    3    0    0 -0.21569584991E+02 -0.30844490775E+01 -0.40956063396E+01  0.22170584432E+02  0.00000000000E+00 0. -1.
</event>
<event>
 7    1  0.1519238E-008  0.4614232E+02  0.7816164E-02  0.1320468E+00
        -11   -1    0    0    0    0  0.00000000000E+00  0.00000000000E+00  0.45593999997E+02  0.45594000000E+02  0.51100000000E-03 0.  1.
         11   -1    0    0    0    0 -0.00000000000E+00 -0.00000000000E+00 -0.45593999997E+02  0.45594000000E+02  0.51100000000E-03 0. -1.
    9900012    2    1    2    0    0  0.18785909131E+02  0.86857664832E+01 -0.40009505448E+02  0.46142318215E+02  0.10000004143E+02 0.  0.
        -12    1    1    2    0    0 -0.18785909131E+02 -0.86857664832E+01  0.40009505448E+02  0.45045681785E+02  0.00000000000E+00 0.  1.
         11    1    3    3    0    0  0.58295157972E+01 -0.86821905670E+00 -0.13884563481E+02  0.15083705184E+02  0.51100000000E-03 0. -1.
        -11    1    3    3    0    0  0.78395764738E+01  0.46587821256E+01 -0.10521831241E+02  0.13923797726E+02  0.51100000000E-03 0.  1.
         12    1    3    3    0    0  0.51168168599E+01  0.48952034143E+01 -0.15603110726E+02  0.17134815306E+02  0.00000000000E+00 0. -1.
</event>
<event>
 7    1  0.1519238E-008  0.4614232E+02  0.7816164E-02  0.1320468E+00
        -11   -1    0    0    0    0  0.00000000000E+00  0.00000000000E+00  0.45593999997E+02  0.45594000000E+02  0.51100000000E-03 0. -1.
         11   -1    0    0    0    0 -0.00000000000E+00 -0.00000000000E+00 -0.45593999997E+02  0.45594000000E+02  0.51100000000E-03 0.  1.
    9900012    2    1    2    0    0 -0.41821603202E+02 -0.27922068741E+01 -0.16500624405E+02  0.46142317417E+02  0.99999968588E+01 0.  0.
        -12    1    1    2    0    0  0.41821603202E+02  0.27922068741E+01  0.16500624405E+02  0.45045682583E+02  0.00000000000E+00 0.  1.
         11    1    3    3    0    0 -0.13450455807E+02 -0.44148683505E+00 -0.56350455349E+01  0.14589839289E+02  0.51100000000E-03 0. -1.
        -11    1    3    3    0    0 -0.76972696316E+01 -0.15162733119E+01 -0.69784472285E+01  0.10499798594E+02  0.51100000000E-03 0.  1.
        -12    1    3    3    0    0 -0.20673877763E+02 -0.83444672716E+00 -0.38871316421E+01  0.21052679533E+02  0.00000000000E+00 0.  1.
</event>
<event>
 7    1  0.1519238E-008  0.4614232E+02  0.7816164E-02  0.1320468E+00
        -11   -1    0    0    0    0  0.00000000000E+00  0.00000000000E+00  0.45593999997E+02  0.45594000000E+02  0.51100000000E-03 0. -1.
         11   -1    0    0    0    0 -0.00000000000E+00 -0.00000000000E+00 -0.45593999997E+02  0.45594000000E+02  0.51100000000E-03 0.  1.
    9900012    2    1    2    0    0 -0.58434608628E+01  0.39030846887E+02  0.21715437161E+02  0.46142320355E+02  0.10000023654E+02 0.  0.
        -12    1    1    2    0    0  0.58434608628E+01 -0.39030846887E+02 -0.21715437161E+02  0.45045679645E+02  0.00000000000E+00 0.  1.
         11    1    3    3    0    0 -0.75045615670E+00  0.12864248185E+02  0.11541713648E+02  0.17299225994E+02  0.51100000000E-03 0. -1.
        -11    1    3    3    0    0 -0.44244934854E+01  0.25849050201E+02  0.10086760556E+02  0.28097905218E+02  0.51100000000E-03 0.  1.
        -12    1    3    3    0    0 -0.66851122069E+00  0.31754850171E+00  0.86962957549E-01  0.74518914318E+00  0.00000000000E+00 0.  1.
</event>
<event>
 7    1  0.1519238E-008  0.4614232E+02  0.7816164E-02  0.1320468E+00
        -11   -1    0    0    0    0  0.00000000000E+00  0.00000000000E+00  0.45593999997E+02  0.45594000000E+02  0.51100000000E-03 0. -1.
         11   -1    0    0    0    0 -0.00000000000E+00 -0.00000000000E+00 -0.45593999997E+02  0.45594000000E+02  0.51100000000E-03 0.  1.
    9900012    2    1    2    0    0  0.23075293428E+02  0.14771503347E+02  0.35755378367E+02  0.46142316965E+02  0.99999927409E+01 0.  0.
        -12    1    1    2    0    0 -0.23075293428E+02 -0.14771503347E+02 -0.35755378367E+02  0.45045683035E+02  0.00000000000E+00 0.  1.
         11    1    3    3    0    0  0.93245998248E+01  0.41638777666E+01  0.15473855875E+02  0.18539855874E+02  0.51100000000E-03 0. -1.
        -11    1    3    3    0    0  0.30829275158E+01 -0.71318383201E+00  0.36356548565E+01  0.48198609672E+01  0.51100000000E-03 0.  1.
        -12    1    3    3    0    0  0.10667766088E+02  0.11320809412E+02  0.16645867636E+02  0.22782600124E+02  0.00000000000E+00 0.  1.
</event>
<event>
 7    1  0.1519238E-008  0.4614232E+02  0.7816164E-02  0.1320468E+00
        -11   -1    0    0    0    0  0.00000000000E+00  0.00000000000E+00  0.45593999997E+02  0.45594000000E+02  0.51100000000E-03 0. -1.
         11   -1    0    0    0    0 -0.00000000000E+00 -0.00000000000E+00 -0.45593999997E+02  0.45594000000E+02  0.51100000000E-03 0.  1.
    9900012    2    1    2    0    0  0.41766937060E+02  0.97811988741E+01 -0.13746437223E+02  0.46142318530E+02  0.10000007008E+02 0.  0.
        -12    1    1    2    0    0 -0.41766937060E+02 -0.97811988741E+01  0.13746437223E+02  0.45045681470E+02  0.00000000000E+00 0.  1.
         11    1    3    3    0    0  0.12642000346E+02  0.49396171884E+00 -0.48244923313E+01  0.13540306401E+02  0.51100000000E-03 0. -1.
        -11    1    3    3    0    0  0.16372401204E+02  0.44863402087E+01 -0.13903446597E+01  0.17032786859E+02  0.51100000000E-03 0.  1.
        -12    1    3    3    0    0  0.12752535511E+02  0.48008969465E+01 -0.75316002321E+01  0.15569225270E+02  0.00000000000E+00 0.  1.
</event>
<event>
 7    1  0.1519238E-008  0.4614232E+02  0.7816164E-02  0.1320468E+00
        -11   -1    0    0    0    0  0.00000000000E+00  0.00000000000E+00  0.45593999997E+02  0.45594000000E+02  0.51100000000E-03 0.  1.
         11   -1    0    0    0    0 -0.00000000000E+00 -0.00000000000E+00 -0.45593999997E+02  0.45594000000E+02  0.51100000000E-03 0. -1.
    9900012    2    1    2    0    0 -0.23844305930E+02 -0.38167291861E+02 -0.19545686894E+01  0.46142318387E+02  0.10000005703E+02 0.  0.
        -12    1    1    2    0    0  0.23844305930E+02  0.38167291861E+02  0.19545686894E+01  0.45045681613E+02  0.00000000000E+00 0.  1.
         11    1    3    3    0    0 -0.16929455656E+02 -0.30092513805E+02 -0.57735698841E+00  0.34532581677E+02  0.51100000000E-03 0. -1.
        -11    1    3    3    0    0 -0.15200764981E+01 -0.91427079172E+00 -0.19376097400E+01  0.26269479261E+01  0.51100000000E-03 0.  1.
        -12    1    3    3    0    0 -0.53947737757E+01 -0.71605072642E+01  0.56039803893E+00  0.89827887837E+01  0.00000000000E+00 0.  1.
</event>
<event>
 7    1  0.1519238E-008  0.4614232E+02  0.7816164E-02  0.1320468E+00
        -11   -1    0    0    0    0  0.00000000000E+00  0.00000000000E+00  0.45593999997E+02  0.45594000000E+02  0.51100000000E-03 0.  1.
         11   -1    0    0    0    0 -0.00000000000E+00 -0.00000000000E+00 -0.45593999997E+02  0.45594000000E+02  0.51100000000E-03 0. -1.
    9900012    2    1    2    0    0 -0.10213768889E+02 -0.16861034026E+02 -0.40503060769E+02  0.46142317909E+02  0.10000001351E+02 0.  0.
        -12    1    1    2    0    0  0.10213768889E+02  0.16861034026E+02  0.40503060769E+02  0.45045682091E+02  0.00000000000E+00 0.  1.
         11    1    3    3    0    0 -0.74809308180E+01 -0.58428488260E+01 -0.12983700157E+02  0.16083521950E+02  0.51100000000E-03 0. -1.
        -11    1    3    3    0    0 -0.36634577836E+00 -0.10437388698E+01 -0.73599733012E+01  0.74426344337E+01  0.51100000000E-03 0.  1.
         12    1    3    3    0    0 -0.23664922922E+01 -0.99744463305E+01 -0.20159387311E+02  0.22616161525E+02  0.00000000000E+00 0. -1.
</event>
<event>
 7    1  0.1519238E-008  0.4614232E+02  0.7816164E-02  0.1320468E+00
        -11   -1    0    0    0    0  0.00000000000E+00  0.00000000000E+00  0.45593999997E+02  0.45594000000E+02  0.51100000000E-03 0.  1.
         11   -1    0    0    0    0 -0.00000000000E+00 -0.00000000000E+00 -0.45593999997E+02  0.45594000000E+02  0.51100000000E-03 0. -1.
    9900012    2    1    2    0    0 -0.13244614651E+02  0.22815035935E+01 -0.42994051117E+02  0.46142317551E+02  0.99999980796E+01 0.  0.
        -12    1    1    2    0    0  0.13244614651E+02 -0.22815035935E+01  0.42994051117E+02  0.45045682449E+02  0.00000000000E+00 0.  1.
         11    1    3    3    0    0 -0.67089359789E+01  0.24578591469E+01 -0.28685873957E+02  0.29562311454E+02  0.51100000000E-03 0. -1.
        -11    1    3    3    0    0  0.73844304363E+00 -0.81787734639E-02 -0.33203458115E+01  0.34014793238E+01  0.51100000000E-03 0.  1.
        -12    1    3    3    0    0 -0.72741217157E+01 -0.16817678001E+00 -0.10987831349E+02  0.13178526773E+02  0.00000000000E+00 0.  1.
</event>
<event>
 7    1  0.1519238E-008  0.4614232E+02  0.7816164E-02  0.1320468E+00
        -11   -1    0    0    0    0  0.00000000000E+00  0.00000000000E+00  0.45593999997E+02  0.45594000000E+02  0.51100000000E-03 0. -1.
         11   -1    0    0    0    0 -0.00000000000E+00 -0.00000000000E+00 -0.45593999997E+02  0.45594000000E+02  0.51100000000E-03 0.  1.
    9900012    2    1    2    0    0 -0.41030119264E+02  0.21410208466E+01  0.18467776751E+02  0.46142318352E+02  0.10000005386E+02 0.  0.
        -12    1    1    2    0    0  0.41030119264E+02 -0.21410208466E+01 -0.18467776751E+02  0.45045681648E+02  0.00000000000E+00 0.  1.
         11    1    3    3    0    0 -0.27596527385E+02  0.53728264280E+00  0.81421090237E+01  0.28777611714E+02  0.51100000000E-03 0.  1.
        -11    1    3    3    0    0 -0.12502417278E+02  0.23879554322E+01  0.91848810812E+01  0.15696331090E+02  0.51100000000E-03 0. -1.
        -12    1    3    3    0    0 -0.93117460028E+00 -0.78421722840E+00  0.11407866458E+01  0.16683755479E+01  0.00000000000E+00 0.  1.
</event>
<event>
 7    1  0.1519238E-008  0.4614232E+02  0.7816164E-02  0.1320468E+00
        -11   -1    0    0    0    0  0.00000000000E+00  0.00000000000E+00  0.45593999997E+02  0.45594000000E+02  0.51100000000E-03 0.  1.
         11   -1    0    0    0    0 -0.00000000000E+00 -0.00000000000E+00 -0.45593999997E+02  0.45594000000E+02  0.51100000000E-03 0. -1.
    9900012    2    1    2    0    0 -0.34041987774E+02  0.26307347715E+02  0.13348406557E+02  0.46142318375E+02  0.10000005601E+02 0.  0.
        -12    1    1    2    0    0  0.34041987774E+02 -0.26307347715E+02 -0.13348406557E+02  0.45045681625E+02  0.00000000000E+00 0.  1.
         11    1    3    3    0    0 -0.51953212321E+01  0.38783864292E+01  0.14829614525E+01  0.66507457424E+01  0.51100000000E-03 0. -1.
        -11    1    3    3    0    0 -0.15276279825E+02  0.10789460262E+02  0.10765529227E+02  0.21579476310E+02  0.51100000000E-03 0.  1.
        -12    1    3    3    0    0 -0.13570386717E+02  0.11639501024E+02  0.10999158781E+01  0.17912096323E+02  0.00000000000E+00 0.  1.
</event>
<event>
 7    1  0.1519238E-008  0.4614232E+02  0.7816164E-02  0.1320468E+00
        -11   -1    0    0    0    0  0.00000000000E+00  0.00000000000E+00  0.45593999997E+02  0.45594000000E+02  0.51100000000E-03 0.  1.
         11   -1    0    0    0    0 -0.00000000000E+00 -0.00000000000E+00 -0.45593999997E+02  0.45594000000E+02  0.51100000000E-03 0. -1.
    9900012    2    1    2    0    0 -0.36084027894E+02 -0.62464535310E+01 -0.26230483164E+02  0.46142317657E+02  0.99999990472E+01 0.  0.
        -12    1    1    2    0    0  0.36084027894E+02  0.62464535310E+01  0.26230483164E+02  0.45045682343E+02  0.00000000000E+00 0.  1.
         11    1    3    3    0    0 -0.20196286165E+02 -0.13989549461E+01 -0.14979731137E+02  0.25184109970E+02  0.51100000000E-03 0. -1.
        -11    1    3    3    0    0 -0.86749048233E+01 -0.13652054484E+01 -0.25768392837E+01  0.91519320673E+01  0.51100000000E-03 0.  1.
         12    1    3    3    0    0 -0.72128369062E+01 -0.34822931364E+01 -0.86739127434E+01  0.11806275620E+02  0.00000000000E+00 0. -1.
</event>
<event>
 7    1  0.1519238E-008  0.4614232E+02  0.7816164E-02  0.1320468E+00
        -11   -1    0    0    0    0  0.00000000000E+00  0.00000000000E+00  0.45593999997E+02  0.45594000000E+02  0.51100000000E-03 0. -1.
         11   -1    0    0    0    0 -0.00000000000E+00 -0.00000000000E+00 -0.45593999997E+02  0.45594000000E+02  0.51100000000E-03 0.  1.
    9900012    2    1    2    0    0 -0.15341225823E+02  0.38395103093E+02  0.17876697426E+02  0.46142318052E+02  0.10000002655E+02 0.  0.
        -12    1    1    2    0    0  0.15341225823E+02 -0.38395103093E+02 -0.17876697426E+02  0.45045681948E+02  0.00000000000E+00 0.  1.
         11    1    3    3    0    0 -0.35606256090E+01  0.16217069143E+02  0.10102638917E+02  0.19435398109E+02  0.51100000000E-03 0. -1.
        -11    1    3    3    0    0 -0.26177656286E+01  0.50152404637E+01 -0.24712065781E+00  0.56627204306E+01  0.51100000000E-03 0.  1.
        -12    1    3    3    0    0 -0.91628345855E+01  0.17162793486E+02  0.80211791673E+01  0.21044199513E+02  0.00000000000E+00 0.  1.
</event>
<event>
 7    1  0.1519238E-008  0.4614232E+02  0.7816164E-02  0.1320468E+00
        -11   -1    0    0    0    0  0.00000000000E+00  0.00000000000E+00  0.45593999997E+02  0.45594000000E+02  0.51100000000E-03 0.  1.
         11   -1    0    0    0    0 -0.00000000000E+00 -0.00000000000E+00 -0.45593999997E+02  0.45594000000E+02  0.51100000000E-03 0. -1.
    9900012    2    1    2    0    0  0.38983705688E+02  0.23850808379E+01 -0.22443164645E+02  0.46142316977E+02  0.99999928483E+01 0.  0.
        -12    1    1    2    0    0 -0.38983705688E+02 -0.23850808379E+01  0.22443164645E+02  0.45045683023E+02  0.00000000000E+00 0.  1.
         11    1    3    3    0    0  0.17691359915E+02  0.15306266527E+01 -0.14573022446E+02  0.22971722118E+02  0.51100000000E-03 0. -1.
        -11    1    3    3    0    0  0.12993430805E+02 -0.62844142574E+00 -0.27148361062E+01  0.13288887014E+02  0.51100000000E-03 0.  1.
        -12    1    3    3    0    0  0.82989149674E+01  0.14828956109E+01 -0.51553060932E+01  0.98817078455E+01  0.00000000000E+00 0.  1.
</event>
<event>
 7    1  0.1519238E-008  0.4614232E+02  0.7816164E-02  0.1320468E+00
        -11   -1    0    0    0    0  0.00000000000E+00  0.00000000000E+00  0.45593999997E+02  0.45594000000E+02  0.51100000000E-03 0.  1.
         11   -1    0    0    0    0 -0.00000000000E+00 -0.00000000000E+00 -0.45593999997E+02  0.45594000000E+02  0.51100000000E-03 0. -1.
    9900012    2    1    2    0    0  0.37498686141E+01  0.34390386505E+02 -0.28850533490E+02  0.46142317840E+02  0.10000000721E+02 0.  0.
        -12    1    1    2    0    0 -0.37498686141E+01 -0.34390386505E+02  0.28850533490E+02  0.45045682160E+02  0.00000000000E+00 0.  1.
         11    1    3    3    0    0  0.27278524558E+01  0.15975539104E+02 -0.75855877343E+01  0.17894137873E+02  0.51100000000E-03 0. -1.
        -11    1    3    3    0    0 -0.53693793282E-01 -0.16065009256E-01  0.30601470386E-01  0.63857803518E-01  0.51100000000E-03 0.  1.
         12    1    3    3    0    0  0.10757099516E+01  0.18430912411E+02 -0.21295547226E+02  0.28184322164E+02  0.00000000000E+00 0. -1.
</event>
<event>
 7    1  0.1519238E-008  0.4614232E+02  0.7816164E-02  0.1320468E+00
        -11   -1    0    0    0    0  0.00000000000E+00  0.00000000000E+00  0.45593999997E+02  0.45594000000E+02  0.51100000000E-03 0. -1.
         11   -1    0    0    0    0 -0.00000000000E+00 -0.00000000000E+00 -0.45593999997E+02  0.45594000000E+02  0.51100000000E-03 0.  1.
    9900012    2    1    2    0    0 -0.28280409196E+02 -0.15313952004E+02 -0.31540683514E+02  0.46142318889E+02  0.10000010281E+02 0.  0.
        -12    1    1    2    0    0  0.28280409196E+02  0.15313952004E+02  0.31540683514E+02  0.45045681111E+02  0.00000000000E+00 0.  1.
         11    1    3    3    0    0 -0.57817361571E+01 -0.25807794073E+01 -0.76354540975E+01  0.99191257113E+01  0.51100000000E-03 0. -1.
        -11    1    3    3    0    0 -0.15229815872E+02 -0.64528074401E+01 -0.10019388363E+02  0.19338411486E+02  0.51100000000E-03 0.  1.
        -12    1    3    3    0    0 -0.72688571666E+01 -0.62803651569E+01 -0.13885841054E+02  0.16884781692E+02  0.00000000000E+00 0.  1.
</event>
<event>
 7    1  0.1519238E-008  0.4614232E+02  0.7816164E-02  0.1320468E+00
        -11   -1    0    0    0    0  0.00000000000E+00  0.00000000000E+00  0.45593999997E+02  0.45594000000E+02  0.51100000000E-03 0. -1.
         11   -1    0    0    0    0 -0.00000000000E+00 -0.00000000000E+00 -0.45593999997E+02  0.45594000000E+02  0.51100000000E-03 0.  1.
    9900012    2    1    2    0    0 -0.38491951530E+02  0.23367101905E+02 -0.12090242502E+01  0.46142317369E+02  0.99999964282E+01 0.  0.
        -12    1    1    2    0    0  0.38491951530E+02 -0.23367101905E+02  0.12090242502E+01  0.45045682631E+02  0.00000000000E+00 0.  1.
         11    1    3    3    0    0 -0.28191280956E+02  0.19781530806E+02  0.25141337856E+01  0.34530829007E+02  0.51100000000E-03 0. -1.
        -11    1    3    3    0    0 -0.37473545752E+01  0.11257892470E+01 -0.20380122105E+01  0.44117526871E+01  0.51100000000E-03 0.  1.
         12    1    3    3    0    0 -0.65533159995E+01  0.24597818517E+01 -0.16851458253E+01  0.71997356757E+01  0.00000000000E+00 0. -1.
</event>
<event>
 7    1  0.1519238E-008  0.4614232E+02  0.7816164E-02  0.1320468E+00
        -11   -1    0    0    0    0  0.00000000000E+00  0.00000000000E+00  0.45593999997E+02  0.45594000000E+02  0.51100000000E-03 0.  1.
         11   -1    0    0    0    0 -0.00000000000E+00 -0.00000000000E+00 -0.45593999997E+02  0.45594000000E+02  0.51100000000E-03 0. -1.
    9900012    2    1    2    0    0  0.22210404706E+00  0.44338285047E+02 -0.79486001812E+01  0.46142322116E+02  0.10000039715E+02 0.  0.
        -12    1    1    2    0    0 -0.22210404706E+00 -0.44338285047E+02  0.79486001812E+01  0.45045677884E+02  0.00000000000E+00 0.  1.
         11    1    3    3    0    0  0.14416007639E+01  0.39056006016E+01 -0.14404313162E+01  0.44053117324E+01  0.51100000000E-03 0. -1.
        -11    1    3    3    0    0 -0.11093213582E+01  0.35004899447E+02 -0.27419652532E+01  0.35129644930E+02  0.51100000000E-03 0.  1.
        -12    1    3    3    0    0 -0.11017535860E+00  0.54277849989E+01 -0.37662036118E+01  0.66073654545E+01  0.00000000000E+00 0.  1.
</event>
<event>
 7    1  0.1519238E-008  0.4614232E+02  0.7816164E-02  0.1320468E+00
        -11   -1    0    0    0    0  0.00000000000E+00  0.00000000000E+00  0.45593999997E+02  0.45594000000E+02  0.51100000000E-03 0. -1.
         11   -1    0    0    0    0 -0.00000000000E+00 -0.00000000000E+00 -0.45593999997E+02  0.45594000000E+02  0.51100000000E-03 0.  1.
    9900012    2    1    2    0    0  0.26346019520E+02 -0.80413695828E+00  0.36528812640E+02  0.46142317258E+02  0.99999954133E+01 0.  0.
        -12    1    1    2    0    0 -0.26346019520E+02  0.80413695828E+00 -0.36528812640E+02  0.45045682742E+02  0.00000000000E+00 0.  1.
         11    1    3    3    0    0  0.99006461814E+01 -0.27822214666E+01  0.10094995885E+02  0.14410846376E+02  0.51100000000E-03 0. -1.
        -11    1    3    3    0    0  0.87829367715E+01 -0.18676484730E+01  0.13335169024E+02  0.16076530170E+02  0.51100000000E-03 0.  1.
        -12    1    3    3    0    0  0.76624365669E+01  0.38457329813E+01  0.13098647732E+02  0.15654940713E+02  0.00000000000E+00 0.  1.
</event>
<event>
 7    1  0.1519238E-008  0.4614232E+02  0.7816164E-02  0.1320468E+00
        -11   -1    0    0    0    0  0.00000000000E+00  0.00000000000E+00  0.45593999997E+02  0.45594000000E+02  0.51100000000E-03 0. -1.
         11   -1    0    0    0    0 -0.00000000000E+00 -0.00000000000E+00 -0.45593999997E+02  0.45594000000E+02  0.51100000000E-03 0.  1.
    9900012    2    1    2    0    0  0.52086466518E+01  0.53797585851E+00  0.44740297340E+02  0.46142316255E+02  0.99999862654E+01 0.  0.
        -12    1    1    2    0    0 -0.52086466518E+01 -0.53797585851E+00 -0.44740297340E+02  0.45045683745E+02  0.00000000000E+00 0.  1.
         11    1    3    3    0    0 -0.12257795643E+01 -0.38564066954E+00  0.31671035715E+01  0.34178647661E+01  0.51100000000E-03 0. -1.
        -11    1    3    3    0    0  0.13262262118E+00  0.31604043912E+01  0.13050480903E+02  0.13428357932E+02  0.51100000000E-03 0.  1.
        -12    1    3    3    0    0  0.63018035949E+01 -0.22367878631E+01  0.28522712866E+02  0.29296093557E+02  0.00000000000E+00 0.  1.
</event>
<event>
 7    1  0.1519238E-008  0.4614232E+02  0.7816164E-02  0.1320468E+00
        -11   -1    0    0    0    0  0.00000000000E+00  0.00000000000E+00  0.45593999997E+02  0.45594000000E+02  0.51100000000E-03 0.  1.
         11   -1    0    0    0    0 -0.00000000000E+00 -0.00000000000E+00 -0.45593999997E+02  0.45594000000E+02  0.51100000000E-03 0. -1.
    9900012    2    1    2    0    0 -0.40783342524E+01  0.13704132096E+02 -0.42716242682E+02  0.46142318347E+02  0.10000005338E+02 0.  0.
        -12    1    1    2    0    0  0.40783342524E+01 -0.13704132096E+02  0.42716242682E+02  0.45045681653E+02  0.00000000000E+00 0.  1.
         11    1    3    3    0    0 -0.34535803786E+01  0.40078438725E+01 -0.20499088703E+02  0.21170797526E+02  0.51100000000E-03 0. -1.
        -11    1    3    3    0    0 -0.19050041317E+01  0.22259484939E+01 -0.11352166856E+02  0.11724145172E+02  0.51100000000E-03 0.  1.
         12    1    3    3    0    0  0.12802502578E+01  0.74703397300E+01 -0.10864987122E+02  0.13247375649E+02  0.00000000000E+00 0. -1.
</event>
<event>
 7    1  0.1519238E-008  0.4614232E+02  0.7816164E-02  0.1320468E+00
        -11   -1    0    0    0    0  0.00000000000E+00  0.00000000000E+00  0.45593999997E+02  0.45594000000E+02  0.51100000000E-03 0. -1.
         11   -1    0    0    0    0 -0.00000000000E+00 -0.00000000000E+00 -0.45593999997E+02  0.45594000000E+02  0.51100000000E-03 0.  1.
    9900012    2    1    2    0    0 -0.58778697995E+01 -0.42826739467E+02  0.12666271782E+02  0.46142318658E+02  0.10000008178E+02 0.  0.
        -12    1    1    2    0    0  0.58778697995E+01  0.42826739467E+02 -0.12666271782E+02  0.45045681342E+02  0.00000000000E+00 0.  1.
         11    1    3    3    0    0 -0.21266612259E+00 -0.89233839211E+01 -0.11401513048E+01  0.89984416841E+01  0.51100000000E-03 0. -1.
        -11    1    3    3    0    0 -0.48834125505E+01 -0.30924472910E+02  0.13330607710E+02  0.34027574775E+02  0.51100000000E-03 0.  1.
         12    1    3    3    0    0 -0.78179112644E+00 -0.29788826355E+01  0.47581537671E+00  0.31163021988E+01  0.00000000000E+00 0. -1.
</event>
<event>
 7    1  0.1519238E-008  0.4614232E+02  0.7816164E-02  0.1320468E+00
        -11   -1    0    0    0    0  0.00000000000E+00  0.00000000000E+00  0.45593999997E+02  0.45594000000E+02  0.51100000000E-03 0.  1.
         11   -1    0    0    0    0 -0.00000000000E+00 -0.00000000000E+00 -0.45593999997E+02  0.45594000000E+02  0.51100000000E-03 0. -1.
    9900012    2    1    2    0    0 -0.44190319617E+02 -0.82025262551E+01  0.30079413909E+01  0.46142317674E+02  0.99999992023E+01 0.  0.
        -12    1    1    2    0    0  0.44190319617E+02  0.82025262551E+01 -0.30079413909E+01  0.45045682326E+02  0.00000000000E+00 0.  1.
         11    1    3    3    0    0 -0.40186148936E+02 -0.64095714472E+01  0.12258045593E+01  0.40712550516E+02  0.51100000000E-03 0. -1.
        -11    1    3    3    0    0 -0.75743563587E+00 -0.57814852028E+00  0.17157266728E+01  0.19625704397E+01  0.51100000000E-03 0.  1.
         12    1    3    3    0    0 -0.32467350457E+01 -0.12148062876E+01  0.66410158797E-01  0.34671967182E+01  0.00000000000E+00 0. -1.
</event>
<event>
 7    1  0.1519238E-008  0.4614232E+02  0.7816164E-02  0.1320468E+00
        -11   -1    0    0    0    0  0.00000000000E+00  0.00000000000E+00  0.45593999997E+02  0.45594000000E+02  0.51100000000E-03 0.  1.
         11   -1    0    0    0    0 -0.00000000000E+00 -0.00000000000E+00 -0.45593999997E+02  0.45594000000E+02  0.51100000000E-03 0. -1.
    9900012    2    1    2    0    0  0.40888629785E+02 -0.18112235165E+02 -0.54018873381E+01  0.46142317685E+02  0.99999993086E+01 0.  0.
        -12    1    1    2    0    0 -0.40888629785E+02  0.18112235165E+02  0.54018873381E+01  0.45045682315E+02  0.00000000000E+00 0.  1.
         11    1    3    3    0    0  0.19024671609E+02 -0.11314556255E+02 -0.11762908005E+01  0.22166212428E+02  0.51100000000E-03 0. -1.
        -11    1    3    3    0    0  0.30178262536E+01 -0.10303669037E+01  0.13962217998E+01  0.34811444710E+01  0.51100000000E-03 0.  1.
        -12    1    3    3    0    0  0.18846131923E+02 -0.57673120059E+01 -0.56218183374E+01  0.20494960786E+02  0.00000000000E+00 0.  1.
</event>
<event>
 7    1  0.1519238E-008  0.4614232E+02  0.7816164E-02  0.1320468E+00
        -11   -1    0    0    0    0  0.00000000000E+00  0.00000000000E+00  0.45593999997E+02  0.45594000000E+02  0.51100000000E-03 0.  1.
         11   -1    0    0    0    0 -0.00000000000E+00 -0.00000000000E+00 -0.45593999997E+02  0.45594000000E+02  0.51100000000E-03 0. -1.
    9900012    2    1    2    0    0 -0.25940487070E+02 -0.35648928838E+02  0.92389619722E+01  0.46142318575E+02  0.10000007425E+02 0.  0.
        -12    1    1    2    0    0  0.25940487070E+02  0.35648928838E+02 -0.92389619722E+01  0.45045681425E+02  0.00000000000E+00 0.  1.
         11    1    3    3    0    0 -0.94193121712E+01 -0.10806595259E+02  0.11903166003E+01  0.14384811321E+02  0.51100000000E-03 0. -1.
        -11    1    3    3    0    0  0.46121074029E+00 -0.10076786095E+01 -0.57367513976E+00  0.12478922045E+01  0.51100000000E-03 0.  1.
        -12    1    3    3    0    0 -0.16982385639E+02 -0.23834654969E+02  0.86223205116E+01  0.30509615050E+02  0.00000000000E+00 0.  1.
</event>
<event>
 7    1  0.1519238E-008  0.4614232E+02  0.7816164E-02  0.1320468E+00
        -11   -1    0    0    0    0  0.00000000000E+00  0.00000000000E+00  0.45593999997E+02  0.45594000000E+02  0.51100000000E-03 0.  1.
         11   -1    0    0    0    0 -0.00000000000E+00 -0.00000000000E+00 -0.45593999997E+02  0.45594000000E+02  0.51100000000E-03 0. -1.
    9900012    2    1    2    0    0 -0.23945092028E+02  0.10653543125E+02 -0.36636704242E+02  0.46142317509E+02  0.99999977046E+01 0.  0.
        -12    1    1    2    0    0  0.23945092028E+02 -0.10653543125E+02  0.36636704242E+02  0.45045682491E+02  0.00000000000E+00 0.  1.
         11    1    3    3    0    0 -0.19920538814E+02  0.92465504740E+01 -0.22866662802E+02  0.31705060011E+02  0.51100000000E-03 0. -1.
        -11    1    3    3    0    0 -0.25438635446E+01  0.68631590029E+00 -0.95649969371E+01  0.99212619115E+01  0.51100000000E-03 0.  1.
         12    1    3    3    0    0 -0.14806896690E+01  0.72067675117E+00 -0.42050445020E+01  0.45159955867E+01  0.00000000000E+00 0. -1.
</event>
<event>
 7    1  0.1519238E-008  0.4614232E+02  0.7816164E-02  0.1320468E+00
        -11   -1    0    0    0    0  0.00000000000E+00  0.00000000000E+00  0.45593999997E+02  0.45594000000E+02  0.51100000000E-03 0.  1.
         11   -1    0    0    0    0 -0.00000000000E+00 -0.00000000000E+00 -0.45593999997E+02  0.45594000000E+02  0.51100000000E-03 0. -1.
    9900012    2    1    2    0    0 -0.37013820449E+02  0.21460926418E+02 -0.14089690297E+02  0.46142316083E+02  0.99999846955E+01 0.  0.
        -12    1    1    2    0    0  0.37013820449E+02 -0.21460926418E+02  0.14089690297E+02  0.45045683917E+02  0.00000000000E+00 0.  1.
         11    1    3    3    0    0 -0.74768146076E+01  0.19712824666E+01 -0.49024834089E+01  0.91554931640E+01  0.51100000000E-03 0. -1.
        -11    1    3    3    0    0 -0.18379765006E+02  0.93499300514E+01 -0.37470943592E+01  0.20958952027E+02  0.51100000000E-03 0.  1.
         12    1    3    3    0    0 -0.11157240834E+02  0.10139713900E+02 -0.54401125291E+01  0.16027870892E+02  0.00000000000E+00 0. -1.
</event>
<event>
 7    1  0.1519238E-008  0.4614232E+02  0.7816164E-02  0.1320468E+00
        -11   -1    0    0    0    0  0.00000000000E+00  0.00000000000E+00  0.45593999997E+02  0.45594000000E+02  0.51100000000E-03 0.  1.
         11   -1    0    0    0    0 -0.00000000000E+00 -0.00000000000E+00 -0.45593999997E+02  0.45594000000E+02  0.51100000000E-03 0. -1.
    9900012    2    1    2    0    0 -0.96159168708E+01 -0.15875875658E+02 -0.41043929956E+02  0.46142317949E+02  0.10000001715E+02 0.  0.
        -12    1    1    2    0    0  0.96159168708E+01  0.15875875658E+02  0.41043929956E+02  0.45045682051E+02  0.00000000000E+00 0.  1.
         11    1    3    3    0    0 -0.63918609050E+01 -0.87449062345E+01 -0.19792144187E+02  0.22562319089E+02  0.51100000000E-03 0. -1.
        -11    1    3    3    0    0 -0.25631211169E+01 -0.27880205747E+01 -0.30704508034E+01  0.48754812052E+01  0.51100000000E-03 0.  1.
         12    1    3    3    0    0 -0.66093484885E+00 -0.43429488487E+01 -0.18181334965E+02  0.18704517655E+02  0.00000000000E+00 0. -1.
</event>
<event>
 7    1  0.1519238E-008  0.4614232E+02  0.7816164E-02  0.1320468E+00
        -11   -1    0    0    0    0  0.00000000000E+00  0.00000000000E+00  0.45593999997E+02  0.45594000000E+02  0.51100000000E-03 0.  1.
         11   -1    0    0    0    0 -0.00000000000E+00 -0.00000000000E+00 -0.45593999997E+02  0.45594000000E+02  0.51100000000E-03 0. -1.
    9900012    2    1    2    0    0  0.11503644262E+01 -0.40643142857E+02 -0.19388788897E+02  0.46142317249E+02  0.99999953283E+01 0.  0.
        -12    1    1    2    0    0 -0.11503644262E+01  0.40643142857E+02  0.19388788897E+02  0.45045682751E+02  0.00000000000E+00 0.  1.
         11    1    3    3    0    0  0.26747680674E+01 -0.19955712623E+02 -0.88020828823E+01  0.21974110081E+02  0.51100000000E-03 0. -1.
        -11    1    3    3    0    0 -0.27733371981E+01 -0.18979896888E+02 -0.10848163615E+02  0.22036572763E+02  0.51100000000E-03 0.  1.
        -12    1    3    3    0    0  0.12489335569E+01 -0.17075333462E+01  0.26145759991E+00  0.21316344045E+01  0.00000000000E+00 0.  1.
</event>
<event>
 7    1  0.1519238E-008  0.4614232E+02  0.7816164E-02  0.1320468E+00
        -11   -1    0    0    0    0  0.00000000000E+00  0.00000000000E+00  0.45593999997E+02  0.45594000000E+02  0.51100000000E-03 0.  1.
         11   -1    0    0    0    0 -0.00000000000E+00 -0.00000000000E+00 -0.45593999997E+02  0.45594000000E+02  0.51100000000E-03 0. -1.
    9900012    2    1    2    0    0 -0.32239886911E+02  0.31308976089E+02 -0.30742773166E+01  0.46142317934E+02  0.10000001577E+02 0.  0.
        -12    1    1    2    0    0  0.32239886911E+02 -0.31308976089E+02  0.30742773166E+01  0.45045682066E+02  0.00000000000E+00 0.  1.
         11    1    3    3    0    0 -0.36706123640E+01  0.31146086277E+01  0.19654819720E+01  0.51997405390E+01  0.51100000000E-03 0. -1.
        -11    1    3    3    0    0 -0.82961772030E+00  0.98770845695E+00  0.98570729118E+00  0.16234077377E+01  0.51100000000E-03 0.  1.
         12    1    3    3    0    0 -0.27739656826E+02  0.27206659005E+02 -0.60254665797E+01  0.39319169657E+02  0.00000000000E+00 0. -1.
</event>
<event>
 7    1  0.1519238E-008  0.4614232E+02  0.7816164E-02  0.1320468E+00
        -11   -1    0    0    0    0  0.00000000000E+00  0.00000000000E+00  0.45593999997E+02  0.45594000000E+02  0.51100000000E-03 0.  1.
         11   -1    0    0    0    0 -0.00000000000E+00 -0.00000000000E+00 -0.45593999997E+02  0.45594000000E+02  0.51100000000E-03 0. -1.
    9900012    2    1    2    0    0  0.40380144711E+02 -0.19189766311E+02  0.55054761296E+01  0.46142317794E+02  0.10000000300E+02 0.  0.
        -12    1    1    2    0    0 -0.40380144711E+02  0.19189766311E+02 -0.55054761296E+01  0.45045682206E+02  0.00000000000E+00 0.  1.
         11    1    3    3    0    0  0.27818824944E+01 -0.29274093313E+01 -0.14549504305E+01  0.42924907248E+01  0.51100000000E-03 0. -1.
        -11    1    3    3    0    0  0.29343633498E+02 -0.11754824169E+02  0.72848924540E+01  0.32439087170E+02  0.51100000000E-03 0.  1.
        -12    1    3    3    0    0  0.82546287188E+01 -0.45075328111E+01 -0.32446589384E+00  0.94107398989E+01  0.00000000000E+00 0.  1.
</event>
<event>
 7    1  0.1519238E-008  0.4614232E+02  0.7816164E-02  0.1320468E+00
        -11   -1    0    0    0    0  0.00000000000E+00  0.00000000000E+00  0.45593999997E+02  0.45594000000E+02  0.51100000000E-03 0. -1.
         11   -1    0    0    0    0 -0.00000000000E+00 -0.00000000000E+00 -0.45593999997E+02  0.45594000000E+02  0.51100000000E-03 0.  1.
    9900012    2    1    2    0    0 -0.23198034941E+02  0.12320757317E+02  0.36594586482E+02  0.46142316014E+02  0.99999840680E+01 0.  0.
        -12    1    1    2    0    0  0.23198034941E+02 -0.12320757317E+02 -0.36594586482E+02  0.45045683986E+02  0.00000000000E+00 0.  1.
         11    1    3    3    0    0 -0.14910814158E+02  0.31359517938E+01  0.21984903595E+02  0.26748879581E+02  0.51100000000E-03 0. -1.
        -11    1    3    3    0    0 -0.84674462592E+01  0.85781841645E+01  0.13366845162E+02  0.17998762167E+02  0.51100000000E-03 0.  1.
        -12    1    3    3    0    0  0.18022547645E+00  0.60662135904E+00  0.12428377255E+01  0.13946742657E+01  0.00000000000E+00 0.  1.
</event>
<event>
 7    1  0.1519238E-008  0.4614232E+02  0.7816164E-02  0.1320468E+00
        -11   -1    0    0    0    0  0.00000000000E+00  0.00000000000E+00  0.45593999997E+02  0.45594000000E+02  0.51100000000E-03 0. -1.
         11   -1    0    0    0    0 -0.00000000000E+00 -0.00000000000E+00 -0.45593999997E+02  0.45594000000E+02  0.51100000000E-03 0.  1.
    9900012    2    1    2    0    0 -0.15554603244E+02  0.41384878969E+02 -0.86289894128E+01  0.46142319323E+02  0.10000014242E+02 0.  0.
        -12    1    1    2    0    0  0.15554603244E+02 -0.41384878969E+02  0.86289894128E+01  0.45045680677E+02  0.00000000000E+00 0.  1.
         11    1    3    3    0    0 -0.32480285240E+01  0.15884845153E+02 -0.36289432035E+01  0.16614668937E+02  0.51100000000E-03 0. -1.
        -11    1    3    3    0    0 -0.13950502519E+00 -0.63920116252E-01  0.64126363476E+00  0.65936844305E+00  0.51100000000E-03 0.  1.
        -12    1    3    3    0    0 -0.12167069694E+02  0.25563953932E+02 -0.56413098440E+01  0.28868281943E+02  0.00000000000E+00 0.  1.
</event>
<event>
 7    1  0.1519238E-008  0.4614232E+02  0.7816164E-02  0.1320468E+00
        -11   -1    0    0    0    0  0.00000000000E+00  0.00000000000E+00  0.45593999997E+02  0.45594000000E+02  0.51100000000E-03 0. -1.
         11   -1    0    0    0    0 -0.00000000000E+00 -0.00000000000E+00 -0.45593999997E+02  0.45594000000E+02  0.51100000000E-03 0.  1.
    9900012    2    1    2    0    0 -0.18263762850E+02 -0.40993291642E+02  0.38856759144E+01  0.46142317960E+02  0.10000001815E+02 0.  0.
        -12    1    1    2    0    0  0.18263762850E+02  0.40993291642E+02 -0.38856759144E+01  0.45045682040E+02  0.00000000000E+00 0.  1.
         11    1    3    3    0    0  0.45177363160E+00 -0.27181663265E+00  0.32518457682E-01  0.52824370058E+00  0.51100000000E-03 0.  1.
        -11    1    3    3    0    0 -0.65516991592E+01 -0.22962548031E+02  0.30596852834E+01  0.24074157269E+02  0.51100000000E-03 0. -1.
         12    1    3    3    0    0 -0.12163837323E+02 -0.17758926979E+02  0.79347217337E+00  0.21539916990E+02  0.00000000000E+00 0. -1.
</event>
<event>
 7    1  0.1519238E-008  0.4614232E+02  0.7816164E-02  0.1320468E+00
        -11   -1    0    0    0    0  0.00000000000E+00  0.00000000000E+00  0.45593999997E+02  0.45594000000E+02  0.51100000000E-03 0.  1.
         11   -1    0    0    0    0 -0.00000000000E+00 -0.00000000000E+00 -0.45593999997E+02  0.45594000000E+02  0.51100000000E-03 0. -1.
    9900012    2    1    2    0    0 -0.16903959892E+02  0.29916912263E+02 -0.29126413310E+02  0.46142318168E+02  0.10000003713E+02 0.  0.
        -12    1    1    2    0    0  0.16903959892E+02 -0.29916912263E+02  0.29126413310E+02  0.45045681832E+02  0.00000000000E+00 0.  1.
         11    1    3    3    0    0 -0.20187509264E+01  0.31472157239E+01 -0.14409034182E+01  0.40070594003E+01  0.51100000000E-03 0. -1.
        -11    1    3    3    0    0 -0.38859652355E+01  0.98715109130E+01 -0.14790198537E+02  0.18201577584E+02  0.51100000000E-03 0.  1.
        -12    1    3    3    0    0 -0.10999243730E+02  0.16898185626E+02 -0.12895311354E+02  0.23933681184E+02  0.00000000000E+00 0.  1.
</event>
<event>
 7    1  0.1519238E-008  0.4614233E+02  0.7816164E-02  0.1320468E+00
        -11   -1    0    0    0    0  0.00000000000E+00  0.00000000000E+00  0.45593999997E+02  0.45594000000E+02  0.51100000000E-03 0. -1.
         11   -1    0    0    0    0 -0.00000000000E+00 -0.00000000000E+00 -0.45593999997E+02  0.45594000000E+02  0.51100000000E-03 0.  1.
    9900012    2    1    2    0    0  0.28306355000E+02  0.18817582361E+02  0.29559454237E+02  0.46142329019E+02  0.10000102661E+02 0.  0.
        -12    1    1    2    0    0 -0.28306355000E+02 -0.18817582361E+02 -0.29559454237E+02  0.45045670981E+02  0.00000000000E+00 0.  1.
         11    1    3    3    0    0  0.79027537958E+01  0.98141455319E+00  0.55141090881E+01  0.96861804329E+01  0.51100000000E-03 0. -1.
        -11    1    3    3    0    0  0.15141484772E+02  0.14289068497E+02  0.16287651057E+02  0.26433494223E+02  0.51100000000E-03 0.  1.
        -12    1    3    3    0    0  0.52621164320E+01  0.35470993111E+01  0.77576940922E+01  0.10022654364E+02  0.00000000000E+00 0.  1.
</event>
<event>
 7    1  0.1519238E-008  0.4614232E+02  0.7816164E-02  0.1320468E+00
        -11   -1    0    0    0    0  0.00000000000E+00  0.00000000000E+00  0.45593999997E+02  0.45594000000E+02  0.51100000000E-03 0. -1.
         11   -1    0    0    0    0 -0.00000000000E+00 -0.00000000000E+00 -0.45593999997E+02  0.45594000000E+02  0.51100000000E-03 0.  1.
    9900012    2    1    2    0    0  0.12325220860E+02  0.18750745019E+02  0.39059082716E+02  0.46142318180E+02  0.10000003823E+02 0.  0.
        -12    1    1    2    0    0 -0.12325220860E+02 -0.18750745019E+02 -0.39059082716E+02  0.45045681820E+02  0.00000000000E+00 0.  1.
         11    1    3    3    0    0  0.52514863803E+01  0.27777401447E+01  0.78300993197E+01  0.98287539969E+01  0.51100000000E-03 0. -1.
        -11    1    3    3    0    0  0.27953747436E+01  0.54441760366E+01  0.17215265505E+02  0.18270701665E+02  0.51100000000E-03 0.  1.
         12    1    3    3    0    0  0.42783597364E+01  0.10528828837E+02  0.14013717891E+02  0.18042862518E+02  0.00000000000E+00 0. -1.
</event>
<event>
 7    1  0.1519238E-008  0.4614232E+02  0.7816164E-02  0.1320468E+00
        -11   -1    0    0    0    0  0.00000000000E+00  0.00000000000E+00  0.45593999997E+02  0.45594000000E+02  0.51100000000E-03 0.  1.
         11   -1    0    0    0    0 -0.00000000000E+00 -0.00000000000E+00 -0.45593999997E+02  0.45594000000E+02  0.51100000000E-03 0. -1.
    9900012    2    1    2    0    0  0.20118187920E+02 -0.39090283145E+02 -0.98143667525E+01  0.46142317451E+02  0.99999971762E+01 0.  0.
        -12    1    1    2    0    0 -0.20118187920E+02  0.39090283145E+02  0.98143667525E+01  0.45045682549E+02  0.00000000000E+00 0.  1.
         11    1    3    3    0    0  0.38291230428E+00 -0.47774063461E+01  0.41047167487E+00  0.48102723920E+01  0.51100000000E-03 0. -1.
        -11    1    3    3    0    0  0.40868546634E+01 -0.12212905509E+02 -0.45955918209E+01  0.13673949922E+02  0.51100000000E-03 0.  1.
         12    1    3    3    0    0  0.15648420952E+02 -0.22099971289E+02 -0.56292466064E+01  0.27658095138E+02  0.00000000000E+00 0. -1.
</event>
<event>
 7    1  0.1519238E-008  0.4614232E+02  0.7816164E-02  0.1320468E+00
        -11   -1    0    0    0    0  0.00000000000E+00  0.00000000000E+00  0.45593999997E+02  0.45594000000E+02  0.51100000000E-03 0.  1.
         11   -1    0    0    0    0 -0.00000000000E+00 -0.00000000000E+00 -0.45593999997E+02  0.45594000000E+02  0.51100000000E-03 0. -1.
    9900012    2    1    2    0    0  0.14400190179E+02 -0.22417302087E+02 -0.36320966646E+02  0.46142317320E+02  0.99999959741E+01 0.  0.
        -12    1    1    2    0    0 -0.14400190179E+02  0.22417302087E+02  0.36320966646E+02  0.45045682680E+02  0.00000000000E+00 0.  1.
         11    1    3    3    0    0  0.32860180876E+01 -0.65478691479E+00 -0.69665711209E+01  0.77304446327E+01  0.51100000000E-03 0. -1.
        -11    1    3    3    0    0  0.15844947835E+01 -0.65516054142E+01 -0.66437096494E+01  0.94643032173E+01  0.51100000000E-03 0.  1.
         12    1    3    3    0    0  0.95296773083E+01 -0.15210909758E+02 -0.22710685876E+02  0.28947569470E+02  0.00000000000E+00 0. -1.
</event>
<event>
 7    1  0.1519238E-008  0.4614232E+02  0.7816164E-02  0.1320468E+00
        -11   -1    0    0    0    0  0.00000000000E+00  0.00000000000E+00  0.45593999997E+02  0.45594000000E+02  0.51100000000E-03 0.  1.
         11   -1    0    0    0    0 -0.00000000000E+00 -0.00000000000E+00 -0.45593999997E+02  0.45594000000E+02  0.51100000000E-03 0. -1.
    9900012    2    1    2    0    0  0.13044087922E+02  0.31538164601E+02 -0.29399137956E+02  0.46142319090E+02  0.10000012115E+02 0.  0.
        -12    1    1    2    0    0 -0.13044087922E+02 -0.31538164601E+02  0.29399137956E+02  0.45045680910E+02  0.00000000000E+00 0.  1.
         11    1    3    3    0    0  0.13225433922E+02  0.24840824265E+02 -0.23901094814E+02  0.36922093469E+02  0.51100000000E-03 0. -1.
        -11    1    3    3    0    0  0.12305641300E+01  0.39105179493E+01 -0.21064739250E+01  0.46090857410E+01  0.51100000000E-03 0.  1.
         12    1    3    3    0    0 -0.14119101303E+01  0.27868223864E+01 -0.33915692177E+01  0.46111398795E+01  0.00000000000E+00 0. -1.
</event>
<event>
 7    1  0.1519238E-008  0.4614232E+02  0.7816164E-02  0.1320468E+00
        -11   -1    0    0    0    0  0.00000000000E+00  0.00000000000E+00  0.45593999997E+02  0.45594000000E+02  0.51100000000E-03 0.  1.
         11   -1    0    0    0    0 -0.00000000000E+00 -0.00000000000E+00 -0.45593999997E+02  0.45594000000E+02  0.51100000000E-03 0. -1.
    9900012    2    1    2    0    0  0.49297912732E+01 -0.15539250005E+02 -0.41992169543E+02  0.46142318346E+02  0.10000005334E+02 0.  0.
        -12    1    1    2    0    0 -0.49297912732E+01  0.15539250005E+02  0.41992169543E+02  0.45045681654E+02  0.00000000000E+00 0.  1.
         11    1    3    3    0    0  0.11354439843E+00 -0.88709457692E+01 -0.13644419253E+02  0.16275034507E+02  0.51100000000E-03 0. -1.
        -11    1    3    3    0    0  0.28655423091E+01 -0.46607834434E+00 -0.88692215771E+01  0.93322908974E+01  0.51100000000E-03 0.  1.
         12    1    3    3    0    0  0.19507045657E+01 -0.62022258919E+01 -0.19478528713E+02  0.20534992942E+02  0.00000000000E+00 0. -1.
</event>
<event>
 7    1  0.1519238E-008  0.4614232E+02  0.7816164E-02  0.1320468E+00
        -11   -1    0    0    0    0  0.00000000000E+00  0.00000000000E+00  0.45593999997E+02  0.45594000000E+02  0.51100000000E-03 0.  1.
         11   -1    0    0    0    0 -0.00000000000E+00 -0.00000000000E+00 -0.45593999997E+02  0.45594000000E+02  0.51100000000E-03 0. -1.
    9900012    2    1    2    0    0 -0.42891728678E+02  0.12545341937E+01  0.13705442161E+02  0.46142318855E+02  0.10000009971E+02 0.  0.
        -12    1    1    2    0    0  0.42891728678E+02 -0.12545341937E+01 -0.13705442161E+02  0.45045681145E+02  0.00000000000E+00 0.  1.
         11    1    3    3    0    0 -0.20956988877E+02  0.47899600087E+01  0.95012080342E+01  0.23503447706E+02  0.51100000000E-03 0. -1.
        -11    1    3    3    0    0 -0.90399210566E+01 -0.13888093263E+01  0.22783993401E+01  0.94255009347E+01  0.51100000000E-03 0.  1.
         12    1    3    3    0    0 -0.12894818744E+02 -0.21466164886E+01  0.19258347868E+01  0.13213370214E+02  0.00000000000E+00 0. -1.
</event>
<event>
 7    1  0.1519238E-008  0.4614232E+02  0.7816164E-02  0.1320468E+00
        -11   -1    0    0    0    0  0.00000000000E+00  0.00000000000E+00  0.45593999997E+02  0.45594000000E+02  0.51100000000E-03 0. -1.
         11   -1    0    0    0    0 -0.00000000000E+00 -0.00000000000E+00 -0.45593999997E+02  0.45594000000E+02  0.51100000000E-03 0.  1.
    9900012    2    1    2    0    0 -0.17942345853E+02  0.41127416834E+02  0.39649724146E+01  0.46142321002E+02  0.10000029555E+02 0.  0.
        -12    1    1    2    0    0  0.17942345853E+02 -0.41127416834E+02 -0.39649724146E+01  0.45045678998E+02  0.00000000000E+00 0.  1.
         11    1    3    3    0    0 -0.76852849346E+01  0.14902461261E+02  0.37726382794E+01  0.17186615606E+02  0.51100000000E-03 0. -1.
        -11    1    3    3    0    0 -0.85386459947E+01  0.13070766224E+02 -0.94435080704E+00  0.15641138188E+02  0.51100000000E-03 0.  1.
        -12    1    3    3    0    0 -0.17184149237E+01  0.13154189349E+02  0.11366849423E+01  0.13314567208E+02  0.00000000000E+00 0.  1.
</event>
<event>
 7    1  0.1519238E-008  0.4614232E+02  0.7816164E-02  0.1320468E+00
        -11   -1    0    0    0    0  0.00000000000E+00  0.00000000000E+00  0.45593999997E+02  0.45594000000E+02  0.51100000000E-03 0.  1.
         11   -1    0    0    0    0 -0.00000000000E+00 -0.00000000000E+00 -0.45593999997E+02  0.45594000000E+02  0.51100000000E-03 0. -1.
    9900012    2    1    2    0    0 -0.70151251256E+01  0.42053422134E+02 -0.14539990597E+02  0.46142316297E+02  0.99999866470E+01 0.  0.
        -12    1    1    2    0    0  0.70151251256E+01 -0.42053422134E+02  0.14539990597E+02  0.45045683703E+02  0.00000000000E+00 0.  1.
         11    1    3    3    0    0 -0.40869257421E+01  0.98391407727E+01 -0.45188616657E+01  0.11572889189E+02  0.51100000000E-03 0. -1.
        -11    1    3    3    0    0 -0.14535692590E+01  0.22253382120E+01 -0.24256305783E+01  0.35984271164E+01  0.51100000000E-03 0.  1.
         12    1    3    3    0    0 -0.14746301245E+01  0.29988943150E+02 -0.75954983528E+01  0.30970999991E+02  0.00000000000E+00 0. -1.
</event>
<event>
 7    1  0.1519238E-008  0.4614232E+02  0.7816164E-02  0.1320468E+00
        -11   -1    0    0    0    0  0.00000000000E+00  0.00000000000E+00  0.45593999997E+02  0.45594000000E+02  0.51100000000E-03 0.  1.
         11   -1    0    0    0    0 -0.00000000000E+00 -0.00000000000E+00 -0.45593999997E+02  0.45594000000E+02  0.51100000000E-03 0. -1.
    9900012    2    1    2    0    0 -0.52673087867E+01 -0.38055327630E+02 -0.23519375233E+02  0.46142317474E+02  0.99999973808E+01 0.  0.
        -12    1    1    2    0    0  0.52673087867E+01  0.38055327630E+02  0.23519375233E+02  0.45045682526E+02  0.00000000000E+00 0.  1.
         11    1    3    3    0    0 -0.46723712073E+01 -0.25677968368E+02 -0.13880111742E+02  0.29560896712E+02  0.51100000000E-03 0. -1.
        -11    1    3    3    0    0 -0.24247072252E+01 -0.80233255646E+01 -0.41911029284E+01  0.93711419934E+01  0.51100000000E-03 0.  1.
        -12    1    3    3    0    0  0.18297696458E+01 -0.43540336976E+01 -0.54481605630E+01  0.72102787683E+01  0.00000000000E+00 0.  1.
</event>
<event>
 7    1  0.1519238E-008  0.4614232E+02  0.7816164E-02  0.1320468E+00
        -11   -1    0    0    0    0  0.00000000000E+00  0.00000000000E+00  0.45593999997E+02  0.45594000000E+02  0.51100000000E-03 0.  1.
         11   -1    0    0    0    0 -0.00000000000E+00 -0.00000000000E+00 -0.45593999997E+02  0.45594000000E+02  0.51100000000E-03 0. -1.
    9900012    2    1    2    0    0 -0.21450190102E+02 -0.65199993121E+01 -0.39070352425E+02  0.46142317797E+02  0.10000000332E+02 0.  0.
        -12    1    1    2    0    0  0.21450190102E+02  0.65199993121E+01  0.39070352425E+02  0.45045682203E+02  0.00000000000E+00 0.  1.
         11    1    3    3    0    0 -0.25097023223E+01  0.23706426927E+01 -0.39076975262E+01  0.52142739418E+01  0.51100000000E-03 0. -1.
        -11    1    3    3    0    0 -0.14164446871E+02 -0.64635697755E+01 -0.26889344014E+02  0.31071628718E+02  0.51100000000E-03 0.  1.
         12    1    3    3    0    0 -0.47760409086E+01 -0.24270722294E+01 -0.82733108852E+01  0.98564151379E+01  0.00000000000E+00 0. -1.
</event>
<event>
 7    1  0.1519238E-008  0.4614232E+02  0.7816164E-02  0.1320468E+00
        -11   -1    0    0    0    0  0.00000000000E+00  0.00000000000E+00  0.45593999997E+02  0.45594000000E+02  0.51100000000E-03 0.  1.
         11   -1    0    0    0    0 -0.00000000000E+00 -0.00000000000E+00 -0.45593999997E+02  0.45594000000E+02  0.51100000000E-03 0. -1.
    9900012    2    1    2    0    0  0.30648062730E+02 -0.32811248246E+02 -0.36375455719E+01  0.46142317651E+02  0.99999989955E+01 0.  0.
        -12    1    1    2    0    0 -0.30648062730E+02  0.32811248246E+02  0.36375455719E+01  0.45045682349E+02  0.00000000000E+00 0.  1.
         11    1    3    3    0    0  0.23177209660E+00  0.48847369725E+00 -0.19731617573E+00  0.57555085961E+00  0.51100000000E-03 0. -1.
        -11    1    3    3    0    0  0.90722130710E+01 -0.13493597447E+02 -0.23470099377E+01  0.16428349825E+02  0.51100000000E-03 0.  1.
         12    1    3    3    0    0  0.21344077562E+02 -0.19806124496E+02 -0.10932194585E+01  0.29138416966E+02  0.00000000000E+00 0. -1.
</event>
<event>
 7    1  0.1519238E-008  0.4614232E+02  0.7816164E-02  0.1320468E+00
        -11   -1    0    0    0    0  0.00000000000E+00  0.00000000000E+00  0.45593999997E+02  0.45594000000E+02  0.51100000000E-03 0.  1.
         11   -1    0    0    0    0 -0.00000000000E+00 -0.00000000000E+00 -0.45593999997E+02  0.45594000000E+02  0.51100000000E-03 0. -1.
    9900012    2    1    2    0    0  0.19300270733E+02 -0.36916302825E+02 -0.17140583329E+02  0.46142318059E+02  0.10000002717E+02 0.  0.
        -12    1    1    2    0    0 -0.19300270733E+02  0.36916302825E+02  0.17140583329E+02  0.45045681941E+02  0.00000000000E+00 0.  1.
         11    1    3    3    0    0  0.30627987141E+01 -0.53562580329E+01  0.81182877276E+00  0.62232870973E+01  0.51100000000E-03 0. -1.
        -11    1    3    3    0    0  0.58582483610E+00 -0.20736325707E+01 -0.36144528574E+00  0.21848994788E+01  0.51100000000E-03 0.  1.
         12    1    3    3    0    0  0.15651647183E+02 -0.29486412222E+02 -0.17590966816E+02  0.37734131483E+02  0.00000000000E+00 0. -1.
</event>
<event>
 7    1  0.1519238E-008  0.4614232E+02  0.7816164E-02  0.1320468E+00
        -11   -1    0    0    0    0  0.00000000000E+00  0.00000000000E+00  0.45593999997E+02  0.45594000000E+02  0.51100000000E-03 0.  1.
         11   -1    0    0    0    0 -0.00000000000E+00 -0.00000000000E+00 -0.45593999997E+02  0.45594000000E+02  0.51100000000E-03 0. -1.
    9900012    2    1    2    0    0  0.21119484974E+02  0.18087339577E+02 -0.35439088727E+02  0.46142317540E+02  0.99999979809E+01 0.  0.
        -12    1    1    2    0    0 -0.21119484974E+02 -0.18087339577E+02  0.35439088727E+02  0.45045682460E+02  0.00000000000E+00 0.  1.
         11    1    3    3    0    0  0.38980833427E+01  0.37695793694E+01 -0.79167564403E+01  0.95958227977E+01  0.51100000000E-03 0.  1.
        -11    1    3    3    0    0  0.60026182004E+01  0.58320901420E+01 -0.17104351849E+02  0.19042152009E+02  0.51100000000E-03 0. -1.
        -12    1    3    3    0    0  0.11218783431E+02  0.84856700654E+01 -0.10417980437E+02  0.17504342733E+02  0.00000000000E+00 0.  1.
</event>
<event>
 7    1  0.1519238E-008  0.4614232E+02  0.7816164E-02  0.1320468E+00
        -11   -1    0    0    0    0  0.00000000000E+00  0.00000000000E+00  0.45593999997E+02  0.45594000000E+02  0.51100000000E-03 0.  1.
         11   -1    0    0    0    0 -0.00000000000E+00 -0.00000000000E+00 -0.45593999997E+02  0.45594000000E+02  0.51100000000E-03 0. -1.
    9900012    2    1    2    0    0  0.30206541327E+02 -0.21225224558E+02 -0.25810235070E+02  0.46142317290E+02  0.99999957033E+01 0.  0.
        -12    1    1    2    0    0 -0.30206541327E+02  0.21225224558E+02  0.25810235070E+02  0.45045682710E+02  0.00000000000E+00 0.  1.
         11    1    3    3    0    0  0.56136312042E+01 -0.86886254966E+01 -0.70926649578E+01  0.12542366793E+02  0.51100000000E-03 0.  1.
        -11    1    3    3    0    0  0.16888051543E+02 -0.78556495728E+01 -0.10393355633E+02  0.21329307459E+02  0.51100000000E-03 0. -1.
        -12    1    3    3    0    0  0.77048585799E+01 -0.46809494882E+01 -0.83242144796E+01  0.12270643037E+02  0.00000000000E+00 0.  1.
</event>
<event>
 7    1  0.1519238E-008  0.4614232E+02  0.7816164E-02  0.1320468E+00
        -11   -1    0    0    0    0  0.00000000000E+00  0.00000000000E+00  0.45593999997E+02  0.45594000000E+02  0.51100000000E-03 0.  1.
         11   -1    0    0    0    0 -0.00000000000E+00 -0.00000000000E+00 -0.45593999997E+02  0.45594000000E+02  0.51100000000E-03 0. -1.
    9900012    2    1    2    0    0 -0.29413619048E+02  0.33623192534E+02 -0.57821606665E+01  0.46142318257E+02  0.10000004526E+02 0.  0.
        -12    1    1    2    0    0  0.29413619048E+02 -0.33623192534E+02  0.57821606665E+01  0.45045681743E+02  0.00000000000E+00 0.  1.
         11    1    3    3    0    0 -0.24333324884E+02  0.27400275832E+02 -0.70000148670E+01  0.37307988742E+02  0.51100000000E-03 0. -1.
        -11    1    3    3    0    0 -0.15956208034E+01  0.37246964946E+01  0.19294802022E+01  0.44880133508E+01  0.51100000000E-03 0.  1.
         12    1    3    3    0    0 -0.34846733613E+01  0.24982202067E+01 -0.71162600171E+00  0.43463161646E+01  0.00000000000E+00 0. -1.
</event>
<event>
 7    1  0.1519238E-008  0.4614232E+02  0.7816164E-02  0.1320468E+00
        -11   -1    0    0    0    0  0.00000000000E+00  0.00000000000E+00  0.45593999997E+02  0.45594000000E+02  0.51100000000E-03 0.  1.
         11   -1    0    0    0    0 -0.00000000000E+00 -0.00000000000E+00 -0.45593999997E+02  0.45594000000E+02  0.51100000000E-03 0. -1.
    9900012    2    1    2    0    0 -0.19551296683E+02  0.26612380632E+02 -0.30637256995E+02  0.46142317399E+02  0.99999966949E+01 0.  0.
        -12    1    1    2    0    0  0.19551296683E+02 -0.26612380632E+02  0.30637256995E+02  0.45045682601E+02  0.00000000000E+00 0.  1.
         11    1    3    3    0    0 -0.54742725757E+01  0.33819563934E+01 -0.76974099620E+01  0.10032716963E+02  0.51100000000E-03 0. -1.
        -11    1    3    3    0    0 -0.84423988782E+01  0.11253773716E+02 -0.81364850358E+01  0.16251889449E+02  0.51100000000E-03 0.  1.
         12    1    3    3    0    0 -0.56346252289E+01  0.11976650522E+02 -0.14803361997E+02  0.19857710986E+02  0.00000000000E+00 0. -1.
</event>
<event>
 7    1  0.1519238E-008  0.4614232E+02  0.7816164E-02  0.1320468E+00
        -11   -1    0    0    0    0  0.00000000000E+00  0.00000000000E+00  0.45593999997E+02  0.45594000000E+02  0.51100000000E-03 0. -1.
         11   -1    0    0    0    0 -0.00000000000E+00 -0.00000000000E+00 -0.45593999997E+02  0.45594000000E+02  0.51100000000E-03 0.  1.
    9900012    2    1    2    0    0  0.34074758704E+02 -0.14682970587E+02  0.25542801194E+02  0.46142317645E+02  0.99999989367E+01 0.  0.
        -12    1    1    2    0    0 -0.34074758704E+02  0.14682970587E+02 -0.25542801194E+02  0.45045682355E+02  0.00000000000E+00 0.  1.
         11    1    3    3    0    0  0.12750439104E+02 -0.44263043959E+01  0.48879077317E+01  0.14354703417E+02  0.51100000000E-03 0. -1.
        -11    1    3    3    0    0  0.31599551517E+01 -0.15180251943E+01  0.56879034640E+01  0.66814641456E+01  0.51100000000E-03 0.  1.
         12    1    3    3    0    0  0.18164364449E+02 -0.87386409969E+01  0.14966989998E+02  0.25106150081E+02  0.00000000000E+00 0. -1.
</event>
<event>
 7    1  0.1519238E-008  0.4614232E+02  0.7816164E-02  0.1320468E+00
        -11   -1    0    0    0    0  0.00000000000E+00  0.00000000000E+00  0.45593999997E+02  0.45594000000E+02  0.51100000000E-03 0.  1.
         11   -1    0    0    0    0 -0.00000000000E+00 -0.00000000000E+00 -0.45593999997E+02  0.45594000000E+02  0.51100000000E-03 0. -1.
    9900012    2    1    2    0    0 -0.17780198900E+02  0.35177419800E+02 -0.21806585075E+02  0.46142317750E+02  0.99999999031E+01 0.  0.
        -12    1    1    2    0    0  0.17780198900E+02 -0.35177419800E+02  0.21806585075E+02  0.45045682250E+02  0.00000000000E+00 0.  1.
         11    1    3    3    0    0 -0.76584306604E+01  0.10262243883E+02 -0.61139306276E+01  0.14189621478E+02  0.51100000000E-03 0. -1.
        -11    1    3    3    0    0 -0.94509937303E+01  0.14350527473E+02 -0.10759327707E+02  0.20273678852E+02  0.51100000000E-03 0.  1.
        -12    1    3    3    0    0 -0.67077450923E+00  0.10564648444E+02 -0.49333267402E+01  0.11679017420E+02  0.00000000000E+00 0.  1.
</event>
<event>
 7    1  0.1519238E-008  0.4614232E+02  0.7816164E-02  0.1320468E+00
        -11   -1    0    0    0    0  0.00000000000E+00  0.00000000000E+00  0.45593999997E+02  0.45594000000E+02  0.51100000000E-03 0.  1.
         11   -1    0    0    0    0 -0.00000000000E+00 -0.00000000000E+00 -0.45593999997E+02  0.45594000000E+02  0.51100000000E-03 0. -1.
    9900012    2    1    2    0    0 -0.13385484342E+02 -0.42773608069E+02  0.45122965024E+01  0.46142316988E+02  0.99999929464E+01 0.  0.
        -12    1    1    2    0    0  0.13385484342E+02  0.42773608069E+02 -0.45122965024E+01  0.45045683012E+02  0.00000000000E+00 0.  1.
         11    1    3    3    0    0 -0.51584142342E+01 -0.12747479207E+02  0.25217236276E+01  0.13980935371E+02  0.51100000000E-03 0. -1.
        -11    1    3    3    0    0 -0.13024455775E+01 -0.10116171920E+02 -0.27317037081E+01  0.10559143157E+02  0.51100000000E-03 0.  1.
        -12    1    3    3    0    0 -0.69246245298E+01 -0.19909956943E+02  0.47222765829E+01  0.21602238460E+02  0.00000000000E+00 0.  1.
</event>
<event>
 7    1  0.1519238E-008  0.4614232E+02  0.7816164E-02  0.1320468E+00
        -11   -1    0    0    0    0  0.00000000000E+00  0.00000000000E+00  0.45593999997E+02  0.45594000000E+02  0.51100000000E-03 0. -1.
         11   -1    0    0    0    0 -0.00000000000E+00 -0.00000000000E+00 -0.45593999997E+02  0.45594000000E+02  0.51100000000E-03 0.  1.
    9900012    2    1    2    0    0 -0.71048106705E+01  0.20199758588E+01  0.44435963574E+02  0.46142317678E+02  0.99999992401E+01 0.  0.
        -12    1    1    2    0    0  0.71048106705E+01 -0.20199758588E+01 -0.44435963574E+02  0.45045682322E+02  0.00000000000E+00 0.  1.
         11    1    3    3    0    0 -0.39277379873E+01  0.11340920962E+01  0.32949141151E+02  0.33201795033E+02  0.51100000000E-03 0. -1.
        -11    1    3    3    0    0 -0.22562224436E+01  0.25497513461E+01  0.41843374163E+01  0.53944834338E+01  0.51100000000E-03 0.  1.
         12    1    3    3    0    0 -0.92085023955E+00 -0.16638675835E+01  0.73024850066E+01  0.75460392108E+01  0.00000000000E+00 0. -1.
</event>
<event>
 7    1  0.1519238E-008  0.4614232E+02  0.7816164E-02  0.1320468E+00
        -11   -1    0    0    0    0  0.00000000000E+00  0.00000000000E+00  0.45593999997E+02  0.45594000000E+02  0.51100000000E-03 0.  1.
         11   -1    0    0    0    0 -0.00000000000E+00 -0.00000000000E+00 -0.45593999997E+02  0.45594000000E+02  0.51100000000E-03 0. -1.
    9900012    2    1    2    0    0  0.24984741211E+02 -0.83076470730E+00 -0.37472470495E+02  0.46142317539E+02  0.99999979766E+01 0.  0.
        -12    1    1    2    0    0 -0.24984741211E+02  0.83076470730E+00  0.37472470495E+02  0.45045682461E+02  0.00000000000E+00 0.  1.
         11    1    3    3    0    0  0.10361490490E+02  0.56167112450E+00 -0.14503369193E+02  0.17833218381E+02  0.51100000000E-03 0. -1.
        -11    1    3    3    0    0  0.10890839540E+02  0.16720689947E+01 -0.11820803335E+02  0.16159752237E+02  0.51100000000E-03 0.  1.
        -12    1    3    3    0    0  0.37324111812E+01 -0.30645048265E+01 -0.11148297967E+02  0.12149346921E+02  0.00000000000E+00 0.  1.
</event>
<event>
 7    1  0.1519238E-008  0.4614232E+02  0.7816164E-02  0.1320468E+00
        -11   -1    0    0    0    0  0.00000000000E+00  0.00000000000E+00  0.45593999997E+02  0.45594000000E+02  0.51100000000E-03 0.  1.
         11   -1    0    0    0    0 -0.00000000000E+00 -0.00000000000E+00 -0.45593999997E+02  0.45594000000E+02  0.51100000000E-03 0. -1.
    9900012    2    1    2    0    0 -0.18521633426E+02  0.38698680562E+02  0.13728595403E+02  0.46142321919E+02  0.10000037916E+02 0.  0.
        -12    1    1    2    0    0  0.18521633426E+02 -0.38698680562E+02 -0.13728595403E+02  0.45045678081E+02  0.00000000000E+00 0.  1.
         11    1    3    3    0    0 -0.16768803947E+02  0.29546502298E+02  0.82878550659E+01  0.34969660074E+02  0.51100000000E-03 0. -1.
        -11    1    3    3    0    0 -0.18165904321E+01  0.80971477539E+01  0.57207739559E+01  0.10079238933E+02  0.51100000000E-03 0.  1.
         12    1    3    3    0    0  0.63760953148E-01  0.10550305102E+01 -0.28003361891E+00  0.10934229119E+01  0.00000000000E+00 0. -1.
</event>
<event>
 7    1  0.1519238E-008  0.4614232E+02  0.7816164E-02  0.1320468E+00
        -11   -1    0    0    0    0  0.00000000000E+00  0.00000000000E+00  0.45593999997E+02  0.45594000000E+02  0.51100000000E-03 0.  1.
         11   -1    0    0    0    0 -0.00000000000E+00 -0.00000000000E+00 -0.45593999997E+02  0.45594000000E+02  0.51100000000E-03 0. -1.
    9900012    2    1    2    0    0  0.23614802180E+02 -0.72691271699E+01 -0.37664497876E+02  0.46142317720E+02  0.99999996270E+01 0.  0.
        -12    1    1    2    0    0 -0.23614802180E+02  0.72691271699E+01  0.37664497876E+02  0.45045682280E+02  0.00000000000E+00 0.  1.
         11    1    3    3    0    0  0.93389718748E+01 -0.45254745552E+01 -0.10148135494E+02  0.14514853423E+02  0.51100000000E-03 0.  1.
        -11    1    3    3    0    0  0.83660899516E+01 -0.36398112156E+01 -0.20307603746E+02  0.22262939090E+02  0.51100000000E-03 0. -1.
        -12    1    3    3    0    0  0.59097403533E+01  0.89615860094E+00 -0.72087586362E+01  0.93645252073E+01  0.00000000000E+00 0.  1.
</event>
<event>
 7    1  0.1519238E-008  0.4614232E+02  0.7816164E-02  0.1320468E+00
        -11   -1    0    0    0    0  0.00000000000E+00  0.00000000000E+00  0.45593999997E+02  0.45594000000E+02  0.51100000000E-03 0.  1.
         11   -1    0    0    0    0 -0.00000000000E+00 -0.00000000000E+00 -0.45593999997E+02  0.45594000000E+02  0.51100000000E-03 0. -1.
    9900012    2    1    2    0    0 -0.11135399709E+02 -0.26982542566E+02 -0.34308290592E+02  0.46142317262E+02  0.99999954503E+01 0.  0.
        -12    1    1    2    0    0  0.11135399709E+02  0.26982542566E+02  0.34308290592E+02  0.45045682738E+02  0.00000000000E+00 0.  1.
         11    1    3    3    0    0 -0.58591214547E+01 -0.11241308229E+02 -0.11727558395E+02  0.17269393188E+02  0.51100000000E-03 0. -1.
        -11    1    3    3    0    0 -0.42281635592E+00  0.31931573275E+00 -0.31791360060E+01  0.32229865364E+01  0.51100000000E-03 0.  1.
         12    1    3    3    0    0 -0.48534618985E+01 -0.16060550069E+02 -0.19401596191E+02  0.25649937537E+02  0.00000000000E+00 0. -1.
</event>
<event>
 7    1  0.1519238E-008  0.4614232E+02  0.7816164E-02  0.1320468E+00
        -11   -1    0    0    0    0  0.00000000000E+00  0.00000000000E+00  0.45593999997E+02  0.45594000000E+02  0.51100000000E-03 0.  1.
         11   -1    0    0    0    0 -0.00000000000E+00 -0.00000000000E+00 -0.45593999997E+02  0.45594000000E+02  0.51100000000E-03 0. -1.
    9900012    2    1    2    0    0 -0.83636302322E+01 -0.69383903997E+01 -0.43715236493E+02  0.46142317925E+02  0.10000001493E+02 0.  0.
        -12    1    1    2    0    0  0.83636302322E+01  0.69383903997E+01  0.43715236493E+02  0.45045682075E+02  0.00000000000E+00 0.  1.
         11    1    3    3    0    0 -0.55235920378E+01 -0.35994708974E+01 -0.18617281653E+02  0.19750175598E+02  0.51100000000E-03 0. -1.
        -11    1    3    3    0    0  0.20814663044E+00 -0.13407739056E+01 -0.38295232979E+00  0.14098412796E+01  0.51100000000E-03 0.  1.
        -12    1    3    3    0    0 -0.30481848249E+01 -0.19981455967E+01 -0.24715002510E+02  0.24982301048E+02  0.00000000000E+00 0.  1.
</event>
<event>
 7    1  0.1519238E-008  0.4614232E+02  0.7816164E-02  0.1320468E+00
        -11   -1    0    0    0    0  0.00000000000E+00  0.00000000000E+00  0.45593999997E+02  0.45594000000E+02  0.51100000000E-03 0.  1.
         11   -1    0    0    0    0 -0.00000000000E+00 -0.00000000000E+00 -0.45593999997E+02  0.45594000000E+02  0.51100000000E-03 0. -1.
    9900012    2    1    2    0    0 -0.15211530616E+02 -0.13510706252E+02 -0.40189344039E+02  0.46142320724E+02  0.10000027019E+02 0.  0.
        -12    1    1    2    0    0  0.15211530616E+02  0.13510706252E+02  0.40189344039E+02  0.45045679276E+02  0.00000000000E+00 0.  1.
         11    1    3    3    0    0  0.77665611974E+00 -0.34331545995E+00 -0.15930173503E+01  0.18052049116E+01  0.51100000000E-03 0. -1.
        -11    1    3    3    0    0 -0.12228481785E+02 -0.83080102546E+01 -0.32388118947E+02  0.35602655103E+02  0.51100000000E-03 0.  1.
         12    1    3    3    0    0 -0.37597049505E+01 -0.48593805375E+01 -0.62082077418E+01  0.87344607096E+01  0.00000000000E+00 0. -1.
</event>
<event>
 7    1  0.1519238E-008  0.4614232E+02  0.7816164E-02  0.1320468E+00
        -11   -1    0    0    0    0  0.00000000000E+00  0.00000000000E+00  0.45593999997E+02  0.45594000000E+02  0.51100000000E-03 0. -1.
         11   -1    0    0    0    0 -0.00000000000E+00 -0.00000000000E+00 -0.45593999997E+02  0.45594000000E+02  0.51100000000E-03 0.  1.
    9900012    2    1    2    0    0 -0.39339930557E+02 -0.73654024120E+01  0.20669642579E+02  0.46142318595E+02  0.10000007601E+02 0.  0.
        -12    1    1    2    0    0  0.39339930557E+02  0.73654024120E+01 -0.20669642579E+02  0.45045681405E+02  0.00000000000E+00 0.  1.
         11    1    3    3    0    0 -0.12373966450E+02 -0.37461990794E+01  0.87403935656E+01  0.15605881365E+02  0.51100000000E-03 0. -1.
        -11    1    3    3    0    0 -0.11603474896E+01  0.13996740688E+01  0.87609510984E+00  0.20181765776E+01  0.51100000000E-03 0.  1.
        -12    1    3    3    0    0 -0.25805616617E+02 -0.50188774015E+01  0.11053153904E+02  0.28518260652E+02  0.00000000000E+00 0.  1.
</event>
<event>
 7    1  0.1519238E-008  0.4614232E+02  0.7816164E-02  0.1320468E+00
        -11   -1    0    0    0    0  0.00000000000E+00  0.00000000000E+00  0.45593999997E+02  0.45594000000E+02  0.51100000000E-03 0.  1.
         11   -1    0    0    0    0 -0.00000000000E+00 -0.00000000000E+00 -0.45593999997E+02  0.45594000000E+02  0.51100000000E-03 0. -1.
    9900012    2    1    2    0    0 -0.12974159921E+02  0.41406090871E+02  0.12096293506E+02  0.46142317594E+02  0.99999984766E+01 0.  0.
        -12    1    1    2    0    0  0.12974159921E+02 -0.41406090871E+02 -0.12096293506E+02  0.45045682406E+02  0.00000000000E+00 0.  1.
         11    1    3    3    0    0 -0.87888613433E+01  0.36696334087E+02  0.88613044696E+01  0.38760646748E+02  0.51100000000E-03 0. -1.
        -11    1    3    3    0    0 -0.10447957206E+01  0.13424690802E+01 -0.87880933941E-01  0.17033921007E+01  0.51100000000E-03 0.  1.
         12    1    3    3    0    0 -0.31405028572E+01  0.33672877032E+01  0.33228699704E+01  0.56782787456E+01  0.00000000000E+00 0. -1.
</event>
<event>
 7    1  0.1519238E-008  0.4614232E+02  0.7816164E-02  0.1320468E+00
        -11   -1    0    0    0    0  0.00000000000E+00  0.00000000000E+00  0.45593999997E+02  0.45594000000E+02  0.51100000000E-03 0.  1.
         11   -1    0    0    0    0 -0.00000000000E+00 -0.00000000000E+00 -0.45593999997E+02  0.45594000000E+02  0.51100000000E-03 0. -1.
    9900012    2    1    2    0    0  0.25210116103E+02 -0.29816741713E+02 -0.22461647310E+02  0.46142316075E+02  0.99999846283E+01 0.  0.
        -12    1    1    2    0    0 -0.25210116103E+02  0.29816741713E+02  0.22461647310E+02  0.45045683925E+02  0.00000000000E+00 0.  1.
         11    1    3    3    0    0  0.63478062551E+00 -0.14002954367E+01  0.73175471454E+00  0.17027151776E+01  0.51100000000E-03 0. -1.
        -11    1    3    3    0    0  0.10505404171E+02 -0.12132462196E+02 -0.12866786043E+02  0.20569743291E+02  0.51100000000E-03 0.  1.
         12    1    3    3    0    0  0.14069931307E+02 -0.16283984081E+02 -0.10326615982E+02  0.23869857607E+02  0.00000000000E+00 0. -1.
</event>
<event>
 7    1  0.1519238E-008  0.4614232E+02  0.7816164E-02  0.1320468E+00
        -11   -1    0    0    0    0  0.00000000000E+00  0.00000000000E+00  0.45593999997E+02  0.45594000000E+02  0.51100000000E-03 0.  1.
         11   -1    0    0    0    0 -0.00000000000E+00 -0.00000000000E+00 -0.45593999997E+02  0.45594000000E+02  0.51100000000E-03 0. -1.
    9900012    2    1    2    0    0  0.37522781331E+02 -0.24893281218E+02 -0.12161207609E+01  0.46142317429E+02  0.99999969673E+01 0.  0.
        -12    1    1    2    0    0 -0.37522781331E+02  0.24893281218E+02  0.12161207609E+01  0.45045682571E+02  0.00000000000E+00 0.  1.
         11    1    3    3    0    0  0.19673833491E+02 -0.96522618269E+01 -0.14142245453E+01  0.21959642846E+02  0.51100000000E-03 0. -1.
        -11    1    3    3    0    0  0.64479566735E+01 -0.92094849774E+01 -0.61293641406E+00  0.11259060801E+02  0.51100000000E-03 0.  1.
        -12    1    3    3    0    0  0.11400991167E+02 -0.60315344139E+01  0.81104019842E+00  0.12923613782E+02  0.00000000000E+00 0.  1.
</event>
<event>
 7    1  0.1519238E-008  0.4614232E+02  0.7816164E-02  0.1320468E+00
        -11   -1    0    0    0    0  0.00000000000E+00  0.00000000000E+00  0.45593999997E+02  0.45594000000E+02  0.51100000000E-03 0.  1.
         11   -1    0    0    0    0 -0.00000000000E+00 -0.00000000000E+00 -0.45593999997E+02  0.45594000000E+02  0.51100000000E-03 0. -1.
    9900012    2    1    2    0    0  0.34212480367E+02  0.35191239940E+01 -0.29090125724E+02  0.46142318063E+02  0.10000002755E+02 0.  0.
        -12    1    1    2    0    0 -0.34212480367E+02 -0.35191239940E+01  0.29090125724E+02  0.45045681937E+02  0.00000000000E+00 0.  1.
         11    1    3    3    0    0  0.65062001743E+01  0.98699886265E+00 -0.53631419963E+01  0.84892932448E+01  0.51100000000E-03 0. -1.
        -11    1    3    3    0    0  0.24737052056E+02  0.49942662666E+01 -0.21765486903E+02  0.33325678693E+02  0.51100000000E-03 0.  1.
        -12    1    3    3    0    0  0.29692281370E+01 -0.24621411352E+01 -0.19614968241E+01  0.43273461256E+01  0.00000000000E+00 0.  1.
</event>
<event>
 7    1  0.1519238E-008  0.4614232E+02  0.7816164E-02  0.1320468E+00
        -11   -1    0    0    0    0  0.00000000000E+00  0.00000000000E+00  0.45593999997E+02  0.45594000000E+02  0.51100000000E-03 0.  1.
         11   -1    0    0    0    0 -0.00000000000E+00 -0.00000000000E+00 -0.45593999997E+02  0.45594000000E+02  0.51100000000E-03 0. -1.
    9900012    2    1    2    0    0 -0.39214946450E+02  0.57912183056E+01 -0.21395400633E+02  0.46142318711E+02  0.10000008665E+02 0.  0.
        -12    1    1    2    0    0  0.39214946450E+02 -0.57912183056E+01  0.21395400633E+02  0.45045681289E+02  0.00000000000E+00 0.  1.
         11    1    3    3    0    0 -0.12849569518E+02  0.20082323062E+01 -0.11191453993E+02  0.17157886716E+02  0.51100000000E-03 0. -1.
        -11    1    3    3    0    0 -0.17220421373E+02  0.32002237709E+01 -0.41452518614E+01  0.17999096025E+02  0.51100000000E-03 0.  1.
        -12    1    3    3    0    0 -0.91449555579E+01  0.58276222853E+00 -0.60586947778E+01  0.10985335970E+02  0.00000000000E+00 0.  1.
</event>
<event>
 7    1  0.1519238E-008  0.4614232E+02  0.7816164E-02  0.1320468E+00
        -11   -1    0    0    0    0  0.00000000000E+00  0.00000000000E+00  0.45593999997E+02  0.45594000000E+02  0.51100000000E-03 0.  1.
         11   -1    0    0    0    0 -0.00000000000E+00 -0.00000000000E+00 -0.45593999997E+02  0.45594000000E+02  0.51100000000E-03 0. -1.
    9900012    2    1    2    0    0  0.17538108073E+01 -0.14724273240E+02 -0.42535086484E+02  0.46142315889E+02  0.99999829322E+01 0.  0.
        -12    1    1    2    0    0 -0.17538108073E+01  0.14724273240E+02  0.42535086484E+02  0.45045684111E+02  0.00000000000E+00 0.  1.
         11    1    3    3    0    0  0.15671723661E+01 -0.91478629520E+01 -0.24358565844E+02  0.26066820981E+02  0.51100000000E-03 0. -1.
        -11    1    3    3    0    0  0.22618225405E+01 -0.59814883556E+01 -0.14137165807E+02  0.15516233482E+02  0.51100000000E-03 0.  1.
        -12    1    3    3    0    0 -0.20751840993E+01  0.40507806799E+00 -0.40393548329E+01  0.45592614263E+01  0.00000000000E+00 0.  1.
</event>
<event>
 7    1  0.1519238E-008  0.4614232E+02  0.7816164E-02  0.1320468E+00
        -11   -1    0    0    0    0  0.00000000000E+00  0.00000000000E+00  0.45593999997E+02  0.45594000000E+02  0.51100000000E-03 0. -1.
         11   -1    0    0    0    0 -0.00000000000E+00 -0.00000000000E+00 -0.45593999997E+02  0.45594000000E+02  0.51100000000E-03 0.  1.
    9900012    2    1    2    0    0  0.96890028506E+01  0.23630468130E+02  0.37105763611E+02  0.46142317705E+02  0.99999994843E+01 0.  0.
        -12    1    1    2    0    0 -0.96890028506E+01 -0.23630468130E+02 -0.37105763611E+02  0.45045682295E+02  0.00000000000E+00 0.  1.
         11    1    3    3    0    0  0.27024499270E+01  0.13721351159E+02  0.26001301937E+02  0.29523658579E+02  0.51100000000E-03 0. -1.
        -11    1    3    3    0    0  0.14254824177E+01  0.36152145138E+01  0.26642285071E+01  0.47116759124E+01  0.51100000000E-03 0.  1.
         12    1    3    3    0    0  0.55610705059E+01  0.62939024571E+01  0.84402331676E+01  0.11906983213E+02  0.00000000000E+00 0. -1.
</event>
<event>
 7    1  0.1519238E-008  0.4614232E+02  0.7816164E-02  0.1320468E+00
        -11   -1    0    0    0    0  0.00000000000E+00  0.00000000000E+00  0.45593999997E+02  0.45594000000E+02  0.51100000000E-03 0. -1.
         11   -1    0    0    0    0 -0.00000000000E+00 -0.00000000000E+00 -0.45593999997E+02  0.45594000000E+02  0.51100000000E-03 0.  1.
    9900012    2    1    2    0    0 -0.35288258208E+02 -0.34603511712E+01  0.27782697265E+02  0.46142318022E+02  0.10000002375E+02 0.  0.
        -12    1    1    2    0    0  0.35288258208E+02  0.34603511712E+01 -0.27782697265E+02  0.45045681978E+02  0.00000000000E+00 0.  1.
         11    1    3    3    0    0 -0.70951580378E+01  0.35422314453E+00  0.78108850633E+01  0.10558251150E+02  0.51100000000E-03 0. -1.
        -11    1    3    3    0    0 -0.28116956573E+02 -0.29312833034E+01  0.20102213425E+02  0.34687961220E+02  0.51100000000E-03 0.  1.
        -12    1    3    3    0    0 -0.76143596886E-01 -0.88329101240E+00 -0.13040122294E+00  0.89610565163E+00  0.00000000000E+00 0.  1.
</event>
<event>
 7    1  0.1519238E-008  0.4614232E+02  0.7816164E-02  0.1320468E+00
        -11   -1    0    0    0    0  0.00000000000E+00  0.00000000000E+00  0.45593999997E+02  0.45594000000E+02  0.51100000000E-03 0. -1.
         11   -1    0    0    0    0 -0.00000000000E+00 -0.00000000000E+00 -0.45593999997E+02  0.45594000000E+02  0.51100000000E-03 0.  1.
    9900012    2    1    2    0    0 -0.22551740591E+02  0.34401543451E+02  0.18359364939E+02  0.46142317893E+02  0.10000001206E+02 0.  0.
        -12    1    1    2    0    0  0.22551740591E+02 -0.34401543451E+02 -0.18359364939E+02  0.45045682107E+02  0.00000000000E+00 0.  1.
         11    1    3    3    0    0 -0.11519443111E+02  0.18784088577E+02  0.48397904145E+01  0.22560211098E+02  0.51100000000E-03 0. -1.
        -11    1    3    3    0    0 -0.90753749376E+01  0.10744484190E+02  0.95733941808E+01  0.17013413742E+02  0.51100000000E-03 0.  1.
         12    1    3    3    0    0 -0.19569225423E+01  0.48729706836E+01  0.39461803435E+01  0.65686930529E+01  0.00000000000E+00 0. -1.
</event>
<event>
 7    1  0.1519238E-008  0.4614232E+02  0.7816164E-02  0.1320468E+00
        -11   -1    0    0    0    0  0.00000000000E+00  0.00000000000E+00  0.45593999997E+02  0.45594000000E+02  0.51100000000E-03 0. -1.
         11   -1    0    0    0    0 -0.00000000000E+00 -0.00000000000E+00 -0.45593999997E+02  0.45594000000E+02  0.51100000000E-03 0.  1.
    9900012    2    1    2    0    0 -0.39770160624E+02 -0.74403706884E+01  0.19801234673E+02  0.46142315560E+02  0.99999799318E+01 0.  0.
        -12    1    1    2    0    0  0.39770160624E+02  0.74403706884E+01 -0.19801234673E+02  0.45045684440E+02  0.00000000000E+00 0.  1.
         11    1    3    3    0    0 -0.24732188044E+01 -0.10889099495E+01  0.31540654497E+01  0.41533920179E+01  0.51100000000E-03 0.  1.
        -11    1    3    3    0    0 -0.14746691682E+02  0.83342819964E-01  0.92135176823E+01  0.17388524087E+02  0.51100000000E-03 0. -1.
        -12    1    3    3    0    0 -0.22550250138E+02 -0.64348035588E+01  0.74336515408E+01  0.24600399455E+02  0.00000000000E+00 0.  1.
</event>
<event>
 7    1  0.1519238E-008  0.4614232E+02  0.7816164E-02  0.1320468E+00
        -11   -1    0    0    0    0  0.00000000000E+00  0.00000000000E+00  0.45593999997E+02  0.45594000000E+02  0.51100000000E-03 0.  1.
         11   -1    0    0    0    0 -0.00000000000E+00 -0.00000000000E+00 -0.45593999997E+02  0.45594000000E+02  0.51100000000E-03 0. -1.
    9900012    2    1    2    0    0  0.16408399574E+02  0.23168010854E+02 -0.34973150278E+02  0.46142317145E+02  0.99999943779E+01 0.  0.
        -12    1    1    2    0    0 -0.16408399574E+02 -0.23168010854E+02  0.34973150278E+02  0.45045682855E+02  0.00000000000E+00 0.  1.
         11    1    3    3    0    0  0.12733134629E+01  0.24355026992E+01 -0.36414227672E+00  0.27722915488E+01  0.51100000000E-03 0.  1.
        -11    1    3    3    0    0  0.11044763045E+02  0.14501401814E+02 -0.20641499964E+02  0.27538136580E+02  0.51100000000E-03 0. -1.
        -12    1    3    3    0    0  0.40903230662E+01  0.62311063413E+01 -0.13967508038E+02  0.15831889016E+02  0.00000000000E+00 0.  1.
</event>
<event>
 7    1  0.1519238E-008  0.4614232E+02  0.7816164E-02  0.1320468E+00
        -11   -1    0    0    0    0  0.00000000000E+00  0.00000000000E+00  0.45593999997E+02  0.45594000000E+02  0.51100000000E-03 0. -1.
         11   -1    0    0    0    0 -0.00000000000E+00 -0.00000000000E+00 -0.45593999997E+02  0.45594000000E+02  0.51100000000E-03 0.  1.
    9900012    2    1    2    0    0 -0.27014997366E+02 -0.35239228106E+02 -0.75828908444E+01  0.46142317480E+02  0.99999974328E+01 0.  0.
        -12    1    1    2    0    0  0.27014997366E+02  0.35239228106E+02  0.75828908444E+01  0.45045682520E+02  0.00000000000E+00 0.  1.
         11    1    3    3    0    0 -0.14787168195E+02 -0.23639991342E+02 -0.15352527917E+01  0.27926090583E+02  0.51100000000E-03 0. -1.
        -11    1    3    3    0    0 -0.46066054827E+01 -0.56866194000E+01 -0.40551262051E+01  0.83667498513E+01  0.51100000000E-03 0.  1.
        -12    1    3    3    0    0 -0.76212236880E+01 -0.59126173638E+01 -0.19925118475E+01  0.98494770448E+01  0.00000000000E+00 0.  1.
</event>
<event>
 7    1  0.1519238E-008  0.4614232E+02  0.7816164E-02  0.1320468E+00
        -11   -1    0    0    0    0  0.00000000000E+00  0.00000000000E+00  0.45593999997E+02  0.45594000000E+02  0.51100000000E-03 0.  1.
         11   -1    0    0    0    0 -0.00000000000E+00 -0.00000000000E+00 -0.45593999997E+02  0.45594000000E+02  0.51100000000E-03 0. -1.
    9900012    2    1    2    0    0 -0.38870916348E+02 -0.12249541856E+02 -0.19186296821E+02  0.46142318751E+02  0.10000009031E+02 0.  0.
        -12    1    1    2    0    0  0.38870916348E+02  0.12249541856E+02  0.19186296821E+02  0.45045681249E+02  0.00000000000E+00 0.  1.
         11    1    3    3    0    0 -0.32611928885E+02 -0.63437025963E+01 -0.15243757362E+02  0.36553421277E+02  0.51100000000E-03 0. -1.
        -11    1    3    3    0    0 -0.22878837142E+01 -0.32026731429E+01 -0.16983944105E+01  0.42867319703E+01  0.51100000000E-03 0.  1.
         12    1    3    3    0    0 -0.39711037485E+01 -0.27031661169E+01 -0.22441450490E+01  0.53021655046E+01  0.00000000000E+00 0. -1.
</event>
<event>
 7    1  0.1519238E-008  0.4614232E+02  0.7816164E-02  0.1320468E+00
        -11   -1    0    0    0    0  0.00000000000E+00  0.00000000000E+00  0.45593999997E+02  0.45594000000E+02  0.51100000000E-03 0.  1.
         11   -1    0    0    0    0 -0.00000000000E+00 -0.00000000000E+00 -0.45593999997E+02  0.45594000000E+02  0.51100000000E-03 0. -1.
    9900012    2    1    2    0    0  0.23727944232E+02  0.33212777402E+02 -0.19052809332E+02  0.46142318036E+02  0.10000002504E+02 0.  0.
        -12    1    1    2    0    0 -0.23727944232E+02 -0.33212777402E+02  0.19052809332E+02  0.45045681964E+02  0.00000000000E+00 0.  1.
         11    1    3    3    0    0  0.50679824629E+00 -0.51449159308E+00 -0.43367653513E-01  0.72348260262E+00  0.51100000000E-03 0.  1.
        -11    1    3    3    0    0  0.19440275463E+02  0.26944482479E+02 -0.17331925319E+02  0.37474325633E+02  0.51100000000E-03 0. -1.
        -12    1    3    3    0    0  0.37808705231E+01  0.67827865154E+01 -0.16775163587E+01  0.79445097998E+01  0.00000000000E+00 0.  1.
</event>
<event>
 7    1  0.1519238E-008  0.4614232E+02  0.7816164E-02  0.1320468E+00
        -11   -1    0    0    0    0  0.00000000000E+00  0.00000000000E+00  0.45593999997E+02  0.45594000000E+02  0.51100000000E-03 0. -1.
         11   -1    0    0    0    0 -0.00000000000E+00 -0.00000000000E+00 -0.45593999997E+02  0.45594000000E+02  0.51100000000E-03 0.  1.
    9900012    2    1    2    0    0 -0.33966357315E+02  0.22681969460E+02  0.18998108030E+02  0.46142320112E+02  0.10000021438E+02 0.  0.
        -12    1    1    2    0    0  0.33966357315E+02 -0.22681969460E+02 -0.18998108030E+02  0.45045679888E+02  0.00000000000E+00 0.  1.
         11    1    3    3    0    0 -0.22358289266E+02  0.16481461625E+02  0.11601624159E+02  0.30101982652E+02  0.51100000000E-03 0. -1.
        -11    1    3    3    0    0  0.24641087310E+00  0.13301115039E+01  0.28118983590E+00  0.13816594791E+01  0.51100000000E-03 0.  1.
         12    1    3    3    0    0 -0.11854478922E+02  0.48703963311E+01  0.71152940358E+01  0.14658677981E+02  0.00000000000E+00 0. -1.
</event>
<event>
 7    1  0.1519238E-008  0.4614232E+02  0.7816164E-02  0.1320468E+00
        -11   -1    0    0    0    0  0.00000000000E+00  0.00000000000E+00  0.45593999997E+02  0.45594000000E+02  0.51100000000E-03 0.  1.
         11   -1    0    0    0    0 -0.00000000000E+00 -0.00000000000E+00 -0.45593999997E+02  0.45594000000E+02  0.51100000000E-03 0. -1.
    9900012    2    1    2    0    0  0.36585450345E+02  0.24734461879E+02 -0.88783044664E+01  0.46142322387E+02  0.10000042184E+02 0.  0.
        -12    1    1    2    0    0 -0.36585450345E+02 -0.24734461879E+02  0.88783044664E+01  0.45045677613E+02  0.00000000000E+00 0.  1.
         11    1    3    3    0    0  0.21635246997E+02  0.13931485725E+02 -0.71215736580E+01  0.26699944171E+02  0.51100000000E-03 0. -1.
        -11    1    3    3    0    0  0.11592471101E+02  0.79241885424E+01  0.12449780420E+01  0.14097096186E+02  0.51100000000E-03 0.  1.
         12    1    3    3    0    0  0.33577322466E+01  0.28787876123E+01 -0.30017088504E+01  0.53452820300E+01  0.00000000000E+00 0. -1.
</event>
<event>
 7    1  0.1519238E-008  0.4614232E+02  0.7816164E-02  0.1320468E+00
        -11   -1    0    0    0    0  0.00000000000E+00  0.00000000000E+00  0.45593999997E+02  0.45594000000E+02  0.51100000000E-03 0. -1.
         11   -1    0    0    0    0 -0.00000000000E+00 -0.00000000000E+00 -0.45593999997E+02  0.45594000000E+02  0.51100000000E-03 0.  1.
    9900012    2    1    2    0    0  0.39814276172E+02  0.18798609960E+02  0.95157340938E+01  0.46142317422E+02  0.99999969093E+01 0.  0.
        -12    1    1    2    0    0 -0.39814276172E+02 -0.18798609960E+02 -0.95157340938E+01  0.45045682578E+02  0.00000000000E+00 0.  1.
         11    1    3    3    0    0  0.14199221538E+02  0.75470262806E+01  0.20185910174E+00  0.16081549842E+02  0.51100000000E-03 0. -1.
        -11    1    3    3    0    0  0.94121182196E+01  0.60590576948E+01  0.60908431190E+01  0.12743567777E+02  0.51100000000E-03 0.  1.
         12    1    3    3    0    0  0.16202936415E+02  0.51925259849E+01  0.32230318730E+01  0.17317199803E+02  0.00000000000E+00 0. -1.
</event>
<event>
 7    1  0.1519238E-008  0.4614232E+02  0.7816164E-02  0.1320468E+00
        -11   -1    0    0    0    0  0.00000000000E+00  0.00000000000E+00  0.45593999997E+02  0.45594000000E+02  0.51100000000E-03 0.  1.
         11   -1    0    0    0    0 -0.00000000000E+00 -0.00000000000E+00 -0.45593999997E+02  0.45594000000E+02  0.51100000000E-03 0. -1.
    9900012    2    1    2    0    0  0.42601812649E+02 -0.62026620811E+01 -0.13256168359E+02  0.46142318105E+02  0.10000003134E+02 0.  0.
        -12    1    1    2    0    0 -0.42601812649E+02  0.62026620811E+01  0.13256168359E+02  0.45045681895E+02  0.00000000000E+00 0.  1.
         11    1    3    3    0    0  0.34760613448E+02 -0.53266791426E+01 -0.14545390363E+02  0.38055776684E+02  0.51100000000E-03 0. -1.
        -11    1    3    3    0    0  0.73865214811E+01 -0.82056912394E+00  0.90150840545E+00  0.74864378007E+01  0.51100000000E-03 0.  1.
         12    1    3    3    0    0  0.45467771999E+00 -0.55413814552E-01  0.38771359910E+00  0.60010362007E+00  0.00000000000E+00 0. -1.
</event>
<event>
 7    1  0.1519238E-008  0.4614232E+02  0.7816164E-02  0.1320468E+00
        -11   -1    0    0    0    0  0.00000000000E+00  0.00000000000E+00  0.45593999997E+02  0.45594000000E+02  0.51100000000E-03 0. -1.
         11   -1    0    0    0    0 -0.00000000000E+00 -0.00000000000E+00 -0.45593999997E+02  0.45594000000E+02  0.51100000000E-03 0.  1.
    9900012    2    1    2    0    0 -0.71364592023E+01  0.40652512751E+02 -0.18043216603E+02  0.46142317539E+02  0.99999979785E+01 0.  0.
        -12    1    1    2    0    0  0.71364592023E+01 -0.40652512751E+02  0.18043216603E+02  0.45045682461E+02  0.00000000000E+00 0.  1.
         11    1    3    3    0    0  0.34541788799E-01  0.67080482112E+01 -0.46342827569E+00  0.67241259630E+01  0.51100000000E-03 0. -1.
        -11    1    3    3    0    0 -0.59849766198E+01  0.32527434709E+02 -0.15183603111E+02  0.36392248592E+02  0.51100000000E-03 0.  1.
        -12    1    3    3    0    0 -0.11860243713E+01  0.14170298308E+01 -0.23961852166E+01  0.30259429841E+01  0.00000000000E+00 0.  1.
</event>
<event>
 7    1  0.1519238E-008  0.4614232E+02  0.7816164E-02  0.1320468E+00
        -11   -1    0    0    0    0  0.00000000000E+00  0.00000000000E+00  0.45593999997E+02  0.45594000000E+02  0.51100000000E-03 0.  1.
         11   -1    0    0    0    0 -0.00000000000E+00 -0.00000000000E+00 -0.45593999997E+02  0.45594000000E+02  0.51100000000E-03 0. -1.
    9900012    2    1    2    0    0  0.41092605030E+02  0.16843823436E+02 -0.75363758618E+01  0.46142317218E+02  0.99999950501E+01 0.  0.
        -12    1    1    2    0    0 -0.41092605030E+02 -0.16843823436E+02  0.75363758618E+01  0.45045682782E+02  0.00000000000E+00 0.  1.
         11    1    3    3    0    0  0.79816969366E+01  0.58070918092E+01 -0.77246789690E+00  0.99008337114E+01  0.51100000000E-03 0. -1.
        -11    1    3    3    0    0  0.29273752923E+02  0.11932838197E+02 -0.53912827024E+01  0.32068850417E+02  0.51100000000E-03 0.  1.
        -12    1    3    3    0    0  0.38371551710E+01 -0.89610657017E+00 -0.13726252625E+01  0.41726330898E+01  0.00000000000E+00 0.  1.
</event>
<event>
 7    1  0.1519238E-008  0.4614232E+02  0.7816164E-02  0.1320468E+00
        -11   -1    0    0    0    0  0.00000000000E+00  0.00000000000E+00  0.45593999997E+02  0.45594000000E+02  0.51100000000E-03 0.  1.
         11   -1    0    0    0    0 -0.00000000000E+00 -0.00000000000E+00 -0.45593999997E+02  0.45594000000E+02  0.51100000000E-03 0. -1.
    9900012    2    1    2    0    0 -0.79575805277E+01 -0.11547850997E+02 -0.42806980229E+02  0.46142317557E+02  0.99999981351E+01 0.  0.
        -12    1    1    2    0    0  0.79575805277E+01  0.11547850997E+02  0.42806980229E+02  0.45045682443E+02  0.00000000000E+00 0.  1.
         11    1    3    3    0    0 -0.22319753321E+01 -0.56109930671E+01 -0.15104507095E+02  0.16266870994E+02  0.51100000000E-03 0. -1.
        -11    1    3    3    0    0  0.18751942169E+01 -0.12202768412E+01 -0.58197837364E+01  0.62350069703E+01  0.51100000000E-03 0.  1.
        -12    1    3    3    0    0 -0.76007994125E+01 -0.47165810882E+01 -0.21882689397E+02  0.23640439593E+02  0.00000000000E+00 0.  1.
</event>
<event>
 7    1  0.1519238E-008  0.4614232E+02  0.7816164E-02  0.1320468E+00
        -11   -1    0    0    0    0  0.00000000000E+00  0.00000000000E+00  0.45593999997E+02  0.45594000000E+02  0.51100000000E-03 0.  1.
         11   -1    0    0    0    0 -0.00000000000E+00 -0.00000000000E+00 -0.45593999997E+02  0.45594000000E+02  0.51100000000E-03 0. -1.
    9900012    2    1    2    0    0  0.55714370346E+01  0.62781589932E+01 -0.44256720073E+02  0.46142318047E+02  0.10000002611E+02 0.  0.
        -12    1    1    2    0    0 -0.55714370346E+01 -0.62781589932E+01  0.44256720073E+02  0.45045681953E+02  0.00000000000E+00 0.  1.
         11    1    3    3    0    0 -0.14469958842E+01 -0.17356254010E+01 -0.72764911986E+01  0.76192858620E+01  0.51100000000E-03 0. -1.
        -11    1    3    3    0    0  0.61502743481E+01  0.59691724466E+01 -0.29164804624E+02  0.30398071045E+02  0.51100000000E-03 0.  1.
         12    1    3    3    0    0  0.86815857073E+00  0.20446119477E+01 -0.78154242499E+01  0.81249611400E+01  0.00000000000E+00 0. -1.
</event>
<event>
 7    1  0.1519238E-008  0.4614232E+02  0.7816164E-02  0.1320468E+00
        -11   -1    0    0    0    0  0.00000000000E+00  0.00000000000E+00  0.45593999997E+02  0.45594000000E+02  0.51100000000E-03 0.  1.
         11   -1    0    0    0    0 -0.00000000000E+00 -0.00000000000E+00 -0.45593999997E+02  0.45594000000E+02  0.51100000000E-03 0. -1.
    9900012    2    1    2    0    0 -0.16965432275E+02  0.39058772296E+02 -0.14686725480E+02  0.46142317733E+02  0.99999997470E+01 0.  0.
        -12    1    1    2    0    0  0.16965432275E+02 -0.39058772296E+02  0.14686725480E+02  0.45045682267E+02  0.00000000000E+00 0.  1.
         11    1    3    3    0    0 -0.76273560706E+00  0.49272638067E+01 -0.59761445774E+00  0.50216369371E+01  0.51100000000E-03 0. -1.
        -11    1    3    3    0    0 -0.11399872372E+02  0.20420541399E+02 -0.47929090589E+01  0.23873156026E+02  0.51100000000E-03 0.  1.
        -12    1    3    3    0    0 -0.48028242958E+01  0.13710967090E+02 -0.92962019629E+01  0.17247524770E+02  0.00000000000E+00 0.  1.
</event>
<event>
 7    1  0.1519238E-008  0.4614232E+02  0.7816164E-02  0.1320468E+00
        -11   -1    0    0    0    0  0.00000000000E+00  0.00000000000E+00  0.45593999997E+02  0.45594000000E+02  0.51100000000E-03 0.  1.
         11   -1    0    0    0    0 -0.00000000000E+00 -0.00000000000E+00 -0.45593999997E+02  0.45594000000E+02  0.51100000000E-03 0. -1.
    9900012    2    1    2    0    0 -0.28128517396E+02 -0.12442585726E+02 -0.32910211049E+02  0.46142318500E+02  0.10000006741E+02 0.  0.
        -12    1    1    2    0    0  0.28128517396E+02  0.12442585726E+02  0.32910211049E+02  0.45045681500E+02  0.00000000000E+00 0.  1.
         11    1    3    3    0    0 -0.19304091778E+02 -0.12943637315E+02 -0.22316745593E+02  0.32221465522E+02  0.51100000000E-03 0. -1.
        -11    1    3    3    0    0 -0.46915788684E+01 -0.14721482983E+00 -0.43120784214E+01  0.63739003019E+01  0.51100000000E-03 0.  1.
         12    1    3    3    0    0 -0.41328467502E+01  0.64826641864E+00 -0.62813870351E+01  0.75469526761E+01  0.00000000000E+00 0. -1.
</event>
<event>
 7    1  0.1519238E-008  0.4614232E+02  0.7816164E-02  0.1320468E+00
        -11   -1    0    0    0    0  0.00000000000E+00  0.00000000000E+00  0.45593999997E+02  0.45594000000E+02  0.51100000000E-03 0. -1.
         11   -1    0    0    0    0 -0.00000000000E+00 -0.00000000000E+00 -0.45593999997E+02  0.45594000000E+02  0.51100000000E-03 0.  1.
    9900012    2    1    2    0    0 -0.13903965188E+02  0.34694173179E+01  0.42705460269E+02  0.46142318284E+02  0.10000004765E+02 0.  0.
        -12    1    1    2    0    0  0.13903965188E+02 -0.34694173179E+01 -0.42705460269E+02  0.45045681716E+02  0.00000000000E+00 0.  1.
         11    1    3    3    0    0 -0.80999247545E+00 -0.10696411491E+01  0.46072874132E+00  0.14186230057E+01  0.51100000000E-03 0.  1.
        -11    1    3    3    0    0 -0.48291148104E+01  0.23304863462E+01  0.23727344876E+02  0.24325673919E+02  0.51100000000E-03 0. -1.
        -12    1    3    3    0    0 -0.82648579026E+01  0.22085721209E+01  0.18517386651E+02  0.20398021359E+02  0.00000000000E+00 0.  1.
</event>
<event>
 7    1  0.1519238E-008  0.4614232E+02  0.7816164E-02  0.1320468E+00
        -11   -1    0    0    0    0  0.00000000000E+00  0.00000000000E+00  0.45593999997E+02  0.45594000000E+02  0.51100000000E-03 0.  1.
         11   -1    0    0    0    0 -0.00000000000E+00 -0.00000000000E+00 -0.45593999997E+02  0.45594000000E+02  0.51100000000E-03 0. -1.
    9900012    2    1    2    0    0  0.13771737474E+02 -0.27318418152E+02 -0.33062921632E+02  0.46142317518E+02  0.99999977845E+01 0.  0.
        -12    1    1    2    0    0 -0.13771737474E+02  0.27318418152E+02  0.33062921632E+02  0.45045682482E+02  0.00000000000E+00 0.  1.
         11    1    3    3    0    0  0.48529985373E+01 -0.66675837481E+01 -0.50060678632E+01  0.96472267286E+01  0.51100000000E-03 0. -1.
        -11    1    3    3    0    0  0.28470335761E+01 -0.14176565482E+02 -0.17685624011E+02  0.22844297012E+02  0.51100000000E-03 0.  1.
        -12    1    3    3    0    0  0.60717053609E+01 -0.64742689219E+01 -0.10371229758E+02  0.13650793777E+02  0.00000000000E+00 0.  1.
</event>
<event>
 7    1  0.1519238E-008  0.4614232E+02  0.7816164E-02  0.1320468E+00
        -11   -1    0    0    0    0  0.00000000000E+00  0.00000000000E+00  0.45593999997E+02  0.45594000000E+02  0.51100000000E-03 0.  1.
         11   -1    0    0    0    0 -0.00000000000E+00 -0.00000000000E+00 -0.45593999997E+02  0.45594000000E+02  0.51100000000E-03 0. -1.
    9900012    2    1    2    0    0  0.22232612936E+01  0.41792254537E+02 -0.16660674091E+02  0.46142317730E+02  0.99999997144E+01 0.  0.
        -12    1    1    2    0    0 -0.22232612936E+01 -0.41792254537E+02  0.16660674091E+02  0.45045682270E+02  0.00000000000E+00 0.  1.
         11    1    3    3    0    0  0.16299592223E+01  0.15864236771E+02 -0.77709304590E+01  0.17740296950E+02  0.51100000000E-03 0. -1.
        -11    1    3    3    0    0 -0.28300225329E+01  0.19370621745E+02 -0.63191366399E+01  0.20570889685E+02  0.51100000000E-03 0.  1.
        -12    1    3    3    0    0  0.34233246042E+01  0.65573960204E+01 -0.25706069919E+01  0.78311310946E+01  0.00000000000E+00 0.  1.
</event>
<event>
 7    1  0.1519238E-008  0.4614232E+02  0.7816164E-02  0.1320468E+00
        -11   -1    0    0    0    0  0.00000000000E+00  0.00000000000E+00  0.45593999997E+02  0.45594000000E+02  0.51100000000E-03 0. -1.
         11   -1    0    0    0    0 -0.00000000000E+00 -0.00000000000E+00 -0.45593999997E+02  0.45594000000E+02  0.51100000000E-03 0.  1.
    9900012    2    1    2    0    0 -0.31461578803E+02 -0.10738397414E+02  0.30396867071E+02  0.46142315994E+02  0.99999838903E+01 0.  0.
        -12    1    1    2    0    0  0.31461578803E+02  0.10738397414E+02 -0.30396867071E+02  0.45045684006E+02  0.00000000000E+00 0.  1.
         11    1    3    3    0    0 -0.20240266595E+02 -0.87928797551E+01  0.14692711556E+02  0.26511486178E+02  0.51100000000E-03 0. -1.
        -11    1    3    3    0    0  0.16719201194E+00  0.11159961162E+00  0.35217851100E+00  0.40550907129E+00  0.51100000000E-03 0.  1.
         12    1    3    3    0    0 -0.11388504220E+02 -0.20571172702E+01  0.15351977004E+02  0.19225320745E+02  0.00000000000E+00 0. -1.
</event>
<event>
 7    1  0.1519238E-008  0.4614232E+02  0.7816164E-02  0.1320468E+00
        -11   -1    0    0    0    0  0.00000000000E+00  0.00000000000E+00  0.45593999997E+02  0.45594000000E+02  0.51100000000E-03 0.  1.
         11   -1    0    0    0    0 -0.00000000000E+00 -0.00000000000E+00 -0.45593999997E+02  0.45594000000E+02  0.51100000000E-03 0. -1.
    9900012    2    1    2    0    0  0.35435960047E+02  0.39050977835E+01 -0.27534641383E+02  0.46142317308E+02  0.99999958656E+01 0.  0.
        -12    1    1    2    0    0 -0.35435960047E+02 -0.39050977835E+01  0.27534641383E+02  0.45045682692E+02  0.00000000000E+00 0.  1.
         11    1    3    3    0    0  0.16617051949E+02  0.77783987460E+00 -0.15587770164E+02  0.22797149587E+02  0.51100000000E-03 0. -1.
        -11    1    3    3    0    0  0.17420070471E+02  0.41385291581E+01 -0.12103378135E+02  0.21611988371E+02  0.51100000000E-03 0.  1.
        -12    1    3    3    0    0  0.13988376265E+01 -0.10112712492E+01  0.15650691539E+00  0.17331793501E+01  0.00000000000E+00 0.  1.
</event>
<event>
 7    1  0.1519238E-008  0.4614232E+02  0.7816164E-02  0.1320468E+00
        -11   -1    0    0    0    0  0.00000000000E+00  0.00000000000E+00  0.45593999997E+02  0.45594000000E+02  0.51100000000E-03 0.  1.
         11   -1    0    0    0    0 -0.00000000000E+00 -0.00000000000E+00 -0.45593999997E+02  0.45594000000E+02  0.51100000000E-03 0. -1.
    9900012    2    1    2    0    0  0.24344974839E+02  0.35364065463E+02 -0.13631528716E+02  0.46142317619E+02  0.99999987079E+01 0.  0.
        -12    1    1    2    0    0 -0.24344974839E+02 -0.35364065463E+02  0.13631528716E+02  0.45045682381E+02  0.00000000000E+00 0.  1.
         11    1    3    3    0    0  0.15537293490E+02  0.21469791931E+02 -0.10503984164E+02  0.28507773292E+02  0.51100000000E-03 0. -1.
        -11    1    3    3    0    0  0.25004830372E+01  0.59950455434E+01  0.12572241230E+01  0.66161619723E+01  0.51100000000E-03 0.  1.
        -12    1    3    3    0    0  0.63071983128E+01  0.78992279888E+01 -0.43847686754E+01  0.11018382355E+02  0.00000000000E+00 0.  1.
</event>
<event>
 7    1  0.1519238E-008  0.4614232E+02  0.7816164E-02  0.1320468E+00
        -11   -1    0    0    0    0  0.00000000000E+00  0.00000000000E+00  0.45593999997E+02  0.45594000000E+02  0.51100000000E-03 0.  1.
         11   -1    0    0    0    0 -0.00000000000E+00 -0.00000000000E+00 -0.45593999997E+02  0.45594000000E+02  0.51100000000E-03 0. -1.
    9900012    2    1    2    0    0  0.32745565079E+02  0.69291451710E+01 -0.30146781289E+02  0.46142317552E+02  0.99999980925E+01 0.  0.
        -12    1    1    2    0    0 -0.32745565079E+02 -0.69291451710E+01  0.30146781289E+02  0.45045682448E+02  0.00000000000E+00 0.  1.
         11    1    3    3    0    0  0.27911750000E+02  0.71772657947E+01 -0.25611939244E+02  0.38555808440E+02  0.51100000000E-03 0. -1.
        -11    1    3    3    0    0  0.53978603518E+01 -0.41828468766E+00 -0.44133712542E+01  0.69849627447E+01  0.51100000000E-03 0.  1.
         12    1    3    3    0    0 -0.56404527297E+00  0.17016406402E+00 -0.12147078999E+00  0.60154636684E+00  0.00000000000E+00 0. -1.
</event>
<event>
 7    1  0.1519238E-008  0.4614232E+02  0.7816164E-02  0.1320468E+00
        -11   -1    0    0    0    0  0.00000000000E+00  0.00000000000E+00  0.45593999997E+02  0.45594000000E+02  0.51100000000E-03 0.  1.
         11   -1    0    0    0    0 -0.00000000000E+00 -0.00000000000E+00 -0.45593999997E+02  0.45594000000E+02  0.51100000000E-03 0. -1.
    9900012    2    1    2    0    0  0.22296147338E+01  0.79421115058E+01 -0.44283915212E+02  0.46142318036E+02  0.10000002510E+02 0.  0.
        -12    1    1    2    0    0 -0.22296147338E+01 -0.79421115058E+01  0.44283915212E+02  0.45045681964E+02  0.00000000000E+00 0.  1.
         11    1    3    3    0    0 -0.80844709554E+00  0.33248229724E+01 -0.35314206368E+01  0.49172112502E+01  0.51100000000E-03 0.  1.
        -11    1    3    3    0    0  0.13351690592E+01  0.41959329477E+01 -0.31683086188E+02  0.31987598853E+02  0.51100000000E-03 0. -1.
         12    1    3    3    0    0  0.17028927701E+01  0.42135558566E+00 -0.90694083879E+01  0.92375079336E+01  0.00000000000E+00 0. -1.
</event>
<event>
 7    1  0.1519238E-008  0.4614232E+02  0.7816164E-02  0.1320468E+00
        -11   -1    0    0    0    0  0.00000000000E+00  0.00000000000E+00  0.45593999997E+02  0.45594000000E+02  0.51100000000E-03 0.  1.
         11   -1    0    0    0    0 -0.00000000000E+00 -0.00000000000E+00 -0.45593999997E+02  0.45594000000E+02  0.51100000000E-03 0. -1.
    9900012    2    1    2    0    0  0.38244385168E+02 -0.24297721962E+01 -0.23676499404E+02  0.46142318589E+02  0.10000007546E+02 0.  0.
        -12    1    1    2    0    0 -0.38244385168E+02  0.24297721962E+01  0.23676499404E+02  0.45045681411E+02  0.00000000000E+00 0.  1.
         11    1    3    3    0    0  0.25599879664E+02 -0.40341532960E+01 -0.11709712009E+02  0.28438452617E+02  0.51100000000E-03 0. -1.
        -11    1    3    3    0    0  0.52376958360E+01  0.20499489973E+01 -0.53204147351E+01  0.77422581833E+01  0.51100000000E-03 0.  1.
         12    1    3    3    0    0  0.74068096673E+01 -0.44556789748E+00 -0.66463726598E+01  0.99616077885E+01  0.00000000000E+00 0. -1.
</event>
<event>
 7    1  0.1519238E-008  0.4614232E+02  0.7816164E-02  0.1320468E+00
        -11   -1    0    0    0    0  0.00000000000E+00  0.00000000000E+00  0.45593999997E+02  0.45594000000E+02  0.51100000000E-03 0.  1.
         11   -1    0    0    0    0 -0.00000000000E+00 -0.00000000000E+00 -0.45593999997E+02  0.45594000000E+02  0.51100000000E-03 0. -1.
    9900012    2    1    2    0    0 -0.39296311096E+02  0.46992607601E+01 -0.21513493908E+02  0.46142317214E+02  0.99999950150E+01 0.  0.
        -12    1    1    2    0    0  0.39296311096E+02 -0.46992607601E+01  0.21513493908E+02  0.45045682786E+02  0.00000000000E+00 0.  1.
         11    1    3    3    0    0 -0.90828014066E+01  0.26738935679E+01 -0.24910017981E+01  0.97904074697E+01  0.51100000000E-03 0. -1.
        -11    1    3    3    0    0 -0.13800972916E+02 -0.23046119205E+01 -0.90854114300E+01  0.16683009040E+02  0.51100000000E-03 0.  1.
         12    1    3    3    0    0 -0.16412536774E+02  0.43299791127E+01 -0.99370806802E+01  0.19668900704E+02  0.00000000000E+00 0. -1.
</event>
<event>
 7    1  0.1519238E-008  0.4614232E+02  0.7816164E-02  0.1320468E+00
        -11   -1    0    0    0    0  0.00000000000E+00  0.00000000000E+00  0.45593999997E+02  0.45594000000E+02  0.51100000000E-03 0.  1.
         11   -1    0    0    0    0 -0.00000000000E+00 -0.00000000000E+00 -0.45593999997E+02  0.45594000000E+02  0.51100000000E-03 0. -1.
    9900012    2    1    2    0    0  0.39786198463E+02  0.54682361602E+01  0.20402703351E+02  0.46142317644E+02  0.99999989328E+01 0.  0.
        -12    1    1    2    0    0 -0.39786198463E+02 -0.54682361602E+01 -0.20402703351E+02  0.45045682356E+02  0.00000000000E+00 0.  1.
         11    1    3    3    0    0  0.79397031372E+01 -0.73303372793E+00  0.38703625019E+01  0.88631783526E+01  0.51100000000E-03 0. -1.
        -11    1    3    3    0    0  0.19681993917E+02  0.43160637651E+01  0.14447933446E+02  0.24794194323E+02  0.51100000000E-03 0.  1.
        -12    1    3    3    0    0  0.12164501409E+02  0.18852061231E+01  0.20844074034E+01  0.12484944969E+02  0.00000000000E+00 0.  1.
</event>
<event>
 7    1  0.1519238E-008  0.4614232E+02  0.7816164E-02  0.1320468E+00
        -11   -1    0    0    0    0  0.00000000000E+00  0.00000000000E+00  0.45593999997E+02  0.45594000000E+02  0.51100000000E-03 0.  1.
         11   -1    0    0    0    0 -0.00000000000E+00 -0.00000000000E+00 -0.45593999997E+02  0.45594000000E+02  0.51100000000E-03 0. -1.
    9900012    2    1    2    0    0 -0.28093826516E+02 -0.58643622444E+00 -0.35206626122E+02  0.46142317425E+02  0.99999969358E+01 0.  0.
        -12    1    1    2    0    0  0.28093826516E+02  0.58643622444E+00  0.35206626122E+02  0.45045682575E+02  0.00000000000E+00 0.  1.
         11    1    3    3    0    0 -0.95740963967E+01 -0.24038697939E+01 -0.94200008130E+01  0.13644717930E+02  0.51100000000E-03 0.  1.
        -11    1    3    3    0    0 -0.17889830258E+02  0.50183521856E+00 -0.21525057171E+02  0.27993319769E+02  0.51100000000E-03 0. -1.
        -12    1    3    3    0    0 -0.62989986151E+00  0.13155983509E+01 -0.42615681384E+01  0.45042797265E+01  0.00000000000E+00 0.  1.
</event>
<event>
 7    1  0.1519238E-008  0.4614232E+02  0.7816164E-02  0.1320468E+00
        -11   -1    0    0    0    0  0.00000000000E+00  0.00000000000E+00  0.45593999997E+02  0.45594000000E+02  0.51100000000E-03 0. -1.
         11   -1    0    0    0    0 -0.00000000000E+00 -0.00000000000E+00 -0.45593999997E+02  0.45594000000E+02  0.51100000000E-03 0.  1.
    9900012    2    1    2    0    0  0.13389685296E+02 -0.27303108610E+02  0.33232064227E+02  0.46142317578E+02  0.99999983268E+01 0.  0.
        -12    1    1    2    0    0 -0.13389685296E+02  0.27303108610E+02 -0.33232064227E+02  0.45045682422E+02  0.00000000000E+00 0.  1.
         11    1    3    3    0    0  0.65970057333E+01 -0.14757496489E+02  0.23778906846E+02  0.28753097196E+02  0.51100000000E-03 0.  1.
        -11    1    3    3    0    0  0.63424425466E+01 -0.11743419141E+02  0.96225970827E+01  0.16453839839E+02  0.51100000000E-03 0. -1.
        -12    1    3    3    0    0  0.45023701600E+00 -0.80219297956E+00 -0.16943970172E+00  0.93538054265E+00  0.00000000000E+00 0.  1.
</event>
<event>
 7    1  0.1519238E-008  0.4614232E+02  0.7816164E-02  0.1320468E+00
        -11   -1    0    0    0    0  0.00000000000E+00  0.00000000000E+00  0.45593999997E+02  0.45594000000E+02  0.51100000000E-03 0. -1.
         11   -1    0    0    0    0 -0.00000000000E+00 -0.00000000000E+00 -0.45593999997E+02  0.45594000000E+02  0.51100000000E-03 0.  1.
    9900012    2    1    2    0    0 -0.34894385285E+02  0.95863404554E+00  0.28470622950E+02  0.46142317912E+02  0.10000001373E+02 0.  0.
        -12    1    1    2    0    0  0.34894385285E+02 -0.95863404554E+00 -0.28470622950E+02  0.45045682088E+02  0.00000000000E+00 0.  1.
         11    1    3    3    0    0 -0.15679487659E+02  0.17107401832E+01  0.18121340499E+02  0.24024070158E+02  0.51100000000E-03 0. -1.
        -11    1    3    3    0    0 -0.19360576980E+02 -0.65672514095E+00  0.10284246400E+02  0.21932372266E+02  0.51100000000E-03 0.  1.
         12    1    3    3    0    0  0.14567935479E+00 -0.95380996731E-01  0.65036050714E-01  0.18587548747E+00  0.00000000000E+00 0. -1.
</event>
<event>
 7    1  0.1519238E-008  0.4614232E+02  0.7816164E-02  0.1320468E+00
        -11   -1    0    0    0    0  0.00000000000E+00  0.00000000000E+00  0.45593999997E+02  0.45594000000E+02  0.51100000000E-03 0. -1.
         11   -1    0    0    0    0 -0.00000000000E+00 -0.00000000000E+00 -0.45593999997E+02  0.45594000000E+02  0.51100000000E-03 0.  1.
    9900012    2    1    2    0    0 -0.28709409345E+02 -0.56070059244E+01  0.34255581085E+02  0.46142317234E+02  0.99999951888E+01 0.  0.
        -12    1    1    2    0    0  0.28709409345E+02  0.56070059244E+01 -0.34255581085E+02  0.45045682766E+02  0.00000000000E+00 0.  1.
         11    1    3    3    0    0 -0.18986509128E+02 -0.21204849352E+01  0.21307455997E+02  0.28618030446E+02  0.51100000000E-03 0. -1.
        -11    1    3    3    0    0 -0.14028221355E+01 -0.22971280753E+01  0.61542633472E+01  0.67171173093E+01  0.51100000000E-03 0.  1.
         12    1    3    3    0    0 -0.83200780816E+01 -0.11893929138E+01  0.67938617408E+01  0.10807169479E+02  0.00000000000E+00 0. -1.
</event>
<event>
 7    1  0.1519238E-008  0.4614232E+02  0.7816164E-02  0.1320468E+00
        -11   -1    0    0    0    0  0.00000000000E+00  0.00000000000E+00  0.45593999997E+02  0.45594000000E+02  0.51100000000E-03 0.  1.
         11   -1    0    0    0    0 -0.00000000000E+00 -0.00000000000E+00 -0.45593999997E+02  0.45594000000E+02  0.51100000000E-03 0. -1.
    9900012    2    1    2    0    0 -0.39890201530E+02 -0.25422717952E+01 -0.20770701643E+02  0.46142319066E+02  0.10000011903E+02 0.  0.
        -12    1    1    2    0    0  0.39890201530E+02  0.25422717952E+01  0.20770701643E+02  0.45045680934E+02  0.00000000000E+00 0.  1.
         11    1    3    3    0    0 -0.77633021761E+01 -0.31292118674E+01 -0.19710956745E+01  0.85991886831E+01  0.51100000000E-03 0. -1.
        -11    1    3    3    0    0 -0.21706379763E+02  0.21579940747E+01 -0.10982827044E+02  0.24422251144E+02  0.51100000000E-03 0.  1.
         12    1    3    3    0    0 -0.10420519592E+02 -0.15710540025E+01 -0.78167789248E+01  0.13120879239E+02  0.00000000000E+00 0. -1.
</event>
<event>
 7    1  0.1519238E-008  0.4614232E+02  0.7816164E-02  0.1320468E+00
        -11   -1    0    0    0    0  0.00000000000E+00  0.00000000000E+00  0.45593999997E+02  0.45594000000E+02  0.51100000000E-03 0.  1.
         11   -1    0    0    0    0 -0.00000000000E+00 -0.00000000000E+00 -0.45593999997E+02  0.45594000000E+02  0.51100000000E-03 0. -1.
    9900012    2    1    2    0    0 -0.10158435697E+01 -0.91064063258E+01 -0.44103912143E+02  0.46142316071E+02  0.99999845902E+01 0.  0.
        -12    1    1    2    0    0  0.10158435697E+01  0.91064063258E+01  0.44103912143E+02  0.45045683929E+02  0.00000000000E+00 0.  1.
         11    1    3    3    0    0  0.50997408436E+00 -0.38155122810E+01 -0.18394200904E+02  0.18792680349E+02  0.51100000000E-03 0. -1.
        -11    1    3    3    0    0 -0.84403932154E-01  0.42243955280E+00  0.39724240280E+00  0.58598719033E+00  0.51100000000E-03 0.  1.
        -12    1    3    3    0    0 -0.14414137219E+01 -0.57133335976E+01 -0.26106953641E+02  0.26763648532E+02  0.00000000000E+00 0.  1.
</event>
<event>
 7    1  0.1519238E-008  0.4614232E+02  0.7816164E-02  0.1320468E+00
        -11   -1    0    0    0    0  0.00000000000E+00  0.00000000000E+00  0.45593999997E+02  0.45594000000E+02  0.51100000000E-03 0.  1.
         11   -1    0    0    0    0 -0.00000000000E+00 -0.00000000000E+00 -0.45593999997E+02  0.45594000000E+02  0.51100000000E-03 0. -1.
    9900012    2    1    2    0    0 -0.41555700266E+02  0.15544210762E+02 -0.77855471435E+01  0.46142318108E+02  0.10000003166E+02 0.  0.
        -12    1    1    2    0    0  0.41555700266E+02 -0.15544210762E+02  0.77855471435E+01  0.45045681892E+02  0.00000000000E+00 0.  1.
         11    1    3    3    0    0 -0.14708605267E+02  0.56954297808E+01 -0.11129944588E+01  0.15812012719E+02  0.51100000000E-03 0. -1.
        -11    1    3    3    0    0 -0.22567786791E+02  0.95353758374E+01 -0.30002061258E+01  0.24682577460E+02  0.51100000000E-03 0.  1.
        -12    1    3    3    0    0 -0.42793082069E+01  0.31340514367E+00 -0.36723465589E+01  0.56477279292E+01  0.00000000000E+00 0.  1.
</event>
<event>
 7    1  0.1519238E-008  0.4614232E+02  0.7816164E-02  0.1320468E+00
        -11   -1    0    0    0    0  0.00000000000E+00  0.00000000000E+00  0.45593999997E+02  0.45594000000E+02  0.51100000000E-03 0. -1.
         11   -1    0    0    0    0 -0.00000000000E+00 -0.00000000000E+00 -0.45593999997E+02  0.45594000000E+02  0.51100000000E-03 0.  1.
    9900012    2    1    2    0    0 -0.21860474134E+02 -0.18702520201E+02  0.34661922701E+02  0.46142317892E+02  0.10000001197E+02 0.  0.
        -12    1    1    2    0    0  0.21860474134E+02  0.18702520201E+02 -0.34661922701E+02  0.45045682108E+02  0.00000000000E+00 0.  1.
         11    1    3    3    0    0 -0.11966840468E+02 -0.73133025645E+01  0.11467021055E+02  0.18115800764E+02  0.51100000000E-03 0. -1.
        -11    1    3    3    0    0  0.96019001156E-01 -0.20588476667E+01  0.31577852785E+01  0.37708992945E+01  0.51100000000E-03 0.  1.
         12    1    3    3    0    0 -0.99896526673E+01 -0.93303699695E+01  0.20037116367E+02  0.24255617833E+02  0.00000000000E+00 0. -1.
</event>
<event>
 7    1  0.1519238E-008  0.4614232E+02  0.7816164E-02  0.1320468E+00
        -11   -1    0    0    0    0  0.00000000000E+00  0.00000000000E+00  0.45593999997E+02  0.45594000000E+02  0.51100000000E-03 0. -1.
         11   -1    0    0    0    0 -0.00000000000E+00 -0.00000000000E+00 -0.45593999997E+02  0.45594000000E+02  0.51100000000E-03 0.  1.
    9900012    2    1    2    0    0  0.18113727788E+02 -0.41232791017E+02  0.92915762617E+00  0.46142317373E+02  0.99999964642E+01 0.  0.
        -12    1    1    2    0    0 -0.18113727788E+02  0.41232791017E+02 -0.92915762617E+00  0.45045682627E+02  0.00000000000E+00 0.  1.
         11    1    3    3    0    0  0.83986293941E+01 -0.23410957764E+02 -0.29345178361E+00  0.24873601133E+02  0.51100000000E-03 0. -1.
        -11    1    3    3    0    0  0.62747716358E+01 -0.12875713209E+02 -0.19567817845E+01  0.14456339265E+02  0.51100000000E-03 0.  1.
         12    1    3    3    0    0  0.34403267576E+01 -0.49461200437E+01  0.31793911943E+01  0.68123769752E+01  0.00000000000E+00 0. -1.
</event>
<event>
 7    1  0.1519238E-008  0.4614232E+02  0.7816164E-02  0.1320468E+00
        -11   -1    0    0    0    0  0.00000000000E+00  0.00000000000E+00  0.45593999997E+02  0.45594000000E+02  0.51100000000E-03 0. -1.
         11   -1    0    0    0    0 -0.00000000000E+00 -0.00000000000E+00 -0.45593999997E+02  0.45594000000E+02  0.51100000000E-03 0.  1.
    9900012    2    1    2    0    0 -0.76526330822E+00  0.13669281006E+02  0.42914785996E+02  0.46142315099E+02  0.99999757267E+01 0.  0.
        -12    1    1    2    0    0  0.76526330822E+00 -0.13669281006E+02 -0.42914785996E+02  0.45045684901E+02  0.00000000000E+00 0.  1.
         11    1    3    3    0    0 -0.15080115597E+01  0.13073085015E+02  0.36231400120E+02  0.38547295698E+02  0.51100000000E-03 0. -1.
        -11    1    3    3    0    0 -0.74376256765E+00 -0.65652024296E+00  0.49543418107E+00  0.11088989473E+01  0.51100000000E-03 0.  1.
         12    1    3    3    0    0  0.14865108191E+01  0.12527162338E+01  0.61879516943E+01  0.64861204543E+01  0.00000000000E+00 0. -1.
</event>
<event>
 7    1  0.1519238E-008  0.4614232E+02  0.7816164E-02  0.1320468E+00
        -11   -1    0    0    0    0  0.00000000000E+00  0.00000000000E+00  0.45593999997E+02  0.45594000000E+02  0.51100000000E-03 0.  1.
         11   -1    0    0    0    0 -0.00000000000E+00 -0.00000000000E+00 -0.45593999997E+02  0.45594000000E+02  0.51100000000E-03 0. -1.
    9900012    2    1    2    0    0  0.23796166049E+02 -0.30844872556E+02  0.22615255518E+02  0.46142318034E+02  0.10000002489E+02 0.  0.
        -12    1    1    2    0    0 -0.23796166049E+02  0.30844872556E+02 -0.22615255518E+02  0.45045681966E+02  0.00000000000E+00 0.  1.
         11    1    3    3    0    0  0.91244532003E+01 -0.69325198131E+01  0.60202721765E+01  0.12944464242E+02  0.51100000000E-03 0. -1.
        -11    1    3    3    0    0  0.19770659539E+01 -0.82915793625E+01  0.62243383161E+01  0.10554689282E+02  0.51100000000E-03 0.  1.
        -12    1    3    3    0    0  0.12694646895E+02 -0.15620773380E+02  0.10370645025E+02  0.22643164510E+02  0.00000000000E+00 0.  1.
</event>
<event>
 7    1  0.1519238E-008  0.4614232E+02  0.7816164E-02  0.1320468E+00
        -11   -1    0    0    0    0  0.00000000000E+00  0.00000000000E+00  0.45593999997E+02  0.45594000000E+02  0.51100000000E-03 0. -1.
         11   -1    0    0    0    0 -0.00000000000E+00 -0.00000000000E+00 -0.45593999997E+02  0.45594000000E+02  0.51100000000E-03 0.  1.
    9900012    2    1    2    0    0  0.25091749630E+01 -0.33587116571E+02  0.29911924076E+02  0.46142316960E+02  0.99999926991E+01 0.  0.
        -12    1    1    2    0    0 -0.25091749630E+01  0.33587116571E+02 -0.29911924076E+02  0.45045683040E+02  0.00000000000E+00 0.  1.
         11    1    3    3    0    0  0.33028208715E+01 -0.68895788290E+01  0.70010960304E+01  0.10362927580E+02  0.51100000000E-03 0. -1.
        -11    1    3    3    0    0  0.12637554783E+01 -0.23429085995E+02  0.20916536629E+02  0.31432795823E+02  0.51100000000E-03 0.  1.
        -12    1    3    3    0    0 -0.20574013868E+01 -0.32684517479E+01  0.19942914167E+01  0.43465935569E+01  0.00000000000E+00 0.  1.
</event>
<event>
 7    1  0.1519238E-008  0.4614232E+02  0.7816164E-02  0.1320468E+00
        -11   -1    0    0    0    0  0.00000000000E+00  0.00000000000E+00  0.45593999997E+02  0.45594000000E+02  0.51100000000E-03 0.  1.
         11   -1    0    0    0    0 -0.00000000000E+00 -0.00000000000E+00 -0.45593999997E+02  0.45594000000E+02  0.51100000000E-03 0. -1.
    9900012    2    1    2    0    0  0.64978041041E+01 -0.44555047864E+02 -0.13190325332E+01  0.46142316576E+02  0.99999891920E+01 0.  0.
        -12    1    1    2    0    0 -0.64978041041E+01  0.44555047864E+02  0.13190325332E+01  0.45045683424E+02  0.00000000000E+00 0.  1.
         11    1    3    3    0    0 -0.15505823236E+01 -0.11897483682E+02 -0.11414340832E+01  0.12052273460E+02  0.51100000000E-03 0.  1.
        -11    1    3    3    0    0  0.85447420974E+01 -0.26940489311E+02 -0.10655261579E+01  0.28283173939E+02  0.51100000000E-03 0. -1.
         12    1    3    3    0    0 -0.49635566966E+00 -0.57170748703E+01  0.88792770790E+00  0.58068691769E+01  0.00000000000E+00 0. -1.
</event>
<event>
 7    1  0.1519238E-008  0.4614232E+02  0.7816164E-02  0.1320468E+00
        -11   -1    0    0    0    0  0.00000000000E+00  0.00000000000E+00  0.45593999997E+02  0.45594000000E+02  0.51100000000E-03 0.  1.
         11   -1    0    0    0    0 -0.00000000000E+00 -0.00000000000E+00 -0.45593999997E+02  0.45594000000E+02  0.51100000000E-03 0. -1.
    9900012    2    1    2    0    0  0.25336073525E+02 -0.25920971685E+02 -0.26745092383E+02  0.46142319171E+02  0.10000012856E+02 0.  0.
        -12    1    1    2    0    0 -0.25336073525E+02  0.25920971685E+02  0.26745092383E+02  0.45045680829E+02  0.00000000000E+00 0.  1.
         11    1    3    3    0    0  0.79063184326E+01 -0.41934816369E+01 -0.94571987965E+01  0.13020513382E+02  0.51100000000E-03 0. -1.
        -11    1    3    3    0    0  0.46178151353E+01 -0.78240141297E+01 -0.35625770078E+01  0.97586561023E+01  0.51100000000E-03 0.  1.
         12    1    3    3    0    0  0.12811939957E+02 -0.13903475919E+02 -0.13725316578E+02  0.23363149686E+02  0.00000000000E+00 0. -1.
</event>
<event>
 7    1  0.1519238E-008  0.4614232E+02  0.7816164E-02  0.1320468E+00
        -11   -1    0    0    0    0  0.00000000000E+00  0.00000000000E+00  0.45593999997E+02  0.45594000000E+02  0.51100000000E-03 0.  1.
         11   -1    0    0    0    0 -0.00000000000E+00 -0.00000000000E+00 -0.45593999997E+02  0.45594000000E+02  0.51100000000E-03 0. -1.
    9900012    2    1    2    0    0  0.42173140929E+01  0.16564254440E+02 -0.41676771507E+02  0.46142317115E+02  0.99999941094E+01 0.  0.
        -12    1    1    2    0    0 -0.42173140929E+01 -0.16564254440E+02  0.41676771507E+02  0.45045682885E+02  0.00000000000E+00 0.  1.
         11    1    3    3    0    0  0.37492321311E+01  0.95140977393E+00 -0.54321822507E+01  0.66686225262E+01  0.51100000000E-03 0.  1.
        -11    1    3    3    0    0  0.51329756956E+00  0.95690893838E+01 -0.22901718767E+02  0.24825786368E+02  0.51100000000E-03 0. -1.
        -12    1    3    3    0    0 -0.45215607735E-01  0.60437552819E+01 -0.13342870490E+02  0.14647908221E+02  0.00000000000E+00 0.  1.
</event>
<event>
 7    1  0.1519238E-008  0.4614232E+02  0.7816164E-02  0.1320468E+00
        -11   -1    0    0    0    0  0.00000000000E+00  0.00000000000E+00  0.45593999997E+02  0.45594000000E+02  0.51100000000E-03 0.  1.
         11   -1    0    0    0    0 -0.00000000000E+00 -0.00000000000E+00 -0.45593999997E+02  0.45594000000E+02  0.51100000000E-03 0. -1.
    9900012    2    1    2    0    0  0.10370121249E+02 -0.41535855449E+01 -0.43638537109E+02  0.46142316427E+02  0.99999878325E+01 0.  0.
        -12    1    1    2    0    0 -0.10370121249E+02  0.41535855449E+01  0.43638537109E+02  0.45045683573E+02  0.00000000000E+00 0.  1.
         11    1    3    3    0    0  0.59891192277E+01 -0.33929129624E+01 -0.13576410275E+02  0.15221705677E+02  0.51100000000E-03 0. -1.
        -11    1    3    3    0    0  0.20165845460E+01 -0.26794292601E+01 -0.22809349643E+02  0.23054552388E+02  0.51100000000E-03 0.  1.
        -12    1    3    3    0    0  0.23644174748E+01  0.19187566776E+01 -0.72527771902E+01  0.78660583620E+01  0.00000000000E+00 0.  1.
</event>
<event>
 7    1  0.1519238E-008  0.4614232E+02  0.7816164E-02  0.1320468E+00
        -11   -1    0    0    0    0  0.00000000000E+00  0.00000000000E+00  0.45593999997E+02  0.45594000000E+02  0.51100000000E-03 0. -1.
         11   -1    0    0    0    0 -0.00000000000E+00 -0.00000000000E+00 -0.45593999997E+02  0.45594000000E+02  0.51100000000E-03 0.  1.
    9900012    2    1    2    0    0  0.21670399870E+02  0.39482921515E+02 -0.77856348397E+00  0.46142317821E+02  0.10000000547E+02 0.  0.
        -12    1    1    2    0    0 -0.21670399870E+02 -0.39482921515E+02  0.77856348397E+00  0.45045682179E+02  0.00000000000E+00 0.  1.
         11    1    3    3    0    0  0.16200837054E+02  0.28575634379E+02  0.26322898195E+00  0.32849707627E+02  0.51100000000E-03 0. -1.
        -11    1    3    3    0    0 -0.61825596064E+00  0.15560226746E+01  0.99826159200E+00  0.19493520626E+01  0.51100000000E-03 0.  1.
        -12    1    3    3    0    0  0.60878187769E+01  0.93512644608E+01 -0.20400540579E+01  0.11343258131E+02  0.00000000000E+00 0.  1.
</event>
<event>
 7    1  0.1519238E-008  0.4614232E+02  0.7816164E-02  0.1320468E+00
        -11   -1    0    0    0    0  0.00000000000E+00  0.00000000000E+00  0.45593999997E+02  0.45594000000E+02  0.51100000000E-03 0.  1.
         11   -1    0    0    0    0 -0.00000000000E+00 -0.00000000000E+00 -0.45593999997E+02  0.45594000000E+02  0.51100000000E-03 0. -1.
    9900012    2    1    2    0    0 -0.17306981668E+02  0.10662208389E+02 -0.40198249889E+02  0.46142316563E+02  0.99999890707E+01 0.  0.
        -12    1    1    2    0    0  0.17306981668E+02 -0.10662208389E+02  0.40198249889E+02  0.45045683437E+02  0.00000000000E+00 0.  1.
         11    1    3    3    0    0 -0.12233261306E+02  0.11359712811E+02 -0.31225133575E+02  0.35407693011E+02  0.51100000000E-03 0. -1.
        -11    1    3    3    0    0 -0.14620459450E+01 -0.15812958208E+01 -0.37264500276E+01  0.43040103262E+01  0.51100000000E-03 0.  1.
         12    1    3    3    0    0 -0.36116744171E+01  0.88379139905E+00 -0.52466662865E+01  0.64306132253E+01  0.00000000000E+00 0. -1.
</event>
<event>
 7    1  0.1519238E-008  0.4614232E+02  0.7816164E-02  0.1320468E+00
        -11   -1    0    0    0    0  0.00000000000E+00  0.00000000000E+00  0.45593999997E+02  0.45594000000E+02  0.51100000000E-03 0.  1.
         11   -1    0    0    0    0 -0.00000000000E+00 -0.00000000000E+00 -0.45593999997E+02  0.45594000000E+02  0.51100000000E-03 0. -1.
    9900012    2    1    2    0    0  0.12073792805E+02  0.41156692559E+02 -0.13764581539E+02  0.46142317410E+02  0.99999967962E+01 0.  0.
        -12    1    1    2    0    0 -0.12073792805E+02 -0.41156692559E+02  0.13764581539E+02  0.45045682590E+02  0.00000000000E+00 0.  1.
         11    1    3    3    0    0 -0.91736546398E+00  0.49398333746E+01 -0.88437225432E+00  0.51015318982E+01  0.51100000000E-03 0. -1.
        -11    1    3    3    0    0  0.17774643226E+00  0.23931283750E+01  0.54382657370E+00  0.24605700187E+01  0.51100000000E-03 0.  1.
         12    1    3    3    0    0  0.12813411837E+02  0.33823730809E+02 -0.13424035858E+02  0.38580215493E+02  0.00000000000E+00 0. -1.
</event>
<event>
 7    1  0.1519238E-008  0.4614232E+02  0.7816164E-02  0.1320468E+00
        -11   -1    0    0    0    0  0.00000000000E+00  0.00000000000E+00  0.45593999997E+02  0.45594000000E+02  0.51100000000E-03 0.  1.
         11   -1    0    0    0    0 -0.00000000000E+00 -0.00000000000E+00 -0.45593999997E+02  0.45594000000E+02  0.51100000000E-03 0. -1.
    9900012    2    1    2    0    0  0.13484210589E+02  0.39918213333E+02  0.15931910506E+02  0.46142318040E+02  0.10000002539E+02 0.  0.
        -12    1    1    2    0    0 -0.13484210589E+02 -0.39918213333E+02 -0.15931910506E+02  0.45045681960E+02  0.00000000000E+00 0.  1.
         11    1    3    3    0    0  0.30251305955E+01  0.37733300298E+01  0.13495480384E+00  0.48381450674E+01  0.51100000000E-03 0. -1.
        -11    1    3    3    0    0  0.86978467435E+00  0.47439220138E+01  0.44610036456E+01  0.65697698011E+01  0.51100000000E-03 0.  1.
        -12    1    3    3    0    0  0.95892953190E+01  0.31400961290E+02  0.11335952056E+02  0.34734403171E+02  0.00000000000E+00 0.  1.
</event>
<event>
 7    1  0.1519238E-008  0.4614232E+02  0.7816164E-02  0.1320468E+00
        -11   -1    0    0    0    0  0.00000000000E+00  0.00000000000E+00  0.45593999997E+02  0.45594000000E+02  0.51100000000E-03 0.  1.
         11   -1    0    0    0    0 -0.00000000000E+00 -0.00000000000E+00 -0.45593999997E+02  0.45594000000E+02  0.51100000000E-03 0. -1.
    9900012    2    1    2    0    0  0.44161626838E+01  0.23930821892E+02 -0.37906815273E+02  0.46142319037E+02  0.10000011636E+02 0.  0.
        -12    1    1    2    0    0 -0.44161626838E+01 -0.23930821892E+02  0.37906815273E+02  0.45045680963E+02  0.00000000000E+00 0.  1.
         11    1    3    3    0    0  0.56766874451E+01  0.11747926522E+02 -0.16451646497E+02  0.20997505343E+02  0.51100000000E-03 0. -1.
        -11    1    3    3    0    0 -0.30265731441E+01  0.79729291187E+01 -0.14610562714E+02  0.16917336871E+02  0.51100000000E-03 0.  1.
        -12    1    3    3    0    0  0.17660483829E+01  0.42099662510E+01 -0.68446060615E+01  0.82274768223E+01  0.00000000000E+00 0.  1.
</event>
<event>
 7    1  0.1519238E-008  0.4614230E+02  0.7816164E-02  0.1320468E+00
        -11   -1    0    0    0    0  0.00000000000E+00  0.00000000000E+00  0.45593999997E+02  0.45594000000E+02  0.51100000000E-03 0. -1.
         11   -1    0    0    0    0 -0.00000000000E+00 -0.00000000000E+00 -0.45593999997E+02  0.45594000000E+02  0.51100000000E-03 0.  1.
    9900012    2    1    2    0    0  0.34510599349E+02  0.26418820127E+02  0.11839736785E+02  0.46142302187E+02  0.99998579824E+01 0.  0.
        -12    1    1    2    0    0 -0.34510599349E+02 -0.26418820127E+02 -0.11839736785E+02  0.45045697813E+02  0.00000000000E+00 0.  1.
         11    1    3    3    0    0  0.10176688646E+02  0.33806699044E+01  0.35688233604E+01  0.11301788409E+02  0.51100000000E-03 0. -1.
        -11    1    3    3    0    0  0.22782788192E+02  0.22362236948E+02  0.87135991476E+01  0.33091568253E+02  0.51100000000E-03 0.  1.
        -12    1    3    3    0    0  0.15511225106E+01  0.67591327534E+00 -0.44268572339E+00  0.17489455247E+01  0.00000000000E+00 0.  1.
</event>
<event>
 7    1  0.1519238E-008  0.4614232E+02  0.7816164E-02  0.1320468E+00
        -11   -1    0    0    0    0  0.00000000000E+00  0.00000000000E+00  0.45593999997E+02  0.45594000000E+02  0.51100000000E-03 0. -1.
         11   -1    0    0    0    0 -0.00000000000E+00 -0.00000000000E+00 -0.45593999997E+02  0.45594000000E+02  0.51100000000E-03 0.  1.
    9900012    2    1    2    0    0 -0.12991548372E+02  0.22810337049E+02  0.36606306523E+02  0.46142317825E+02  0.10000000584E+02 0.  0.
        -12    1    1    2    0    0  0.12991548372E+02 -0.22810337049E+02 -0.36606306523E+02  0.45045682175E+02  0.00000000000E+00 0.  1.
         11    1    3    3    0    0 -0.86777908651E+01  0.13388926516E+02  0.22654395529E+02  0.27709006561E+02  0.51100000000E-03 0. -1.
        -11    1    3    3    0    0 -0.29031455866E+01  0.49251250670E+01  0.12076634018E+02  0.13361519400E+02  0.51100000000E-03 0.  1.
        -12    1    3    3    0    0 -0.14106119201E+01  0.44962854656E+01  0.18752769761E+01  0.50717918643E+01  0.00000000000E+00 0.  1.
</event>
<event>
 7    1  0.1519238E-008  0.4614232E+02  0.7816164E-02  0.1320468E+00
        -11   -1    0    0    0    0  0.00000000000E+00  0.00000000000E+00  0.45593999997E+02  0.45594000000E+02  0.51100000000E-03 0.  1.
         11   -1    0    0    0    0 -0.00000000000E+00 -0.00000000000E+00 -0.45593999997E+02  0.45594000000E+02  0.51100000000E-03 0. -1.
    9900012    2    1    2    0    0  0.38894089848E+02 -0.70356364418E+01 -0.21607013519E+02  0.46142318315E+02  0.10000005047E+02 0.  0.
        -12    1    1    2    0    0 -0.38894089848E+02  0.70356364418E+01  0.21607013519E+02  0.45045681685E+02  0.00000000000E+00 0.  1.
         11    1    3    3    0    0  0.89200283671E+01 -0.30633050551E+01 -0.44050338466E+01  0.10409374015E+02  0.51100000000E-03 0. -1.
        -11    1    3    3    0    0  0.19739740291E+02 -0.57623807963E+01 -0.13939965193E+02  0.24843208509E+02  0.51100000000E-03 0.  1.
        -12    1    3    3    0    0  0.10234321191E+02  0.17900494097E+01 -0.32620144797E+01  0.10889735791E+02  0.00000000000E+00 0.  1.
</event>
<event>
 7    1  0.1519238E-008  0.4614232E+02  0.7816164E-02  0.1320468E+00
        -11   -1    0    0    0    0  0.00000000000E+00  0.00000000000E+00  0.45593999997E+02  0.45594000000E+02  0.51100000000E-03 0. -1.
         11   -1    0    0    0    0 -0.00000000000E+00 -0.00000000000E+00 -0.45593999997E+02  0.45594000000E+02  0.51100000000E-03 0.  1.
    9900012    2    1    2    0    0  0.35131152352E+02  0.19484558499E+02 -0.20378113338E+02  0.46142318867E+02  0.10000010087E+02 0.  0.
        -12    1    1    2    0    0 -0.35131152352E+02 -0.19484558499E+02  0.20378113338E+02  0.45045681133E+02  0.00000000000E+00 0.  1.
         11    1    3    3    0    0  0.11249862082E+02  0.38785988372E+01 -0.55398810509E+01  0.13126050743E+02  0.51100000000E-03 0. -1.
        -11    1    3    3    0    0  0.21295971913E+02  0.10752039636E+02 -0.10765456475E+02  0.26172883475E+02  0.51100000000E-03 0.  1.
        -12    1    3    3    0    0  0.25853183577E+01  0.48539200262E+01 -0.40727758126E+01  0.68433846488E+01  0.00000000000E+00 0.  1.
</event>
<event>
 7    1  0.1519238E-008  0.4614232E+02  0.7816164E-02  0.1320468E+00
        -11   -1    0    0    0    0  0.00000000000E+00  0.00000000000E+00  0.45593999997E+02  0.45594000000E+02  0.51100000000E-03 0. -1.
         11   -1    0    0    0    0 -0.00000000000E+00 -0.00000000000E+00 -0.45593999997E+02  0.45594000000E+02  0.51100000000E-03 0.  1.
    9900012    2    1    2    0    0  0.14676334794E+02 -0.15843132549E+02  0.39531175093E+02  0.46142318118E+02  0.10000003256E+02 0.  0.
        -12    1    1    2    0    0 -0.14676334794E+02  0.15843132549E+02 -0.39531175093E+02  0.45045681882E+02  0.00000000000E+00 0.  1.
         11    1    3    3    0    0  0.33051931350E+00 -0.94541935874E+00  0.46292616778E+01  0.47363619713E+01  0.51100000000E-03 0. -1.
        -11    1    3    3    0    0  0.10915344493E+02 -0.10203586131E+02  0.17251475218E+02  0.22822605302E+02  0.51100000000E-03 0.  1.
        -12    1    3    3    0    0  0.34304709874E+01 -0.46941270599E+01  0.17650438198E+02  0.18583350845E+02  0.00000000000E+00 0.  1.
</event>
<event>
 7    1  0.1519238E-008  0.4614232E+02  0.7816164E-02  0.1320468E+00
        -11   -1    0    0    0    0  0.00000000000E+00  0.00000000000E+00  0.45593999997E+02  0.45594000000E+02  0.51100000000E-03 0.  1.
         11   -1    0    0    0    0 -0.00000000000E+00 -0.00000000000E+00 -0.45593999997E+02  0.45594000000E+02  0.51100000000E-03 0. -1.
    9900012    2    1    2    0    0 -0.19043796237E+02 -0.18483060102E+02 -0.36398129394E+02  0.46142317529E+02  0.99999978876E+01 0.  0.
        -12    1    1    2    0    0  0.19043796237E+02  0.18483060102E+02  0.36398129394E+02  0.45045682471E+02  0.00000000000E+00 0.  1.
         11    1    3    3    0    0  0.42234563180E+00 -0.30085374456E+00 -0.27081362107E+01  0.27573340032E+01  0.51100000000E-03 0. -1.
        -11    1    3    3    0    0 -0.90217115549E+01 -0.59454008226E+01 -0.98254874460E+01  0.14604084159E+02  0.51100000000E-03 0.  1.
         12    1    3    3    0    0 -0.10444430314E+02 -0.12236805535E+02 -0.23864505737E+02  0.28780899367E+02  0.00000000000E+00 0. -1.
</event>
<event>
 7    1  0.1519238E-008  0.4614233E+02  0.7816164E-02  0.1320468E+00
        -11   -1    0    0    0    0  0.00000000000E+00  0.00000000000E+00  0.45593999997E+02  0.45594000000E+02  0.51100000000E-03 0.  1.
         11   -1    0    0    0    0 -0.00000000000E+00 -0.00000000000E+00 -0.45593999997E+02  0.45594000000E+02  0.51100000000E-03 0. -1.
    9900012    2    1    2    0    0 -0.33150306698E+02 -0.21762884987E+02 -0.21366954823E+02  0.46142325895E+02  0.10000074173E+02 0.  0.
        -12    1    1    2    0    0  0.33150306698E+02  0.21762884987E+02  0.21366954823E+02  0.45045674105E+02  0.00000000000E+00 0.  1.
         11    1    3    3    0    0 -0.71720279446E+01 -0.56199722559E+01 -0.20417483433E+01  0.93376019166E+01  0.51100000000E-03 0. -1.
        -11    1    3    3    0    0 -0.87315436669E+01 -0.89923451089E+01 -0.93453913849E+01  0.15634527999E+02  0.51100000000E-03 0.  1.
        -12    1    3    3    0    0 -0.17246735086E+02 -0.71505676226E+01 -0.99798150952E+01  0.21170195979E+02  0.00000000000E+00 0.  1.
</event>
<event>
 7    1  0.1519238E-008  0.4614232E+02  0.7816164E-02  0.1320468E+00
        -11   -1    0    0    0    0  0.00000000000E+00  0.00000000000E+00  0.45593999997E+02  0.45594000000E+02  0.51100000000E-03 0. -1.
         11   -1    0    0    0    0 -0.00000000000E+00 -0.00000000000E+00 -0.45593999997E+02  0.45594000000E+02  0.51100000000E-03 0.  1.
    9900012    2    1    2    0    0  0.40438279685E+02  0.17702346838E+02 -0.89713991502E+01  0.46142317075E+02  0.99999937413E+01 0.  0.
        -12    1    1    2    0    0 -0.40438279685E+02 -0.17702346838E+02  0.89713991502E+01  0.45045682925E+02  0.00000000000E+00 0.  1.
         11    1    3    3    0    0  0.99453828712E+01  0.19941946164E+01 -0.13539228423E+00  0.10144248812E+02  0.51100000000E-03 0. -1.
        -11    1    3    3    0    0  0.17223894508E+02  0.11370401108E+02 -0.75610106094E+01  0.21979932782E+02  0.51100000000E-03 0.  1.
        -12    1    3    3    0    0  0.13269002306E+02  0.43377511132E+01 -0.12749962566E+01  0.14018135481E+02  0.00000000000E+00 0.  1.
</event>
<event>
 7    1  0.1519238E-008  0.4614232E+02  0.7816164E-02  0.1320468E+00
        -11   -1    0    0    0    0  0.00000000000E+00  0.00000000000E+00  0.45593999997E+02  0.45594000000E+02  0.51100000000E-03 0.  1.
         11   -1    0    0    0    0 -0.00000000000E+00 -0.00000000000E+00 -0.45593999997E+02  0.45594000000E+02  0.51100000000E-03 0. -1.
    9900012    2    1    2    0    0 -0.42702621312E+02  0.13100977943E+02 -0.58278619657E+01  0.46142318020E+02  0.10000002362E+02 0.  0.
        -12    1    1    2    0    0  0.42702621312E+02 -0.13100977943E+02  0.58278619657E+01  0.45045681980E+02  0.00000000000E+00 0.  1.
         11    1    3    3    0    0 -0.31889102311E+02  0.58687323587E+01 -0.23599190161E+01  0.32510399624E+02  0.51100000000E-03 0. -1.
        -11    1    3    3    0    0 -0.16292564596E+01  0.13083342801E+01  0.21131756673E+00  0.21002072695E+01  0.51100000000E-03 0.  1.
         12    1    3    3    0    0 -0.91842625412E+01  0.59239113041E+01 -0.36792605164E+01  0.11531711127E+02  0.00000000000E+00 0. -1.
</event>
<event>
 7    1  0.1519238E-008  0.4614232E+02  0.7816164E-02  0.1320468E+00
        -11   -1    0    0    0    0  0.00000000000E+00  0.00000000000E+00  0.45593999997E+02  0.45594000000E+02  0.51100000000E-03 0.  1.
         11   -1    0    0    0    0 -0.00000000000E+00 -0.00000000000E+00 -0.45593999997E+02  0.45594000000E+02  0.51100000000E-03 0. -1.
    9900012    2    1    2    0    0  0.13625038238E+02  0.65162159201E+01 -0.42438317099E+02  0.46142317686E+02  0.99999993159E+01 0.  0.
        -12    1    1    2    0    0 -0.13625038238E+02 -0.65162159201E+01  0.42438317099E+02  0.45045682314E+02  0.00000000000E+00 0.  1.
         11    1    3    3    0    0  0.57367940691E+01 -0.76578998172E+00 -0.18555504085E+02  0.19437180160E+02  0.51100000000E-03 0. -1.
        -11    1    3    3    0    0  0.46617949126E+01  0.42963938649E+01 -0.79022116607E+01  0.10130956591E+02  0.51100000000E-03 0.  1.
         12    1    3    3    0    0  0.32264492564E+01  0.29856120369E+01 -0.15980601354E+02  0.16574180935E+02  0.00000000000E+00 0. -1.
</event>
<event>
 7    1  0.1519238E-008  0.4614232E+02  0.7816164E-02  0.1320468E+00
        -11   -1    0    0    0    0  0.00000000000E+00  0.00000000000E+00  0.45593999997E+02  0.45594000000E+02  0.51100000000E-03 0. -1.
         11   -1    0    0    0    0 -0.00000000000E+00 -0.00000000000E+00 -0.45593999997E+02  0.45594000000E+02  0.51100000000E-03 0.  1.
    9900012    2    1    2    0    0 -0.41277825086E+02  0.76099849713E+01  0.16350620904E+02  0.46142317420E+02  0.99999968938E+01 0.  0.
        -12    1    1    2    0    0  0.41277825086E+02 -0.76099849713E+01 -0.16350620904E+02  0.45045682580E+02  0.00000000000E+00 0.  1.
         11    1    3    3    0    0 -0.37812925372E+02  0.79197126824E+01  0.13592611039E+02  0.40954831819E+02  0.51100000000E-03 0. -1.
        -11    1    3    3    0    0 -0.73348974274E-01 -0.55017824250E+00  0.14358534468E+01  0.15393997376E+01  0.51100000000E-03 0.  1.
         12    1    3    3    0    0 -0.33915507396E+01  0.24045053142E+00  0.13221564184E+01  0.36480858642E+01  0.00000000000E+00 0. -1.
</event>
<event>
 7    1  0.1519238E-008  0.4614232E+02  0.7816164E-02  0.1320468E+00
        -11   -1    0    0    0    0  0.00000000000E+00  0.00000000000E+00  0.45593999997E+02  0.45594000000E+02  0.51100000000E-03 0. -1.
         11   -1    0    0    0    0 -0.00000000000E+00 -0.00000000000E+00 -0.45593999997E+02  0.45594000000E+02  0.51100000000E-03 0.  1.
    9900012    2    1    2    0    0  0.22123595445E+02 -0.10839391307E+02  0.37711638883E+02  0.46142316671E+02  0.99999900586E+01 0.  0.
        -12    1    1    2    0    0 -0.22123595445E+02  0.10839391307E+02 -0.37711638883E+02  0.45045683329E+02  0.00000000000E+00 0.  1.
         11    1    3    3    0    0  0.81003886670E+01 -0.55240042114E+01  0.11511906775E+02  0.15121339787E+02  0.51100000000E-03 0. -1.
        -11    1    3    3    0    0  0.67078827091E+01 -0.15715817201E+01  0.57217440500E+01  0.89556638378E+01  0.51100000000E-03 0.  1.
        -12    1    3    3    0    0  0.73153240688E+01 -0.37438053752E+01  0.20477988058E+02  0.22065313046E+02  0.00000000000E+00 0.  1.
</event>
<event>
 7    1  0.1519238E-008  0.4614232E+02  0.7816164E-02  0.1320468E+00
        -11   -1    0    0    0    0  0.00000000000E+00  0.00000000000E+00  0.45593999997E+02  0.45594000000E+02  0.51100000000E-03 0.  1.
         11   -1    0    0    0    0 -0.00000000000E+00 -0.00000000000E+00 -0.45593999997E+02  0.45594000000E+02  0.51100000000E-03 0. -1.
    9900012    2    1    2    0    0 -0.15298860034E+02  0.77086981764E+00 -0.42361115297E+02  0.46142318211E+02  0.10000004104E+02 0.  0.
        -12    1    1    2    0    0  0.15298860034E+02 -0.77086981764E+00  0.42361115297E+02  0.45045681789E+02  0.00000000000E+00 0.  1.
         11    1    3    3    0    0 -0.19356139015E+01 -0.28647157987E+01 -0.11142315939E+02  0.11666379152E+02  0.51100000000E-03 0. -1.
        -11    1    3    3    0    0 -0.45854288763E+01  0.12147978053E+01 -0.59054293223E+01  0.75746938836E+01  0.51100000000E-03 0.  1.
         12    1    3    3    0    0 -0.87778172562E+01  0.24207878110E+01 -0.25313370036E+02  0.26901245175E+02  0.00000000000E+00 0. -1.
</event>
<event>
 7    1  0.1519238E-008  0.4614232E+02  0.7816164E-02  0.1320468E+00
        -11   -1    0    0    0    0  0.00000000000E+00  0.00000000000E+00  0.45593999997E+02  0.45594000000E+02  0.51100000000E-03 0. -1.
         11   -1    0    0    0    0 -0.00000000000E+00 -0.00000000000E+00 -0.45593999997E+02  0.45594000000E+02  0.51100000000E-03 0.  1.
    9900012    2    1    2    0    0 -0.29208955833E+02  0.34015595387E+02 -0.43461903559E+01  0.46142320951E+02  0.10000029088E+02 0.  0.
        -12    1    1    2    0    0  0.29208955833E+02 -0.34015595387E+02  0.43461903559E+01  0.45045679049E+02  0.00000000000E+00 0.  1.
         11    1    3    3    0    0 -0.13786787735E+02  0.17377215898E+02 -0.20812057925E+01  0.22279465124E+02  0.51100000000E-03 0. -1.
        -11    1    3    3    0    0 -0.23535467597E+01  0.51059110526E+01 -0.30870558540E+01  0.64140021931E+01  0.51100000000E-03 0.  1.
         12    1    3    3    0    0 -0.13068621338E+02  0.11532468436E+02  0.82207129058E+00  0.17448853633E+02  0.00000000000E+00 0. -1.
</event>
<event>
 7    1  0.1519238E-008  0.4614232E+02  0.7816164E-02  0.1320468E+00
        -11   -1    0    0    0    0  0.00000000000E+00  0.00000000000E+00  0.45593999997E+02  0.45594000000E+02  0.51100000000E-03 0.  1.
         11   -1    0    0    0    0 -0.00000000000E+00 -0.00000000000E+00 -0.45593999997E+02  0.45594000000E+02  0.51100000000E-03 0. -1.
    9900012    2    1    2    0    0  0.26699561620E+01  0.30151054465E+02 -0.33360136738E+02  0.46142317916E+02  0.10000001413E+02 0.  0.
        -12    1    1    2    0    0 -0.26699561620E+01 -0.30151054465E+02  0.33360136738E+02  0.45045682084E+02  0.00000000000E+00 0.  1.
         11    1    3    3    0    0 -0.60211376129E+00  0.45693096024E+01 -0.66384290311E+01  0.80814523129E+01  0.51100000000E-03 0. -1.
        -11    1    3    3    0    0  0.50716704855E+01  0.10585434350E+02 -0.14334426403E+02  0.18526981472E+02  0.51100000000E-03 0.  1.
        -12    1    3    3    0    0 -0.17996005622E+01  0.14996310512E+02 -0.12387281304E+02  0.19533884132E+02  0.00000000000E+00 0.  1.
</event>
<event>
 7    1  0.1519238E-008  0.4614232E+02  0.7816164E-02  0.1320468E+00
        -11   -1    0    0    0    0  0.00000000000E+00  0.00000000000E+00  0.45593999997E+02  0.45594000000E+02  0.51100000000E-03 0.  1.
         11   -1    0    0    0    0 -0.00000000000E+00 -0.00000000000E+00 -0.45593999997E+02  0.45594000000E+02  0.51100000000E-03 0. -1.
    9900012    2    1    2    0    0 -0.23700239434E+02 -0.33007160915E+01 -0.38164345047E+02  0.46142319754E+02  0.10000018177E+02 0.  0.
        -12    1    1    2    0    0  0.23700239434E+02  0.33007160915E+01  0.38164345047E+02  0.45045680246E+02  0.00000000000E+00 0.  1.
         11    1    3    3    0    0 -0.61375924369E+01  0.11577886622E+00 -0.13311325681E+02  0.14658609665E+02  0.51100000000E-03 0. -1.
        -11    1    3    3    0    0 -0.86567629773E+01 -0.72950473075E+00 -0.63069518941E+01  0.10735425695E+02  0.51100000000E-03 0.  1.
        -12    1    3    3    0    0 -0.89058840200E+01 -0.26869902270E+01 -0.18546067472E+02  0.20748284395E+02  0.00000000000E+00 0.  1.
</event>
<event>
 7    1  0.1519238E-008  0.4614232E+02  0.7816164E-02  0.1320468E+00
        -11   -1    0    0    0    0  0.00000000000E+00  0.00000000000E+00  0.45593999997E+02  0.45594000000E+02  0.51100000000E-03 0.  1.
         11   -1    0    0    0    0 -0.00000000000E+00 -0.00000000000E+00 -0.45593999997E+02  0.45594000000E+02  0.51100000000E-03 0. -1.
    9900012    2    1    2    0    0 -0.21357466919E+02 -0.28355187734E+02  0.27730045737E+02  0.46142317619E+02  0.99999987003E+01 0.  0.
        -12    1    1    2    0    0  0.21357466919E+02  0.28355187734E+02 -0.27730045737E+02  0.45045682381E+02  0.00000000000E+00 0.  1.
         11    1    3    3    0    0 -0.10747535059E+02 -0.15348747989E+02  0.16141524685E+02  0.24731405017E+02  0.51100000000E-03 0. -1.
        -11    1    3    3    0    0  0.46789263677E+00 -0.31083942876E+01  0.18406360942E+01  0.36426611233E+01  0.51100000000E-03 0.  1.
        -12    1    3    3    0    0 -0.11077824497E+02 -0.98980454574E+01  0.97478849571E+01  0.17768251478E+02  0.00000000000E+00 0.  1.
</event>
<event>
 7    1  0.1519238E-008  0.4614232E+02  0.7816164E-02  0.1320468E+00
        -11   -1    0    0    0    0  0.00000000000E+00  0.00000000000E+00  0.45593999997E+02  0.45594000000E+02  0.51100000000E-03 0. -1.
         11   -1    0    0    0    0 -0.00000000000E+00 -0.00000000000E+00 -0.45593999997E+02  0.45594000000E+02  0.51100000000E-03 0.  1.
    9900012    2    1    2    0    0 -0.49513957704E+01 -0.44767394052E+02  0.69112511320E+00  0.46142317141E+02  0.99999943467E+01 0.  0.
        -12    1    1    2    0    0  0.49513957704E+01  0.44767394052E+02 -0.69112511320E+00  0.45045682859E+02  0.00000000000E+00 0.  1.
         11    1    3    3    0    0 -0.70832492019E+00 -0.52975431539E+01 -0.17297259605E+00  0.53474860860E+01  0.51100000000E-03 0. -1.
        -11    1    3    3    0    0  0.24015053748E+01 -0.19792538935E+02  0.16926139274E+01  0.20009416976E+02  0.51100000000E-03 0.  1.
        -12    1    3    3    0    0 -0.66445762250E+01 -0.19677311964E+02 -0.82851621815E+00  0.20785414079E+02  0.00000000000E+00 0.  1.
</event>
<event>
 7    1  0.1519238E-008  0.4614232E+02  0.7816164E-02  0.1320468E+00
        -11   -1    0    0    0    0  0.00000000000E+00  0.00000000000E+00  0.45593999997E+02  0.45594000000E+02  0.51100000000E-03 0.  1.
         11   -1    0    0    0    0 -0.00000000000E+00 -0.00000000000E+00 -0.45593999997E+02  0.45594000000E+02  0.51100000000E-03 0. -1.
    9900012    2    1    2    0    0  0.11701202835E+02  0.13634826014E+02 -0.41307225110E+02  0.46142317915E+02  0.10000001401E+02 0.  0.
        -12    1    1    2    0    0 -0.11701202835E+02 -0.13634826014E+02  0.41307225110E+02  0.45045682085E+02  0.00000000000E+00 0.  1.
         11    1    3    3    0    0  0.47977860064E+01  0.50762187980E+01 -0.10692479706E+02  0.12771682363E+02  0.51100000000E-03 0. -1.
        -11    1    3    3    0    0  0.38325763818E+00  0.61654888075E+01 -0.16980831816E+02  0.18069554175E+02  0.51100000000E-03 0.  1.
         12    1    3    3    0    0  0.65201591903E+01  0.23931184087E+01 -0.13633913588E+02  0.15301081377E+02  0.00000000000E+00 0. -1.
</event>
<event>
 7    1  0.1519238E-008  0.4614232E+02  0.7816164E-02  0.1320468E+00
        -11   -1    0    0    0    0  0.00000000000E+00  0.00000000000E+00  0.45593999997E+02  0.45594000000E+02  0.51100000000E-03 0.  1.
         11   -1    0    0    0    0 -0.00000000000E+00 -0.00000000000E+00 -0.45593999997E+02  0.45594000000E+02  0.51100000000E-03 0. -1.
    9900012    2    1    2    0    0 -0.24348848365E+02  0.28551231735E+02 -0.24921361075E+02  0.46142317764E+02  0.10000000026E+02 0.  0.
        -12    1    1    2    0    0  0.24348848365E+02 -0.28551231735E+02  0.24921361075E+02  0.45045682236E+02  0.00000000000E+00 0.  1.
         11    1    3    3    0    0 -0.21513905559E+02  0.23714081287E+02 -0.23899495862E+02  0.39954870622E+02  0.51100000000E-03 0. -1.
        -11    1    3    3    0    0 -0.78922825589E+00  0.34409741163E+01 -0.61006938382E-01  0.35308506364E+01  0.51100000000E-03 0.  1.
         12    1    3    3    0    0 -0.20457145501E+01  0.13961763314E+01 -0.96085827417E+00  0.26565965053E+01  0.00000000000E+00 0. -1.
</event>
<event>
 7    1  0.1519238E-008  0.4614232E+02  0.7816164E-02  0.1320468E+00
        -11   -1    0    0    0    0  0.00000000000E+00  0.00000000000E+00  0.45593999997E+02  0.45594000000E+02  0.51100000000E-03 0.  1.
         11   -1    0    0    0    0 -0.00000000000E+00 -0.00000000000E+00 -0.45593999997E+02  0.45594000000E+02  0.51100000000E-03 0. -1.
    9900012    2    1    2    0    0 -0.40769896428E+02  0.41870850248E+01 -0.18692172979E+02  0.46142318005E+02  0.10000002223E+02 0.  0.
        -12    1    1    2    0    0  0.40769896428E+02 -0.41870850248E+01  0.18692172979E+02  0.45045681995E+02  0.00000000000E+00 0.  1.
         11    1    3    3    0    0 -0.13395449302E+02  0.21719670183E+01 -0.48222199531E+01  0.14401711991E+02  0.51100000000E-03 0. -1.
        -11    1    3    3    0    0 -0.23850524951E+02  0.86375800889E+00 -0.87504199937E+01  0.25419745645E+02  0.51100000000E-03 0.  1.
        -12    1    3    3    0    0 -0.35239221744E+01  0.11513599976E+01 -0.51195330318E+01  0.63208603686E+01  0.00000000000E+00 0.  1.
</event>
<event>
 7    1  0.1519238E-008  0.4614232E+02  0.7816164E-02  0.1320468E+00
        -11   -1    0    0    0    0  0.00000000000E+00  0.00000000000E+00  0.45593999997E+02  0.45594000000E+02  0.51100000000E-03 0. -1.
         11   -1    0    0    0    0 -0.00000000000E+00 -0.00000000000E+00 -0.45593999997E+02  0.45594000000E+02  0.51100000000E-03 0.  1.
    9900012    2    1    2    0    0  0.22979744915E+01  0.13067140247E+02  0.43047445494E+02  0.46142318691E+02  0.10000008483E+02 0.  0.
        -12    1    1    2    0    0 -0.22979744915E+01 -0.13067140247E+02 -0.43047445494E+02  0.45045681309E+02  0.00000000000E+00 0.  1.
         11    1    3    3    0    0 -0.61006865663E+00  0.96036151337E+01  0.26387806857E+02  0.28087683393E+02  0.51100000000E-03 0. -1.
        -11    1    3    3    0    0  0.86166602237E+00  0.25754431215E+01  0.15076601834E+02  0.15319246024E+02  0.51100000000E-03 0.  1.
        -12    1    3    3    0    0  0.20463771258E+01  0.88808199206E+00  0.15830368026E+01  0.27353892747E+01  0.00000000000E+00 0.  1.
</event>
<event>
 7    1  0.1519238E-008  0.4614232E+02  0.7816164E-02  0.1320468E+00
        -11   -1    0    0    0    0  0.00000000000E+00  0.00000000000E+00  0.45593999997E+02  0.45594000000E+02  0.51100000000E-03 0. -1.
         11   -1    0    0    0    0 -0.00000000000E+00 -0.00000000000E+00 -0.45593999997E+02  0.45594000000E+02  0.51100000000E-03 0.  1.
    9900012    2    1    2    0    0  0.11294101532E+02 -0.28140542146E+02  0.33311659573E+02  0.46142317574E+02  0.99999982979E+01 0.  0.
        -12    1    1    2    0    0 -0.11294101532E+02  0.28140542146E+02 -0.33311659573E+02  0.45045682426E+02  0.00000000000E+00 0.  1.
         11    1    3    3    0    0  0.76970497739E+01 -0.14095683830E+02  0.12043202882E+02  0.20074152878E+02  0.51100000000E-03 0. -1.
        -11    1    3    3    0    0  0.34355758923E+01 -0.13993084535E+02  0.21436833148E+02  0.25829196894E+02  0.51100000000E-03 0.  1.
        -12    1    3    3    0    0  0.16147586538E+00 -0.51773780552E-01 -0.16837645654E+00  0.23896780237E+00  0.00000000000E+00 0.  1.
</event>
<event>
 7    1  0.1519238E-008  0.4614232E+02  0.7816164E-02  0.1320468E+00
        -11   -1    0    0    0    0  0.00000000000E+00  0.00000000000E+00  0.45593999997E+02  0.45594000000E+02  0.51100000000E-03 0.  1.
         11   -1    0    0    0    0 -0.00000000000E+00 -0.00000000000E+00 -0.45593999997E+02  0.45594000000E+02  0.51100000000E-03 0. -1.
    9900012    2    1    2    0    0 -0.42312897556E+02  0.12816666574E+02 -0.86293253481E+01  0.46142317658E+02  0.99999990607E+01 0.  0.
        -12    1    1    2    0    0  0.42312897556E+02 -0.12816666574E+02  0.86293253481E+01  0.45045682342E+02  0.00000000000E+00 0.  1.
         11    1    3    3    0    0 -0.11042857555E+02  0.50250662254E+01 -0.32606577399E+01  0.12562956766E+02  0.51100000000E-03 0. -1.
        -11    1    3    3    0    0 -0.13579147822E+02  0.69384460468E+01 -0.71077497386E+00  0.15265663773E+02  0.51100000000E-03 0.  1.
         12    1    3    3    0    0 -0.17690892179E+02  0.85315430222E+00 -0.46578926344E+01  0.18313697118E+02  0.00000000000E+00 0. -1.
</event>
<event>
 7    1  0.1519238E-008  0.4614230E+02  0.7816164E-02  0.1320468E+00
        -11   -1    0    0    0    0  0.00000000000E+00  0.00000000000E+00  0.45593999997E+02  0.45594000000E+02  0.51100000000E-03 0.  1.
         11   -1    0    0    0    0 -0.00000000000E+00 -0.00000000000E+00 -0.45593999997E+02  0.45594000000E+02  0.51100000000E-03 0. -1.
    9900012    2    1    2    0    0 -0.15789749067E+02  0.12704788629E+01 -0.42168524101E+02  0.46142304124E+02  0.99998756434E+01 0.  0.
        -12    1    1    2    0    0  0.15789749067E+02 -0.12704788629E+01  0.42168524101E+02  0.45045695876E+02  0.00000000000E+00 0.  1.
         11    1    3    3    0    0 -0.12767137102E+02 -0.11827477752E+01 -0.32766557360E+02  0.35185877331E+02  0.51100000000E-03 0. -1.
        -11    1    3    3    0    0  0.37599524339E+00  0.23961328820E+00 -0.48062651624E+01  0.48269008715E+01  0.51100000000E-03 0.  1.
         12    1    3    3    0    0 -0.33986072090E+01  0.22136133498E+01 -0.45957015785E+01  0.61295259215E+01  0.00000000000E+00 0. -1.
</event>
<event>
 7    1  0.1519238E-008  0.4614232E+02  0.7816164E-02  0.1320468E+00
        -11   -1    0    0    0    0  0.00000000000E+00  0.00000000000E+00  0.45593999997E+02  0.45594000000E+02  0.51100000000E-03 0.  1.
         11   -1    0    0    0    0 -0.00000000000E+00 -0.00000000000E+00 -0.45593999997E+02  0.45594000000E+02  0.51100000000E-03 0. -1.
    9900012    2    1    2    0    0  0.42315718246E+02  0.14216450548E+02  0.60320725744E+01  0.46142319004E+02  0.10000011336E+02 0.  0.
        -12    1    1    2    0    0 -0.42315718246E+02 -0.14216450548E+02 -0.60320725744E+01  0.45045680996E+02  0.00000000000E+00 0.  1.
         11    1    3    3    0    0  0.15242598988E+02  0.48702467645E+01  0.35296541168E+01  0.16386414675E+02  0.51100000000E-03 0. -1.
        -11    1    3    3    0    0  0.12341080832E+02  0.23175859654E+01 -0.22467468489E+01  0.12756227988E+02  0.51100000000E-03 0.  1.
        -12    1    3    3    0    0  0.14732038426E+02  0.70286178185E+01  0.47491653065E+01  0.16999676342E+02  0.00000000000E+00 0.  1.
</event>
<event>
 7    1  0.1519238E-008  0.4614232E+02  0.7816164E-02  0.1320468E+00
        -11   -1    0    0    0    0  0.00000000000E+00  0.00000000000E+00  0.45593999997E+02  0.45594000000E+02  0.51100000000E-03 0.  1.
         11   -1    0    0    0    0 -0.00000000000E+00 -0.00000000000E+00 -0.45593999997E+02  0.45594000000E+02  0.51100000000E-03 0. -1.
    9900012    2    1    2    0    0 -0.12337051656E+02  0.26083513470E+02 -0.34591341921E+02  0.46142318138E+02  0.10000003436E+02 0.  0.
        -12    1    1    2    0    0  0.12337051656E+02 -0.26083513470E+02  0.34591341921E+02  0.45045681862E+02  0.00000000000E+00 0.  1.
         11    1    3    3    0    0 -0.56842766539E+01  0.13530900043E+02 -0.14259620341E+02  0.20462967272E+02  0.51100000000E-03 0. -1.
        -11    1    3    3    0    0 -0.51343087316E+01  0.55663054038E+01 -0.59933292660E+01  0.96573742783E+01  0.51100000000E-03 0.  1.
        -12    1    3    3    0    0 -0.15184662702E+01  0.69863080240E+01 -0.14338392315E+02  0.16021976588E+02  0.00000000000E+00 0.  1.
</event>
<event>
 7    1  0.1519238E-008  0.4614232E+02  0.7816164E-02  0.1320468E+00
        -11   -1    0    0    0    0  0.00000000000E+00  0.00000000000E+00  0.45593999997E+02  0.45594000000E+02  0.51100000000E-03 0.  1.
         11   -1    0    0    0    0 -0.00000000000E+00 -0.00000000000E+00 -0.45593999997E+02  0.45594000000E+02  0.51100000000E-03 0. -1.
    9900012    2    1    2    0    0 -0.96358041038E+01  0.34295574802E+02 -0.27569516258E+02  0.46142318759E+02  0.10000009103E+02 0.  0.
        -12    1    1    2    0    0  0.96358041038E+01 -0.34295574802E+02  0.27569516258E+02  0.45045681241E+02  0.00000000000E+00 0.  1.
         11    1    3    3    0    0 -0.72910637890E+00  0.15511823789E+02 -0.85573162629E+01  0.17730649600E+02  0.51100000000E-03 0. -1.
        -11    1    3    3    0    0 -0.82499520899E+01  0.17963459119E+02 -0.18910302845E+02  0.27355934036E+02  0.51100000000E-03 0.  1.
        -12    1    3    3    0    0 -0.65674563500E+00  0.82029189486E+00 -0.10189714961E+00  0.10557351235E+01  0.00000000000E+00 0.  1.
</event>
<event>
 7    1  0.1519238E-008  0.4614232E+02  0.7816164E-02  0.1320468E+00
        -11   -1    0    0    0    0  0.00000000000E+00  0.00000000000E+00  0.45593999997E+02  0.45594000000E+02  0.51100000000E-03 0.  1.
         11   -1    0    0    0    0 -0.00000000000E+00 -0.00000000000E+00 -0.45593999997E+02  0.45594000000E+02  0.51100000000E-03 0. -1.
    9900012    2    1    2    0    0 -0.49607423564E+01 -0.37626477961E+02 -0.24264226485E+02  0.46142317683E+02  0.99999992836E+01 0.  0.
        -12    1    1    2    0    0  0.49607423564E+01  0.37626477961E+02  0.24264226485E+02  0.45045682317E+02  0.00000000000E+00 0.  1.
         11    1    3    3    0    0 -0.17211637236E+01 -0.25998815631E+02 -0.20449883422E+02  0.33122478032E+02  0.51100000000E-03 0. -1.
        -11    1    3    3    0    0 -0.66299509264E+00 -0.62362446727E+01 -0.78491327023E+00  0.63203163856E+01  0.51100000000E-03 0.  1.
        -12    1    3    3    0    0 -0.25765835401E+01 -0.53914176579E+01 -0.30294297931E+01  0.66995232646E+01  0.00000000000E+00 0.  1.
</event>
<event>
 7    1  0.1519238E-008  0.4614232E+02  0.7816164E-02  0.1320468E+00
        -11   -1    0    0    0    0  0.00000000000E+00  0.00000000000E+00  0.45593999997E+02  0.45594000000E+02  0.51100000000E-03 0. -1.
         11   -1    0    0    0    0 -0.00000000000E+00 -0.00000000000E+00 -0.45593999997E+02  0.45594000000E+02  0.51100000000E-03 0.  1.
    9900012    2    1    2    0    0 -0.29469363593E+02  0.17137672955E+01  0.34025477958E+02  0.46142317196E+02  0.99999948507E+01 0.  0.
        -12    1    1    2    0    0  0.29469363593E+02 -0.17137672955E+01 -0.34025477958E+02  0.45045682804E+02  0.00000000000E+00 0.  1.
         11    1    3    3    0    0 -0.20687475685E+02 -0.89653983024E+00  0.25065518423E+02  0.32512392221E+02  0.51100000000E-03 0. -1.
        -11    1    3    3    0    0 -0.57667973849E+01  0.31647029222E+01  0.37146871549E+01  0.75544819534E+01  0.51100000000E-03 0.  1.
        -12    1    3    3    0    0 -0.30150905239E+01 -0.55439579649E+00  0.52452723802E+01  0.60754430216E+01  0.00000000000E+00 0.  1.
</event>
<event>
 7    1  0.1519238E-008  0.4614232E+02  0.7816164E-02  0.1320468E+00
        -11   -1    0    0    0    0  0.00000000000E+00  0.00000000000E+00  0.45593999997E+02  0.45594000000E+02  0.51100000000E-03 0.  1.
         11   -1    0    0    0    0 -0.00000000000E+00 -0.00000000000E+00 -0.45593999997E+02  0.45594000000E+02  0.51100000000E-03 0. -1.
    9900012    2    1    2    0    0 -0.35387595880E+02  0.12286034526E+02 -0.25017691079E+02  0.46142318149E+02  0.10000003533E+02 0.  0.
        -12    1    1    2    0    0  0.35387595880E+02 -0.12286034526E+02  0.25017691079E+02  0.45045681851E+02  0.00000000000E+00 0.  1.
         11    1    3    3    0    0 -0.69420569427E+01  0.31713977717E+01 -0.47716563189E+01  0.90010345355E+01  0.51100000000E-03 0. -1.
        -11    1    3    3    0    0 -0.29412833439E+01  0.42301547413E+01 -0.28905085862E+01  0.59076557950E+01  0.51100000000E-03 0.  1.
        -12    1    3    3    0    0 -0.25504255593E+02  0.48844820131E+01 -0.17355526174E+02  0.31233627818E+02  0.00000000000E+00 0.  1.
</event>
<event>
 7    1  0.1519238E-008  0.4614232E+02  0.7816164E-02  0.1320468E+00
        -11   -1    0    0    0    0  0.00000000000E+00  0.00000000000E+00  0.45593999997E+02  0.45594000000E+02  0.51100000000E-03 0.  1.
         11   -1    0    0    0    0 -0.00000000000E+00 -0.00000000000E+00 -0.45593999997E+02  0.45594000000E+02  0.51100000000E-03 0. -1.
    9900012    2    1    2    0    0 -0.32016751666E+02  0.15253258287E+02 -0.27773716500E+02  0.46142316480E+02  0.99999883181E+01 0.  0.
        -12    1    1    2    0    0  0.32016751666E+02 -0.15253258287E+02  0.27773716500E+02  0.45045683520E+02  0.00000000000E+00 0.  1.
         11    1    3    3    0    0 -0.22644247413E+02  0.94584652713E+01 -0.15560940740E+02  0.29058000330E+02  0.51100000000E-03 0. -1.
        -11    1    3    3    0    0 -0.23999450880E-01 -0.23335298501E+00 -0.19041232531E+01  0.19185190156E+01  0.51100000000E-03 0.  1.
        -12    1    3    3    0    0 -0.93485048017E+01  0.60281460003E+01 -0.10308652506E+02  0.15165797134E+02  0.00000000000E+00 0.  1.
</event>
<event>
 7    1  0.1519238E-008  0.4614232E+02  0.7816164E-02  0.1320468E+00
        -11   -1    0    0    0    0  0.00000000000E+00  0.00000000000E+00  0.45593999997E+02  0.45594000000E+02  0.51100000000E-03 0.  1.
         11   -1    0    0    0    0 -0.00000000000E+00 -0.00000000000E+00 -0.45593999997E+02  0.45594000000E+02  0.51100000000E-03 0. -1.
    9900012    2    1    2    0    0  0.13319128119E+02 -0.40763499820E+02 -0.13785917976E+02  0.46142316234E+02  0.99999860787E+01 0.  0.
        -12    1    1    2    0    0 -0.13319128119E+02  0.40763499820E+02  0.13785917976E+02  0.45045683766E+02  0.00000000000E+00 0.  1.
         11    1    3    3    0    0  0.72589395074E+01 -0.11371856563E+02 -0.74741696497E+01  0.15423181795E+02  0.51100000000E-03 0. -1.
        -11    1    3    3    0    0  0.15341721914E+01 -0.91238730825E+01 -0.11747949902E+01  0.93262472554E+01  0.51100000000E-03 0.  1.
         12    1    3    3    0    0  0.45260164207E+01 -0.20267770175E+02 -0.51369533361E+01  0.21392887184E+02  0.00000000000E+00 0. -1.
</event>
<event>
 7    1  0.1519238E-008  0.4614233E+02  0.7816164E-02  0.1320468E+00
        -11   -1    0    0    0    0  0.00000000000E+00  0.00000000000E+00  0.45593999997E+02  0.45594000000E+02  0.51100000000E-03 0. -1.
         11   -1    0    0    0    0 -0.00000000000E+00 -0.00000000000E+00 -0.45593999997E+02  0.45594000000E+02  0.51100000000E-03 0.  1.
    9900012    2    1    2    0    0  0.40876672529E+02 -0.18116968616E+02 -0.54759216773E+01  0.46142327321E+02  0.10000087176E+02 0.  0.
        -12    1    1    2    0    0 -0.40876672529E+02  0.18116968616E+02  0.54759216773E+01  0.45045672679E+02  0.00000000000E+00 0.  1.
         11    1    3    3    0    0  0.52848956836E+01  0.14262993216E+00  0.26550239342E+00  0.52934825462E+01  0.51100000000E-03 0. -1.
        -11    1    3    3    0    0  0.97847123222E+01 -0.57387418293E+01  0.98663245478E+00  0.11386272299E+02  0.51100000000E-03 0.  1.
        -12    1    3    3    0    0  0.25807064523E+02 -0.12520856719E+02 -0.67280565255E+01  0.29462572476E+02  0.00000000000E+00 0.  1.
</event>
<event>
 7    1  0.1519238E-008  0.4614232E+02  0.7816164E-02  0.1320468E+00
        -11   -1    0    0    0    0  0.00000000000E+00  0.00000000000E+00  0.45593999997E+02  0.45594000000E+02  0.51100000000E-03 0.  1.
         11   -1    0    0    0    0 -0.00000000000E+00 -0.00000000000E+00 -0.45593999997E+02  0.45594000000E+02  0.51100000000E-03 0. -1.
    9900012    2    1    2    0    0 -0.21909437216E+02 -0.34711764743E+02 -0.18552180881E+02  0.46142318008E+02  0.10000002254E+02 0.  0.
        -12    1    1    2    0    0  0.21909437216E+02  0.34711764743E+02  0.18552180881E+02  0.45045681992E+02  0.00000000000E+00 0.  1.
         11    1    3    3    0    0 -0.48632497004E+01 -0.13963333333E+02 -0.56025853092E+01  0.15811857507E+02  0.51100000000E-03 0. -1.
        -11    1    3    3    0    0 -0.10618368560E+02 -0.10080943774E+02 -0.46429923391E+01  0.15360096235E+02  0.51100000000E-03 0.  1.
         12    1    3    3    0    0 -0.64278189556E+01 -0.10667487636E+02 -0.83066032326E+01  0.14970364266E+02  0.00000000000E+00 0. -1.
</event>
<event>
 7    1  0.1519238E-008  0.4614232E+02  0.7816164E-02  0.1320468E+00
        -11   -1    0    0    0    0  0.00000000000E+00  0.00000000000E+00  0.45593999997E+02  0.45594000000E+02  0.51100000000E-03 0.  1.
         11   -1    0    0    0    0 -0.00000000000E+00 -0.00000000000E+00 -0.45593999997E+02  0.45594000000E+02  0.51100000000E-03 0. -1.
    9900012    2    1    2    0    0 -0.84619293996E+01  0.38133958249E+02 -0.22434583970E+02  0.46142316757E+02  0.99999908403E+01 0.  0.
        -12    1    1    2    0    0  0.84619293996E+01 -0.38133958249E+02  0.22434583970E+02  0.45045683243E+02  0.00000000000E+00 0.  1.
         11    1    3    3    0    0 -0.39240862432E+01  0.24465189758E+02 -0.11021853953E+02  0.27118724667E+02  0.51100000000E-03 0. -1.
        -11    1    3    3    0    0 -0.23515156075E+01  0.14200091528E+01 -0.16140469248E+01  0.31860946915E+01  0.51100000000E-03 0.  1.
         12    1    3    3    0    0 -0.21863275490E+01  0.12248759339E+02 -0.97986830930E+01  0.15837497399E+02  0.00000000000E+00 0. -1.
</event>
<event>
 7    1  0.1519238E-008  0.4614232E+02  0.7816164E-02  0.1320468E+00
        -11   -1    0    0    0    0  0.00000000000E+00  0.00000000000E+00  0.45593999997E+02  0.45594000000E+02  0.51100000000E-03 0. -1.
         11   -1    0    0    0    0 -0.00000000000E+00 -0.00000000000E+00 -0.45593999997E+02  0.45594000000E+02  0.51100000000E-03 0.  1.
    9900012    2    1    2    0    0 -0.82957649334E+01  0.43898116002E+02 -0.57662078254E+01  0.46142318109E+02  0.10000003175E+02 0.  0.
        -12    1    1    2    0    0  0.82957649334E+01 -0.43898116002E+02  0.57662078254E+01  0.45045681891E+02  0.00000000000E+00 0.  1.
         11    1    3    3    0    0  0.47349030259E+00  0.14550180238E+02  0.13738761397E+00  0.14558530615E+02  0.51100000000E-03 0. -1.
        -11    1    3    3    0    0 -0.52886648525E+01  0.22539033276E+02 -0.60747871738E+01  0.23934933391E+02  0.51100000000E-03 0.  1.
        -12    1    3    3    0    0 -0.34805903835E+01  0.68089024869E+01  0.17119173445E+00  0.76488541040E+01  0.00000000000E+00 0.  1.
</event>
<event>
 7    1  0.1519238E-008  0.4614232E+02  0.7816164E-02  0.1320468E+00
        -11   -1    0    0    0    0  0.00000000000E+00  0.00000000000E+00  0.45593999997E+02  0.45594000000E+02  0.51100000000E-03 0.  1.
         11   -1    0    0    0    0 -0.00000000000E+00 -0.00000000000E+00 -0.45593999997E+02  0.45594000000E+02  0.51100000000E-03 0. -1.
    9900012    2    1    2    0    0 -0.67563441692E+01  0.11143506677E+01 -0.44522167341E+02  0.46142319312E+02  0.10000014139E+02 0.  0.
        -12    1    1    2    0    0  0.67563441692E+01 -0.11143506677E+01  0.44522167341E+02  0.45045680688E+02  0.00000000000E+00 0.  1.
         11    1    3    3    0    0 -0.25792995531E+01  0.38036291515E+01 -0.12689786347E+02  0.13496335010E+02  0.51100000000E-03 0. -1.
        -11    1    3    3    0    0 -0.17042605008E+00  0.88279330477E+00 -0.13860245138E+02  0.13889375962E+02  0.51100000000E-03 0.  1.
         12    1    3    3    0    0 -0.40066185661E+01 -0.35720717886E+01 -0.17972135855E+02  0.18756608339E+02  0.00000000000E+00 0. -1.
</event>
<event>
 7    1  0.1519238E-008  0.4614232E+02  0.7816164E-02  0.1320468E+00
        -11   -1    0    0    0    0  0.00000000000E+00  0.00000000000E+00  0.45593999997E+02  0.45594000000E+02  0.51100000000E-03 0. -1.
         11   -1    0    0    0    0 -0.00000000000E+00 -0.00000000000E+00 -0.45593999997E+02  0.45594000000E+02  0.51100000000E-03 0.  1.
    9900012    2    1    2    0    0 -0.35653159686E+02 -0.11137511529E+02  0.25177798191E+02  0.46142317849E+02  0.10000000803E+02 0.  0.
        -12    1    1    2    0    0  0.35653159686E+02  0.11137511529E+02 -0.25177798191E+02  0.45045682151E+02  0.00000000000E+00 0.  1.
         11    1    3    3    0    0 -0.21379837190E+02 -0.89905246320E+01  0.15768918314E+02  0.28046136213E+02  0.51100000000E-03 0. -1.
        -11    1    3    3    0    0 -0.11637975159E+02 -0.65281342993E+00  0.48555807251E+01  0.12627164987E+02  0.51100000000E-03 0.  1.
         12    1    3    3    0    0 -0.26353473375E+01 -0.14941734672E+01  0.45532991520E+01  0.54690166490E+01  0.00000000000E+00 0. -1.
</event>
<event>
 7    1  0.1519238E-008  0.4614232E+02  0.7816164E-02  0.1320468E+00
        -11   -1    0    0    0    0  0.00000000000E+00  0.00000000000E+00  0.45593999997E+02  0.45594000000E+02  0.51100000000E-03 0. -1.
         11   -1    0    0    0    0 -0.00000000000E+00 -0.00000000000E+00 -0.45593999997E+02  0.45594000000E+02  0.51100000000E-03 0.  1.
    9900012    2    1    2    0    0 -0.33710988127E+02  0.27356232823E+02  0.12013297359E+02  0.46142317541E+02  0.99999979884E+01 0.  0.
        -12    1    1    2    0    0  0.33710988127E+02 -0.27356232823E+02 -0.12013297359E+02  0.45045682459E+02  0.00000000000E+00 0.  1.
         11    1    3    3    0    0 -0.10886237559E+02  0.63601107869E+01  0.39600550638E+01  0.13215264423E+02  0.51100000000E-03 0. -1.
        -11    1    3    3    0    0 -0.83954132264E+01  0.57055232190E+01 -0.65308569679E+00  0.10171650782E+02  0.51100000000E-03 0.  1.
        -12    1    3    3    0    0 -0.14429337342E+02  0.15290598817E+02  0.87063279922E+01  0.22755402335E+02  0.00000000000E+00 0.  1.
</event>
<event>
 7    1  0.1519238E-008  0.4614232E+02  0.7816164E-02  0.1320468E+00
        -11   -1    0    0    0    0  0.00000000000E+00  0.00000000000E+00  0.45593999997E+02  0.45594000000E+02  0.51100000000E-03 0.  1.
         11   -1    0    0    0    0 -0.00000000000E+00 -0.00000000000E+00 -0.45593999997E+02  0.45594000000E+02  0.51100000000E-03 0. -1.
    9900012    2    1    2    0    0  0.43563487104E+02 -0.10296111883E+02  0.50325133099E+01  0.46142317423E+02  0.99999969186E+01 0.  0.
        -12    1    1    2    0    0 -0.43563487104E+02  0.10296111883E+02 -0.50325133099E+01  0.45045682577E+02  0.00000000000E+00 0.  1.
         11    1    3    3    0    0  0.21216519929E+02 -0.11819908128E+01  0.24308820022E+01  0.21388010841E+02  0.51100000000E-03 0. -1.
        -11    1    3    3    0    0  0.23113281917E+01 -0.21845523537E+01 -0.80890711228E+00  0.32815907687E+01  0.51100000000E-03 0.  1.
         12    1    3    3    0    0  0.20035638984E+02 -0.69295687165E+01  0.34105384200E+01  0.21472715813E+02  0.00000000000E+00 0. -1.
</event>
<event>
 7    1  0.1519238E-008  0.4614231E+02  0.7816164E-02  0.1320468E+00
        -11   -1    0    0    0    0  0.00000000000E+00  0.00000000000E+00  0.45593999997E+02  0.45594000000E+02  0.51100000000E-03 0.  1.
         11   -1    0    0    0    0 -0.00000000000E+00 -0.00000000000E+00 -0.45593999997E+02  0.45594000000E+02  0.51100000000E-03 0. -1.
    9900012    2    1    2    0    0  0.11122187915E+02  0.40098380493E+02 -0.17249074838E+02  0.46142314691E+02  0.99999720037E+01 0.  0.
        -12    1    1    2    0    0 -0.11122187915E+02 -0.40098380493E+02  0.17249074838E+02  0.45045685309E+02  0.00000000000E+00 0.  1.
         11    1    3    3    0    0  0.18555720641E+01  0.19781623368E+02 -0.92747553765E+01  0.21926624417E+02  0.51100000000E-03 0. -1.
        -11    1    3    3    0    0  0.61424869777E+00  0.47791643981E+01 -0.32583910522E+01  0.58167711247E+01  0.51100000000E-03 0.  1.
         12    1    3    3    0    0  0.86523671534E+01  0.15537592727E+02 -0.47159284094E+01  0.18398919149E+02  0.00000000000E+00 0. -1.
</event>
<event>
 7    1  0.1519238E-008  0.4614233E+02  0.7816164E-02  0.1320468E+00
        -11   -1    0    0    0    0  0.00000000000E+00  0.00000000000E+00  0.45593999997E+02  0.45594000000E+02  0.51100000000E-03 0. -1.
         11   -1    0    0    0    0 -0.00000000000E+00 -0.00000000000E+00 -0.45593999997E+02  0.45594000000E+02  0.51100000000E-03 0.  1.
    9900012    2    1    2    0    0 -0.15275145021E+02 -0.37710732367E+02  0.19330892722E+02  0.46142325351E+02  0.10000069214E+02 0.  0.
        -12    1    1    2    0    0  0.15275145021E+02  0.37710732367E+02 -0.19330892722E+02  0.45045674649E+02  0.00000000000E+00 0.  1.
         11    1    3    3    0    0 -0.47432398971E+01 -0.17606179109E+02  0.53385081536E+01  0.18999356229E+02  0.51100000000E-03 0. -1.
        -11    1    3    3    0    0 -0.86000932281E+01 -0.17535244275E+02  0.13816409295E+02  0.23923619320E+02  0.51100000000E-03 0.  1.
        -12    1    3    3    0    0 -0.19318118960E+01 -0.25693089833E+01  0.17597527413E+00  0.32193498024E+01  0.00000000000E+00 0.  1.
</event>
<event>
 7    1  0.1519238E-008  0.4614232E+02  0.7816164E-02  0.1320468E+00
        -11   -1    0    0    0    0  0.00000000000E+00  0.00000000000E+00  0.45593999997E+02  0.45594000000E+02  0.51100000000E-03 0.  1.
         11   -1    0    0    0    0 -0.00000000000E+00 -0.00000000000E+00 -0.45593999997E+02  0.45594000000E+02  0.51100000000E-03 0. -1.
    9900012    2    1    2    0    0  0.16126958907E+02 -0.41742469648E+02 -0.51576100966E+01  0.46142317434E+02  0.99999970162E+01 0.  0.
        -12    1    1    2    0    0 -0.16126958907E+02  0.41742469648E+02  0.51576100966E+01  0.45045682566E+02  0.00000000000E+00 0.  1.
         11    1    3    3    0    0  0.16741667649E+02 -0.34285005383E+02 -0.45726252921E+01  0.38427255068E+02  0.51100000000E-03 0. -1.
        -11    1    3    3    0    0 -0.11530748816E+01 -0.34346458904E+01 -0.68800560089E-01  0.36236870523E+01  0.51100000000E-03 0.  1.
         12    1    3    3    0    0  0.53836613995E+00 -0.40228183751E+01 -0.51618424446E+00  0.40913753132E+01  0.00000000000E+00 0. -1.
</event>
<event>
 7    1  0.1519238E-008  0.4614231E+02  0.7816164E-02  0.1320468E+00
        -11   -1    0    0    0    0  0.00000000000E+00  0.00000000000E+00  0.45593999997E+02  0.45594000000E+02  0.51100000000E-03 0.  1.
         11   -1    0    0    0    0 -0.00000000000E+00 -0.00000000000E+00 -0.45593999997E+02  0.45594000000E+02  0.51100000000E-03 0. -1.
    9900012    2    1    2    0    0 -0.20802054179E+02  0.29499334355E+01 -0.39845783615E+02  0.46142311669E+02  0.99999444461E+01 0.  0.
        -12    1    1    2    0    0  0.20802054179E+02 -0.29499334355E+01  0.39845783615E+02  0.45045688331E+02  0.00000000000E+00 0.  1.
         11    1    3    3    0    0 -0.19361449263E+02  0.81812655461E+00 -0.33735801264E+02  0.38905518064E+02  0.51100000000E-03 0. -1.
        -11    1    3    3    0    0 -0.14673139277E+01  0.15554827168E+01 -0.15514113359E+01  0.26418580656E+01  0.51100000000E-03 0.  1.
         12    1    3    3    0    0  0.26709011766E-01  0.57632416407E+00 -0.45585710150E+01  0.45949355395E+01  0.00000000000E+00 0. -1.
</event>
<event>
 7    1  0.1519238E-008  0.4614232E+02  0.7816164E-02  0.1320468E+00
        -11   -1    0    0    0    0  0.00000000000E+00  0.00000000000E+00  0.45593999997E+02  0.45594000000E+02  0.51100000000E-03 0.  1.
         11   -1    0    0    0    0 -0.00000000000E+00 -0.00000000000E+00 -0.45593999997E+02  0.45594000000E+02  0.51100000000E-03 0. -1.
    9900012    2    1    2    0    0 -0.45978106219E+01 -0.12376668077E+02 -0.43067292178E+02  0.46142318401E+02  0.10000005834E+02 0.  0.
        -12    1    1    2    0    0  0.45978106219E+01  0.12376668077E+02  0.43067292178E+02  0.45045681599E+02  0.00000000000E+00 0.  1.
         11    1    3    3    0    0 -0.34173482812E+01 -0.43473007438E+01 -0.18639096630E+02  0.19442047641E+02  0.51100000000E-03 0. -1.
        -11    1    3    3    0    0 -0.40921176097E+01 -0.38430527894E+01 -0.11330995416E+02  0.12645391993E+02  0.51100000000E-03 0.  1.
        -12    1    3    3    0    0  0.29116552690E+01 -0.41863145439E+01 -0.13097200131E+02  0.14054878767E+02  0.00000000000E+00 0.  1.
</event>
<event>
 7    1  0.1519238E-008  0.4614232E+02  0.7816164E-02  0.1320468E+00
        -11   -1    0    0    0    0  0.00000000000E+00  0.00000000000E+00  0.45593999997E+02  0.45594000000E+02  0.51100000000E-03 0.  1.
         11   -1    0    0    0    0 -0.00000000000E+00 -0.00000000000E+00 -0.45593999997E+02  0.45594000000E+02  0.51100000000E-03 0. -1.
    9900012    2    1    2    0    0 -0.72968558785E+01  0.17410488106E+02 -0.40899196899E+02  0.46142317535E+02  0.99999979345E+01 0.  0.
        -12    1    1    2    0    0  0.72968558785E+01 -0.17410488106E+02  0.40899196899E+02  0.45045682465E+02  0.00000000000E+00 0.  1.
         11    1    3    3    0    0  0.88670852670E+00  0.86048643290E+01 -0.14988859445E+02  0.17305948395E+02  0.51100000000E-03 0. -1.
        -11    1    3    3    0    0 -0.66422440733E+01  0.52449159205E+01 -0.14558791662E+02  0.16840040507E+02  0.51100000000E-03 0.  1.
         12    1    3    3    0    0 -0.15413203319E+01  0.35607078565E+01 -0.11351545792E+02  0.11996328633E+02  0.00000000000E+00 0. -1.
</event>
<event>
 7    1  0.1519238E-008  0.4614232E+02  0.7816164E-02  0.1320468E+00
        -11   -1    0    0    0    0  0.00000000000E+00  0.00000000000E+00  0.45593999997E+02  0.45594000000E+02  0.51100000000E-03 0. -1.
         11   -1    0    0    0    0 -0.00000000000E+00 -0.00000000000E+00 -0.45593999997E+02  0.45594000000E+02  0.51100000000E-03 0.  1.
    9900012    2    1    2    0    0 -0.10829999672E+02 -0.32520441016E+02  0.29227478708E+02  0.46142317761E+02  0.10000000001E+02 0.  0.
        -12    1    1    2    0    0  0.10829999672E+02  0.32520441016E+02 -0.29227478708E+02  0.45045682239E+02  0.00000000000E+00 0.  1.
         11    1    3    3    0    0 -0.48491875629E+01 -0.11909254798E+02  0.77514069508E+01  0.15014302509E+02  0.51100000000E-03 0. -1.
        -11    1    3    3    0    0 -0.49926203915E+01 -0.59033068417E+01  0.84890235550E+01  0.11482108309E+02  0.51100000000E-03 0.  1.
        -12    1    3    3    0    0 -0.98819171779E+00 -0.14707879376E+02  0.12987048202E+02  0.19645906943E+02  0.00000000000E+00 0.  1.
</event>
<event>
 7    1  0.1519238E-008  0.4614232E+02  0.7816164E-02  0.1320468E+00
        -11   -1    0    0    0    0  0.00000000000E+00  0.00000000000E+00  0.45593999997E+02  0.45594000000E+02  0.51100000000E-03 0. -1.
         11   -1    0    0    0    0 -0.00000000000E+00 -0.00000000000E+00 -0.45593999997E+02  0.45594000000E+02  0.51100000000E-03 0.  1.
    9900012    2    1    2    0    0  0.24702154446E+02  0.30604138256E+02  0.21961415600E+02  0.46142317767E+02  0.10000000058E+02 0.  0.
        -12    1    1    2    0    0 -0.24702154446E+02 -0.30604138256E+02 -0.21961415600E+02  0.45045682233E+02  0.00000000000E+00 0.  1.
         11    1    3    3    0    0  0.55335040408E+00  0.46394844125E+01  0.42073898052E+01  0.62875385898E+01  0.51100000000E-03 0. -1.
        -11    1    3    3    0    0  0.21538027213E+02  0.23968329738E+02  0.17183602851E+02  0.36519086159E+02  0.51100000000E-03 0.  1.
        -12    1    3    3    0    0  0.26107768285E+01  0.19963241052E+01  0.57042294346E+00  0.33356930189E+01  0.00000000000E+00 0.  1.
</event>
<event>
 7    1  0.1519238E-008  0.4614232E+02  0.7816164E-02  0.1320468E+00
        -11   -1    0    0    0    0  0.00000000000E+00  0.00000000000E+00  0.45593999997E+02  0.45594000000E+02  0.51100000000E-03 0. -1.
         11   -1    0    0    0    0 -0.00000000000E+00 -0.00000000000E+00 -0.45593999997E+02  0.45594000000E+02  0.51100000000E-03 0.  1.
    9900012    2    1    2    0    0 -0.41053754742E+02 -0.18434908365E+02  0.19638925640E+01  0.46142317644E+02  0.99999989355E+01 0.  0.
        -12    1    1    2    0    0  0.41053754742E+02  0.18434908365E+02 -0.19638925640E+01  0.45045682356E+02  0.00000000000E+00 0.  1.
         11    1    3    3    0    0 -0.24141603357E+02 -0.75153600243E+01  0.59267458759E+00  0.25291281351E+02  0.51100000000E-03 0. -1.
        -11    1    3    3    0    0 -0.13946291233E+02 -0.88449085742E+01 -0.96556708824E+00  0.16542785947E+02  0.51100000000E-03 0.  1.
         12    1    3    3    0    0 -0.29658601523E+01 -0.20746397667E+01  0.23367850646E+01  0.43082503459E+01  0.00000000000E+00 0. -1.
</event>
<event>
 7    1  0.1519238E-008  0.4614232E+02  0.7816164E-02  0.1320468E+00
        -11   -1    0    0    0    0  0.00000000000E+00  0.00000000000E+00  0.45593999997E+02  0.45594000000E+02  0.51100000000E-03 0.  1.
         11   -1    0    0    0    0 -0.00000000000E+00 -0.00000000000E+00 -0.45593999997E+02  0.45594000000E+02  0.51100000000E-03 0. -1.
    9900012    2    1    2    0    0  0.36277726859E+02 -0.25131241808E+02 -0.90255624897E+01  0.46142316976E+02  0.99999928365E+01 0.  0.
        -12    1    1    2    0    0 -0.36277726859E+02  0.25131241808E+02  0.90255624897E+01  0.45045683024E+02  0.00000000000E+00 0.  1.
         11    1    3    3    0    0  0.13395704669E+02 -0.13719598275E+02 -0.53057232500E+01  0.19895300447E+02  0.51100000000E-03 0. -1.
        -11    1    3    3    0    0  0.51760762602E+01 -0.15154505051E+01 -0.24491147538E+01  0.59233874618E+01  0.51100000000E-03 0.  1.
         12    1    3    3    0    0  0.17705945930E+02 -0.98961930277E+01 -0.12707244859E+01  0.20323629067E+02  0.00000000000E+00 0. -1.
</event>
<event>
 7    1  0.1519238E-008  0.4614232E+02  0.7816164E-02  0.1320468E+00
        -11   -1    0    0    0    0  0.00000000000E+00  0.00000000000E+00  0.45593999997E+02  0.45594000000E+02  0.51100000000E-03 0.  1.
         11   -1    0    0    0    0 -0.00000000000E+00 -0.00000000000E+00 -0.45593999997E+02  0.45594000000E+02  0.51100000000E-03 0. -1.
    9900012    2    1    2    0    0 -0.31133483506E+01 -0.34745680794E+02 -0.28498390049E+02  0.46142317552E+02  0.99999980917E+01 0.  0.
        -12    1    1    2    0    0  0.31133483506E+01  0.34745680794E+02  0.28498390049E+02  0.45045682448E+02  0.00000000000E+00 0.  1.
         11    1    3    3    0    0 -0.19682842047E+00  0.32373602626E+00 -0.15869822247E+01  0.16315818351E+01  0.51100000000E-03 0.  1.
        -11    1    3    3    0    0 -0.20884444416E+01 -0.12463495147E+02 -0.11927530734E+02  0.17377177594E+02  0.51100000000E-03 0. -1.
         12    1    3    3    0    0 -0.82807548850E+00 -0.22605921674E+02 -0.14983877090E+02  0.27133558123E+02  0.00000000000E+00 0. -1.
</event>
<event>
 7    1  0.1519238E-008  0.4614232E+02  0.7816164E-02  0.1320468E+00
        -11   -1    0    0    0    0  0.00000000000E+00  0.00000000000E+00  0.45593999997E+02  0.45594000000E+02  0.51100000000E-03 0.  1.
         11   -1    0    0    0    0 -0.00000000000E+00 -0.00000000000E+00 -0.45593999997E+02  0.45594000000E+02  0.51100000000E-03 0. -1.
    9900012    2    1    2    0    0  0.71955012799E+01  0.15406568468E+02 -0.41713019188E+02  0.46142316962E+02  0.99999927120E+01 0.  0.
        -12    1    1    2    0    0 -0.71955012799E+01 -0.15406568468E+02  0.41713019188E+02  0.45045683038E+02  0.00000000000E+00 0.  1.
         11    1    3    3    0    0  0.42648282043E+01  0.96025637445E+01 -0.25488320925E+02  0.27569049565E+02  0.51100000000E-03 0. -1.
        -11    1    3    3    0    0 -0.10603758700E+01  0.43082190046E+01 -0.57360872725E+01  0.72517477505E+01  0.51100000000E-03 0.  1.
        -12    1    3    3    0    0  0.39910489456E+01  0.14957857188E+01 -0.10488610990E+02  0.11321519646E+02  0.00000000000E+00 0.  1.
</event>
<event>
 7    1  0.1519238E-008  0.4614232E+02  0.7816164E-02  0.1320468E+00
        -11   -1    0    0    0    0  0.00000000000E+00  0.00000000000E+00  0.45593999997E+02  0.45594000000E+02  0.51100000000E-03 0.  1.
         11   -1    0    0    0    0 -0.00000000000E+00 -0.00000000000E+00 -0.45593999997E+02  0.45594000000E+02  0.51100000000E-03 0. -1.
    9900012    2    1    2    0    0  0.79188839711E+01 -0.20847520881E+02 -0.39138033358E+02  0.46142317573E+02  0.99999982807E+01 0.  0.
        -12    1    1    2    0    0 -0.79188839711E+01  0.20847520881E+02  0.39138033358E+02  0.45045682427E+02  0.00000000000E+00 0.  1.
         11    1    3    3    0    0  0.59626241611E+01 -0.11691520609E+02 -0.21823552215E+02  0.25465898228E+02  0.51100000000E-03 0. -1.
        -11    1    3    3    0    0 -0.97117731005E+00 -0.75363812799E+01 -0.14201209519E+02  0.16106352170E+02  0.51100000000E-03 0.  1.
        -12    1    3    3    0    0  0.29274371201E+01 -0.16196189925E+01 -0.31132716238E+01  0.45700671742E+01  0.00000000000E+00 0.  1.
</event>
<event>
 7    1  0.1519238E-008  0.4614232E+02  0.7816164E-02  0.1320468E+00
        -11   -1    0    0    0    0  0.00000000000E+00  0.00000000000E+00  0.45593999997E+02  0.45594000000E+02  0.51100000000E-03 0.  1.
         11   -1    0    0    0    0 -0.00000000000E+00 -0.00000000000E+00 -0.45593999997E+02  0.45594000000E+02  0.51100000000E-03 0. -1.
    9900012    2    1    2    0    0  0.21123744598E+02  0.23952544691E+01 -0.39713521376E+02  0.46142316412E+02  0.99999877011E+01 0.  0.
        -12    1    1    2    0    0 -0.21123744598E+02 -0.23952544691E+01  0.39713521376E+02  0.45045683588E+02  0.00000000000E+00 0.  1.
         11    1    3    3    0    0  0.12817945002E+02  0.55002318229E+01 -0.26685272741E+02  0.30110729744E+02  0.51100000000E-03 0. -1.
        -11    1    3    3    0    0  0.51581448024E+01 -0.18772275646E+01 -0.54541937962E+01  0.77381309991E+01  0.51100000000E-03 0.  1.
         12    1    3    3    0    0  0.31476547938E+01 -0.12277497892E+01 -0.75740548383E+01  0.82934556693E+01  0.00000000000E+00 0. -1.
</event>
<event>
 7    1  0.1519238E-008  0.4614232E+02  0.7816164E-02  0.1320468E+00
        -11   -1    0    0    0    0  0.00000000000E+00  0.00000000000E+00  0.45593999997E+02  0.45594000000E+02  0.51100000000E-03 0.  1.
         11   -1    0    0    0    0 -0.00000000000E+00 -0.00000000000E+00 -0.45593999997E+02  0.45594000000E+02  0.51100000000E-03 0. -1.
    9900012    2    1    2    0    0 -0.13379553767E+02  0.59853143475E+01 -0.42594331350E+02  0.46142317521E+02  0.99999978111E+01 0.  0.
        -12    1    1    2    0    0  0.13379553767E+02 -0.59853143475E+01  0.42594331350E+02  0.45045682479E+02  0.00000000000E+00 0.  1.
         11    1    3    3    0    0 -0.25841599808E+01  0.99765893596E+00 -0.15881346143E+02  0.16121115399E+02  0.51100000000E-03 0. -1.
        -11    1    3    3    0    0 -0.68218363196E+01 -0.54895522189E+00 -0.12222103231E+02  0.14007805333E+02  0.51100000000E-03 0.  1.
         12    1    3    3    0    0 -0.39735574668E+01  0.55366106335E+01 -0.14490881977E+02  0.16013396789E+02  0.00000000000E+00 0. -1.
</event>
<event>
 7    1  0.1519238E-008  0.4614232E+02  0.7816164E-02  0.1320468E+00
        -11   -1    0    0    0    0  0.00000000000E+00  0.00000000000E+00  0.45593999997E+02  0.45594000000E+02  0.51100000000E-03 0. -1.
         11   -1    0    0    0    0 -0.00000000000E+00 -0.00000000000E+00 -0.45593999997E+02  0.45594000000E+02  0.51100000000E-03 0.  1.
    9900012    2    1    2    0    0 -0.42901721567E+02  0.13238795999E+02 -0.36455579915E+01  0.46142317343E+02  0.99999961918E+01 0.  0.
        -12    1    1    2    0    0  0.42901721567E+02 -0.13238795999E+02  0.36455579915E+01  0.45045682657E+02  0.00000000000E+00 0.  1.
         11    1    3    3    0    0 -0.92339181277E+01 -0.57703705404E+00 -0.50220375007E+00  0.92655504218E+01  0.51100000000E-03 0.  1.
        -11    1    3    3    0    0 -0.13712252130E+02  0.33061393229E+01 -0.24200227993E+01  0.14311286675E+02  0.51100000000E-03 0. -1.
         12    1    3    3    0    0 -0.19955551309E+02  0.10509693731E+02 -0.72333144206E+00  0.22565480246E+02  0.00000000000E+00 0. -1.
</event>
<event>
 7    1  0.1519238E-008  0.4614232E+02  0.7816164E-02  0.1320468E+00
        -11   -1    0    0    0    0  0.00000000000E+00  0.00000000000E+00  0.45593999997E+02  0.45594000000E+02  0.51100000000E-03 0.  1.
         11   -1    0    0    0    0 -0.00000000000E+00 -0.00000000000E+00 -0.45593999997E+02  0.45594000000E+02  0.51100000000E-03 0. -1.
    9900012    2    1    2    0    0  0.39460452119E+02  0.19472551979E+02  0.96335783003E+01  0.46142318821E+02  0.10000009664E+02 0.  0.
        -12    1    1    2    0    0 -0.39460452119E+02 -0.19472551979E+02 -0.96335783003E+01  0.45045681179E+02  0.00000000000E+00 0.  1.
         11    1    3    3    0    0  0.20085169460E+02  0.11070517229E+02  0.94839042411E+00  0.22953645214E+02  0.51100000000E-03 0. -1.
        -11    1    3    3    0    0  0.81419538948E+01  0.16234717309E+01  0.43373172909E+01  0.93669309397E+01  0.51100000000E-03 0.  1.
        -12    1    3    3    0    0  0.11233328764E+02  0.67785630191E+01  0.43478705854E+01  0.13821742667E+02  0.00000000000E+00 0.  1.
</event>
<event>
 7    1  0.1519238E-008  0.4614232E+02  0.7816164E-02  0.1320468E+00
        -11   -1    0    0    0    0  0.00000000000E+00  0.00000000000E+00  0.45593999997E+02  0.45594000000E+02  0.51100000000E-03 0. -1.
         11   -1    0    0    0    0 -0.00000000000E+00 -0.00000000000E+00 -0.45593999997E+02  0.45594000000E+02  0.51100000000E-03 0.  1.
    9900012    2    1    2    0    0 -0.27282685678E+02  0.24603698372E+02  0.26065811615E+02  0.46142318225E+02  0.10000004233E+02 0.  0.
        -12    1    1    2    0    0  0.27282685678E+02 -0.24603698372E+02 -0.26065811615E+02  0.45045681775E+02  0.00000000000E+00 0.  1.
         11    1    3    3    0    0 -0.44115164504E+01  0.17286106260E+01  0.18579261687E+01  0.50893478952E+01  0.51100000000E-03 0. -1.
        -11    1    3    3    0    0 -0.40440480611E+01  0.86108809238E+01  0.62757643108E+01  0.11396789590E+02  0.51100000000E-03 0.  1.
         12    1    3    3    0    0 -0.18827121167E+02  0.14264206822E+02  0.17932121135E+02  0.29656180740E+02  0.00000000000E+00 0. -1.
</event>
<event>
 7    1  0.1519238E-008  0.4614232E+02  0.7816164E-02  0.1320468E+00
        -11   -1    0    0    0    0  0.00000000000E+00  0.00000000000E+00  0.45593999997E+02  0.45594000000E+02  0.51100000000E-03 0.  1.
         11   -1    0    0    0    0 -0.00000000000E+00 -0.00000000000E+00 -0.45593999997E+02  0.45594000000E+02  0.51100000000E-03 0. -1.
    9900012    2    1    2    0    0  0.96593756418E+01 -0.28492909227E+01 -0.43905483197E+02  0.46142318173E+02  0.10000003753E+02 0.  0.
        -12    1    1    2    0    0 -0.96593756418E+01  0.28492909227E+01  0.43905483197E+02  0.45045681827E+02  0.00000000000E+00 0.  1.
         11    1    3    3    0    0  0.65524526403E+01 -0.34777459171E+01 -0.14520686349E+02  0.16305817507E+02  0.51100000000E-03 0.  1.
        -11    1    3    3    0    0  0.37397592192E+01  0.12653272932E+01 -0.18599376485E+02  0.19013775482E+02  0.51100000000E-03 0. -1.
        -12    1    3    3    0    0 -0.63283621774E+00 -0.63687229881E+00 -0.10785420363E+02  0.10822725184E+02  0.00000000000E+00 0.  1.
</event>
<event>
 7    1  0.1519238E-008  0.4614232E+02  0.7816164E-02  0.1320468E+00
        -11   -1    0    0    0    0  0.00000000000E+00  0.00000000000E+00  0.45593999997E+02  0.45594000000E+02  0.51100000000E-03 0. -1.
         11   -1    0    0    0    0 -0.00000000000E+00 -0.00000000000E+00 -0.45593999997E+02  0.45594000000E+02  0.51100000000E-03 0.  1.
    9900012    2    1    2    0    0 -0.10599804561E+01  0.44663539633E+02  0.57583132144E+01  0.46142317608E+02  0.99999986051E+01 0.  0.
        -12    1    1    2    0    0  0.10599804561E+01 -0.44663539633E+02 -0.57583132144E+01  0.45045682392E+02  0.00000000000E+00 0.  1.
         11    1    3    3    0    0 -0.21938518177E+01  0.37908255010E+02  0.57664961702E+01  0.38407047037E+02  0.51100000000E-03 0. -1.
        -11    1    3    3    0    0 -0.53084146876E+00  0.20790909606E+00  0.74457381622E+00  0.93776824754E+00  0.51100000000E-03 0.  1.
         12    1    3    3    0    0  0.16647128303E+01  0.65473755260E+01 -0.75275677195E+00  0.67975023239E+01  0.00000000000E+00 0. -1.
</event>
<event>
 7    1  0.1519238E-008  0.4614232E+02  0.7816164E-02  0.1320468E+00
        -11   -1    0    0    0    0  0.00000000000E+00  0.00000000000E+00  0.45593999997E+02  0.45594000000E+02  0.51100000000E-03 0.  1.
         11   -1    0    0    0    0 -0.00000000000E+00 -0.00000000000E+00 -0.45593999997E+02  0.45594000000E+02  0.51100000000E-03 0. -1.
    9900012    2    1    2    0    0  0.43242377165E+02 -0.38232502754E+01 -0.12024693154E+02  0.46142315734E+02  0.99999815158E+01 0.  0.
        -12    1    1    2    0    0 -0.43242377165E+02  0.38232502754E+01  0.12024693154E+02  0.45045684266E+02  0.00000000000E+00 0.  1.
         11    1    3    3    0    0  0.20292190404E+02 -0.32017177842E+01 -0.13097384295E+01  0.20584931459E+02  0.51100000000E-03 0. -1.
        -11    1    3    3    0    0  0.13069551377E+02  0.12727481525E+01 -0.56791007343E+01  0.14306825171E+02  0.51100000000E-03 0.  1.
        -12    1    3    3    0    0  0.98806353837E+01 -0.18942806437E+01 -0.50358539900E+01  0.11250559104E+02  0.00000000000E+00 0.  1.
</event>
<event>
 7    1  0.1519238E-008  0.4614232E+02  0.7816164E-02  0.1320468E+00
        -11   -1    0    0    0    0  0.00000000000E+00  0.00000000000E+00  0.45593999997E+02  0.45594000000E+02  0.51100000000E-03 0. -1.
         11   -1    0    0    0    0 -0.00000000000E+00 -0.00000000000E+00 -0.45593999997E+02  0.45594000000E+02  0.51100000000E-03 0.  1.
    9900012    2    1    2    0    0 -0.17271424855E+02  0.41493329267E+02 -0.30191025721E+01  0.46142317959E+02  0.10000001808E+02 0.  0.
        -12    1    1    2    0    0  0.17271424855E+02 -0.41493329267E+02  0.30191025721E+01  0.45045682041E+02  0.00000000000E+00 0.  1.
         11    1    3    3    0    0 -0.11300579537E+02  0.27772943065E+02 -0.34832834516E+01  0.30185637781E+02  0.51100000000E-03 0. -1.
        -11    1    3    3    0    0  0.34148616059E+00  0.24627211597E+01 -0.14966166313E+01  0.29019768969E+01  0.51100000000E-03 0.  1.
        -12    1    3    3    0    0 -0.63123314788E+01  0.11257665042E+02  0.19607975108E+01  0.13054703282E+02  0.00000000000E+00 0.  1.
</event>
<event>
 7    1  0.1519238E-008  0.4614232E+02  0.7816164E-02  0.1320468E+00
        -11   -1    0    0    0    0  0.00000000000E+00  0.00000000000E+00  0.45593999997E+02  0.45594000000E+02  0.51100000000E-03 0.  1.
         11   -1    0    0    0    0 -0.00000000000E+00 -0.00000000000E+00 -0.45593999997E+02  0.45594000000E+02  0.51100000000E-03 0. -1.
    9900012    2    1    2    0    0 -0.15281966070E+02  0.38750792312E+02 -0.17145000440E+02  0.46142318388E+02  0.10000005717E+02 0.  0.
        -12    1    1    2    0    0  0.15281966070E+02 -0.38750792312E+02  0.17145000440E+02  0.45045681612E+02  0.00000000000E+00 0.  1.
         11    1    3    3    0    0 -0.41905995666E+01  0.17270660514E+02 -0.77035041568E+01  0.19369584814E+02  0.51100000000E-03 0. -1.
        -11    1    3    3    0    0 -0.87287120679E+01  0.11853177579E+02 -0.32167688299E+01  0.15067708354E+02  0.51100000000E-03 0.  1.
        -12    1    3    3    0    0 -0.23626544359E+01  0.96269542188E+01 -0.62247274538E+01  0.11705025219E+02  0.00000000000E+00 0.  1.
</event>
<event>
 7    1  0.1519238E-008  0.4614232E+02  0.7816164E-02  0.1320468E+00
        -11   -1    0    0    0    0  0.00000000000E+00  0.00000000000E+00  0.45593999997E+02  0.45594000000E+02  0.51100000000E-03 0.  1.
         11   -1    0    0    0    0 -0.00000000000E+00 -0.00000000000E+00 -0.45593999997E+02  0.45594000000E+02  0.51100000000E-03 0. -1.
    9900012    2    1    2    0    0 -0.13811752896E+02  0.15527146166E+02 -0.39965693606E+02  0.46142318171E+02  0.10000003734E+02 0.  0.
        -12    1    1    2    0    0  0.13811752896E+02 -0.15527146166E+02  0.39965693606E+02  0.45045681829E+02  0.00000000000E+00 0.  1.
         11    1    3    3    0    0 -0.46005431410E+01  0.81834826091E+01 -0.14841078993E+02  0.17561093666E+02  0.51100000000E-03 0. -1.
        -11    1    3    3    0    0 -0.62838236947E+01  0.35713716825E+01 -0.21206983077E+02  0.22404849194E+02  0.51100000000E-03 0.  1.
        -12    1    3    3    0    0 -0.29273860600E+01  0.37722918742E+01 -0.39176315354E+01  0.61763753104E+01  0.00000000000E+00 0.  1.
</event>
<event>
 7    1  0.1519238E-008  0.4614232E+02  0.7816164E-02  0.1320468E+00
        -11   -1    0    0    0    0  0.00000000000E+00  0.00000000000E+00  0.45593999997E+02  0.45594000000E+02  0.51100000000E-03 0.  1.
         11   -1    0    0    0    0 -0.00000000000E+00 -0.00000000000E+00 -0.45593999997E+02  0.45594000000E+02  0.51100000000E-03 0. -1.
    9900012    2    1    2    0    0  0.17909214561E+02  0.13004136411E+02 -0.39233479813E+02  0.46142317985E+02  0.10000002037E+02 0.  0.
        -12    1    1    2    0    0 -0.17909214561E+02 -0.13004136411E+02  0.39233479813E+02  0.45045682015E+02  0.00000000000E+00 0.  1.
         11    1    3    3    0    0  0.25767278519E+01 -0.12214951343E+01 -0.71581684086E+01  0.77052548311E+01  0.51100000000E-03 0. -1.
        -11    1    3    3    0    0  0.23064179059E+01  0.32190122902E+01 -0.80894639240E+01  0.90067214079E+01  0.51100000000E-03 0.  1.
         12    1    3    3    0    0  0.13026068803E+02  0.11006619255E+02 -0.23985847481E+02  0.29430341745E+02  0.00000000000E+00 0. -1.
</event>
<event>
 7    1  0.1519238E-008  0.4614231E+02  0.7816164E-02  0.1320468E+00
        -11   -1    0    0    0    0  0.00000000000E+00  0.00000000000E+00  0.45593999997E+02  0.45594000000E+02  0.51100000000E-03 0.  1.
         11   -1    0    0    0    0 -0.00000000000E+00 -0.00000000000E+00 -0.45593999997E+02  0.45594000000E+02  0.51100000000E-03 0. -1.
    9900012    2    1    2    0    0 -0.97778850095E+01  0.28385938901E+02 -0.33581917435E+02  0.46142314955E+02  0.99999744145E+01 0.  0.
        -12    1    1    2    0    0  0.97778850095E+01 -0.28385938901E+02  0.33581917435E+02  0.45045685045E+02  0.00000000000E+00 0.  1.
         11    1    3    3    0    0 -0.70107119267E+01  0.21874744229E+02 -0.29544521740E+02  0.37423699468E+02  0.51100000000E-03 0. -1.
        -11    1    3    3    0    0 -0.30943077106E+01  0.61750411215E+01 -0.43429004706E+01  0.81588392446E+01  0.51100000000E-03 0.  1.
         12    1    3    3    0    0  0.32713462781E+00  0.33615354978E+00  0.30550477521E+00  0.55977624228E+00  0.00000000000E+00 0. -1.
</event>
<event>
 7    1  0.1519238E-008  0.4614232E+02  0.7816164E-02  0.1320468E+00
        -11   -1    0    0    0    0  0.00000000000E+00  0.00000000000E+00  0.45593999997E+02  0.45594000000E+02  0.51100000000E-03 0.  1.
         11   -1    0    0    0    0 -0.00000000000E+00 -0.00000000000E+00 -0.45593999997E+02  0.45594000000E+02  0.51100000000E-03 0. -1.
    9900012    2    1    2    0    0 -0.12565281659E+02 -0.43239030238E+02  0.12701637621E+01  0.46142319241E+02  0.10000013493E+02 0.  0.
        -12    1    1    2    0    0  0.12565281659E+02  0.43239030238E+02 -0.12701637621E+01  0.45045680759E+02  0.00000000000E+00 0.  1.
         11    1    3    3    0    0 -0.19790352232E+01 -0.40747468749E+01 -0.18091390946E+01  0.48778199058E+01  0.51100000000E-03 0. -1.
        -11    1    3    3    0    0 -0.42796132386E+01 -0.10036413291E+02  0.35010907167E+01  0.11458722341E+02  0.51100000000E-03 0.  1.
         12    1    3    3    0    0 -0.63066331969E+01 -0.29127870072E+02 -0.42178786006E+00  0.29805776994E+02  0.00000000000E+00 0. -1.
</event>
<event>
 7    1  0.1519238E-008  0.4614232E+02  0.7816164E-02  0.1320468E+00
        -11   -1    0    0    0    0  0.00000000000E+00  0.00000000000E+00  0.45593999997E+02  0.45594000000E+02  0.51100000000E-03 0.  1.
         11   -1    0    0    0    0 -0.00000000000E+00 -0.00000000000E+00 -0.45593999997E+02  0.45594000000E+02  0.51100000000E-03 0. -1.
    9900012    2    1    2    0    0  0.27821910107E+02 -0.49857024879E+01 -0.35074168446E+02  0.46142320923E+02  0.10000028836E+02 0.  0.
        -12    1    1    2    0    0 -0.27821910107E+02  0.49857024879E+01  0.35074168446E+02  0.45045679077E+02  0.00000000000E+00 0.  1.
         11    1    3    3    0    0  0.19406249122E+02 -0.65094672287E+01 -0.25533903467E+02  0.32725462489E+02  0.51100000000E-03 0. -1.
        -11    1    3    3    0    0  0.53145517272E+01  0.17076210232E+01 -0.84444353649E+01  0.10122693244E+02  0.51100000000E-03 0.  1.
        -12    1    3    3    0    0  0.31011092574E+01 -0.18385628242E+00 -0.10958296146E+01  0.32941651907E+01  0.00000000000E+00 0.  1.
</event>
<event>
 7    1  0.1519238E-008  0.4614232E+02  0.7816164E-02  0.1320468E+00
        -11   -1    0    0    0    0  0.00000000000E+00  0.00000000000E+00  0.45593999997E+02  0.45594000000E+02  0.51100000000E-03 0. -1.
         11   -1    0    0    0    0 -0.00000000000E+00 -0.00000000000E+00 -0.45593999997E+02  0.45594000000E+02  0.51100000000E-03 0.  1.
    9900012    2    1    2    0    0 -0.15366974604E+02  0.36740447872E+02  0.21050155458E+02  0.46142318041E+02  0.10000002556E+02 0.  0.
        -12    1    1    2    0    0  0.15366974604E+02 -0.36740447872E+02 -0.21050155458E+02  0.45045681959E+02  0.00000000000E+00 0.  1.
         11    1    3    3    0    0 -0.15866930314E+02  0.28179259694E+02  0.15876312944E+02  0.36026205288E+02  0.51100000000E-03 0. -1.
        -11    1    3    3    0    0  0.44746093218E+00  0.85039193507E+01  0.52527247326E+01  0.10005397693E+02  0.51100000000E-03 0.  1.
        -12    1    3    3    0    0  0.52494777709E-01  0.57268827254E-01 -0.78882218874E-01  0.11071506093E+00  0.00000000000E+00 0.  1.
</event>
<event>
 7    1  0.1519238E-008  0.4614232E+02  0.7816164E-02  0.1320468E+00
        -11   -1    0    0    0    0  0.00000000000E+00  0.00000000000E+00  0.45593999997E+02  0.45594000000E+02  0.51100000000E-03 0.  1.
         11   -1    0    0    0    0 -0.00000000000E+00 -0.00000000000E+00 -0.45593999997E+02  0.45594000000E+02  0.51100000000E-03 0. -1.
    9900012    2    1    2    0    0 -0.68946130399E+01 -0.11839844508E+02 -0.42911488758E+02  0.46142317916E+02  0.10000001414E+02 0.  0.
        -12    1    1    2    0    0  0.68946130399E+01  0.11839844508E+02  0.42911488758E+02  0.45045682084E+02  0.00000000000E+00 0.  1.
         11    1    3    3    0    0 -0.18861151276E+01 -0.86126778858E+01 -0.22514107278E+02  0.24178930444E+02  0.51100000000E-03 0. -1.
        -11    1    3    3    0    0 -0.97758182321E+00 -0.12023465801E+01 -0.14273979705E+02  0.14357848042E+02  0.51100000000E-03 0.  1.
        -12    1    3    3    0    0 -0.40309160890E+01 -0.20248200424E+01 -0.61234017757E+01  0.76055394304E+01  0.00000000000E+00 0.  1.
</event>
<event>
 7    1  0.1519238E-008  0.4614231E+02  0.7816164E-02  0.1320468E+00
        -11   -1    0    0    0    0  0.00000000000E+00  0.00000000000E+00  0.45593999997E+02  0.45594000000E+02  0.51100000000E-03 0.  1.
         11   -1    0    0    0    0 -0.00000000000E+00 -0.00000000000E+00 -0.45593999997E+02  0.45594000000E+02  0.51100000000E-03 0. -1.
    9900012    2    1    2    0    0 -0.71497617433E+01 -0.28520476914E+02 -0.34125901509E+02  0.46142313745E+02  0.99999633774E+01 0.  0.
        -12    1    1    2    0    0  0.71497617433E+01  0.28520476914E+02  0.34125901509E+02  0.45045686255E+02  0.00000000000E+00 0.  1.
         11    1    3    3    0    0 -0.18767330997E+01 -0.11140682496E+02 -0.18973656948E+02  0.22082495146E+02  0.51100000000E-03 0. -1.
        -11    1    3    3    0    0  0.21823210877E+00 -0.37342790937E+01 -0.16323941046E+01  0.40813204207E+01  0.51100000000E-03 0.  1.
         12    1    3    3    0    0 -0.54912607524E+01 -0.13645515325E+02 -0.13519850456E+02  0.19978498179E+02  0.00000000000E+00 0. -1.
</event>
<event>
 7    1  0.1519238E-008  0.4614232E+02  0.7816164E-02  0.1320468E+00
        -11   -1    0    0    0    0  0.00000000000E+00  0.00000000000E+00  0.45593999997E+02  0.45594000000E+02  0.51100000000E-03 0.  1.
         11   -1    0    0    0    0 -0.00000000000E+00 -0.00000000000E+00 -0.45593999997E+02  0.45594000000E+02  0.51100000000E-03 0. -1.
    9900012    2    1    2    0    0  0.56796026611E+01  0.39007665101E+02 -0.21800404965E+02  0.46142317858E+02  0.10000000882E+02 0.  0.
        -12    1    1    2    0    0 -0.56796026611E+01 -0.39007665101E+02  0.21800404965E+02  0.45045682142E+02  0.00000000000E+00 0.  1.
         11    1    3    3    0    0  0.22279456188E+01  0.39069647265E+01  0.28001559652E+00  0.45062760734E+01  0.51100000000E-03 0. -1.
        -11    1    3    3    0    0  0.12757875735E+00  0.70969007375E+01 -0.43518757621E+01  0.83259293371E+01  0.51100000000E-03 0.  1.
         12    1    3    3    0    0  0.33240782849E+01  0.28003799637E+02 -0.17728544799E+02  0.33310112447E+02  0.00000000000E+00 0. -1.
</event>
<event>
 7    1  0.1519238E-008  0.4614232E+02  0.7816164E-02  0.1320468E+00
        -11   -1    0    0    0    0  0.00000000000E+00  0.00000000000E+00  0.45593999997E+02  0.45594000000E+02  0.51100000000E-03 0. -1.
         11   -1    0    0    0    0 -0.00000000000E+00 -0.00000000000E+00 -0.45593999997E+02  0.45594000000E+02  0.51100000000E-03 0.  1.
    9900012    2    1    2    0    0  0.39950005154E+01 -0.10655807860E+02  0.43584483710E+02  0.46142317737E+02  0.99999997807E+01 0.  0.
        -12    1    1    2    0    0 -0.39950005154E+01  0.10655807860E+02 -0.43584483710E+02  0.45045682263E+02  0.00000000000E+00 0.  1.
         11    1    3    3    0    0 -0.11318295390E+01 -0.22697360809E+01  0.77046049326E+01  0.81113301875E+01  0.51100000000E-03 0.  1.
        -11    1    3    3    0    0  0.32148414272E+01 -0.16278173968E+01  0.23689906079E+02  0.23962400656E+02  0.51100000000E-03 0. -1.
         12    1    3    3    0    0  0.19119886272E+01 -0.67582543826E+01  0.12189972698E+02  0.14068586894E+02  0.00000000000E+00 0. -1.
</event>
<event>
 7    1  0.1519238E-008  0.4614232E+02  0.7816164E-02  0.1320468E+00
        -11   -1    0    0    0    0  0.00000000000E+00  0.00000000000E+00  0.45593999997E+02  0.45594000000E+02  0.51100000000E-03 0.  1.
         11   -1    0    0    0    0 -0.00000000000E+00 -0.00000000000E+00 -0.45593999997E+02  0.45594000000E+02  0.51100000000E-03 0. -1.
    9900012    2    1    2    0    0 -0.10855600060E+01 -0.15591971113E+02 -0.42247194917E+02  0.46142317831E+02  0.10000000639E+02 0.  0.
        -12    1    1    2    0    0  0.10855600060E+01  0.15591971113E+02  0.42247194917E+02  0.45045682169E+02  0.00000000000E+00 0.  1.
         11    1    3    3    0    0 -0.68026566139E+00 -0.10638233057E+02 -0.23229752058E+02  0.25558876049E+02  0.51100000000E-03 0. -1.
        -11    1    3    3    0    0  0.74625001054E+00 -0.46371880608E+01 -0.18789470084E+02  0.19367617005E+02  0.51100000000E-03 0.  1.
        -12    1    3    3    0    0 -0.11515443552E+01 -0.31654999520E+00 -0.22797277507E+00  0.12158247767E+01  0.00000000000E+00 0.  1.
</event>
<event>
 7    1  0.1519238E-008  0.4614232E+02  0.7816164E-02  0.1320468E+00
        -11   -1    0    0    0    0  0.00000000000E+00  0.00000000000E+00  0.45593999997E+02  0.45594000000E+02  0.51100000000E-03 0.  1.
         11   -1    0    0    0    0 -0.00000000000E+00 -0.00000000000E+00 -0.45593999997E+02  0.45594000000E+02  0.51100000000E-03 0. -1.
    9900012    2    1    2    0    0  0.76634899685E+01  0.14856160980E+02 -0.41829165342E+02  0.46142315737E+02  0.99999815432E+01 0.  0.
        -12    1    1    2    0    0 -0.76634899685E+01 -0.14856160980E+02  0.41829165342E+02  0.45045684263E+02  0.00000000000E+00 0.  1.
         11    1    3    3    0    0  0.14453808002E+00  0.51471354965E+01 -0.77126534236E+01  0.92735601669E+01  0.51100000000E-03 0. -1.
        -11    1    3    3    0    0  0.55353539879E+01  0.25647107314E+01 -0.10827108383E+02  0.12427556522E+02  0.51100000000E-03 0.  1.
        -12    1    3    3    0    0  0.19835979006E+01  0.71443147517E+01 -0.23289403535E+02  0.24441199049E+02  0.00000000000E+00 0.  1.
</event>
<event>
 7    1  0.1519238E-008  0.4614232E+02  0.7816164E-02  0.1320468E+00
        -11   -1    0    0    0    0  0.00000000000E+00  0.00000000000E+00  0.45593999997E+02  0.45594000000E+02  0.51100000000E-03 0.  1.
         11   -1    0    0    0    0 -0.00000000000E+00 -0.00000000000E+00 -0.45593999997E+02  0.45594000000E+02  0.51100000000E-03 0. -1.
    9900012    2    1    2    0    0 -0.37520467549E+02 -0.21122341221E+02 -0.13235356641E+02  0.46142318197E+02  0.10000003971E+02 0.  0.
        -12    1    1    2    0    0  0.37520467549E+02  0.21122341221E+02  0.13235356641E+02  0.45045681803E+02  0.00000000000E+00 0.  1.
         11    1    3    3    0    0 -0.11725439286E+02 -0.46197752942E+01 -0.55633051646E+01  0.13776015927E+02  0.51100000000E-03 0. -1.
        -11    1    3    3    0    0 -0.14397040194E+02 -0.49998608504E+01 -0.41267291907E+01  0.15789340358E+02  0.51100000000E-03 0.  1.
        -12    1    3    3    0    0 -0.11397988069E+02 -0.11502705077E+02 -0.35453222855E+01  0.16576961912E+02  0.00000000000E+00 0.  1.
</event>
<event>
 7    1  0.1519238E-008  0.4614232E+02  0.7816164E-02  0.1320468E+00
        -11   -1    0    0    0    0  0.00000000000E+00  0.00000000000E+00  0.45593999997E+02  0.45594000000E+02  0.51100000000E-03 0. -1.
         11   -1    0    0    0    0 -0.00000000000E+00 -0.00000000000E+00 -0.45593999997E+02  0.45594000000E+02  0.51100000000E-03 0.  1.
    9900012    2    1    2    0    0 -0.41045363753E+02 -0.18555167501E+02 -0.31151266395E+00  0.46142321331E+02  0.10000032553E+02 0.  0.
        -12    1    1    2    0    0  0.41045363753E+02  0.18555167501E+02  0.31151266395E+00  0.45045678669E+02  0.00000000000E+00 0.  1.
         11    1    3    3    0    0 -0.10437315110E+02 -0.57769784517E+01 -0.23054855486E+01  0.12150155991E+02  0.51100000000E-03 0.  1.
        -11    1    3    3    0    0 -0.11605434123E+02 -0.45254010555E+01  0.42284930018E+01  0.13154676325E+02  0.51100000000E-03 0. -1.
         12    1    3    3    0    0 -0.19002614520E+02 -0.82527879941E+01 -0.22345201172E+01  0.20837489014E+02  0.00000000000E+00 0. -1.
</event>
<event>
 7    1  0.1519238E-008  0.4614232E+02  0.7816164E-02  0.1320468E+00
        -11   -1    0    0    0    0  0.00000000000E+00  0.00000000000E+00  0.45593999997E+02  0.45594000000E+02  0.51100000000E-03 0.  1.
         11   -1    0    0    0    0 -0.00000000000E+00 -0.00000000000E+00 -0.45593999997E+02  0.45594000000E+02  0.51100000000E-03 0. -1.
    9900012    2    1    2    0    0  0.57158418599E+01 -0.77243091847E+01 -0.44008836439E+02  0.46142317796E+02  0.10000000316E+02 0.  0.
        -12    1    1    2    0    0 -0.57158418599E+01  0.77243091847E+01  0.44008836439E+02  0.45045682204E+02  0.00000000000E+00 0.  1.
         11    1    3    3    0    0  0.85666310840E+00 -0.94497502198E-01  0.23297745464E+00  0.89279348939E+00  0.51100000000E-03 0.  1.
        -11    1    3    3    0    0  0.52552840630E+01 -0.70645904476E+01 -0.41213518279E+02  0.42143570542E+02  0.51100000000E-03 0. -1.
        -12    1    3    3    0    0 -0.39610531147E+00 -0.56522123487E+00 -0.30282956141E+01  0.31059537647E+01  0.00000000000E+00 0.  1.
</event>
<event>
 7    1  0.1519238E-008  0.4614232E+02  0.7816164E-02  0.1320468E+00
        -11   -1    0    0    0    0  0.00000000000E+00  0.00000000000E+00  0.45593999997E+02  0.45594000000E+02  0.51100000000E-03 0. -1.
         11   -1    0    0    0    0 -0.00000000000E+00 -0.00000000000E+00 -0.45593999997E+02  0.45594000000E+02  0.51100000000E-03 0.  1.
    9900012    2    1    2    0    0  0.15615243171E+02  0.21756962460E+02  0.36220329149E+02  0.46142317871E+02  0.10000001006E+02 0.  0.
        -12    1    1    2    0    0 -0.15615243171E+02 -0.21756962460E+02 -0.36220329149E+02  0.45045682129E+02  0.00000000000E+00 0.  1.
         11    1    3    3    0    0  0.79212851626E+01  0.93848087366E+01  0.22740613968E+02  0.25844862498E+02  0.51100000000E-03 0. -1.
        -11    1    3    3    0    0  0.56002139605E+01  0.11686742784E+02  0.11806763357E+02  0.17531172651E+02  0.51100000000E-03 0.  1.
         12    1    3    3    0    0  0.20937440476E+01  0.68541093936E+00  0.16729518243E+01  0.27662827222E+01  0.00000000000E+00 0. -1.
</event>
<event>
 7    1  0.1519238E-008  0.4614232E+02  0.7816164E-02  0.1320468E+00
        -11   -1    0    0    0    0  0.00000000000E+00  0.00000000000E+00  0.45593999997E+02  0.45594000000E+02  0.51100000000E-03 0.  1.
         11   -1    0    0    0    0 -0.00000000000E+00 -0.00000000000E+00 -0.45593999997E+02  0.45594000000E+02  0.51100000000E-03 0. -1.
    9900012    2    1    2    0    0  0.33797963788E+02 -0.45409117647E+01 -0.29431125969E+02  0.46142318613E+02  0.10000007764E+02 0.  0.
        -12    1    1    2    0    0 -0.33797963788E+02  0.45409117647E+01  0.29431125969E+02  0.45045681387E+02  0.00000000000E+00 0.  1.
         11    1    3    3    0    0  0.85448217258E+01 -0.33390259985E+01 -0.85100069649E+01  0.12513324568E+02  0.51100000000E-03 0. -1.
        -11    1    3    3    0    0  0.11183698868E+02 -0.22537056734E+01 -0.52995954132E+01  0.12579349007E+02  0.51100000000E-03 0.  1.
        -12    1    3    3    0    0  0.14069443194E+02  0.10518199073E+01 -0.15621523591E+02  0.21049645038E+02  0.00000000000E+00 0.  1.
</event>
<event>
 7    1  0.1519238E-008  0.4614232E+02  0.7816164E-02  0.1320468E+00
        -11   -1    0    0    0    0  0.00000000000E+00  0.00000000000E+00  0.45593999997E+02  0.45594000000E+02  0.51100000000E-03 0.  1.
         11   -1    0    0    0    0 -0.00000000000E+00 -0.00000000000E+00 -0.45593999997E+02  0.45594000000E+02  0.51100000000E-03 0. -1.
    9900012    2    1    2    0    0  0.21739109699E+02 -0.33059586080E+02 -0.21531107561E+02  0.46142315245E+02  0.99999770525E+01 0.  0.
        -12    1    1    2    0    0 -0.21739109699E+02  0.33059586080E+02  0.21531107561E+02  0.45045684755E+02  0.00000000000E+00 0.  1.
         11    1    3    3    0    0  0.13137848085E+02 -0.17633768593E+02 -0.74850195609E+01  0.23228826169E+02  0.51100000000E-03 0. -1.
        -11    1    3    3    0    0  0.22999758327E+01 -0.32136499219E+01 -0.53492310312E+01  0.66506922601E+01  0.51100000000E-03 0.  1.
         12    1    3    3    0    0  0.63012857819E+01 -0.12212167565E+02 -0.86968569686E+01  0.16262796816E+02  0.00000000000E+00 0. -1.
</event>
<event>
 7    1  0.1519238E-008  0.4614232E+02  0.7816164E-02  0.1320468E+00
        -11   -1    0    0    0    0  0.00000000000E+00  0.00000000000E+00  0.45593999997E+02  0.45594000000E+02  0.51100000000E-03 0.  1.
         11   -1    0    0    0    0 -0.00000000000E+00 -0.00000000000E+00 -0.45593999997E+02  0.45594000000E+02  0.51100000000E-03 0. -1.
    9900012    2    1    2    0    0 -0.20107386889E+02  0.14775577169E+02 -0.37503184171E+02  0.46142317508E+02  0.99999976953E+01 0.  0.
        -12    1    1    2    0    0  0.20107386889E+02 -0.14775577169E+02  0.37503184171E+02  0.45045682492E+02  0.00000000000E+00 0.  1.
         11    1    3    3    0    0 -0.16929387382E+01  0.31290924015E+01 -0.64405415316E+01  0.73578418242E+01  0.51100000000E-03 0. -1.
        -11    1    3    3    0    0 -0.18191825251E+02  0.89155137764E+01 -0.28900975545E+02  0.35294408616E+02  0.51100000000E-03 0.  1.
        -12    1    3    3    0    0 -0.22262289910E+00  0.27309709913E+01 -0.21616670947E+01  0.34900670680E+01  0.00000000000E+00 0.  1.
</event>
<event>
 7    1  0.1519238E-008  0.4614232E+02  0.7816164E-02  0.1320468E+00
        -11   -1    0    0    0    0  0.00000000000E+00  0.00000000000E+00  0.45593999997E+02  0.45594000000E+02  0.51100000000E-03 0. -1.
         11   -1    0    0    0    0 -0.00000000000E+00 -0.00000000000E+00 -0.45593999997E+02  0.45594000000E+02  0.51100000000E-03 0.  1.
    9900012    2    1    2    0    0  0.16044854413E+02 -0.36036682502E+01  0.41936735468E+02  0.46142316970E+02  0.99999927824E+01 0.  0.
        -12    1    1    2    0    0 -0.16044854413E+02  0.36036682502E+01 -0.41936735468E+02  0.45045683030E+02  0.00000000000E+00 0.  1.
         11    1    3    3    0    0  0.97997332561E+01 -0.52714374420E+01  0.27904453950E+02  0.30041327785E+02  0.51100000000E-03 0. -1.
        -11    1    3    3    0    0  0.63948547263E+01  0.15979568277E+01  0.14322820695E+02  0.15766763330E+02  0.51100000000E-03 0.  1.
        -12    1    3    3    0    0 -0.14973356973E+00  0.69812364174E-01 -0.29053917708E+00  0.33422585405E+00  0.00000000000E+00 0.  1.
</event>
<event>
 7    1  0.1519238E-008  0.4614232E+02  0.7816164E-02  0.1320468E+00
        -11   -1    0    0    0    0  0.00000000000E+00  0.00000000000E+00  0.45593999997E+02  0.45594000000E+02  0.51100000000E-03 0. -1.
         11   -1    0    0    0    0 -0.00000000000E+00 -0.00000000000E+00 -0.45593999997E+02  0.45594000000E+02  0.51100000000E-03 0.  1.
    9900012    2    1    2    0    0 -0.12013869606E+02 -0.30303344936E+02  0.31088389400E+02  0.46142315049E+02  0.99999752709E+01 0.  0.
        -12    1    1    2    0    0  0.12013869606E+02  0.30303344936E+02 -0.31088389400E+02  0.45045684951E+02  0.00000000000E+00 0.  1.
         11    1    3    3    0    0 -0.37957985872E+01 -0.13131856320E+02  0.13062875749E+02  0.18907471021E+02  0.51100000000E-03 0. -1.
        -11    1    3    3    0    0 -0.26560073510E+01 -0.83926205693E+01  0.12976924394E+02  0.15680912667E+02  0.51100000000E-03 0.  1.
        -12    1    3    3    0    0 -0.55620636677E+01 -0.87788680470E+01  0.50485892574E+01  0.11553931362E+02  0.00000000000E+00 0.  1.
</event>
<event>
 7    1  0.1519238E-008  0.4614232E+02  0.7816164E-02  0.1320468E+00
        -11   -1    0    0    0    0  0.00000000000E+00  0.00000000000E+00  0.45593999997E+02  0.45594000000E+02  0.51100000000E-03 0.  1.
         11   -1    0    0    0    0 -0.00000000000E+00 -0.00000000000E+00 -0.45593999997E+02  0.45594000000E+02  0.51100000000E-03 0. -1.
    9900012    2    1    2    0    0  0.27638397364E+02  0.35450091179E+02 -0.29195081044E+01  0.46142317620E+02  0.99999987153E+01 0.  0.
        -12    1    1    2    0    0 -0.27638397364E+02 -0.35450091179E+02  0.29195081044E+01  0.45045682380E+02  0.00000000000E+00 0.  1.
         11    1    3    3    0    0  0.16752819547E+02  0.24057571548E+02 -0.61569077657E+01  0.29955487395E+02  0.51100000000E-03 0. -1.
        -11    1    3    3    0    0  0.62156944488E+01  0.77420786908E+01  0.22017973679E+01  0.10169687893E+02  0.51100000000E-03 0.  1.
         12    1    3    3    0    0  0.46698833684E+01  0.36504409400E+01  0.10356022934E+01  0.60171423318E+01  0.00000000000E+00 0. -1.
</event>
<event>
 7    1  0.1519238E-008  0.4614232E+02  0.7816164E-02  0.1320468E+00
        -11   -1    0    0    0    0  0.00000000000E+00  0.00000000000E+00  0.45593999997E+02  0.45594000000E+02  0.51100000000E-03 0. -1.
         11   -1    0    0    0    0 -0.00000000000E+00 -0.00000000000E+00 -0.45593999997E+02  0.45594000000E+02  0.51100000000E-03 0.  1.
    9900012    2    1    2    0    0  0.28268406842E+02  0.31065513297E+02 -0.16277121735E+02  0.46142316147E+02  0.99999852830E+01 0.  0.
        -12    1    1    2    0    0 -0.28268406842E+02 -0.31065513297E+02  0.16277121735E+02  0.45045683853E+02  0.00000000000E+00 0.  1.
         11    1    3    3    0    0  0.14504780638E+02  0.15946926876E+02 -0.12838373015E+02  0.25090176565E+02  0.51100000000E-03 0.  1.
        -11    1    3    3    0    0  0.10827878993E+02  0.98152841156E+01 -0.15162119256E+01  0.14692912054E+02  0.51100000000E-03 0. -1.
        -12    1    3    3    0    0  0.29357472110E+01  0.53033023054E+01 -0.19225367949E+01  0.63592275283E+01  0.00000000000E+00 0.  1.
</event>
<event>
 7    1  0.1519238E-008  0.4614232E+02  0.7816164E-02  0.1320468E+00
        -11   -1    0    0    0    0  0.00000000000E+00  0.00000000000E+00  0.45593999997E+02  0.45594000000E+02  0.51100000000E-03 0.  1.
         11   -1    0    0    0    0 -0.00000000000E+00 -0.00000000000E+00 -0.45593999997E+02  0.45594000000E+02  0.51100000000E-03 0. -1.
    9900012    2    1    2    0    0  0.44291374307E+01 -0.96727112190E+01 -0.43771392353E+02  0.46142318862E+02  0.10000010036E+02 0.  0.
        -12    1    1    2    0    0 -0.44291374307E+01  0.96727112190E+01  0.43771392353E+02  0.45045681138E+02  0.00000000000E+00 0.  1.
         11    1    3    3    0    0  0.11699995387E+01 -0.36629849795E+01 -0.22746983963E+02  0.23069712559E+02  0.51100000000E-03 0. -1.
        -11    1    3    3    0    0 -0.18478959943E+00  0.10014085509E+01 -0.65154230269E+01  0.65945207379E+01  0.51100000000E-03 0.  1.
         12    1    3    3    0    0  0.34439274914E+01 -0.70111347903E+01 -0.14508985363E+02  0.16478085565E+02  0.00000000000E+00 0. -1.
</event>
<event>
 7    1  0.1519238E-008  0.4614232E+02  0.7816164E-02  0.1320468E+00
        -11   -1    0    0    0    0  0.00000000000E+00  0.00000000000E+00  0.45593999997E+02  0.45594000000E+02  0.51100000000E-03 0. -1.
         11   -1    0    0    0    0 -0.00000000000E+00 -0.00000000000E+00 -0.45593999997E+02  0.45594000000E+02  0.51100000000E-03 0.  1.
    9900012    2    1    2    0    0 -0.43492443941E+02 -0.97608190878E+00  0.11686235844E+02  0.46142317365E+02  0.99999963892E+01 0.  0.
        -12    1    1    2    0    0  0.43492443941E+02  0.97608190878E+00 -0.11686235844E+02  0.45045682635E+02  0.00000000000E+00 0.  1.
         11    1    3    3    0    0 -0.25766484540E+02 -0.15644358203E+01  0.39119535218E+01  0.26108668400E+02  0.51100000000E-03 0. -1.
        -11    1    3    3    0    0 -0.17808731165E+02  0.81375467806E-01  0.79331418133E+01  0.19495955144E+02  0.51100000000E-03 0.  1.
        -12    1    3    3    0    0  0.82771764840E-01  0.50697844376E+00 -0.15885949090E+00  0.53769382118E+00  0.00000000000E+00 0.  1.
</event>
<event>
 7    1  0.1519238E-008  0.4614232E+02  0.7816164E-02  0.1320468E+00
        -11   -1    0    0    0    0  0.00000000000E+00  0.00000000000E+00  0.45593999997E+02  0.45594000000E+02  0.51100000000E-03 0.  1.
         11   -1    0    0    0    0 -0.00000000000E+00 -0.00000000000E+00 -0.45593999997E+02  0.45594000000E+02  0.51100000000E-03 0. -1.
    9900012    2    1    2    0    0 -0.25510518749E+02 -0.26161376986E+02 -0.26342152145E+02  0.46142321047E+02  0.10000029963E+02 0.  0.
        -12    1    1    2    0    0  0.25510518749E+02  0.26161376986E+02  0.26342152145E+02  0.45045678953E+02  0.00000000000E+00 0.  1.
         11    1    3    3    0    0 -0.14877654831E+02 -0.11624426634E+02 -0.13829103566E+02  0.23403333385E+02  0.51100000000E-03 0. -1.
        -11    1    3    3    0    0 -0.76558505080E+01 -0.55188842250E+01 -0.70780610466E+01  0.11796994470E+02  0.51100000000E-03 0.  1.
        -12    1    3    3    0    0 -0.29770134106E+01 -0.90180661273E+01 -0.54349875331E+01  0.10941993192E+02  0.00000000000E+00 0.  1.
</event>
<event>
 7    1  0.1519238E-008  0.4614232E+02  0.7816164E-02  0.1320468E+00
        -11   -1    0    0    0    0  0.00000000000E+00  0.00000000000E+00  0.45593999997E+02  0.45594000000E+02  0.51100000000E-03 0.  1.
         11   -1    0    0    0    0 -0.00000000000E+00 -0.00000000000E+00 -0.45593999997E+02  0.45594000000E+02  0.51100000000E-03 0. -1.
    9900012    2    1    2    0    0  0.21200825889E+02  0.16778738844E+02 -0.36029325059E+02  0.46142319189E+02  0.10000013020E+02 0.  0.
        -12    1    1    2    0    0 -0.21200825889E+02 -0.16778738844E+02  0.36029325059E+02  0.45045680811E+02  0.00000000000E+00 0.  1.
         11    1    3    3    0    0  0.10045154116E+02  0.56915651120E+01 -0.21360007164E+02  0.24280628924E+02  0.51100000000E-03 0. -1.
        -11    1    3    3    0    0  0.11299046355E+02  0.11080672426E+02 -0.13851142937E+02  0.21031022583E+02  0.51100000000E-03 0.  1.
         12    1    3    3    0    0 -0.14337458197E+00  0.65013059902E-02 -0.81817495761E+00  0.83066768265E+00  0.00000000000E+00 0. -1.
</event>
<event>
 7    1  0.1519238E-008  0.4614232E+02  0.7816164E-02  0.1320468E+00
        -11   -1    0    0    0    0  0.00000000000E+00  0.00000000000E+00  0.45593999997E+02  0.45594000000E+02  0.51100000000E-03 0.  1.
         11   -1    0    0    0    0 -0.00000000000E+00 -0.00000000000E+00 -0.45593999997E+02  0.45594000000E+02  0.51100000000E-03 0. -1.
    9900012    2    1    2    0    0 -0.27618518895E+02  0.84009359321E+01 -0.34579693299E+02  0.46142317641E+02  0.99999989062E+01 0.  0.
        -12    1    1    2    0    0  0.27618518895E+02 -0.84009359321E+01  0.34579693299E+02  0.45045682359E+02  0.00000000000E+00 0.  1.
         11    1    3    3    0    0 -0.18472339156E+02  0.60092890867E+01 -0.24337508820E+02  0.31139255050E+02  0.51100000000E-03 0. -1.
        -11    1    3    3    0    0 -0.76135562968E+00  0.18513444285E+01 -0.36366589992E+00  0.20345495166E+01  0.51100000000E-03 0.  1.
        -12    1    3    3    0    0 -0.83848241099E+01  0.54030241689E+00 -0.98785185792E+01  0.12968513075E+02  0.00000000000E+00 0.  1.
</event>
<event>
 7    1  0.1519238E-008  0.4614232E+02  0.7816164E-02  0.1320468E+00
        -11   -1    0    0    0    0  0.00000000000E+00  0.00000000000E+00  0.45593999997E+02  0.45594000000E+02  0.51100000000E-03 0.  1.
         11   -1    0    0    0    0 -0.00000000000E+00 -0.00000000000E+00 -0.45593999997E+02  0.45594000000E+02  0.51100000000E-03 0. -1.
    9900012    2    1    2    0    0  0.27242416962E+01 -0.30288690381E+02 -0.33230816967E+02  0.46142318141E+02  0.10000003464E+02 0.  0.
        -12    1    1    2    0    0 -0.27242416962E+01  0.30288690381E+02  0.33230816967E+02  0.45045681859E+02  0.00000000000E+00 0.  1.
         11    1    3    3    0    0  0.21067880464E+01 -0.20474905557E+01 -0.48063224832E+01  0.56330728312E+01  0.51100000000E-03 0. -1.
        -11    1    3    3    0    0  0.10873501278E+01 -0.27724605818E+02 -0.26138588880E+02  0.38119049398E+02  0.51100000000E-03 0.  1.
        -12    1    3    3    0    0 -0.46989647801E+00 -0.51659400761E+00 -0.22859056038E+01  0.23901959121E+01  0.00000000000E+00 0.  1.
</event>
<event>
 7    1  0.1519238E-008  0.4614232E+02  0.7816164E-02  0.1320468E+00
        -11   -1    0    0    0    0  0.00000000000E+00  0.00000000000E+00  0.45593999997E+02  0.45594000000E+02  0.51100000000E-03 0.  1.
         11   -1    0    0    0    0 -0.00000000000E+00 -0.00000000000E+00 -0.45593999997E+02  0.45594000000E+02  0.51100000000E-03 0. -1.
    9900012    2    1    2    0    0 -0.89267850653E+01  0.41702466101E+02 -0.14502766626E+02  0.46142318627E+02  0.10000007900E+02 0.  0.
        -12    1    1    2    0    0  0.89267850653E+01 -0.41702466101E+02  0.14502766626E+02  0.45045681373E+02  0.00000000000E+00 0.  1.
         11    1    3    3    0    0 -0.21532717108E+01  0.46354407450E+01  0.84444480321E+00  0.51804418004E+01  0.51100000000E-03 0. -1.
        -11    1    3    3    0    0 -0.41065461401E+01  0.25584697747E+02 -0.82104968758E+01  0.27181845765E+02  0.51100000000E-03 0.  1.
         12    1    3    3    0    0 -0.26669672144E+01  0.11482327609E+02 -0.71367145534E+01  0.13780031062E+02  0.00000000000E+00 0. -1.
</event>
<event>
 7    1  0.1519238E-008  0.4614232E+02  0.7816164E-02  0.1320468E+00
        -11   -1    0    0    0    0  0.00000000000E+00  0.00000000000E+00  0.45593999997E+02  0.45594000000E+02  0.51100000000E-03 0.  1.
         11   -1    0    0    0    0 -0.00000000000E+00 -0.00000000000E+00 -0.45593999997E+02  0.45594000000E+02  0.51100000000E-03 0. -1.
    9900012    2    1    2    0    0 -0.15020873155E+02 -0.16219185197E+01 -0.42436496673E+02  0.46142317633E+02  0.99999988337E+01 0.  0.
        -12    1    1    2    0    0  0.15020873155E+02  0.16219185197E+01  0.42436496673E+02  0.45045682367E+02  0.00000000000E+00 0.  1.
         11    1    3    3    0    0 -0.11098065454E+02 -0.41239280456E+01 -0.25562299315E+02  0.28170995472E+02  0.51100000000E-03 0. -1.
        -11    1    3    3    0    0 -0.25477093760E+01  0.22036796417E+01 -0.15916958487E+02  0.16269498909E+02  0.51100000000E-03 0.  1.
         12    1    3    3    0    0 -0.13750983254E+01  0.29832988431E+00 -0.95723887034E+00  0.17018232515E+01  0.00000000000E+00 0. -1.
</event>
<event>
 7    1  0.1519238E-008  0.4614232E+02  0.7816164E-02  0.1320468E+00
        -11   -1    0    0    0    0  0.00000000000E+00  0.00000000000E+00  0.45593999997E+02  0.45594000000E+02  0.51100000000E-03 0. -1.
         11   -1    0    0    0    0 -0.00000000000E+00 -0.00000000000E+00 -0.45593999997E+02  0.45594000000E+02  0.51100000000E-03 0.  1.
    9900012    2    1    2    0    0  0.37972296006E+02 -0.17939454810E+02 -0.16290921231E+02  0.46142318549E+02  0.10000007185E+02 0.  0.
        -12    1    1    2    0    0 -0.37972296006E+02  0.17939454810E+02  0.16290921231E+02  0.45045681451E+02  0.00000000000E+00 0.  1.
         11    1    3    3    0    0  0.19635281001E+02 -0.53183342324E+01 -0.99072240722E+01  0.22627019867E+02  0.51100000000E-03 0. -1.
        -11    1    3    3    0    0  0.90143311776E-01 -0.85664776381E+00 -0.59276315060E+00  0.10456288164E+01  0.51100000000E-03 0.  1.
         12    1    3    3    0    0  0.18246871693E+02 -0.11764472814E+02 -0.57909340080E+01  0.22469669866E+02  0.00000000000E+00 0. -1.
</event>
<event>
 7    1  0.1519238E-008  0.4614232E+02  0.7816164E-02  0.1320468E+00
        -11   -1    0    0    0    0  0.00000000000E+00  0.00000000000E+00  0.45593999997E+02  0.45594000000E+02  0.51100000000E-03 0. -1.
         11   -1    0    0    0    0 -0.00000000000E+00 -0.00000000000E+00 -0.45593999997E+02  0.45594000000E+02  0.51100000000E-03 0.  1.
    9900012    2    1    2    0    0 -0.37712805517E+02  0.48898141229E+01  0.24144305138E+02  0.46142318156E+02  0.10000003605E+02 0.  0.
        -12    1    1    2    0    0  0.37712805517E+02 -0.48898141229E+01 -0.24144305138E+02  0.45045681844E+02  0.00000000000E+00 0.  1.
         11    1    3    3    0    0 -0.13228783972E+02  0.51019593098E+01  0.70495124519E+01  0.15834340537E+02  0.51100000000E-03 0. -1.
        -11    1    3    3    0    0  0.19842157450E+00  0.27316617107E+00  0.18793496599E+00  0.38640741557E+00  0.51100000000E-03 0.  1.
         12    1    3    3    0    0 -0.24682443120E+02 -0.48531135793E+00  0.16906857720E+02  0.29921570204E+02  0.00000000000E+00 0. -1.
</event>
<event>
 7    1  0.1519238E-008  0.4614232E+02  0.7816164E-02  0.1320468E+00
        -11   -1    0    0    0    0  0.00000000000E+00  0.00000000000E+00  0.45593999997E+02  0.45594000000E+02  0.51100000000E-03 0.  1.
         11   -1    0    0    0    0 -0.00000000000E+00 -0.00000000000E+00 -0.45593999997E+02  0.45594000000E+02  0.51100000000E-03 0. -1.
    9900012    2    1    2    0    0 -0.15557808257E+02 -0.29536630091E+01 -0.42170415280E+02  0.46142318211E+02  0.10000004100E+02 0.  0.
        -12    1    1    2    0    0  0.15557808257E+02  0.29536630091E+01  0.42170415280E+02  0.45045681789E+02  0.00000000000E+00 0.  1.
         11    1    3    3    0    0 -0.83608232047E+01  0.13239219842E+01 -0.21238415739E+02  0.22863211442E+02  0.51100000000E-03 0. -1.
        -11    1    3    3    0    0 -0.41503228603E+01  0.82629581580E+00 -0.81794930898E+01  0.92093459098E+01  0.51100000000E-03 0.  1.
         12    1    3    3    0    0 -0.30466621921E+01 -0.51038808091E+01 -0.12752506452E+02  0.14069760859E+02  0.00000000000E+00 0. -1.
</event>
<event>
 7    1  0.1519238E-008  0.4614232E+02  0.7816164E-02  0.1320468E+00
        -11   -1    0    0    0    0  0.00000000000E+00  0.00000000000E+00  0.45593999997E+02  0.45594000000E+02  0.51100000000E-03 0.  1.
         11   -1    0    0    0    0 -0.00000000000E+00 -0.00000000000E+00 -0.45593999997E+02  0.45594000000E+02  0.51100000000E-03 0. -1.
    9900012    2    1    2    0    0 -0.39310365186E+02 -0.16791943712E+02 -0.14207013286E+02  0.46142318618E+02  0.10000007815E+02 0.  0.
        -12    1    1    2    0    0  0.39310365186E+02  0.16791943712E+02  0.14207013286E+02  0.45045681382E+02  0.00000000000E+00 0.  1.
         11    1    3    3    0    0 -0.29001738246E+02 -0.10101170356E+02 -0.85258962654E+01  0.31872015488E+02  0.51100000000E-03 0. -1.
        -11    1    3    3    0    0 -0.30213188222E+01 -0.28624013893E+01  0.17892518874E+00  0.41657800738E+01  0.51100000000E-03 0.  1.
        -12    1    3    3    0    0 -0.72873081175E+01 -0.38283719667E+01 -0.58600422090E+01  0.10104523057E+02  0.00000000000E+00 0.  1.
</event>
<event>
 7    1  0.1519238E-008  0.4614232E+02  0.7816164E-02  0.1320468E+00
        -11   -1    0    0    0    0  0.00000000000E+00  0.00000000000E+00  0.45593999997E+02  0.45594000000E+02  0.51100000000E-03 0. -1.
         11   -1    0    0    0    0 -0.00000000000E+00 -0.00000000000E+00 -0.45593999997E+02  0.45594000000E+02  0.51100000000E-03 0.  1.
    9900012    2    1    2    0    0  0.24018820208E+01  0.53007945187E+01  0.44668177970E+02  0.46142316712E+02  0.99999904296E+01 0.  0.
        -12    1    1    2    0    0 -0.24018820208E+01 -0.53007945187E+01 -0.44668177970E+02  0.45045683288E+02  0.00000000000E+00 0.  1.
         11    1    3    3    0    0  0.26305862935E+01 -0.10191648606E+01  0.28677865233E+02  0.28816291154E+02  0.51100000000E-03 0. -1.
        -11    1    3    3    0    0 -0.97442447590E+00  0.23836817298E+01  0.49218644788E+01  0.55548349982E+01  0.51100000000E-03 0.  1.
         12    1    3    3    0    0  0.74572020316E+00  0.39362776494E+01  0.11068448258E+02  0.11771190560E+02  0.00000000000E+00 0. -1.
</event>
<event>
 7    1  0.1519238E-008  0.4614232E+02  0.7816164E-02  0.1320468E+00
        -11   -1    0    0    0    0  0.00000000000E+00  0.00000000000E+00  0.45593999997E+02  0.45594000000E+02  0.51100000000E-03 0.  1.
         11   -1    0    0    0    0 -0.00000000000E+00 -0.00000000000E+00 -0.45593999997E+02  0.45594000000E+02  0.51100000000E-03 0. -1.
    9900012    2    1    2    0    0 -0.23373607523E+02  0.27748853848E+02 -0.26698109865E+02  0.46142317756E+02  0.99999999500E+01 0.  0.
        -12    1    1    2    0    0  0.23373607523E+02 -0.27748853848E+02  0.26698109865E+02  0.45045682244E+02  0.00000000000E+00 0.  1.
         11    1    3    3    0    0 -0.59078183689E+01  0.14040805987E+02 -0.92020550967E+01  0.17796751639E+02  0.51100000000E-03 0. -1.
        -11    1    3    3    0    0 -0.84994251092E+01  0.69953879522E+01 -0.73806728487E+01  0.13253301919E+02  0.51100000000E-03 0.  1.
         12    1    3    3    0    0 -0.89663640451E+01  0.67126599084E+01 -0.10115381919E+02  0.15092264198E+02  0.00000000000E+00 0. -1.
</event>
<event>
 7    1  0.1519238E-008  0.4614232E+02  0.7816164E-02  0.1320468E+00
        -11   -1    0    0    0    0  0.00000000000E+00  0.00000000000E+00  0.45593999997E+02  0.45594000000E+02  0.51100000000E-03 0. -1.
         11   -1    0    0    0    0 -0.00000000000E+00 -0.00000000000E+00 -0.45593999997E+02  0.45594000000E+02  0.51100000000E-03 0.  1.
    9900012    2    1    2    0    0  0.85705411124E+01 -0.44127337993E+02  0.29047085180E+01  0.46142318022E+02  0.10000002376E+02 0.  0.
        -12    1    1    2    0    0 -0.85705411124E+01  0.44127337993E+02 -0.29047085180E+01  0.45045681978E+02  0.00000000000E+00 0.  1.
         11    1    3    3    0    0  0.20362078558E+00 -0.23255395160E+02  0.13942264290E+01  0.23298041400E+02  0.51100000000E-03 0. -1.
        -11    1    3    3    0    0  0.75380581642E+01 -0.14264676887E+02  0.95760535596E+00  0.16162312206E+02  0.51100000000E-03 0.  1.
        -12    1    3    3    0    0  0.82886216262E+00 -0.66072659460E+01  0.55287673300E+00  0.66819644153E+01  0.00000000000E+00 0.  1.
</event>
<event>
 7    1  0.1519238E-008  0.4614232E+02  0.7816164E-02  0.1320468E+00
        -11   -1    0    0    0    0  0.00000000000E+00  0.00000000000E+00  0.45593999997E+02  0.45594000000E+02  0.51100000000E-03 0. -1.
         11   -1    0    0    0    0 -0.00000000000E+00 -0.00000000000E+00 -0.45593999997E+02  0.45594000000E+02  0.51100000000E-03 0.  1.
    9900012    2    1    2    0    0 -0.20803735293E+02 -0.14716583433E+02  0.37144855061E+02  0.46142317769E+02  0.10000000074E+02 0.  0.
        -12    1    1    2    0    0  0.20803735293E+02  0.14716583433E+02 -0.37144855061E+02  0.45045682231E+02  0.00000000000E+00 0.  1.
         11    1    3    3    0    0 -0.36836712590E+01 -0.52489168151E+01  0.97318182688E+01  0.11654563430E+02  0.51100000000E-03 0. -1.
        -11    1    3    3    0    0 -0.52098463494E+00 -0.25500757407E+01  0.16942104876E+01  0.31055854055E+01  0.51100000000E-03 0.  1.
         12    1    3    3    0    0 -0.16599079399E+02 -0.69175908776E+01  0.25718826305E+02  0.31382168933E+02  0.00000000000E+00 0. -1.
</event>
<event>
 7    1  0.1519238E-008  0.4614232E+02  0.7816164E-02  0.1320468E+00
        -11   -1    0    0    0    0  0.00000000000E+00  0.00000000000E+00  0.45593999997E+02  0.45594000000E+02  0.51100000000E-03 0.  1.
         11   -1    0    0    0    0 -0.00000000000E+00 -0.00000000000E+00 -0.45593999997E+02  0.45594000000E+02  0.51100000000E-03 0. -1.
    9900012    2    1    2    0    0 -0.30173631073E+02 -0.17293453345E+02 -0.28628691545E+02  0.46142317406E+02  0.99999967635E+01 0.  0.
        -12    1    1    2    0    0  0.30173631073E+02  0.17293453345E+02  0.28628691545E+02  0.45045682594E+02  0.00000000000E+00 0.  1.
         11    1    3    3    0    0 -0.87095325056E+01 -0.77692049530E+01 -0.55466124806E+01  0.12922128785E+02  0.51100000000E-03 0. -1.
        -11    1    3    3    0    0 -0.20766659222E+02 -0.97054548592E+01 -0.21272853072E+02  0.31272740004E+02  0.51100000000E-03 0.  1.
         12    1    3    3    0    0 -0.69743934546E+00  0.18120646668E+00 -0.18092259926E+01  0.19474486172E+01  0.00000000000E+00 0. -1.
</event>
<event>
 7    1  0.1519238E-008  0.4614232E+02  0.7816164E-02  0.1320468E+00
        -11   -1    0    0    0    0  0.00000000000E+00  0.00000000000E+00  0.45593999997E+02  0.45594000000E+02  0.51100000000E-03 0.  1.
         11   -1    0    0    0    0 -0.00000000000E+00 -0.00000000000E+00 -0.45593999997E+02  0.45594000000E+02  0.51100000000E-03 0. -1.
    9900012    2    1    2    0    0  0.22291670730E+02 -0.36277061178E+02 -0.14702714572E+02  0.46142316883E+02  0.99999919964E+01 0.  0.
        -12    1    1    2    0    0 -0.22291670730E+02  0.36277061178E+02  0.14702714572E+02  0.45045683117E+02  0.00000000000E+00 0.  1.
         11    1    3    3    0    0 -0.61946249903E+00 -0.21137586217E+01 -0.75399365940E+00  0.23281357344E+01  0.51100000000E-03 0.  1.
        -11    1    3    3    0    0  0.11904652564E+02 -0.19206407589E+02 -0.10539454697E+02  0.24933650970E+02  0.51100000000E-03 0. -1.
        -12    1    3    3    0    0  0.11006480665E+02 -0.14956894968E+02 -0.34092662158E+01  0.18880530179E+02  0.00000000000E+00 0.  1.
</event>
<event>
 7    1  0.1519238E-008  0.4614232E+02  0.7816164E-02  0.1320468E+00
        -11   -1    0    0    0    0  0.00000000000E+00  0.00000000000E+00  0.45593999997E+02  0.45594000000E+02  0.51100000000E-03 0.  1.
         11   -1    0    0    0    0 -0.00000000000E+00 -0.00000000000E+00 -0.45593999997E+02  0.45594000000E+02  0.51100000000E-03 0. -1.
    9900012    2    1    2    0    0 -0.29435187269E+02 -0.20728999565E+02 -0.27073822490E+02  0.46142317224E+02  0.99999950990E+01 0.  0.
        -12    1    1    2    0    0  0.29435187269E+02  0.20728999565E+02  0.27073822490E+02  0.45045682776E+02  0.00000000000E+00 0.  1.
         11    1    3    3    0    0 -0.15533411585E+02 -0.11632898104E+02 -0.18381209057E+02  0.26729759453E+02  0.51100000000E-03 0. -1.
        -11    1    3    3    0    0 -0.11418036879E+02 -0.59770796968E+01 -0.84643492074E+01  0.15418892815E+02  0.51100000000E-03 0.  1.
         12    1    3    3    0    0 -0.24837388056E+01 -0.31190217648E+01 -0.22826422590E+00  0.39936649559E+01  0.00000000000E+00 0. -1.
</event>
<event>
 7    1  0.1519238E-008  0.4614232E+02  0.7816164E-02  0.1320468E+00
        -11   -1    0    0    0    0  0.00000000000E+00  0.00000000000E+00  0.45593999997E+02  0.45594000000E+02  0.51100000000E-03 0.  1.
         11   -1    0    0    0    0 -0.00000000000E+00 -0.00000000000E+00 -0.45593999997E+02  0.45594000000E+02  0.51100000000E-03 0. -1.
    9900012    2    1    2    0    0 -0.40338192334E+02  0.17769366826E+02  0.92840409326E+01  0.46142316808E+02  0.99999913115E+01 0.  0.
        -12    1    1    2    0    0  0.40338192334E+02 -0.17769366826E+02 -0.92840409326E+01  0.45045683192E+02  0.00000000000E+00 0.  1.
         11    1    3    3    0    0 -0.35283647777E+02  0.14490502432E+02  0.11294590377E+02  0.39780374976E+02  0.51100000000E-03 0. -1.
        -11    1    3    3    0    0 -0.26065957165E+01  0.18650448825E+01 -0.95432444601E+00  0.33441694115E+01  0.51100000000E-03 0.  1.
         12    1    3    3    0    0 -0.24479488402E+01  0.14138195114E+01 -0.10562249985E+01  0.30177724206E+01  0.00000000000E+00 0. -1.
</event>
<event>
 7    1  0.1519238E-008  0.4614232E+02  0.7816164E-02  0.1320468E+00
        -11   -1    0    0    0    0  0.00000000000E+00  0.00000000000E+00  0.45593999997E+02  0.45594000000E+02  0.51100000000E-03 0.  1.
         11   -1    0    0    0    0 -0.00000000000E+00 -0.00000000000E+00 -0.45593999997E+02  0.45594000000E+02  0.51100000000E-03 0. -1.
    9900012    2    1    2    0    0 -0.10681400184E+01 -0.36637702279E+02 -0.26184939962E+02  0.46142320605E+02  0.10000025929E+02 0.  0.
        -12    1    1    2    0    0  0.10681400184E+01  0.36637702279E+02  0.26184939962E+02  0.45045679395E+02  0.00000000000E+00 0.  1.
         11    1    3    3    0    0 -0.82692398191E+00 -0.45359881419E+00 -0.15914063084E+01  0.18498998502E+01  0.51100000000E-03 0.  1.
        -11    1    3    3    0    0 -0.20702833911E+01 -0.24775623918E+02 -0.13575097367E+02  0.28326681462E+02  0.51100000000E-03 0. -1.
         12    1    3    3    0    0  0.18290673546E+01 -0.11408479546E+02 -0.11018436287E+02  0.15965739293E+02  0.00000000000E+00 0. -1.
</event>
<event>
 7    1  0.1519238E-008  0.4614233E+02  0.7816164E-02  0.1320468E+00
        -11   -1    0    0    0    0  0.00000000000E+00  0.00000000000E+00  0.45593999997E+02  0.45594000000E+02  0.51100000000E-03 0.  1.
         11   -1    0    0    0    0 -0.00000000000E+00 -0.00000000000E+00 -0.45593999997E+02  0.45594000000E+02  0.51100000000E-03 0. -1.
    9900012    2    1    2    0    0 -0.33488009460E+02  0.30020210401E+02 -0.25402427054E+01  0.46142327144E+02  0.10000085558E+02 0.  0.
        -12    1    1    2    0    0  0.33488009460E+02 -0.30020210401E+02  0.25402427054E+01  0.45045672856E+02  0.00000000000E+00 0.  1.
         11    1    3    3    0    0 -0.82427895934E+01  0.59096048465E+01 -0.10735198398E+01  0.10198992834E+02  0.51100000000E-03 0. -1.
        -11    1    3    3    0    0 -0.76620516923E+00  0.40343213748E+00  0.15055449212E+01  0.17368055798E+01  0.51100000000E-03 0.  1.
        -12    1    3    3    0    0 -0.24479014697E+02  0.23707173417E+02 -0.29722677869E+01  0.34206528730E+02  0.00000000000E+00 0.  1.
</event>
<event>
 7    1  0.1519238E-008  0.4614232E+02  0.7816164E-02  0.1320468E+00
        -11   -1    0    0    0    0  0.00000000000E+00  0.00000000000E+00  0.45593999997E+02  0.45594000000E+02  0.51100000000E-03 0.  1.
         11   -1    0    0    0    0 -0.00000000000E+00 -0.00000000000E+00 -0.45593999997E+02  0.45594000000E+02  0.51100000000E-03 0. -1.
    9900012    2    1    2    0    0  0.15162364882E+02 -0.15025805619E+02 -0.39666626702E+02  0.46142318551E+02  0.10000007202E+02 0.  0.
        -12    1    1    2    0    0 -0.15162364882E+02  0.15025805619E+02  0.39666626702E+02  0.45045681449E+02  0.00000000000E+00 0.  1.
         11    1    3    3    0    0  0.53590240217E+01 -0.56047692262E+01 -0.19239900639E+02  0.20743826875E+02  0.51100000000E-03 0. -1.
        -11    1    3    3    0    0  0.36156266134E+01 -0.76295291983E+01 -0.94593240057E+01  0.12679167264E+02  0.51100000000E-03 0.  1.
        -12    1    3    3    0    0  0.61877142468E+01 -0.17915071947E+01 -0.10967402057E+02  0.12719324412E+02  0.00000000000E+00 0.  1.
</event>
<event>
 7    1  0.1519238E-008  0.4614232E+02  0.7816164E-02  0.1320468E+00
        -11   -1    0    0    0    0  0.00000000000E+00  0.00000000000E+00  0.45593999997E+02  0.45594000000E+02  0.51100000000E-03 0.  1.
         11   -1    0    0    0    0 -0.00000000000E+00 -0.00000000000E+00 -0.45593999997E+02  0.45594000000E+02  0.51100000000E-03 0. -1.
    9900012    2    1    2    0    0 -0.13545503012E+02 -0.37056082770E+02 -0.21736595934E+02  0.46142317356E+02  0.99999963079E+01 0.  0.
        -12    1    1    2    0    0  0.13545503012E+02  0.37056082770E+02  0.21736595934E+02  0.45045682644E+02  0.00000000000E+00 0.  1.
         11    1    3    3    0    0 -0.10182982762E+02 -0.15185968228E+02 -0.79260116022E+01  0.19928081421E+02  0.51100000000E-03 0. -1.
        -11    1    3    3    0    0 -0.17896212567E+01 -0.74155362221E+01 -0.60270395280E+01  0.97220433777E+01  0.51100000000E-03 0.  1.
         12    1    3    3    0    0 -0.15728989927E+01 -0.14454578320E+02 -0.77835448033E+01  0.16492192557E+02  0.00000000000E+00 0. -1.
</event>
<event>
 7    1  0.1519238E-008  0.4614232E+02  0.7816164E-02  0.1320468E+00
        -11   -1    0    0    0    0  0.00000000000E+00  0.00000000000E+00  0.45593999997E+02  0.45594000000E+02  0.51100000000E-03 0.  1.
         11   -1    0    0    0    0 -0.00000000000E+00 -0.00000000000E+00 -0.45593999997E+02  0.45594000000E+02  0.51100000000E-03 0. -1.
    9900012    2    1    2    0    0  0.26838469673E+02 -0.35779350002E+02  0.53523949241E+01  0.46142317939E+02  0.10000001620E+02 0.  0.
        -12    1    1    2    0    0 -0.26838469673E+02  0.35779350002E+02 -0.53523949241E+01  0.45045682061E+02  0.00000000000E+00 0.  1.
         11    1    3    3    0    0  0.98982299394E+01 -0.19141568468E+02  0.66844899862E+00  0.21559717616E+02  0.51100000000E-03 0. -1.
        -11    1    3    3    0    0  0.10078411381E+02 -0.12052689424E+02  0.44388934932E+01  0.16326220445E+02  0.51100000000E-03 0.  1.
         12    1    3    3    0    0  0.68618283520E+01 -0.45850921101E+01  0.24505243229E+00  0.82563798778E+01  0.00000000000E+00 0. -1.
</event>
<event>
 7    1  0.1519238E-008  0.4614232E+02  0.7816164E-02  0.1320468E+00
        -11   -1    0    0    0    0  0.00000000000E+00  0.00000000000E+00  0.45593999997E+02  0.45594000000E+02  0.51100000000E-03 0.  1.
         11   -1    0    0    0    0 -0.00000000000E+00 -0.00000000000E+00 -0.45593999997E+02  0.45594000000E+02  0.51100000000E-03 0. -1.
    9900012    2    1    2    0    0  0.35453775824E+02  0.26377135996E+02 -0.87401376022E+01  0.46142317312E+02  0.99999959076E+01 0.  0.
        -12    1    1    2    0    0 -0.35453775824E+02 -0.26377135996E+02  0.87401376022E+01  0.45045682688E+02  0.00000000000E+00 0.  1.
         11    1    3    3    0    0  0.95659230606E+01  0.78933097386E+01 -0.68330551512E+01  0.14159868135E+02  0.51100000000E-03 0. -1.
        -11    1    3    3    0    0  0.76563903733E+01  0.46605001714E+01  0.49670210565E+00  0.89770423101E+01  0.51100000000E-03 0.  1.
         12    1    3    3    0    0  0.18231462390E+02  0.13823326086E+02 -0.24037845567E+01  0.23005406868E+02  0.00000000000E+00 0. -1.
</event>
<event>
 7    1  0.1519238E-008  0.4614232E+02  0.7816164E-02  0.1320468E+00
        -11   -1    0    0    0    0  0.00000000000E+00  0.00000000000E+00  0.45593999997E+02  0.45594000000E+02  0.51100000000E-03 0.  1.
         11   -1    0    0    0    0 -0.00000000000E+00 -0.00000000000E+00 -0.45593999997E+02  0.45594000000E+02  0.51100000000E-03 0. -1.
    9900012    2    1    2    0    0  0.18358066760E+02  0.39115703915E+02 -0.12730145055E+02  0.46142317621E+02  0.99999987184E+01 0.  0.
        -12    1    1    2    0    0 -0.18358066760E+02 -0.39115703915E+02  0.12730145055E+02  0.45045682379E+02  0.00000000000E+00 0.  1.
         11    1    3    3    0    0  0.41752880679E+01  0.36045304751E+01 -0.10920352985E+01  0.56230073582E+01  0.51100000000E-03 0. -1.
        -11    1    3    3    0    0  0.43382205932E+01  0.60832459953E+01 -0.28622608351E+00  0.74771629236E+01  0.51100000000E-03 0.  1.
         12    1    3    3    0    0  0.98445580990E+01  0.29427927444E+02 -0.11351883673E+02  0.33042147339E+02  0.00000000000E+00 0. -1.
</event>
<event>
 7    1  0.1519238E-008  0.4614232E+02  0.7816164E-02  0.1320468E+00
        -11   -1    0    0    0    0  0.00000000000E+00  0.00000000000E+00  0.45593999997E+02  0.45594000000E+02  0.51100000000E-03 0.  1.
         11   -1    0    0    0    0 -0.00000000000E+00 -0.00000000000E+00 -0.45593999997E+02  0.45594000000E+02  0.51100000000E-03 0. -1.
    9900012    2    1    2    0    0 -0.32266030353E+02 -0.30659113064E+02 -0.69307673999E+01  0.46142318016E+02  0.10000002327E+02 0.  0.
        -12    1    1    2    0    0  0.32266030353E+02  0.30659113064E+02  0.69307673999E+01  0.45045681984E+02  0.00000000000E+00 0.  1.
         11    1    3    3    0    0 -0.30509061623E+01 -0.36868288468E+01 -0.46817213771E-01  0.47857003113E+01  0.51100000000E-03 0. -1.
        -11    1    3    3    0    0 -0.18687235157E+02 -0.22097558117E+02 -0.69164792875E+01  0.29754873862E+02  0.51100000000E-03 0.  1.
        -12    1    3    3    0    0 -0.10527889033E+02 -0.48747261006E+01  0.32529101400E-01  0.11601743843E+02  0.00000000000E+00 0.  1.
</event>
<event>
 7    1  0.1519238E-008  0.4614233E+02  0.7816164E-02  0.1320468E+00
        -11   -1    0    0    0    0  0.00000000000E+00  0.00000000000E+00  0.45593999997E+02  0.45594000000E+02  0.51100000000E-03 0. -1.
         11   -1    0    0    0    0 -0.00000000000E+00 -0.00000000000E+00 -0.45593999997E+02  0.45594000000E+02  0.51100000000E-03 0.  1.
    9900012    2    1    2    0    0 -0.28687780607E+02 -0.28986554884E+02  0.19128590098E+02  0.46142333401E+02  0.10000142615E+02 0.  0.
        -12    1    1    2    0    0  0.28687780607E+02  0.28986554884E+02 -0.19128590098E+02  0.45045666599E+02  0.00000000000E+00 0.  1.
         11    1    3    3    0    0 -0.21911509383E+01 -0.68672310190E+01  0.34528285709E+01  0.79926234557E+01  0.51100000000E-03 0.  1.
        -11    1    3    3    0    0 -0.23700926085E+02 -0.17875557136E+02  0.13738530717E+02  0.32711109225E+02  0.51100000000E-03 0. -1.
         12    1    3    3    0    0 -0.27957035838E+01 -0.42437667295E+01  0.19372308097E+01  0.54386007201E+01  0.00000000000E+00 0. -1.
</event>
<event>
 7    1  0.1519238E-008  0.4614232E+02  0.7816164E-02  0.1320468E+00
        -11   -1    0    0    0    0  0.00000000000E+00  0.00000000000E+00  0.45593999997E+02  0.45594000000E+02  0.51100000000E-03 0.  1.
         11   -1    0    0    0    0 -0.00000000000E+00 -0.00000000000E+00 -0.45593999997E+02  0.45594000000E+02  0.51100000000E-03 0. -1.
    9900012    2    1    2    0    0 -0.44925207031E+02 -0.28911526237E+01 -0.15749652225E+01  0.46142317569E+02  0.99999982465E+01 0.  0.
        -12    1    1    2    0    0  0.44925207031E+02  0.28911526237E+01  0.15749652225E+01  0.45045682431E+02  0.00000000000E+00 0.  1.
         11    1    3    3    0    0 -0.24988402116E+02 -0.21671485551E+01 -0.51381160431E+01  0.25603066416E+02  0.51100000000E-03 0. -1.
        -11    1    3    3    0    0 -0.15799423394E+02  0.64576409922E+00  0.21527299471E+01  0.15958478541E+02  0.51100000000E-03 0.  1.
        -12    1    3    3    0    0 -0.41373815206E+01 -0.13697681679E+01  0.14104208736E+01  0.45807726118E+01  0.00000000000E+00 0.  1.
</event>
<event>
 7    1  0.1519238E-008  0.4614232E+02  0.7816164E-02  0.1320468E+00
        -11   -1    0    0    0    0  0.00000000000E+00  0.00000000000E+00  0.45593999997E+02  0.45594000000E+02  0.51100000000E-03 0.  1.
         11   -1    0    0    0    0 -0.00000000000E+00 -0.00000000000E+00 -0.45593999997E+02  0.45594000000E+02  0.51100000000E-03 0. -1.
    9900012    2    1    2    0    0  0.30652952946E+02 -0.20452375152E+02 -0.25907722240E+02  0.46142320459E+02  0.10000024598E+02 0.  0.
        -12    1    1    2    0    0 -0.30652952946E+02  0.20452375152E+02  0.25907722240E+02  0.45045679541E+02  0.00000000000E+00 0.  1.
         11    1    3    3    0    0  0.27698257362E+01 -0.12363065630E+01 -0.62518672081E+01  0.69488295687E+01  0.51100000000E-03 0. -1.
        -11    1    3    3    0    0  0.49828668949E+01 -0.36700898520E+01 -0.43546970631E+01  0.75671598890E+01  0.51100000000E-03 0.  1.
         12    1    3    3    0    0  0.22900260315E+02 -0.15545978737E+02 -0.15301157969E+02  0.31626331001E+02  0.00000000000E+00 0. -1.
</event>
<event>
 7    1  0.1519238E-008  0.4614232E+02  0.7816164E-02  0.1320468E+00
        -11   -1    0    0    0    0  0.00000000000E+00  0.00000000000E+00  0.45593999997E+02  0.45594000000E+02  0.51100000000E-03 0.  1.
         11   -1    0    0    0    0 -0.00000000000E+00 -0.00000000000E+00 -0.45593999997E+02  0.45594000000E+02  0.51100000000E-03 0. -1.
    9900012    2    1    2    0    0 -0.88440684733E+01 -0.14939239888E+02 -0.41565791123E+02  0.46142318439E+02  0.10000006183E+02 0.  0.
        -12    1    1    2    0    0  0.88440684733E+01  0.14939239888E+02  0.41565791123E+02  0.45045681561E+02  0.00000000000E+00 0.  1.
         11    1    3    3    0    0 -0.60188411873E+01 -0.11100838015E+02 -0.24052281037E+02  0.27165553137E+02  0.51100000000E-03 0. -1.
        -11    1    3    3    0    0 -0.12724150226E+01  0.19106230780E+00 -0.43108588962E+00  0.13569746131E+01  0.51100000000E-03 0.  1.
         12    1    3    3    0    0 -0.15528122633E+01 -0.40294641807E+01 -0.17082424197E+02  0.17619790689E+02  0.00000000000E+00 0. -1.
</event>
<event>
 7    1  0.1519238E-008  0.4614232E+02  0.7816164E-02  0.1320468E+00
        -11   -1    0    0    0    0  0.00000000000E+00  0.00000000000E+00  0.45593999997E+02  0.45594000000E+02  0.51100000000E-03 0.  1.
         11   -1    0    0    0    0 -0.00000000000E+00 -0.00000000000E+00 -0.45593999997E+02  0.45594000000E+02  0.51100000000E-03 0. -1.
    9900012    2    1    2    0    0  0.35818549874E+02  0.22851704814E+02  0.14964777367E+02  0.46142317747E+02  0.99999998712E+01 0.  0.
        -12    1    1    2    0    0 -0.35818549874E+02 -0.22851704814E+02 -0.14964777367E+02  0.45045682253E+02  0.00000000000E+00 0.  1.
         11    1    3    3    0    0  0.31305250797E+02  0.22236691962E+02  0.15677698349E+02  0.41476251309E+02  0.51100000000E-03 0. -1.
        -11    1    3    3    0    0  0.11567753029E+01 -0.13894167997E+00 -0.77058336571E-01  0.11676352770E+01  0.51100000000E-03 0.  1.
         12    1    3    3    0    0  0.33565237746E+01  0.75395453188E+00 -0.63586264509E+00  0.34984311611E+01  0.00000000000E+00 0. -1.
</event>
<event>
 7    1  0.1519238E-008  0.4614232E+02  0.7816164E-02  0.1320468E+00
        -11   -1    0    0    0    0  0.00000000000E+00  0.00000000000E+00  0.45593999997E+02  0.45594000000E+02  0.51100000000E-03 0.  1.
         11   -1    0    0    0    0 -0.00000000000E+00 -0.00000000000E+00 -0.45593999997E+02  0.45594000000E+02  0.51100000000E-03 0. -1.
    9900012    2    1    2    0    0 -0.10218825461E+02 -0.12531532471E+02 -0.42043428017E+02  0.46142317196E+02  0.99999948484E+01 0.  0.
        -12    1    1    2    0    0  0.10218825461E+02  0.12531532471E+02  0.42043428017E+02  0.45045682804E+02  0.00000000000E+00 0.  1.
         11    1    3    3    0    0  0.37009301973E+00 -0.68273740984E+01 -0.14640038983E+02  0.16157993303E+02  0.51100000000E-03 0. -1.
        -11    1    3    3    0    0 -0.58675674873E+01 -0.40111404292E+01 -0.14752185777E+02  0.16375120800E+02  0.51100000000E-03 0.  1.
         12    1    3    3    0    0 -0.47213509938E+01 -0.16930179434E+01 -0.12651203257E+02  0.13609203093E+02  0.00000000000E+00 0. -1.
</event>
<event>
 7    1  0.1519238E-008  0.4614232E+02  0.7816164E-02  0.1320468E+00
        -11   -1    0    0    0    0  0.00000000000E+00  0.00000000000E+00  0.45593999997E+02  0.45594000000E+02  0.51100000000E-03 0.  1.
         11   -1    0    0    0    0 -0.00000000000E+00 -0.00000000000E+00 -0.45593999997E+02  0.45594000000E+02  0.51100000000E-03 0. -1.
    9900012    2    1    2    0    0 -0.28319750595E+02 -0.34735587905E+02  0.45325810372E+01  0.46142316169E+02  0.99999854839E+01 0.  0.
        -12    1    1    2    0    0  0.28319750595E+02  0.34735587905E+02 -0.45325810372E+01  0.45045683831E+02  0.00000000000E+00 0.  1.
         11    1    3    3    0    0 -0.16421274328E+02 -0.15434308023E+02  0.32283454806E+01  0.22766166333E+02  0.51100000000E-03 0. -1.
        -11    1    3    3    0    0 -0.72757934318E+01 -0.89597590187E+01 -0.16762117386E+01  0.11662938643E+02  0.51100000000E-03 0.  1.
        -12    1    3    3    0    0 -0.46226828354E+01 -0.10341520864E+02  0.29804472953E+01  0.11713211193E+02  0.00000000000E+00 0.  1.
</event>
<event>
 7    1  0.1519238E-008  0.4614232E+02  0.7816164E-02  0.1320468E+00
        -11   -1    0    0    0    0  0.00000000000E+00  0.00000000000E+00  0.45593999997E+02  0.45594000000E+02  0.51100000000E-03 0.  1.
         11   -1    0    0    0    0 -0.00000000000E+00 -0.00000000000E+00 -0.45593999997E+02  0.45594000000E+02  0.51100000000E-03 0. -1.
    9900012    2    1    2    0    0  0.41635805222E+02 -0.47672313974E+01 -0.16518065922E+02  0.46142320146E+02  0.10000021749E+02 0.  0.
        -12    1    1    2    0    0 -0.41635805222E+02  0.47672313974E+01  0.16518065922E+02  0.45045679854E+02  0.00000000000E+00 0.  1.
         11    1    3    3    0    0  0.19258549669E+02  0.26793298810E+01 -0.66579800043E+01  0.20552353684E+02  0.51100000000E-03 0.  1.
        -11    1    3    3    0    0  0.12430377113E+02 -0.47579324473E+01 -0.54843547369E+01  0.14395497334E+02  0.51100000000E-03 0. -1.
        -12    1    3    3    0    0  0.99468784402E+01 -0.26886288311E+01 -0.43757311806E+01  0.11194469128E+02  0.00000000000E+00 0.  1.
</event>
<event>
 7    1  0.1519238E-008  0.4614232E+02  0.7816164E-02  0.1320468E+00
        -11   -1    0    0    0    0  0.00000000000E+00  0.00000000000E+00  0.45593999997E+02  0.45594000000E+02  0.51100000000E-03 0. -1.
         11   -1    0    0    0    0 -0.00000000000E+00 -0.00000000000E+00 -0.45593999997E+02  0.45594000000E+02  0.51100000000E-03 0.  1.
    9900012    2    1    2    0    0  0.11195038089E+01  0.25221690622E+02  0.37305851316E+02  0.46142317532E+02  0.99999979067E+01 0.  0.
        -12    1    1    2    0    0 -0.11195038089E+01 -0.25221690622E+02 -0.37305851316E+02  0.45045682468E+02  0.00000000000E+00 0.  1.
         11    1    3    3    0    0 -0.14958289503E+01  0.35204318875E+01  0.56036844796E+01  0.67847052207E+01  0.51100000000E-03 0. -1.
        -11    1    3    3    0    0 -0.97896022753E+00  0.52280717177E+01  0.31019950285E+01  0.61573915281E+01  0.51100000000E-03 0.  1.
         12    1    3    3    0    0  0.35942929867E+01  0.16473187017E+02  0.28600171808E+02  0.33200220783E+02  0.00000000000E+00 0. -1.
</event>
<event>
 7    1  0.1519238E-008  0.4614232E+02  0.7816164E-02  0.1320468E+00
        -11   -1    0    0    0    0  0.00000000000E+00  0.00000000000E+00  0.45593999997E+02  0.45594000000E+02  0.51100000000E-03 0.  1.
         11   -1    0    0    0    0 -0.00000000000E+00 -0.00000000000E+00 -0.45593999997E+02  0.45594000000E+02  0.51100000000E-03 0. -1.
    9900012    2    1    2    0    0 -0.71245520204E+01  0.77064061689E+01 -0.43805999161E+02  0.46142317631E+02  0.99999988168E+01 0.  0.
        -12    1    1    2    0    0  0.71245520204E+01 -0.77064061689E+01  0.43805999161E+02  0.45045682369E+02  0.00000000000E+00 0.  1.
         11    1    3    3    0    0 -0.26384449746E+01  0.57708964442E+01 -0.10742148692E+02  0.12476313416E+02  0.51100000000E-03 0. -1.
        -11    1    3    3    0    0 -0.21224146489E+01  0.26447798918E+01 -0.25114473946E+02  0.25342381626E+02  0.51100000000E-03 0.  1.
        -12    1    3    3    0    0 -0.23636923969E+01 -0.70927016713E+00 -0.79493765224E+01  0.83236225895E+01  0.00000000000E+00 0.  1.
</event>
<event>
 7    1  0.1519238E-008  0.4614232E+02  0.7816164E-02  0.1320468E+00
        -11   -1    0    0    0    0  0.00000000000E+00  0.00000000000E+00  0.45593999997E+02  0.45594000000E+02  0.51100000000E-03 0.  1.
         11   -1    0    0    0    0 -0.00000000000E+00 -0.00000000000E+00 -0.45593999997E+02  0.45594000000E+02  0.51100000000E-03 0. -1.
    9900012    2    1    2    0    0 -0.12736117039E+02 -0.52236838915E+01 -0.42890767229E+02  0.46142318030E+02  0.10000002455E+02 0.  0.
        -12    1    1    2    0    0  0.12736117039E+02  0.52236838915E+01  0.42890767229E+02  0.45045681970E+02  0.00000000000E+00 0.  1.
         11    1    3    3    0    0 -0.63706847820E+01 -0.28556848427E+01 -0.85798276968E+01  0.11061374421E+02  0.51100000000E-03 0. -1.
        -11    1    3    3    0    0  0.20082596546E-01 -0.27262611171E+00 -0.50817047310E+01  0.50890521260E+01  0.51100000000E-03 0.  1.
         12    1    3    3    0    0 -0.63855148532E+01 -0.20953729371E+01 -0.29229234801E+02  0.29991891483E+02  0.00000000000E+00 0. -1.
</event>
<event>
 7    1  0.1519238E-008  0.4614232E+02  0.7816164E-02  0.1320468E+00
        -11   -1    0    0    0    0  0.00000000000E+00  0.00000000000E+00  0.45593999997E+02  0.45594000000E+02  0.51100000000E-03 0.  1.
         11   -1    0    0    0    0 -0.00000000000E+00 -0.00000000000E+00 -0.45593999997E+02  0.45594000000E+02  0.51100000000E-03 0. -1.
    9900012    2    1    2    0    0 -0.78627292956E+00  0.10419042701E+02 -0.43817107882E+02  0.46142316310E+02  0.99999867677E+01 0.  0.
        -12    1    1    2    0    0  0.78627292956E+00 -0.10419042701E+02  0.43817107882E+02  0.45045683690E+02  0.00000000000E+00 0.  1.
         11    1    3    3    0    0  0.37205682246E+00 -0.29120668196E+00  0.33355511709E+00  0.57834841404E+00  0.51100000000E-03 0. -1.
        -11    1    3    3    0    0 -0.16657724102E+01  0.50016435096E+01 -0.26034914627E+02  0.26563283219E+02  0.51100000000E-03 0.  1.
         12    1    3    3    0    0  0.50744265823E+00  0.57086058736E+01 -0.18115748373E+02  0.19000684677E+02  0.00000000000E+00 0. -1.
</event>
<event>
 7    1  0.1519238E-008  0.4614232E+02  0.7816164E-02  0.1320468E+00
        -11   -1    0    0    0    0  0.00000000000E+00  0.00000000000E+00  0.45593999997E+02  0.45594000000E+02  0.51100000000E-03 0. -1.
         11   -1    0    0    0    0 -0.00000000000E+00 -0.00000000000E+00 -0.45593999997E+02  0.45594000000E+02  0.51100000000E-03 0.  1.
    9900012    2    1    2    0    0  0.37099806185E+02  0.19694532912E+02  0.16274006211E+02  0.46142317369E+02  0.99999964205E+01 0.  0.
        -12    1    1    2    0    0 -0.37099806185E+02 -0.19694532912E+02 -0.16274006211E+02  0.45045682631E+02  0.00000000000E+00 0.  1.
         11    1    3    3    0    0  0.73394676679E+00 -0.75790885549E+00  0.55393222360E+00  0.11916143920E+01  0.51100000000E-03 0.  1.
        -11    1    3    3    0    0  0.15185859588E+02  0.84937797877E+01  0.35712998090E+01  0.17762567638E+02  0.51100000000E-03 0. -1.
         12    1    3    3    0    0  0.21179999830E+02  0.11958661980E+02  0.12148774179E+02  0.27188135339E+02  0.00000000000E+00 0. -1.
</event>
<event>
 7    1  0.1519238E-008  0.4614232E+02  0.7816164E-02  0.1320468E+00
        -11   -1    0    0    0    0  0.00000000000E+00  0.00000000000E+00  0.45593999997E+02  0.45594000000E+02  0.51100000000E-03 0.  1.
         11   -1    0    0    0    0 -0.00000000000E+00 -0.00000000000E+00 -0.45593999997E+02  0.45594000000E+02  0.51100000000E-03 0. -1.
    9900012    2    1    2    0    0 -0.21997295077E+01 -0.21441592763E+02 -0.39554175706E+02  0.46142317345E+02  0.99999962021E+01 0.  0.
        -12    1    1    2    0    0  0.21997295077E+01  0.21441592763E+02  0.39554175706E+02  0.45045682655E+02  0.00000000000E+00 0.  1.
         11    1    3    3    0    0 -0.26938806822E+00 -0.62661402167E+01 -0.18022659414E+02  0.19082802094E+02  0.51100000000E-03 0. -1.
        -11    1    3    3    0    0 -0.23115065029E+00 -0.14151022916E+02 -0.17051809333E+02  0.22160078564E+02  0.51100000000E-03 0.  1.
        -12    1    3    3    0    0 -0.16991907892E+01 -0.10244296308E+01 -0.44797069592E+01  0.48994366866E+01  0.00000000000E+00 0.  1.
</event>
<event>
 7    1  0.1519238E-008  0.4614232E+02  0.7816164E-02  0.1320468E+00
        -11   -1    0    0    0    0  0.00000000000E+00  0.00000000000E+00  0.45593999997E+02  0.45594000000E+02  0.51100000000E-03 0. -1.
         11   -1    0    0    0    0 -0.00000000000E+00 -0.00000000000E+00 -0.45593999997E+02  0.45594000000E+02  0.51100000000E-03 0.  1.
    9900012    2    1    2    0    0 -0.64563045562E+01  0.17187549007E+02  0.41134143602E+02  0.46142317862E+02  0.10000000920E+02 0.  0.
        -12    1    1    2    0    0  0.64563045562E+01 -0.17187549007E+02 -0.41134143602E+02  0.45045682138E+02  0.00000000000E+00 0.  1.
         11    1    3    3    0    0 -0.63375909219E+01  0.15487438943E+02  0.30408159015E+02  0.34708528616E+02  0.51100000000E-03 0. -1.
        -11    1    3    3    0    0  0.30704119147E+00  0.13229328532E+01  0.10777438097E+02  0.10862669921E+02  0.51100000000E-03 0.  1.
         12    1    3    3    0    0 -0.42575482576E+00  0.37717721008E+00 -0.51453509732E-01  0.57111932477E+00  0.00000000000E+00 0. -1.
</event>
<event>
 7    1  0.1519238E-008  0.4614232E+02  0.7816164E-02  0.1320468E+00
        -11   -1    0    0    0    0  0.00000000000E+00  0.00000000000E+00  0.45593999997E+02  0.45594000000E+02  0.51100000000E-03 0. -1.
         11   -1    0    0    0    0 -0.00000000000E+00 -0.00000000000E+00 -0.45593999997E+02  0.45594000000E+02  0.51100000000E-03 0.  1.
    9900012    2    1    2    0    0  0.11043209093E+01 -0.42139855888E+02  0.15878494382E+02  0.46142316935E+02  0.99999924650E+01 0.  0.
        -12    1    1    2    0    0 -0.11043209093E+01  0.42139855888E+02 -0.15878494382E+02  0.45045683065E+02  0.00000000000E+00 0.  1.
         11    1    3    3    0    0  0.19190243120E+00 -0.13426104007E+02  0.64854468684E+01  0.14911677192E+02  0.51100000000E-03 0. -1.
        -11    1    3    3    0    0 -0.14465731443E+01 -0.45275698925E+01 -0.90376095355E+00  0.48382070145E+01  0.51100000000E-03 0.  1.
        -12    1    3    3    0    0  0.23589916224E+01 -0.24186181989E+02  0.10296808467E+02  0.26392432728E+02  0.00000000000E+00 0.  1.
</event>
<event>
 7    1  0.1519238E-008  0.4614232E+02  0.7816164E-02  0.1320468E+00
        -11   -1    0    0    0    0  0.00000000000E+00  0.00000000000E+00  0.45593999997E+02  0.45594000000E+02  0.51100000000E-03 0.  1.
         11   -1    0    0    0    0 -0.00000000000E+00 -0.00000000000E+00 -0.45593999997E+02  0.45594000000E+02  0.51100000000E-03 0. -1.
    9900012    2    1    2    0    0  0.29922078381E+01 -0.30975720513E+02 -0.32567848885E+02  0.46142319296E+02  0.10000013999E+02 0.  0.
        -12    1    1    2    0    0 -0.29922078381E+01  0.30975720513E+02  0.32567848885E+02  0.45045680704E+02  0.00000000000E+00 0.  1.
         11    1    3    3    0    0  0.94458294612E+00 -0.11040999068E+02 -0.64473936227E+01  0.12820482914E+02  0.51100000000E-03 0. -1.
        -11    1    3    3    0    0 -0.32858673827E-02 -0.11728163099E+02 -0.18678106449E+02  0.22054965002E+02  0.51100000000E-03 0.  1.
        -12    1    3    3    0    0  0.20509107593E+01 -0.82065583469E+01 -0.74423488135E+01  0.11266871381E+02  0.00000000000E+00 0.  1.
</event>
<event>
 7    1  0.1519238E-008  0.4614232E+02  0.7816164E-02  0.1320468E+00
        -11   -1    0    0    0    0  0.00000000000E+00  0.00000000000E+00  0.45593999997E+02  0.45594000000E+02  0.51100000000E-03 0. -1.
         11   -1    0    0    0    0 -0.00000000000E+00 -0.00000000000E+00 -0.45593999997E+02  0.45594000000E+02  0.51100000000E-03 0.  1.
    9900012    2    1    2    0    0 -0.37436581400E+02  0.16841158753E+02  0.18547000726E+02  0.46142317732E+02  0.99999997373E+01 0.  0.
        -12    1    1    2    0    0  0.37436581400E+02 -0.16841158753E+02 -0.18547000726E+02  0.45045682268E+02  0.00000000000E+00 0.  1.
         11    1    3    3    0    0 -0.17798886949E+02  0.70177972061E+01  0.64731964011E+01  0.20197824788E+02  0.51100000000E-03 0. -1.
        -11    1    3    3    0    0 -0.37250432476E+01  0.43519237165E+01  0.53033806560E+01  0.78064738438E+01  0.51100000000E-03 0.  1.
        -12    1    3    3    0    0 -0.15912651203E+02  0.54714378301E+01  0.67704236693E+01  0.18138019101E+02  0.00000000000E+00 0.  1.
</event>
<event>
 7    1  0.1519238E-008  0.4614232E+02  0.7816164E-02  0.1320468E+00
        -11   -1    0    0    0    0  0.00000000000E+00  0.00000000000E+00  0.45593999997E+02  0.45594000000E+02  0.51100000000E-03 0.  1.
         11   -1    0    0    0    0 -0.00000000000E+00 -0.00000000000E+00 -0.45593999997E+02  0.45594000000E+02  0.51100000000E-03 0. -1.
    9900012    2    1    2    0    0  0.23935280456E+02 -0.56197214239E+01 -0.37744331666E+02  0.46142317717E+02  0.99999996021E+01 0.  0.
        -12    1    1    2    0    0 -0.23935280456E+02  0.56197214239E+01  0.37744331666E+02  0.45045682283E+02  0.00000000000E+00 0.  1.
         11    1    3    3    0    0  0.20308492599E+02 -0.46827011682E+01 -0.29543857010E+02  0.36155249262E+02  0.51100000000E-03 0. -1.
        -11    1    3    3    0    0  0.16901620141E+01 -0.17073093521E+01 -0.12049106581E+01  0.26876314503E+01  0.51100000000E-03 0.  1.
        -12    1    3    3    0    0  0.19366258422E+01  0.77028909641E+00 -0.69955639981E+01  0.72994370054E+01  0.00000000000E+00 0.  1.
</event>
<event>
 7    1  0.1519238E-008  0.4614231E+02  0.7816164E-02  0.1320468E+00
        -11   -1    0    0    0    0  0.00000000000E+00  0.00000000000E+00  0.45593999997E+02  0.45594000000E+02  0.51100000000E-03 0.  1.
         11   -1    0    0    0    0 -0.00000000000E+00 -0.00000000000E+00 -0.45593999997E+02  0.45594000000E+02  0.51100000000E-03 0. -1.
    9900012    2    1    2    0    0  0.13403871246E+02 -0.28570421536E+02 -0.32143135825E+02  0.46142312840E+02  0.99999551220E+01 0.  0.
        -12    1    1    2    0    0 -0.13403871246E+02  0.28570421536E+02  0.32143135825E+02  0.45045687160E+02  0.00000000000E+00 0.  1.
         11    1    3    3    0    0  0.93535341022E+01 -0.10275084920E+02 -0.16863561527E+02  0.21850530382E+02  0.51100000000E-03 0. -1.
        -11    1    3    3    0    0  0.27250086536E+01 -0.71822291673E+01 -0.58158018941E+01  0.96350215312E+01  0.51100000000E-03 0.  1.
         12    1    3    3    0    0  0.13253284903E+01 -0.11113107448E+02 -0.94637724034E+01  0.14656760927E+02  0.00000000000E+00 0. -1.
</event>
<event>
 7    1  0.1519238E-008  0.4614232E+02  0.7816164E-02  0.1320468E+00
        -11   -1    0    0    0    0  0.00000000000E+00  0.00000000000E+00  0.45593999997E+02  0.45594000000E+02  0.51100000000E-03 0.  1.
         11   -1    0    0    0    0 -0.00000000000E+00 -0.00000000000E+00 -0.45593999997E+02  0.45594000000E+02  0.51100000000E-03 0. -1.
    9900012    2    1    2    0    0  0.34209361189E+02 -0.73322097531E+01 -0.28373787228E+02  0.46142317694E+02  0.99999993846E+01 0.  0.
        -12    1    1    2    0    0 -0.34209361189E+02  0.73322097531E+01  0.28373787228E+02  0.45045682306E+02  0.00000000000E+00 0.  1.
         11    1    3    3    0    0  0.32735132927E+01  0.14931639372E+00 -0.36598581850E+01  0.49125092222E+01  0.51100000000E-03 0. -1.
        -11    1    3    3    0    0  0.69165161236E+01 -0.32641300380E+01 -0.10542297599E+02  0.13024314920E+02  0.51100000000E-03 0.  1.
        -12    1    3    3    0    0  0.24019331772E+02 -0.42173961088E+01 -0.14171631444E+02  0.28205493552E+02  0.00000000000E+00 0.  1.
</event>
<event>
 7    1  0.1519238E-008  0.4614232E+02  0.7816164E-02  0.1320468E+00
        -11   -1    0    0    0    0  0.00000000000E+00  0.00000000000E+00  0.45593999997E+02  0.45594000000E+02  0.51100000000E-03 0.  1.
         11   -1    0    0    0    0 -0.00000000000E+00 -0.00000000000E+00 -0.45593999997E+02  0.45594000000E+02  0.51100000000E-03 0. -1.
    9900012    2    1    2    0    0 -0.10751169071E+02  0.38195398461E+02  0.21322229221E+02  0.46142316977E+02  0.99999928542E+01 0.  0.
        -12    1    1    2    0    0  0.10751169071E+02 -0.38195398461E+02 -0.21322229221E+02  0.45045683023E+02  0.00000000000E+00 0.  1.
         11    1    3    3    0    0 -0.88505043416E+01  0.31088506472E+02  0.13058844281E+02  0.34862014801E+02  0.51100000000E-03 0. -1.
        -11    1    3    3    0    0 -0.11030988141E+00  0.29533732426E+01  0.45630276113E+01  0.54365249031E+01  0.51100000000E-03 0.  1.
         12    1    3    3    0    0 -0.17903548484E+01  0.41535187464E+01  0.37003573285E+01  0.58437772732E+01  0.00000000000E+00 0. -1.
</event>
<event>
 7    1  0.1519238E-008  0.4614232E+02  0.7816164E-02  0.1320468E+00
        -11   -1    0    0    0    0  0.00000000000E+00  0.00000000000E+00  0.45593999997E+02  0.45594000000E+02  0.51100000000E-03 0.  1.
         11   -1    0    0    0    0 -0.00000000000E+00 -0.00000000000E+00 -0.45593999997E+02  0.45594000000E+02  0.51100000000E-03 0. -1.
    9900012    2    1    2    0    0 -0.69845727050E+00  0.44988233735E+02  0.21643735392E+01  0.46142317300E+02  0.99999957913E+01 0.  0.
        -12    1    1    2    0    0  0.69845727050E+00 -0.44988233735E+02 -0.21643735392E+01  0.45045682700E+02  0.00000000000E+00 0.  1.
         11    1    3    3    0    0 -0.67230489646E+00  0.25330418075E+02 -0.25247706292E+01  0.25464809850E+02  0.51100000000E-03 0. -1.
        -11    1    3    3    0    0 -0.17476520148E+01  0.11654139314E+02  0.40696975990E+01  0.12467385032E+02  0.51100000000E-03 0.  1.
         12    1    3    3    0    0  0.17214996407E+01  0.80036763453E+01  0.61944656948E+00  0.82101224172E+01  0.00000000000E+00 0. -1.
</event>
<event>
 7    1  0.1519238E-008  0.4614232E+02  0.7816164E-02  0.1320468E+00
        -11   -1    0    0    0    0  0.00000000000E+00  0.00000000000E+00  0.45593999997E+02  0.45594000000E+02  0.51100000000E-03 0. -1.
         11   -1    0    0    0    0 -0.00000000000E+00 -0.00000000000E+00 -0.45593999997E+02  0.45594000000E+02  0.51100000000E-03 0.  1.
    9900012    2    1    2    0    0 -0.36879090477E+02  0.16096389770E+02  0.20247283481E+02  0.46142316895E+02  0.99999921028E+01 0.  0.
        -12    1    1    2    0    0  0.36879090477E+02 -0.16096389770E+02 -0.20247283481E+02  0.45045683105E+02  0.00000000000E+00 0.  1.
         11    1    3    3    0    0 -0.17927547154E+02  0.10301669998E+02  0.12890249963E+02  0.24365547317E+02  0.51100000000E-03 0. -1.
        -11    1    3    3    0    0 -0.46823128519E+01  0.30780461319E+01  0.25820372712E+00  0.56093752824E+01  0.51100000000E-03 0.  1.
         12    1    3    3    0    0 -0.14269230471E+02  0.27166736406E+01  0.70988297912E+01  0.16167394296E+02  0.00000000000E+00 0. -1.
</event>
<event>
 7    1  0.1519238E-008  0.4614232E+02  0.7816164E-02  0.1320468E+00
        -11   -1    0    0    0    0  0.00000000000E+00  0.00000000000E+00  0.45593999997E+02  0.45594000000E+02  0.51100000000E-03 0. -1.
         11   -1    0    0    0    0 -0.00000000000E+00 -0.00000000000E+00 -0.45593999997E+02  0.45594000000E+02  0.51100000000E-03 0.  1.
    9900012    2    1    2    0    0 -0.32456506533E+02 -0.29564304582E+02 -0.10081697963E+02  0.46142317016E+02  0.99999932017E+01 0.  0.
        -12    1    1    2    0    0  0.32456506533E+02  0.29564304582E+02  0.10081697963E+02  0.45045682984E+02  0.00000000000E+00 0.  1.
         11    1    3    3    0    0 -0.22175417935E+02 -0.18422124355E+02 -0.69237213617E+01  0.29648975431E+02  0.51100000000E-03 0. -1.
        -11    1    3    3    0    0 -0.48326382498E+01 -0.20801785220E+01 -0.26901577536E+01  0.59091864192E+01  0.51100000000E-03 0.  1.
         12    1    3    3    0    0 -0.54484503481E+01 -0.90620017050E+01 -0.46781884744E+00  0.10584155166E+02  0.00000000000E+00 0. -1.
</event>
<event>
 7    1  0.1519238E-008  0.4614232E+02  0.7816164E-02  0.1320468E+00
        -11   -1    0    0    0    0  0.00000000000E+00  0.00000000000E+00  0.45593999997E+02  0.45594000000E+02  0.51100000000E-03 0.  1.
         11   -1    0    0    0    0 -0.00000000000E+00 -0.00000000000E+00 -0.45593999997E+02  0.45594000000E+02  0.51100000000E-03 0. -1.
    9900012    2    1    2    0    0 -0.87397529387E+01  0.29747076877E+02 -0.32677845710E+02  0.46142318027E+02  0.10000002422E+02 0.  0.
        -12    1    1    2    0    0  0.87397529387E+01 -0.29747076877E+02  0.32677845710E+02  0.45045681973E+02  0.00000000000E+00 0.  1.
         11    1    3    3    0    0 -0.62022948277E+01  0.87345192278E+01 -0.88066396536E+01  0.13867847328E+02  0.51100000000E-03 0. -1.
        -11    1    3    3    0    0 -0.21434357746E+01  0.35407074394E+01 -0.33865177026E+01  0.53478433506E+01  0.51100000000E-03 0.  1.
         12    1    3    3    0    0 -0.39402233641E+00  0.17471850210E+02 -0.20484688354E+02  0.26926627348E+02  0.00000000000E+00 0. -1.
</event>
<event>
 7    1  0.1519238E-008  0.4614232E+02  0.7816164E-02  0.1320468E+00
        -11   -1    0    0    0    0  0.00000000000E+00  0.00000000000E+00  0.45593999997E+02  0.45594000000E+02  0.51100000000E-03 0.  1.
         11   -1    0    0    0    0 -0.00000000000E+00 -0.00000000000E+00 -0.45593999997E+02  0.45594000000E+02  0.51100000000E-03 0. -1.
    9900012    2    1    2    0    0  0.35890966706E+02  0.21002689712E+02 -0.17315860432E+02  0.46142317757E+02  0.99999999653E+01 0.  0.
        -12    1    1    2    0    0 -0.35890966706E+02 -0.21002689712E+02  0.17315860432E+02  0.45045682243E+02  0.00000000000E+00 0.  1.
         11    1    3    3    0    0  0.16364431761E+02  0.15068995727E+02 -0.10268577106E+02  0.24501284357E+02  0.51100000000E-03 0.  1.
        -11    1    3    3    0    0  0.79793303883E+01  0.31048451344E+01 -0.26065898026E+01  0.89500886819E+01  0.51100000000E-03 0. -1.
         12    1    3    3    0    0  0.11547204556E+02  0.28288488505E+01 -0.44406935234E+01  0.12690944718E+02  0.00000000000E+00 0. -1.
</event>
<event>
 7    1  0.1519238E-008  0.4614232E+02  0.7816164E-02  0.1320468E+00
        -11   -1    0    0    0    0  0.00000000000E+00  0.00000000000E+00  0.45593999997E+02  0.45594000000E+02  0.51100000000E-03 0.  1.
         11   -1    0    0    0    0 -0.00000000000E+00 -0.00000000000E+00 -0.45593999997E+02  0.45594000000E+02  0.51100000000E-03 0. -1.
    9900012    2    1    2    0    0  0.37231648613E+02  0.86857525972E+01 -0.23821744512E+02  0.46142317984E+02  0.10000002037E+02 0.  0.
        -12    1    1    2    0    0 -0.37231648613E+02 -0.86857525972E+01  0.23821744512E+02  0.45045682016E+02  0.00000000000E+00 0.  1.
         11    1    3    3    0    0  0.97618842720E+01  0.34799636068E+01 -0.96575425518E+01  0.14165897771E+02  0.51100000000E-03 0.  1.
        -11    1    3    3    0    0  0.99753941784E+01 -0.81079995214E+00 -0.33855755913E+01  0.10565415653E+02  0.51100000000E-03 0. -1.
         12    1    3    3    0    0  0.17494370163E+02  0.60165889426E+01 -0.10778626369E+02  0.21411004561E+02  0.00000000000E+00 0. -1.
</event>
<event>
 7    1  0.1519238E-008  0.4614232E+02  0.7816164E-02  0.1320468E+00
        -11   -1    0    0    0    0  0.00000000000E+00  0.00000000000E+00  0.45593999997E+02  0.45594000000E+02  0.51100000000E-03 0.  1.
         11   -1    0    0    0    0 -0.00000000000E+00 -0.00000000000E+00 -0.45593999997E+02  0.45594000000E+02  0.51100000000E-03 0. -1.
    9900012    2    1    2    0    0  0.16206842219E+02  0.15192063016E+02 -0.39187408250E+02  0.46142317868E+02  0.10000000971E+02 0.  0.
        -12    1    1    2    0    0 -0.16206842219E+02 -0.15192063016E+02  0.39187408250E+02  0.45045682132E+02  0.00000000000E+00 0.  1.
         11    1    3    3    0    0  0.59344022059E+01  0.59732427221E+01 -0.21748472305E+02  0.23321509514E+02  0.51100000000E-03 0. -1.
        -11    1    3    3    0    0  0.29664120044E+01  0.23316203785E+01 -0.16687772489E+01  0.41256358948E+01  0.51100000000E-03 0.  1.
        -12    1    3    3    0    0  0.73060280091E+01  0.68871999154E+01 -0.15770158696E+02  0.18695172458E+02  0.00000000000E+00 0.  1.
</event>
<event>
 7    1  0.1519238E-008  0.4614232E+02  0.7816164E-02  0.1320468E+00
        -11   -1    0    0    0    0  0.00000000000E+00  0.00000000000E+00  0.45593999997E+02  0.45594000000E+02  0.51100000000E-03 0.  1.
         11   -1    0    0    0    0 -0.00000000000E+00 -0.00000000000E+00 -0.45593999997E+02  0.45594000000E+02  0.51100000000E-03 0. -1.
    9900012    2    1    2    0    0 -0.20098940556E+02  0.12429686934E+02 -0.38349040699E+02  0.46142318173E+02  0.10000003755E+02 0.  0.
        -12    1    1    2    0    0  0.20098940556E+02 -0.12429686934E+02  0.38349040699E+02  0.45045681827E+02  0.00000000000E+00 0.  1.
         11    1    3    3    0    0 -0.13252025423E+02  0.11364147816E+02 -0.26626531307E+02  0.31839161470E+02  0.51100000000E-03 0. -1.
        -11    1    3    3    0    0 -0.25676845322E+01 -0.16493128959E+01 -0.53732516079E+01  0.61794069285E+01  0.51100000000E-03 0.  1.
        -12    1    3    3    0    0 -0.42792306008E+01  0.27148520131E+01 -0.63492577839E+01  0.81237497742E+01  0.00000000000E+00 0.  1.
</event>
<event>
 7    1  0.1519238E-008  0.4614232E+02  0.7816164E-02  0.1320468E+00
        -11   -1    0    0    0    0  0.00000000000E+00  0.00000000000E+00  0.45593999997E+02  0.45594000000E+02  0.51100000000E-03 0.  1.
         11   -1    0    0    0    0 -0.00000000000E+00 -0.00000000000E+00 -0.45593999997E+02  0.45594000000E+02  0.51100000000E-03 0. -1.
    9900012    2    1    2    0    0  0.13304211117E+02 -0.16248460384E+02 -0.39850958317E+02  0.46142318997E+02  0.10000011266E+02 0.  0.
        -12    1    1    2    0    0 -0.13304211117E+02  0.16248460384E+02  0.39850958317E+02  0.45045681003E+02  0.00000000000E+00 0.  1.
         11    1    3    3    0    0  0.13630137080E+02 -0.15718132650E+02 -0.35055204821E+02  0.40764049310E+02  0.51100000000E-03 0. -1.
        -11    1    3    3    0    0 -0.73010137471E+00 -0.48654837094E+00 -0.40084895182E+00  0.96460223819E+00  0.51100000000E-03 0.  1.
         12    1    3    3    0    0  0.40417541109E+00 -0.43779363249E-01 -0.43949045440E+01  0.44136674486E+01  0.00000000000E+00 0. -1.
</event>
<event>
 7    1  0.1519238E-008  0.4614232E+02  0.7816164E-02  0.1320468E+00
        -11   -1    0    0    0    0  0.00000000000E+00  0.00000000000E+00  0.45593999997E+02  0.45594000000E+02  0.51100000000E-03 0. -1.
         11   -1    0    0    0    0 -0.00000000000E+00 -0.00000000000E+00 -0.45593999997E+02  0.45594000000E+02  0.51100000000E-03 0.  1.
    9900012    2    1    2    0    0  0.74465192936E+01  0.19038500661E+02  0.40139735247E+02  0.46142317602E+02  0.99999985501E+01 0.  0.
        -12    1    1    2    0    0 -0.74465192936E+01 -0.19038500661E+02 -0.40139735247E+02  0.45045682398E+02  0.00000000000E+00 0.  1.
         11    1    3    3    0    0  0.26140324976E+01  0.12019753261E+02  0.26303434014E+02  0.29037532187E+02  0.51100000000E-03 0. -1.
        -11    1    3    3    0    0  0.39728163791E+01  0.17460717688E+01  0.85546512942E+01  0.95923978041E+01  0.51100000000E-03 0.  1.
         12    1    3    3    0    0  0.85967041683E+00  0.52726756312E+01  0.52816499387E+01  0.75123876106E+01  0.00000000000E+00 0. -1.
</event>
<event>
 7    1  0.1519238E-008  0.4614232E+02  0.7816164E-02  0.1320468E+00
        -11   -1    0    0    0    0  0.00000000000E+00  0.00000000000E+00  0.45593999997E+02  0.45594000000E+02  0.51100000000E-03 0. -1.
         11   -1    0    0    0    0 -0.00000000000E+00 -0.00000000000E+00 -0.45593999997E+02  0.45594000000E+02  0.51100000000E-03 0.  1.
    9900012    2    1    2    0    0  0.12233354016E+01 -0.26590944782E+02  0.36339215086E+02  0.46142318221E+02  0.10000004192E+02 0.  0.
        -12    1    1    2    0    0 -0.12233354016E+01  0.26590944782E+02 -0.36339215086E+02  0.45045681779E+02  0.00000000000E+00 0.  1.
         11    1    3    3    0    0  0.19537956371E+01 -0.12518235385E+02  0.23366216597E+02  0.26580135682E+02  0.51100000000E-03 0. -1.
        -11    1    3    3    0    0 -0.99560922826E+00 -0.84972314109E+00  0.55952288558E+00  0.14234933342E+01  0.51100000000E-03 0.  1.
         12    1    3    3    0    0  0.26514899273E+00 -0.13222986256E+02  0.12413475603E+02  0.18138689205E+02  0.00000000000E+00 0. -1.
</event>
<event>
 7    1  0.1519238E-008  0.4614232E+02  0.7816164E-02  0.1320468E+00
        -11   -1    0    0    0    0  0.00000000000E+00  0.00000000000E+00  0.45593999997E+02  0.45594000000E+02  0.51100000000E-03 0.  1.
         11   -1    0    0    0    0 -0.00000000000E+00 -0.00000000000E+00 -0.45593999997E+02  0.45594000000E+02  0.51100000000E-03 0. -1.
    9900012    2    1    2    0    0  0.25896338242E+02 -0.36804155418E+02  0.19867907277E+01  0.46142317324E+02  0.99999960150E+01 0.  0.
        -12    1    1    2    0    0 -0.25896338242E+02  0.36804155418E+02 -0.19867907277E+01  0.45045682676E+02  0.00000000000E+00 0.  1.
         11    1    3    3    0    0  0.23586260640E+02 -0.33000711099E+02  0.27472693441E+01  0.40655948066E+02  0.51100000000E-03 0. -1.
        -11    1    3    3    0    0  0.39934324633E+00 -0.29498229145E+01  0.53595914357E+00  0.30245962904E+01  0.51100000000E-03 0.  1.
        -12    1    3    3    0    0  0.19107343557E+01 -0.85362140379E+00 -0.12964377600E+01  0.24617729677E+01  0.00000000000E+00 0.  1.
</event>
<event>
 7    1  0.1519238E-008  0.4614232E+02  0.7816164E-02  0.1320468E+00
        -11   -1    0    0    0    0  0.00000000000E+00  0.00000000000E+00  0.45593999997E+02  0.45594000000E+02  0.51100000000E-03 0.  1.
         11   -1    0    0    0    0 -0.00000000000E+00 -0.00000000000E+00 -0.45593999997E+02  0.45594000000E+02  0.51100000000E-03 0. -1.
    9900012    2    1    2    0    0  0.10374770888E+02  0.18018267754E+02 -0.39960225481E+02  0.46142318028E+02  0.10000002434E+02 0.  0.
        -12    1    1    2    0    0 -0.10374770888E+02 -0.18018267754E+02  0.39960225481E+02  0.45045681972E+02  0.00000000000E+00 0.  1.
         11    1    3    3    0    0  0.48636481453E+01  0.25525294623E+01 -0.57575926043E+01  0.79574086734E+01  0.51100000000E-03 0. -1.
        -11    1    3    3    0    0  0.16947509293E+01  0.81849615837E+01 -0.13120083735E+02  0.15556425499E+02  0.51100000000E-03 0.  1.
         12    1    3    3    0    0  0.38163718135E+01  0.72807767081E+01 -0.21082549141E+02  0.22628483855E+02  0.00000000000E+00 0. -1.
</event>
<event>
 7    1  0.1519238E-008  0.4614231E+02  0.7816164E-02  0.1320468E+00
        -11   -1    0    0    0    0  0.00000000000E+00  0.00000000000E+00  0.45593999997E+02  0.45594000000E+02  0.51100000000E-03 0.  1.
         11   -1    0    0    0    0 -0.00000000000E+00 -0.00000000000E+00 -0.45593999997E+02  0.45594000000E+02  0.51100000000E-03 0. -1.
    9900012    2    1    2    0    0  0.22228379897E+02  0.32635297004E+02 -0.21678351857E+02  0.46142307391E+02  0.99999054383E+01 0.  0.
        -12    1    1    2    0    0 -0.22228379897E+02 -0.32635297004E+02  0.21678351857E+02  0.45045692609E+02  0.00000000000E+00 0.  1.
         11    1    3    3    0    0  0.13871781822E+02  0.22051960719E+02 -0.12472258077E+02  0.28883776142E+02  0.51100000000E-03 0. -1.
        -11    1    3    3    0    0  0.24423481032E+01  0.51665282880E+01 -0.10321677016E+01  0.58071894435E+01  0.51100000000E-03 0.  1.
         12    1    3    3    0    0  0.59142499721E+01  0.54168079976E+01 -0.81739260778E+01  0.11451341805E+02  0.00000000000E+00 0. -1.
</event>
<event>
 7    1  0.1519238E-008  0.4614232E+02  0.7816164E-02  0.1320468E+00
        -11   -1    0    0    0    0  0.00000000000E+00  0.00000000000E+00  0.45593999997E+02  0.45594000000E+02  0.51100000000E-03 0.  1.
         11   -1    0    0    0    0 -0.00000000000E+00 -0.00000000000E+00 -0.45593999997E+02  0.45594000000E+02  0.51100000000E-03 0. -1.
    9900012    2    1    2    0    0 -0.13641790308E+02  0.36970549706E+02 -0.21821858958E+02  0.46142317446E+02  0.99999971268E+01 0.  0.
        -12    1    1    2    0    0  0.13641790308E+02 -0.36970549706E+02  0.21821858958E+02  0.45045682554E+02  0.00000000000E+00 0.  1.
         11    1    3    3    0    0 -0.52383018548E+01  0.21855988130E+02 -0.16535722408E+02  0.27902583021E+02  0.51100000000E-03 0. -1.
        -11    1    3    3    0    0 -0.78470988104E+01  0.14929714763E+02 -0.51804734802E+01  0.17643997517E+02  0.51100000000E-03 0.  1.
         12    1    3    3    0    0 -0.55638964297E+00  0.18484681374E+00 -0.10566307010E+00  0.59573690815E+00  0.00000000000E+00 0. -1.
</event>
<event>
 7    1  0.1519238E-008  0.4614232E+02  0.7816164E-02  0.1320468E+00
        -11   -1    0    0    0    0  0.00000000000E+00  0.00000000000E+00  0.45593999997E+02  0.45594000000E+02  0.51100000000E-03 0.  1.
         11   -1    0    0    0    0 -0.00000000000E+00 -0.00000000000E+00 -0.45593999997E+02  0.45594000000E+02  0.51100000000E-03 0. -1.
    9900012    2    1    2    0    0 -0.29821742647E+02  0.33416851895E+02 -0.48053248880E+01  0.46142317939E+02  0.10000001622E+02 0.  0.
        -12    1    1    2    0    0  0.29821742647E+02 -0.33416851895E+02  0.48053248880E+01  0.45045682061E+02  0.00000000000E+00 0.  1.
         11    1    3    3    0    0 -0.13084153449E+02  0.84747782303E+01 -0.81754999515E+00  0.15610423626E+02  0.51100000000E-03 0. -1.
        -11    1    3    3    0    0 -0.11171922420E+02  0.18090891341E+02 -0.12886436000E+01  0.21301474190E+02  0.51100000000E-03 0.  1.
         12    1    3    3    0    0 -0.55656667772E+01  0.68511823242E+01 -0.26991312929E+01  0.92304201231E+01  0.00000000000E+00 0. -1.
</event>
<event>
 7    1  0.1519238E-008  0.4614231E+02  0.7816164E-02  0.1320468E+00
        -11   -1    0    0    0    0  0.00000000000E+00  0.00000000000E+00  0.45593999997E+02  0.45594000000E+02  0.51100000000E-03 0.  1.
         11   -1    0    0    0    0 -0.00000000000E+00 -0.00000000000E+00 -0.45593999997E+02  0.45594000000E+02  0.51100000000E-03 0. -1.
    9900012    2    1    2    0    0  0.44931795489E+02 -0.13742005663E+01 -0.28912091458E+01  0.46142314709E+02  0.99999721642E+01 0.  0.
        -12    1    1    2    0    0 -0.44931795489E+02  0.13742005663E+01  0.28912091458E+01  0.45045685291E+02  0.00000000000E+00 0.  1.
         11    1    3    3    0    0  0.88367603040E+01  0.92814311942E+00 -0.62677080042E+00  0.89074476825E+01  0.51100000000E-03 0. -1.
        -11    1    3    3    0    0  0.33011968227E+02 -0.43448347596E+01 -0.95078713771E+00  0.33310233139E+02  0.51100000000E-03 0.  1.
        -12    1    3    3    0    0  0.30830669577E+01  0.20424910739E+01 -0.13136512077E+01  0.39246338872E+01  0.00000000000E+00 0.  1.
</event>
<event>
 7    1  0.1519238E-008  0.4614232E+02  0.7816164E-02  0.1320468E+00
        -11   -1    0    0    0    0  0.00000000000E+00  0.00000000000E+00  0.45593999997E+02  0.45594000000E+02  0.51100000000E-03 0. -1.
         11   -1    0    0    0    0 -0.00000000000E+00 -0.00000000000E+00 -0.45593999997E+02  0.45594000000E+02  0.51100000000E-03 0.  1.
    9900012    2    1    2    0    0 -0.12519678500E+02  0.42958763133E+02 -0.51880444665E+01  0.46142317798E+02  0.10000000334E+02 0.  0.
        -12    1    1    2    0    0  0.12519678500E+02 -0.42958763133E+02  0.51880444665E+01  0.45045682202E+02  0.00000000000E+00 0.  1.
         11    1    3    3    0    0  0.12173254818E+01  0.21308562815E+01 -0.46238097559E+00  0.24972437304E+01  0.51100000000E-03 0. -1.
        -11    1    3    3    0    0 -0.14192661449E+02  0.39106973457E+02 -0.46694067784E+01  0.41863950744E+02  0.51100000000E-03 0.  1.
        -12    1    3    3    0    0  0.45565746661E+00  0.17209333943E+01 -0.56256712510E-01  0.17811233231E+01  0.00000000000E+00 0.  1.
</event>
<event>
 7    1  0.1519238E-008  0.4614232E+02  0.7816164E-02  0.1320468E+00
        -11   -1    0    0    0    0  0.00000000000E+00  0.00000000000E+00  0.45593999997E+02  0.45594000000E+02  0.51100000000E-03 0. -1.
         11   -1    0    0    0    0 -0.00000000000E+00 -0.00000000000E+00 -0.45593999997E+02  0.45594000000E+02  0.51100000000E-03 0.  1.
    9900012    2    1    2    0    0  0.11816207329E+02  0.30851787292E+02  0.30621201631E+02  0.46142317365E+02  0.99999963893E+01 0.  0.
        -12    1    1    2    0    0 -0.11816207329E+02 -0.30851787292E+02 -0.30621201631E+02  0.45045682635E+02  0.00000000000E+00 0.  1.
         11    1    3    3    0    0  0.50145072622E+01  0.19460580516E+02  0.18104900850E+02  0.27048972479E+02  0.51100000000E-03 0. -1.
        -11    1    3    3    0    0  0.55459998959E+01  0.95502450098E+01  0.68279652789E+01  0.12984082744E+02  0.51100000000E-03 0.  1.
         12    1    3    3    0    0  0.12557001704E+01  0.18409617655E+01  0.56883355017E+01  0.61092621420E+01  0.00000000000E+00 0. -1.
</event>
<event>
 7    1  0.1519238E-008  0.4614232E+02  0.7816164E-02  0.1320468E+00
        -11   -1    0    0    0    0  0.00000000000E+00  0.00000000000E+00  0.45593999997E+02  0.45594000000E+02  0.51100000000E-03 0. -1.
         11   -1    0    0    0    0 -0.00000000000E+00 -0.00000000000E+00 -0.45593999997E+02  0.45594000000E+02  0.51100000000E-03 0.  1.
    9900012    2    1    2    0    0 -0.53512581559E+01  0.12604805071E+02  0.42913826028E+02  0.46142317198E+02  0.99999948627E+01 0.  0.
        -12    1    1    2    0    0  0.53512581559E+01 -0.12604805071E+02 -0.42913826028E+02  0.45045682802E+02  0.00000000000E+00 0.  1.
         11    1    3    3    0    0 -0.40609865600E+01  0.98379479069E+01  0.33712528274E+02  0.35352671664E+02  0.51100000000E-03 0. -1.
        -11    1    3    3    0    0 -0.24870713290E+01  0.34517157155E+01  0.68353975718E+01  0.80512437177E+01  0.51100000000E-03 0.  1.
         12    1    3    3    0    0  0.11967997330E+01 -0.68485855092E+00  0.23659001824E+01  0.27384018165E+01  0.00000000000E+00 0. -1.
</event>
<event>
 7    1  0.1519238E-008  0.4614232E+02  0.7816164E-02  0.1320468E+00
        -11   -1    0    0    0    0  0.00000000000E+00  0.00000000000E+00  0.45593999997E+02  0.45594000000E+02  0.51100000000E-03 0.  1.
         11   -1    0    0    0    0 -0.00000000000E+00 -0.00000000000E+00 -0.45593999997E+02  0.45594000000E+02  0.51100000000E-03 0. -1.
    9900012    2    1    2    0    0  0.26680822953E+02 -0.54704377692E+01 -0.35879261597E+02  0.46142318569E+02  0.10000007367E+02 0.  0.
        -12    1    1    2    0    0 -0.26680822953E+02  0.54704377692E+01  0.35879261597E+02  0.45045681431E+02  0.00000000000E+00 0.  1.
         11    1    3    3    0    0  0.40088409213E+01  0.67106512053E+00 -0.46170730570E+01  0.61513004969E+01  0.51100000000E-03 0. -1.
        -11    1    3    3    0    0  0.16184930528E+01 -0.23615495756E+01 -0.12203859711E+01  0.31121983130E+01  0.51100000000E-03 0.  1.
        -12    1    3    3    0    0  0.21053488979E+02 -0.37799533142E+01 -0.30041802569E+02  0.36878819759E+02  0.00000000000E+00 0.  1.
</event>
<event>
 7    1  0.1519238E-008  0.4614232E+02  0.7816164E-02  0.1320468E+00
        -11   -1    0    0    0    0  0.00000000000E+00  0.00000000000E+00  0.45593999997E+02  0.45594000000E+02  0.51100000000E-03 0.  1.
         11   -1    0    0    0    0 -0.00000000000E+00 -0.00000000000E+00 -0.45593999997E+02  0.45594000000E+02  0.51100000000E-03 0. -1.
    9900012    2    1    2    0    0 -0.49002163962E+01  0.43067149688E+02  0.12260587862E+02  0.46142317435E+02  0.99999970272E+01 0.  0.
        -12    1    1    2    0    0  0.49002163962E+01 -0.43067149688E+02 -0.12260587862E+02  0.45045682565E+02  0.00000000000E+00 0.  1.
         11    1    3    3    0    0 -0.66713852209E+01  0.30489545001E+02  0.90259254176E+01  0.32489799400E+02  0.51100000000E-03 0. -1.
        -11    1    3    3    0    0  0.81800784525E+00  0.80961354075E+01  0.16776321172E+00  0.81390841087E+01  0.51100000000E-03 0.  1.
         12    1    3    3    0    0  0.95316097947E+00  0.44814692801E+01  0.30668992328E+01  0.55134339268E+01  0.00000000000E+00 0. -1.
</event>
<event>
 7    1  0.1519238E-008  0.4614232E+02  0.7816164E-02  0.1320468E+00
        -11   -1    0    0    0    0  0.00000000000E+00  0.00000000000E+00  0.45593999997E+02  0.45594000000E+02  0.51100000000E-03 0.  1.
         11   -1    0    0    0    0 -0.00000000000E+00 -0.00000000000E+00 -0.45593999997E+02  0.45594000000E+02  0.51100000000E-03 0. -1.
    9900012    2    1    2    0    0  0.13307935532E+02 -0.30169337694E+02 -0.30689142819E+02  0.46142316833E+02  0.99999915362E+01 0.  0.
        -12    1    1    2    0    0 -0.13307935532E+02  0.30169337694E+02  0.30689142819E+02  0.45045683167E+02  0.00000000000E+00 0.  1.
         11    1    3    3    0    0  0.36900472748E+01 -0.60459828907E+01 -0.96455534166E+01  0.11966915182E+02  0.51100000000E-03 0. -1.
        -11    1    3    3    0    0  0.72493709576E+01 -0.22444515734E+02 -0.16504494092E+02  0.28787288711E+02  0.51100000000E-03 0.  1.
        -12    1    3    3    0    0  0.23685172995E+01 -0.16788390693E+01 -0.45390953100E+01  0.53881129397E+01  0.00000000000E+00 0.  1.
</event>
<event>
 7    1  0.1519238E-008  0.4614232E+02  0.7816164E-02  0.1320468E+00
        -11   -1    0    0    0    0  0.00000000000E+00  0.00000000000E+00  0.45593999997E+02  0.45594000000E+02  0.51100000000E-03 0.  1.
         11   -1    0    0    0    0 -0.00000000000E+00 -0.00000000000E+00 -0.45593999997E+02  0.45594000000E+02  0.51100000000E-03 0. -1.
    9900012    2    1    2    0    0  0.61957430503E+01 -0.16808904279E+02 -0.41330220140E+02  0.46142316613E+02  0.99999895271E+01 0.  0.
        -12    1    1    2    0    0 -0.61957430503E+01  0.16808904279E+02  0.41330220140E+02  0.45045683387E+02  0.00000000000E+00 0.  1.
         11    1    3    3    0    0  0.65275676600E+01 -0.10483752371E+02 -0.28253288813E+02  0.30834502304E+02  0.51100000000E-03 0. -1.
        -11    1    3    3    0    0  0.13953018801E+01  0.13246358185E-02 -0.24898021173E+01  0.28541170151E+01  0.51100000000E-03 0.  1.
         12    1    3    3    0    0 -0.17271264897E+01 -0.63264765438E+01 -0.10587129210E+02  0.12453697294E+02  0.00000000000E+00 0. -1.
</event>
<event>
 7    1  0.1519238E-008  0.4614232E+02  0.7816164E-02  0.1320468E+00
        -11   -1    0    0    0    0  0.00000000000E+00  0.00000000000E+00  0.45593999997E+02  0.45594000000E+02  0.51100000000E-03 0.  1.
         11   -1    0    0    0    0 -0.00000000000E+00 -0.00000000000E+00 -0.45593999997E+02  0.45594000000E+02  0.51100000000E-03 0. -1.
    9900012    2    1    2    0    0 -0.29398627004E+02  0.65650877477E+01 -0.33492291363E+02  0.46142320656E+02  0.10000026394E+02 0.  0.
        -12    1    1    2    0    0  0.29398627004E+02 -0.65650877477E+01  0.33492291363E+02  0.45045679344E+02  0.00000000000E+00 0.  1.
         11    1    3    3    0    0 -0.27660545803E+02  0.31594926777E+01 -0.28528758577E+02  0.39861990094E+02  0.51100000000E-03 0. -1.
        -11    1    3    3    0    0 -0.10707682967E+01  0.16682589730E+01 -0.24093794364E+01  0.31200548514E+01  0.51100000000E-03 0.  1.
         12    1    3    3    0    0 -0.66731290400E+00  0.17373360970E+01 -0.25541533502E+01  0.31602757099E+01  0.00000000000E+00 0. -1.
</event>
<event>
 7    1  0.1519238E-008  0.4614232E+02  0.7816164E-02  0.1320468E+00
        -11   -1    0    0    0    0  0.00000000000E+00  0.00000000000E+00  0.45593999997E+02  0.45594000000E+02  0.51100000000E-03 0. -1.
         11   -1    0    0    0    0 -0.00000000000E+00 -0.00000000000E+00 -0.45593999997E+02  0.45594000000E+02  0.51100000000E-03 0.  1.
    9900012    2    1    2    0    0  0.75908071324E+01 -0.41676031164E+02 -0.15316705846E+02  0.46142318692E+02  0.10000008492E+02 0.  0.
        -12    1    1    2    0    0 -0.75908071324E+01  0.41676031164E+02  0.15316705846E+02  0.45045681308E+02  0.00000000000E+00 0.  1.
         11    1    3    3    0    0  0.57860133006E+01 -0.20189800512E+02 -0.11077742957E+02  0.23744944386E+02  0.51100000000E-03 0. -1.
        -11    1    3    3    0    0 -0.14276906923E+01 -0.65887590184E+01 -0.10438777629E+01  0.68220031633E+01  0.51100000000E-03 0.  1.
         12    1    3    3    0    0  0.32324845241E+01 -0.14897471634E+02 -0.31950851257E+01  0.15575371143E+02  0.00000000000E+00 0. -1.
</event>
<event>
 7    1  0.1519238E-008  0.4614232E+02  0.7816164E-02  0.1320468E+00
        -11   -1    0    0    0    0  0.00000000000E+00  0.00000000000E+00  0.45593999997E+02  0.45594000000E+02  0.51100000000E-03 0. -1.
         11   -1    0    0    0    0 -0.00000000000E+00 -0.00000000000E+00 -0.45593999997E+02  0.45594000000E+02  0.51100000000E-03 0.  1.
    9900012    2    1    2    0    0 -0.13529150285E+02  0.23046722638E+02  0.36261880774E+02  0.46142319529E+02  0.10000016122E+02 0.  0.
        -12    1    1    2    0    0  0.13529150285E+02 -0.23046722638E+02 -0.36261880774E+02  0.45045680471E+02  0.00000000000E+00 0.  1.
         11    1    3    3    0    0  0.38394747411E-01 -0.19865283873E+00  0.83103003271E+00  0.85530595891E+00  0.51100000000E-03 0. -1.
        -11    1    3    3    0    0  0.75012375450E+00 -0.15894887522E+00  0.10665825191E+01  0.13136015085E+01  0.51100000000E-03 0.  1.
         12    1    3    3    0    0 -0.14317668787E+02  0.23404324352E+02  0.34364268223E+02  0.43973412062E+02  0.00000000000E+00 0. -1.
</event>
<event>
 7    1  0.1519238E-008  0.4614232E+02  0.7816164E-02  0.1320468E+00
        -11   -1    0    0    0    0  0.00000000000E+00  0.00000000000E+00  0.45593999997E+02  0.45594000000E+02  0.51100000000E-03 0.  1.
         11   -1    0    0    0    0 -0.00000000000E+00 -0.00000000000E+00 -0.45593999997E+02  0.45594000000E+02  0.51100000000E-03 0. -1.
    9900012    2    1    2    0    0 -0.25656584128E+02 -0.19243896899E+01 -0.36974990995E+02  0.46142317145E+02  0.99999943815E+01 0.  0.
        -12    1    1    2    0    0  0.25656584128E+02  0.19243896899E+01  0.36974990995E+02  0.45045682855E+02  0.00000000000E+00 0.  1.
         11    1    3    3    0    0 -0.49003432175E+01 -0.40276237723E+01 -0.84384950995E+01  0.10556671668E+02  0.51100000000E-03 0. -1.
        -11    1    3    3    0    0 -0.16670045194E+02  0.19278186359E+00 -0.21145794725E+02  0.26927164842E+02  0.51100000000E-03 0.  1.
        -12    1    3    3    0    0 -0.40861957167E+01  0.19104522189E+01 -0.73907011700E+01  0.86584806347E+01  0.00000000000E+00 0.  1.
</event>
<event>
 7    1  0.1519238E-008  0.4614232E+02  0.7816164E-02  0.1320468E+00
        -11   -1    0    0    0    0  0.00000000000E+00  0.00000000000E+00  0.45593999997E+02  0.45594000000E+02  0.51100000000E-03 0.  1.
         11   -1    0    0    0    0 -0.00000000000E+00 -0.00000000000E+00 -0.45593999997E+02  0.45594000000E+02  0.51100000000E-03 0. -1.
    9900012    2    1    2    0    0  0.10927602065E+01  0.18151077652E+02 -0.41212348099E+02  0.46142318957E+02  0.10000010909E+02 0.  0.
        -12    1    1    2    0    0 -0.10927602065E+01 -0.18151077652E+02  0.41212348099E+02  0.45045681043E+02  0.00000000000E+00 0.  1.
         11    1    3    3    0    0 -0.12536775708E+01  0.67810325998E+01 -0.15183622053E+02  0.16676225277E+02  0.51100000000E-03 0. -1.
        -11    1    3    3    0    0  0.33824433357E+01  0.10380780239E+02 -0.25800603849E+02  0.28015579246E+02  0.51100000000E-03 0.  1.
        -12    1    3    3    0    0 -0.10360055584E+01  0.98926481272E+00 -0.22812219675E+00  0.14505144341E+01  0.00000000000E+00 0.  1.
</event>
<event>
 7    1  0.1519238E-008  0.4614232E+02  0.7816164E-02  0.1320468E+00
        -11   -1    0    0    0    0  0.00000000000E+00  0.00000000000E+00  0.45593999997E+02  0.45594000000E+02  0.51100000000E-03 0. -1.
         11   -1    0    0    0    0 -0.00000000000E+00 -0.00000000000E+00 -0.45593999997E+02  0.45594000000E+02  0.51100000000E-03 0.  1.
    9900012    2    1    2    0    0 -0.12880740288E+01  0.41933607686E+02  0.16402040842E+02  0.46142317276E+02  0.99999955760E+01 0.  0.
        -12    1    1    2    0    0  0.12880740288E+01 -0.41933607686E+02 -0.16402040842E+02  0.45045682724E+02  0.00000000000E+00 0.  1.
         11    1    3    3    0    0 -0.22974545511E+01  0.10807883723E+02  0.57178051124E+01  0.12441139158E+02  0.51100000000E-03 0. -1.
        -11    1    3    3    0    0  0.52107582271E+00 -0.32734968663E-01 -0.36606248693E+00  0.63764692161E+00  0.51100000000E-03 0.  1.
        -12    1    3    3    0    0  0.48830469958E+00  0.31158458932E+02  0.11050298217E+02  0.33063531197E+02  0.00000000000E+00 0.  1.
</event>
<event>
 7    1  0.1519238E-008  0.4614232E+02  0.7816164E-02  0.1320468E+00
        -11   -1    0    0    0    0  0.00000000000E+00  0.00000000000E+00  0.45593999997E+02  0.45594000000E+02  0.51100000000E-03 0.  1.
         11   -1    0    0    0    0 -0.00000000000E+00 -0.00000000000E+00 -0.45593999997E+02  0.45594000000E+02  0.51100000000E-03 0. -1.
    9900012    2    1    2    0    0 -0.61130171930E+01 -0.14283497207E+02 -0.42281511475E+02  0.46142317806E+02  0.10000000413E+02 0.  0.
        -12    1    1    2    0    0  0.61130171930E+01  0.14283497207E+02  0.42281511475E+02  0.45045682194E+02  0.00000000000E+00 0.  1.
         11    1    3    3    0    0 -0.31477171755E+01 -0.75103708033E+00 -0.30434378400E+01  0.44423748446E+01  0.51100000000E-03 0. -1.
        -11    1    3    3    0    0 -0.62638417310E+00 -0.19695188509E+01 -0.91783975208E+01  0.94082061493E+01  0.51100000000E-03 0.  1.
         12    1    3    3    0    0 -0.23389158444E+01 -0.11562941276E+02 -0.30059676114E+02  0.32291736813E+02  0.00000000000E+00 0. -1.
</event>
<event>
 7    1  0.1519238E-008  0.4614232E+02  0.7816164E-02  0.1320468E+00
        -11   -1    0    0    0    0  0.00000000000E+00  0.00000000000E+00  0.45593999997E+02  0.45594000000E+02  0.51100000000E-03 0.  1.
         11   -1    0    0    0    0 -0.00000000000E+00 -0.00000000000E+00 -0.45593999997E+02  0.45594000000E+02  0.51100000000E-03 0. -1.
    9900012    2    1    2    0    0  0.22116779542E+01  0.44541833221E+02 -0.63440572142E+01  0.46142317765E+02  0.10000000038E+02 0.  0.
        -12    1    1    2    0    0 -0.22116779542E+01 -0.44541833221E+02  0.63440572142E+01  0.45045682235E+02  0.00000000000E+00 0.  1.
         11    1    3    3    0    0 -0.14781561784E+01  0.24479571315E+02 -0.56458366235E+01  0.25165647794E+02  0.51100000000E-03 0. -1.
        -11    1    3    3    0    0  0.45134028428E+01  0.18040095529E+02  0.24614212216E+00  0.18597753577E+02  0.51100000000E-03 0.  1.
        -12    1    3    3    0    0 -0.82356871015E+00  0.20221663774E+01 -0.94436271286E+00  0.23789163944E+01  0.00000000000E+00 0.  1.
</event>
<event>
 7    1  0.1519238E-008  0.4614232E+02  0.7816164E-02  0.1320468E+00
        -11   -1    0    0    0    0  0.00000000000E+00  0.00000000000E+00  0.45593999997E+02  0.45594000000E+02  0.51100000000E-03 0.  1.
         11   -1    0    0    0    0 -0.00000000000E+00 -0.00000000000E+00 -0.45593999997E+02  0.45594000000E+02  0.51100000000E-03 0. -1.
    9900012    2    1    2    0    0 -0.37728155202E+01 -0.22771489318E+02 -0.38682535931E+02  0.46142318201E+02  0.10000004012E+02 0.  0.
        -12    1    1    2    0    0  0.37728155202E+01  0.22771489318E+02  0.38682535931E+02  0.45045681799E+02  0.00000000000E+00 0.  1.
         11    1    3    3    0    0 -0.43702404975E+01 -0.63792333722E+01 -0.11320384787E+02  0.13709293651E+02  0.51100000000E-03 0. -1.
        -11    1    3    3    0    0  0.22783527819E+01 -0.36538694357E+01 -0.94931969383E+01  0.10424127859E+02  0.51100000000E-03 0.  1.
         12    1    3    3    0    0 -0.16809278046E+01 -0.12738386510E+02 -0.17868954205E+02  0.22008896691E+02  0.00000000000E+00 0. -1.
</event>
<event>
 7    1  0.1519238E-008  0.4614232E+02  0.7816164E-02  0.1320468E+00
        -11   -1    0    0    0    0  0.00000000000E+00  0.00000000000E+00  0.45593999997E+02  0.45594000000E+02  0.51100000000E-03 0. -1.
         11   -1    0    0    0    0 -0.00000000000E+00 -0.00000000000E+00 -0.45593999997E+02  0.45594000000E+02  0.51100000000E-03 0.  1.
    9900012    2    1    2    0    0  0.14746777028E+02 -0.74809869790E+01  0.41900846386E+02  0.46142317335E+02  0.99999961135E+01 0.  0.
        -12    1    1    2    0    0 -0.14746777028E+02  0.74809869790E+01 -0.41900846386E+02  0.45045682665E+02  0.00000000000E+00 0.  1.
         11    1    3    3    0    0  0.37528207502E+01 -0.14588200286E+01  0.98242323024E+01  0.10617314164E+02  0.51100000000E-03 0. -1.
        -11    1    3    3    0    0  0.91058677210E+01 -0.81306861616E+01  0.23314713990E+02  0.26317309382E+02  0.51100000000E-03 0.  1.
        -12    1    3    3    0    0  0.18880885564E+01  0.21085192112E+01  0.87619000939E+01  0.92076937892E+01  0.00000000000E+00 0.  1.
</event>
<event>
 7    1  0.1519238E-008  0.4614232E+02  0.7816164E-02  0.1320468E+00
        -11   -1    0    0    0    0  0.00000000000E+00  0.00000000000E+00  0.45593999997E+02  0.45594000000E+02  0.51100000000E-03 0.  1.
         11   -1    0    0    0    0 -0.00000000000E+00 -0.00000000000E+00 -0.45593999997E+02  0.45594000000E+02  0.51100000000E-03 0. -1.
    9900012    2    1    2    0    0  0.10802425774E+02 -0.36436937166E+02 -0.24182033073E+02  0.46142317452E+02  0.99999971845E+01 0.  0.
        -12    1    1    2    0    0 -0.10802425774E+02  0.36436937166E+02  0.24182033073E+02  0.45045682548E+02  0.00000000000E+00 0.  1.
         11    1    3    3    0    0  0.10928540289E+02 -0.22210689343E+02 -0.15094827502E+02  0.28993129039E+02  0.51100000000E-03 0. -1.
        -11    1    3    3    0    0 -0.66071249267E+00 -0.69239571237E+01 -0.60643438983E+01  0.92278919818E+01  0.51100000000E-03 0.  1.
        -12    1    3    3    0    0  0.53459797765E+00 -0.73022906994E+01 -0.30228616733E+01  0.79212964313E+01  0.00000000000E+00 0.  1.
</event>
<event>
 7    1  0.1519238E-008  0.4614232E+02  0.7816164E-02  0.1320468E+00
        -11   -1    0    0    0    0  0.00000000000E+00  0.00000000000E+00  0.45593999997E+02  0.45594000000E+02  0.51100000000E-03 0. -1.
         11   -1    0    0    0    0 -0.00000000000E+00 -0.00000000000E+00 -0.45593999997E+02  0.45594000000E+02  0.51100000000E-03 0.  1.
    9900012    2    1    2    0    0 -0.24851219452E+02  0.36733941181E+02  0.78833970054E+01  0.46142317729E+02  0.99999997032E+01 0.  0.
        -12    1    1    2    0    0  0.24851219452E+02 -0.36733941181E+02 -0.78833970054E+01  0.45045682271E+02  0.00000000000E+00 0.  1.
         11    1    3    3    0    0 -0.51354059009E+00  0.42043867532E+01  0.25247836486E+01  0.49310368728E+01  0.51100000000E-03 0. -1.
        -11    1    3    3    0    0 -0.15774796577E+02  0.18594221507E+02  0.47596522904E+01  0.24844387106E+02  0.51100000000E-03 0.  1.
         12    1    3    3    0    0 -0.85628822845E+01  0.13935332922E+02  0.59896106636E+00  0.16366893750E+02  0.00000000000E+00 0. -1.
</event>
<event>
 7    1  0.1519238E-008  0.4614232E+02  0.7816164E-02  0.1320468E+00
        -11   -1    0    0    0    0  0.00000000000E+00  0.00000000000E+00  0.45593999997E+02  0.45594000000E+02  0.51100000000E-03 0.  1.
         11   -1    0    0    0    0 -0.00000000000E+00 -0.00000000000E+00 -0.45593999997E+02  0.45594000000E+02  0.51100000000E-03 0. -1.
    9900012    2    1    2    0    0  0.26800711666E+02  0.35723883193E+02  0.58855279068E+01  0.46142318576E+02  0.10000007430E+02 0.  0.
        -12    1    1    2    0    0 -0.26800711666E+02 -0.35723883193E+02 -0.58855279068E+01  0.45045681424E+02  0.00000000000E+00 0.  1.
         11    1    3    3    0    0 -0.25186689518E+00  0.28887914308E+01  0.13748879173E+01  0.32091852408E+01  0.51100000000E-03 0. -1.
        -11    1    3    3    0    0  0.11351310951E+02  0.14994545412E+02  0.37633505668E+00  0.18810376943E+02  0.51100000000E-03 0.  1.
         12    1    3    3    0    0  0.15701267611E+02  0.17840546351E+02  0.41343049329E+01  0.24122756392E+02  0.00000000000E+00 0. -1.
</event>
<event>
 7    1  0.1519238E-008  0.4614232E+02  0.7816164E-02  0.1320468E+00
        -11   -1    0    0    0    0  0.00000000000E+00  0.00000000000E+00  0.45593999997E+02  0.45594000000E+02  0.51100000000E-03 0. -1.
         11   -1    0    0    0    0 -0.00000000000E+00 -0.00000000000E+00 -0.45593999997E+02  0.45594000000E+02  0.51100000000E-03 0.  1.
    9900012    2    1    2    0    0 -0.17451684841E+02 -0.33784571814E+02  0.24148600861E+02  0.46142317410E+02  0.99999967972E+01 0.  0.
        -12    1    1    2    0    0  0.17451684841E+02  0.33784571814E+02 -0.24148600861E+02  0.45045682590E+02  0.00000000000E+00 0.  1.
         11    1    3    3    0    0 -0.36750820574E+01 -0.14107682772E+02  0.10763068507E+02  0.18121164015E+02  0.51100000000E-03 0. -1.
        -11    1    3    3    0    0 -0.11461440012E+02 -0.19025264706E+02  0.12161878015E+02  0.25322649573E+02  0.51100000000E-03 0.  1.
         12    1    3    3    0    0 -0.23151627713E+01 -0.65162433645E+00  0.12236543389E+01  0.26985038215E+01  0.00000000000E+00 0. -1.
</event>
<event>
 7    1  0.1519238E-008  0.4614232E+02  0.7816164E-02  0.1320468E+00
        -11   -1    0    0    0    0  0.00000000000E+00  0.00000000000E+00  0.45593999997E+02  0.45594000000E+02  0.51100000000E-03 0. -1.
         11   -1    0    0    0    0 -0.00000000000E+00 -0.00000000000E+00 -0.45593999997E+02  0.45594000000E+02  0.51100000000E-03 0.  1.
    9900012    2    1    2    0    0 -0.37088894051E+02  0.24065533329E+02 -0.86242398242E+01  0.46142317978E+02  0.10000001974E+02 0.  0.
        -12    1    1    2    0    0  0.37088894051E+02 -0.24065533329E+02  0.86242398242E+01  0.45045682022E+02  0.00000000000E+00 0.  1.
         11    1    3    3    0    0 -0.11789026006E+02  0.89216715081E+01  0.76115054410E+00  0.14803942281E+02  0.51100000000E-03 0. -1.
        -11    1    3    3    0    0 -0.21346147428E+02  0.10665629107E+02 -0.83138017042E+01  0.25269209590E+02  0.51100000000E-03 0.  1.
        -12    1    3    3    0    0 -0.39537206174E+01  0.44782327140E+01 -0.10715886641E+01  0.60691661064E+01  0.00000000000E+00 0.  1.
</event>
<event>
 7    1  0.1519238E-008  0.4614232E+02  0.7816164E-02  0.1320468E+00
        -11   -1    0    0    0    0  0.00000000000E+00  0.00000000000E+00  0.45593999997E+02  0.45594000000E+02  0.51100000000E-03 0.  1.
         11   -1    0    0    0    0 -0.00000000000E+00 -0.00000000000E+00 -0.45593999997E+02  0.45594000000E+02  0.51100000000E-03 0. -1.
    9900012    2    1    2    0    0  0.31847942360E+02 -0.90439125308E+00 -0.31843431027E+02  0.46142318124E+02  0.10000003313E+02 0.  0.
        -12    1    1    2    0    0 -0.31847942360E+02  0.90439125308E+00  0.31843431027E+02  0.45045681876E+02  0.00000000000E+00 0.  1.
         11    1    3    3    0    0  0.32358762791E+01 -0.64194247687E-01 -0.31878031386E+01  0.45428080860E+01  0.51100000000E-03 0. -1.
        -11    1    3    3    0    0  0.26982771101E+02 -0.18555741195E+01 -0.28993547831E+02  0.39650206906E+02  0.51100000000E-03 0.  1.
        -12    1    3    3    0    0  0.16292949801E+01  0.10153771141E+01  0.33791994269E+00  0.19493031329E+01  0.00000000000E+00 0.  1.
</event>
<event>
 7    1  0.1519238E-008  0.4614232E+02  0.7816164E-02  0.1320468E+00
        -11   -1    0    0    0    0  0.00000000000E+00  0.00000000000E+00  0.45593999997E+02  0.45594000000E+02  0.51100000000E-03 0.  1.
         11   -1    0    0    0    0 -0.00000000000E+00 -0.00000000000E+00 -0.45593999997E+02  0.45594000000E+02  0.51100000000E-03 0. -1.
    9900012    2    1    2    0    0 -0.10679152361E+02  0.37965948526E+02 -0.21763629794E+02  0.46142321801E+02  0.10000036838E+02 0.  0.
        -12    1    1    2    0    0  0.10679152361E+02 -0.37965948526E+02  0.21763629794E+02  0.45045678199E+02  0.00000000000E+00 0.  1.
         11    1    3    3    0    0 -0.81781704909E+01  0.20872693294E+02 -0.10812050314E+02  0.24888797282E+02  0.51100000000E-03 0.  1.
        -11    1    3    3    0    0 -0.39274400164E+01  0.10394211926E+02 -0.50198202279E+01  0.12192744647E+02  0.51100000000E-03 0. -1.
         12    1    3    3    0    0  0.14264581461E+01  0.66990433063E+01 -0.59317592518E+01  0.90607798717E+01  0.00000000000E+00 0. -1.
</event>
<event>
 7    1  0.1519238E-008  0.4614233E+02  0.7816164E-02  0.1320468E+00
        -11   -1    0    0    0    0  0.00000000000E+00  0.00000000000E+00  0.45593999997E+02  0.45594000000E+02  0.51100000000E-03 0.  1.
         11   -1    0    0    0    0 -0.00000000000E+00 -0.00000000000E+00 -0.45593999997E+02  0.45594000000E+02  0.51100000000E-03 0. -1.
    9900012    2    1    2    0    0 -0.11115393508E+02  0.15626691971E+02 -0.40759874353E+02  0.46142325046E+02  0.10000066430E+02 0.  0.
        -12    1    1    2    0    0  0.11115393508E+02 -0.15626691971E+02  0.40759874353E+02  0.45045674954E+02  0.00000000000E+00 0.  1.
         11    1    3    3    0    0 -0.33100600515E+01  0.58804955923E+01 -0.20310564901E+02  0.21402237566E+02  0.51100000000E-03 0. -1.
        -11    1    3    3    0    0 -0.62222060799E+01  0.30409448244E+01 -0.11799519901E+02  0.13681807779E+02  0.51100000000E-03 0.  1.
         12    1    3    3    0    0 -0.15831273763E+01  0.67052515545E+01 -0.86497895503E+01  0.11058279702E+02  0.00000000000E+00 0. -1.
</event>
<event>
 7    1  0.1519238E-008  0.4614232E+02  0.7816164E-02  0.1320468E+00
        -11   -1    0    0    0    0  0.00000000000E+00  0.00000000000E+00  0.45593999997E+02  0.45594000000E+02  0.51100000000E-03 0.  1.
         11   -1    0    0    0    0 -0.00000000000E+00 -0.00000000000E+00 -0.45593999997E+02  0.45594000000E+02  0.51100000000E-03 0. -1.
    9900012    2    1    2    0    0  0.39265968730E+02  0.22067005644E+02 -0.58700588494E+00  0.46142316364E+02  0.99999872573E+01 0.  0.
        -12    1    1    2    0    0 -0.39265968730E+02 -0.22067005644E+02  0.58700588494E+00  0.45045683636E+02  0.00000000000E+00 0.  1.
         11    1    3    3    0    0  0.97677922143E+01  0.71331056573E+01 -0.14862130992E+01  0.12186049019E+02  0.51100000000E-03 0. -1.
        -11    1    3    3    0    0  0.77795809449E+01  0.20639610166E+01  0.30775177464E+01  0.86170140128E+01  0.51100000000E-03 0.  1.
        -12    1    3    3    0    0  0.21718595570E+02  0.12869938970E+02 -0.21783105321E+01  0.25339253332E+02  0.00000000000E+00 0.  1.
</event>
<event>
 7    1  0.1519238E-008  0.4614232E+02  0.7816164E-02  0.1320468E+00
        -11   -1    0    0    0    0  0.00000000000E+00  0.00000000000E+00  0.45593999997E+02  0.45594000000E+02  0.51100000000E-03 0.  1.
         11   -1    0    0    0    0 -0.00000000000E+00 -0.00000000000E+00 -0.45593999997E+02  0.45594000000E+02  0.51100000000E-03 0. -1.
    9900012    2    1    2    0    0 -0.30316938299E+02  0.22190466897E+02 -0.24851153602E+02  0.46142318694E+02  0.10000008507E+02 0.  0.
        -12    1    1    2    0    0  0.30316938299E+02 -0.22190466897E+02  0.24851153602E+02  0.45045681306E+02  0.00000000000E+00 0.  1.
         11    1    3    3    0    0 -0.23001854553E+02  0.17541250907E+02 -0.16508570064E+02  0.33306360985E+02  0.51100000000E-03 0. -1.
        -11    1    3    3    0    0 -0.61695326636E+01  0.34581528374E+01 -0.86307355442E+01  0.11158474386E+02  0.51100000000E-03 0.  1.
        -12    1    3    3    0    0 -0.11455510831E+01  0.11910631533E+01  0.28815200645E+00  0.16774833227E+01  0.00000000000E+00 0.  1.
</event>
<event>
 7    1  0.1519238E-008  0.4614232E+02  0.7816164E-02  0.1320468E+00
        -11   -1    0    0    0    0  0.00000000000E+00  0.00000000000E+00  0.45593999997E+02  0.45594000000E+02  0.51100000000E-03 0.  1.
         11   -1    0    0    0    0 -0.00000000000E+00 -0.00000000000E+00 -0.45593999997E+02  0.45594000000E+02  0.51100000000E-03 0. -1.
    9900012    2    1    2    0    0  0.22433856199E+02  0.36038787940E+02 -0.15067888059E+02  0.46142318845E+02  0.10000009887E+02 0.  0.
        -12    1    1    2    0    0 -0.22433856199E+02 -0.36038787940E+02  0.15067888059E+02  0.45045681155E+02  0.00000000000E+00 0.  1.
         11    1    3    3    0    0  0.72816649946E+01  0.15821977055E+02 -0.67893895948E+01  0.18693673110E+02  0.51100000000E-03 0. -1.
        -11    1    3    3    0    0  0.12946469150E+02  0.16354351026E+02 -0.39245904132E+01  0.21224473400E+02  0.51100000000E-03 0.  1.
        -12    1    3    3    0    0  0.22057220545E+01  0.38624598587E+01 -0.43539080510E+01  0.62241723352E+01  0.00000000000E+00 0.  1.
</event>
<event>
 7    1  0.1519238E-008  0.4614232E+02  0.7816164E-02  0.1320468E+00
        -11   -1    0    0    0    0  0.00000000000E+00  0.00000000000E+00  0.45593999997E+02  0.45594000000E+02  0.51100000000E-03 0.  1.
         11   -1    0    0    0    0 -0.00000000000E+00 -0.00000000000E+00 -0.45593999997E+02  0.45594000000E+02  0.51100000000E-03 0. -1.
    9900012    2    1    2    0    0 -0.24824533683E+02  0.28193646725E+02 -0.24859088235E+02  0.46142318119E+02  0.10000003265E+02 0.  0.
        -12    1    1    2    0    0  0.24824533683E+02 -0.28193646725E+02  0.24859088235E+02  0.45045681881E+02  0.00000000000E+00 0.  1.
         11    1    3    3    0    0 -0.10080143374E+02  0.77413688364E+01 -0.38867320111E+01  0.13290777550E+02  0.51100000000E-03 0. -1.
        -11    1    3    3    0    0 -0.82568090772E+01  0.11945802262E+02 -0.13243201194E+02  0.19653484829E+02  0.51100000000E-03 0.  1.
         12    1    3    3    0    0 -0.64875812319E+01  0.85064756262E+01 -0.77291550303E+01  0.13198055739E+02  0.00000000000E+00 0. -1.
</event>
<event>
 7    1  0.1519238E-008  0.4614232E+02  0.7816164E-02  0.1320468E+00
        -11   -1    0    0    0    0  0.00000000000E+00  0.00000000000E+00  0.45593999997E+02  0.45594000000E+02  0.51100000000E-03 0. -1.
         11   -1    0    0    0    0 -0.00000000000E+00 -0.00000000000E+00 -0.45593999997E+02  0.45594000000E+02  0.51100000000E-03 0.  1.
    9900012    2    1    2    0    0 -0.41133838022E+02 -0.18330302987E+02  0.10586091885E+01  0.46142319947E+02  0.10000019931E+02 0.  0.
        -12    1    1    2    0    0  0.41133838022E+02  0.18330302987E+02 -0.10586091885E+01  0.45045680053E+02  0.00000000000E+00 0.  1.
         11    1    3    3    0    0 -0.91934269174E+01 -0.82428380640E+01  0.15885715193E+01  0.12449379003E+02  0.51100000000E-03 0. -1.
        -11    1    3    3    0    0 -0.20640432100E+02 -0.53378888499E+01 -0.16563210457E+01  0.21383729664E+02  0.51100000000E-03 0.  1.
         12    1    3    3    0    0 -0.11299979005E+02 -0.47495760731E+01  0.11263587149E+01  0.12309211280E+02  0.00000000000E+00 0. -1.
</event>
<event>
 7    1  0.1519238E-008  0.4614232E+02  0.7816164E-02  0.1320468E+00
        -11   -1    0    0    0    0  0.00000000000E+00  0.00000000000E+00  0.45593999997E+02  0.45594000000E+02  0.51100000000E-03 0. -1.
         11   -1    0    0    0    0 -0.00000000000E+00 -0.00000000000E+00 -0.45593999997E+02  0.45594000000E+02  0.51100000000E-03 0.  1.
    9900012    2    1    2    0    0 -0.20736860341E+02  0.28788155129E+02  0.27754967246E+02  0.46142318083E+02  0.10000002937E+02 0.  0.
        -12    1    1    2    0    0  0.20736860341E+02 -0.28788155129E+02 -0.27754967246E+02  0.45045681917E+02  0.00000000000E+00 0.  1.
         11    1    3    3    0    0 -0.16068616478E+02  0.19280216658E+02  0.24218737457E+02  0.34877993552E+02  0.51100000000E-03 0. -1.
        -11    1    3    3    0    0 -0.31479424646E+01  0.47394904891E+01  0.18423753029E+01  0.59805232944E+01  0.51100000000E-03 0.  1.
         12    1    3    3    0    0 -0.15203013989E+01  0.47684479815E+01  0.16938544857E+01  0.52838012372E+01  0.00000000000E+00 0. -1.
</event>
<event>
 7    1  0.1519238E-008  0.4614232E+02  0.7816164E-02  0.1320468E+00
        -11   -1    0    0    0    0  0.00000000000E+00  0.00000000000E+00  0.45593999997E+02  0.45594000000E+02  0.51100000000E-03 0.  1.
         11   -1    0    0    0    0 -0.00000000000E+00 -0.00000000000E+00 -0.45593999997E+02  0.45594000000E+02  0.51100000000E-03 0. -1.
    9900012    2    1    2    0    0 -0.41235667643E+02 -0.16000511322E+02 -0.85274265194E+01  0.46142315949E+02  0.99999834798E+01 0.  0.
        -12    1    1    2    0    0  0.41235667643E+02  0.16000511322E+02  0.85274265194E+01  0.45045684051E+02  0.00000000000E+00 0.  1.
         11    1    3    3    0    0 -0.28605394799E+02 -0.12449685919E+02 -0.92371111428E+01  0.32535941874E+02  0.51100000000E-03 0. -1.
        -11    1    3    3    0    0 -0.52373636140E+01 -0.32106841923E+01  0.86655593829E+00  0.62039817911E+01  0.51100000000E-03 0.  1.
        -12    1    3    3    0    0 -0.73929092297E+01 -0.34014121094E+00 -0.15687131483E+00  0.74023922843E+01  0.00000000000E+00 0.  1.
</event>
<event>
 7    1  0.1519238E-008  0.4614232E+02  0.7816164E-02  0.1320468E+00
        -11   -1    0    0    0    0  0.00000000000E+00  0.00000000000E+00  0.45593999997E+02  0.45594000000E+02  0.51100000000E-03 0.  1.
         11   -1    0    0    0    0 -0.00000000000E+00 -0.00000000000E+00 -0.45593999997E+02  0.45594000000E+02  0.51100000000E-03 0. -1.
    9900012    2    1    2    0    0  0.13524283564E+02  0.81524285179E+01 -0.42187025306E+02  0.46142318288E+02  0.10000004809E+02 0.  0.
        -12    1    1    2    0    0 -0.13524283564E+02 -0.81524285179E+01  0.42187025306E+02  0.45045681712E+02  0.00000000000E+00 0.  1.
         11    1    3    3    0    0  0.39661166981E+01  0.36675653779E+01 -0.69863218132E+01  0.88311839638E+01  0.51100000000E-03 0. -1.
        -11    1    3    3    0    0  0.17928362281E+00  0.18372503281E+01 -0.12083930065E+02  0.12224115406E+02  0.51100000000E-03 0.  1.
        -12    1    3    3    0    0  0.93788832432E+01  0.26476128119E+01 -0.23116773428E+02  0.25087018919E+02  0.00000000000E+00 0.  1.
</event>
<event>
 7    1  0.1519238E-008  0.4614232E+02  0.7816164E-02  0.1320468E+00
        -11   -1    0    0    0    0  0.00000000000E+00  0.00000000000E+00  0.45593999997E+02  0.45594000000E+02  0.51100000000E-03 0. -1.
         11   -1    0    0    0    0 -0.00000000000E+00 -0.00000000000E+00 -0.45593999997E+02  0.45594000000E+02  0.51100000000E-03 0.  1.
    9900012    2    1    2    0    0  0.35780483733E+02 -0.37393304522E+01  0.27108815555E+02  0.46142317752E+02  0.99999999165E+01 0.  0.
        -12    1    1    2    0    0 -0.35780483733E+02  0.37393304522E+01 -0.27108815555E+02  0.45045682248E+02  0.00000000000E+00 0.  1.
         11    1    3    3    0    0  0.18943849341E+02 -0.19203825574E+01  0.19935735416E+02  0.27567931440E+02  0.51100000000E-03 0. -1.
        -11    1    3    3    0    0  0.15334793196E+02 -0.15748072448E+01  0.72821666521E+01  0.17048925234E+02  0.51100000000E-03 0.  1.
         12    1    3    3    0    0  0.15018411952E+01 -0.24414065007E+00 -0.10908651304E+00  0.15254610779E+01  0.00000000000E+00 0. -1.
</event>
<event>
 7    1  0.1519238E-008  0.4614232E+02  0.7816164E-02  0.1320468E+00
        -11   -1    0    0    0    0  0.00000000000E+00  0.00000000000E+00  0.45593999997E+02  0.45594000000E+02  0.51100000000E-03 0.  1.
         11   -1    0    0    0    0 -0.00000000000E+00 -0.00000000000E+00 -0.45593999997E+02  0.45594000000E+02  0.51100000000E-03 0. -1.
    9900012    2    1    2    0    0  0.33149595941E+02  0.14177987326E+02 -0.27003745832E+02  0.46142319578E+02  0.10000016571E+02 0.  0.
        -12    1    1    2    0    0 -0.33149595941E+02 -0.14177987326E+02  0.27003745832E+02  0.45045680422E+02  0.00000000000E+00 0.  1.
         11    1    3    3    0    0  0.19443873825E+02  0.96165626201E+01 -0.18693213503E+02  0.28635270862E+02  0.51100000000E-03 0. -1.
        -11    1    3    3    0    0  0.95348208150E+01  0.87447953969E+00 -0.36503706843E+01  0.10247083919E+02  0.51100000000E-03 0.  1.
        -12    1    3    3    0    0  0.41709013006E+01  0.36869451667E+01 -0.46601616442E+01  0.72599647983E+01  0.00000000000E+00 0.  1.
</event>
<event>
 7    1  0.1519238E-008  0.4614232E+02  0.7816164E-02  0.1320468E+00
        -11   -1    0    0    0    0  0.00000000000E+00  0.00000000000E+00  0.45593999997E+02  0.45594000000E+02  0.51100000000E-03 0. -1.
         11   -1    0    0    0    0 -0.00000000000E+00 -0.00000000000E+00 -0.45593999997E+02  0.45594000000E+02  0.51100000000E-03 0.  1.
    9900012    2    1    2    0    0 -0.25377829126E+02 -0.32782657980E+02  0.17617511173E+02  0.46142316796E+02  0.99999911971E+01 0.  0.
        -12    1    1    2    0    0  0.25377829126E+02  0.32782657980E+02 -0.17617511173E+02  0.45045683204E+02  0.00000000000E+00 0.  1.
         11    1    3    3    0    0 -0.21886660778E+01 -0.53268395992E+01  0.46638819212E+01  0.74106190127E+01  0.51100000000E-03 0. -1.
        -11    1    3    3    0    0 -0.39445812293E+01 -0.18457763450E+01  0.25661979640E+01  0.50548969962E+01  0.51100000000E-03 0.  1.
         12    1    3    3    0    0 -0.19244581819E+02 -0.25610042036E+02  0.10387431287E+02  0.33676800787E+02  0.00000000000E+00 0. -1.
</event>
<event>
 7    1  0.1519238E-008  0.4614232E+02  0.7816164E-02  0.1320468E+00
        -11   -1    0    0    0    0  0.00000000000E+00  0.00000000000E+00  0.45593999997E+02  0.45594000000E+02  0.51100000000E-03 0.  1.
         11   -1    0    0    0    0 -0.00000000000E+00 -0.00000000000E+00 -0.45593999997E+02  0.45594000000E+02  0.51100000000E-03 0. -1.
    9900012    2    1    2    0    0  0.30006719072E+02  0.45983715256E+00 -0.33593140014E+02  0.46142315460E+02  0.99999790125E+01 0.  0.
        -12    1    1    2    0    0 -0.30006719072E+02 -0.45983715256E+00  0.33593140014E+02  0.45045684540E+02  0.00000000000E+00 0.  1.
         11    1    3    3    0    0  0.67903807350E+01 -0.33568082529E+01 -0.60075339322E+01  0.96678796218E+01  0.51100000000E-03 0. -1.
        -11    1    3    3    0    0  0.20368121164E+02  0.45905602588E+01 -0.23518247851E+02  0.31449031551E+02  0.51100000000E-03 0.  1.
         12    1    3    3    0    0  0.28482171731E+01 -0.77391485332E+00 -0.40673582314E+01  0.50254042870E+01  0.00000000000E+00 0. -1.
</event>
<event>
 7    1  0.1519238E-008  0.4614232E+02  0.7816164E-02  0.1320468E+00
        -11   -1    0    0    0    0  0.00000000000E+00  0.00000000000E+00  0.45593999997E+02  0.45594000000E+02  0.51100000000E-03 0. -1.
         11   -1    0    0    0    0 -0.00000000000E+00 -0.00000000000E+00 -0.45593999997E+02  0.45594000000E+02  0.51100000000E-03 0.  1.
    9900012    2    1    2    0    0  0.34594162092E+02  0.39100652009E+01 -0.28584414583E+02  0.46142318545E+02  0.10000007148E+02 0.  0.
        -12    1    1    2    0    0 -0.34594162092E+02 -0.39100652009E+01  0.28584414583E+02  0.45045681455E+02  0.00000000000E+00 0.  1.
         11    1    3    3    0    0  0.19279849221E+02  0.29452897482E+01 -0.18461955205E+02  0.26855746274E+02  0.51100000000E-03 0. -1.
        -11    1    3    3    0    0  0.28675267732E+01  0.20126720150E+01 -0.41807575586E+01  0.54545662027E+01  0.51100000000E-03 0.  1.
        -12    1    3    3    0    0  0.12446786098E+02 -0.10478965622E+01 -0.59417018191E+01  0.13832006068E+02  0.00000000000E+00 0.  1.
</event>
<event>
 7    1  0.1519238E-008  0.4614232E+02  0.7816164E-02  0.1320468E+00
        -11   -1    0    0    0    0  0.00000000000E+00  0.00000000000E+00  0.45593999997E+02  0.45594000000E+02  0.51100000000E-03 0.  1.
         11   -1    0    0    0    0 -0.00000000000E+00 -0.00000000000E+00 -0.45593999997E+02  0.45594000000E+02  0.51100000000E-03 0. -1.
    9900012    2    1    2    0    0 -0.15768651468E+02 -0.71496911582E+01 -0.41585394065E+02  0.46142318161E+02  0.10000003644E+02 0.  0.
        -12    1    1    2    0    0  0.15768651468E+02  0.71496911582E+01  0.41585394065E+02  0.45045681839E+02  0.00000000000E+00 0.  1.
         11    1    3    3    0    0 -0.12867467635E+02 -0.76561213895E+01 -0.33148973487E+02  0.36373649275E+02  0.51100000000E-03 0. -1.
        -11    1    3    3    0    0 -0.16928088822E+00  0.14743673404E+01 -0.10057095069E+01  0.17927261216E+01  0.51100000000E-03 0.  1.
        -12    1    3    3    0    0 -0.27319029447E+01 -0.96793710916E+00 -0.74307110713E+01  0.79759427639E+01  0.00000000000E+00 0.  1.
</event>
<event>
 7    1  0.1519238E-008  0.4614232E+02  0.7816164E-02  0.1320468E+00
        -11   -1    0    0    0    0  0.00000000000E+00  0.00000000000E+00  0.45593999997E+02  0.45594000000E+02  0.51100000000E-03 0. -1.
         11   -1    0    0    0    0 -0.00000000000E+00 -0.00000000000E+00 -0.45593999997E+02  0.45594000000E+02  0.51100000000E-03 0.  1.
    9900012    2    1    2    0    0 -0.42241570539E+02  0.61750047006E+01  0.14374718552E+02  0.46142317653E+02  0.99999990156E+01 0.  0.
        -12    1    1    2    0    0  0.42241570539E+02 -0.61750047006E+01 -0.14374718552E+02  0.45045682347E+02  0.00000000000E+00 0.  1.
         11    1    3    3    0    0 -0.29617682592E+02  0.13748117420E+01  0.13496119078E+02  0.32576716530E+02  0.51100000000E-03 0. -1.
        -11    1    3    3    0    0 -0.73056945911E+01  0.23119866838E+01  0.35980507941E+00  0.76712395244E+01  0.51100000000E-03 0.  1.
         12    1    3    3    0    0 -0.53181933559E+01  0.24882062748E+01  0.51879439519E+00  0.58943615991E+01  0.00000000000E+00 0. -1.
</event>
<event>
 7    1  0.1519238E-008  0.4614232E+02  0.7816164E-02  0.1320468E+00
        -11   -1    0    0    0    0  0.00000000000E+00  0.00000000000E+00  0.45593999997E+02  0.45594000000E+02  0.51100000000E-03 0. -1.
         11   -1    0    0    0    0 -0.00000000000E+00 -0.00000000000E+00 -0.45593999997E+02  0.45594000000E+02  0.51100000000E-03 0.  1.
    9900012    2    1    2    0    0 -0.30346062121E+02  0.30932064789E+02 -0.12305991081E+02  0.46142317246E+02  0.99999953012E+01 0.  0.
        -12    1    1    2    0    0  0.30346062121E+02 -0.30932064789E+02  0.12305991081E+02  0.45045682754E+02  0.00000000000E+00 0.  1.
         11    1    3    3    0    0 -0.12341052582E+02  0.94988538719E+01 -0.73845998643E+01  0.17235490104E+02  0.51100000000E-03 0. -1.
        -11    1    3    3    0    0 -0.35187508210E+01  0.69049369168E+01 -0.29639180486E+01  0.82972628997E+01  0.51100000000E-03 0.  1.
         12    1    3    3    0    0 -0.14486258717E+02  0.14528274000E+02 -0.19574731679E+01  0.20609564242E+02  0.00000000000E+00 0. -1.
</event>
<event>
 7    1  0.1519238E-008  0.4614232E+02  0.7816164E-02  0.1320468E+00
        -11   -1    0    0    0    0  0.00000000000E+00  0.00000000000E+00  0.45593999997E+02  0.45594000000E+02  0.51100000000E-03 0.  1.
         11   -1    0    0    0    0 -0.00000000000E+00 -0.00000000000E+00 -0.45593999997E+02  0.45594000000E+02  0.51100000000E-03 0. -1.
    9900012    2    1    2    0    0 -0.23650980696E+02 -0.33681037424E+02 -0.18312077485E+02  0.46142319279E+02  0.10000013843E+02 0.  0.
        -12    1    1    2    0    0  0.23650980696E+02  0.33681037424E+02  0.18312077485E+02  0.45045680721E+02  0.00000000000E+00 0.  1.
         11    1    3    3    0    0 -0.39379006618E+01 -0.26360689277E+01 -0.38843845955E+01  0.61273456701E+01  0.51100000000E-03 0. -1.
        -11    1    3    3    0    0 -0.15391165265E+02 -0.27945266919E+02 -0.11303188089E+02  0.33846535607E+02  0.51100000000E-03 0.  1.
        -12    1    3    3    0    0 -0.43219147691E+01 -0.30997015773E+01 -0.31245047999E+01  0.61684380019E+01  0.00000000000E+00 0.  1.
</event>
<event>
 7    1  0.1519238E-008  0.4614232E+02  0.7816164E-02  0.1320468E+00
        -11   -1    0    0    0    0  0.00000000000E+00  0.00000000000E+00  0.45593999997E+02  0.45594000000E+02  0.51100000000E-03 0.  1.
         11   -1    0    0    0    0 -0.00000000000E+00 -0.00000000000E+00 -0.45593999997E+02  0.45594000000E+02  0.51100000000E-03 0. -1.
    9900012    2    1    2    0    0  0.86971479848E+01 -0.29260610085E+02 -0.33125365639E+02  0.46142317251E+02  0.99999953506E+01 0.  0.
        -12    1    1    2    0    0 -0.86971479848E+01  0.29260610085E+02  0.33125365639E+02  0.45045682749E+02  0.00000000000E+00 0.  1.
         11    1    3    3    0    0  0.32594139132E+01 -0.13347468042E+02 -0.13855190463E+02  0.19512687801E+02  0.51100000000E-03 0. -1.
        -11    1    3    3    0    0  0.31278148730E+01 -0.73845358492E+01 -0.14545641739E+02  0.16609945498E+02  0.51100000000E-03 0.  1.
        -12    1    3    3    0    0  0.23099191986E+01 -0.85286061938E+01 -0.47245334370E+01  0.10019683953E+02  0.00000000000E+00 0.  1.
</event>
<event>
 7    1  0.1519238E-008  0.4614232E+02  0.7816164E-02  0.1320468E+00
        -11   -1    0    0    0    0  0.00000000000E+00  0.00000000000E+00  0.45593999997E+02  0.45594000000E+02  0.51100000000E-03 0.  1.
         11   -1    0    0    0    0 -0.00000000000E+00 -0.00000000000E+00 -0.45593999997E+02  0.45594000000E+02  0.51100000000E-03 0. -1.
    9900012    2    1    2    0    0 -0.39985508157E+01  0.14806518439E+02 -0.42354363187E+02  0.46142317878E+02  0.10000001064E+02 0.  0.
        -12    1    1    2    0    0  0.39985508157E+01 -0.14806518439E+02  0.42354363187E+02  0.45045682122E+02  0.00000000000E+00 0.  1.
         11    1    3    3    0    0 -0.26545426331E+01  0.95758347563E+01 -0.17149754056E+02  0.19820627445E+02  0.51100000000E-03 0. -1.
        -11    1    3    3    0    0 -0.10928539415E+01  0.68943145465E-02 -0.12972774854E+02  0.13018727470E+02  0.51100000000E-03 0.  1.
        -12    1    3    3    0    0 -0.25115424112E+00  0.52237893677E+01 -0.12231834277E+02  0.13302962963E+02  0.00000000000E+00 0.  1.
</event>
<event>
 7    1  0.1519238E-008  0.4614232E+02  0.7816164E-02  0.1320468E+00
        -11   -1    0    0    0    0  0.00000000000E+00  0.00000000000E+00  0.45593999997E+02  0.45594000000E+02  0.51100000000E-03 0. -1.
         11   -1    0    0    0    0 -0.00000000000E+00 -0.00000000000E+00 -0.45593999997E+02  0.45594000000E+02  0.51100000000E-03 0.  1.
    9900012    2    1    2    0    0  0.42998440395E+02  0.88338531055E+01  0.10109922127E+02  0.46142319158E+02  0.10000012737E+02 0.  0.
        -12    1    1    2    0    0 -0.42998440395E+02 -0.88338531055E+01 -0.10109922127E+02  0.45045680842E+02  0.00000000000E+00 0.  1.
         11    1    3    3    0    0  0.20174632961E+02  0.35075706200E+01  0.68871953867E+01  0.21604451563E+02  0.51100000000E-03 0. -1.
        -11    1    3    3    0    0  0.20347362534E+02  0.26970639009E+01  0.16285669452E+01  0.20589840852E+02  0.51100000000E-03 0.  1.
        -12    1    3    3    0    0  0.24764449005E+01  0.26292185845E+01  0.15941597954E+01  0.39480267430E+01  0.00000000000E+00 0.  1.
</event>
<event>
 7    1  0.1519238E-008  0.4614232E+02  0.7816164E-02  0.1320468E+00
        -11   -1    0    0    0    0  0.00000000000E+00  0.00000000000E+00  0.45593999997E+02  0.45594000000E+02  0.51100000000E-03 0.  1.
         11   -1    0    0    0    0 -0.00000000000E+00 -0.00000000000E+00 -0.45593999997E+02  0.45594000000E+02  0.51100000000E-03 0. -1.
    9900012    2    1    2    0    0 -0.37472025082E+00  0.43718086955E+02 -0.10849055954E+02  0.46142316995E+02  0.99999930160E+01 0.  0.
        -12    1    1    2    0    0  0.37472025082E+00 -0.43718086955E+02  0.10849055954E+02  0.45045683005E+02  0.00000000000E+00 0.  1.
         11    1    3    3    0    0 -0.33131527647E+01  0.35382385794E+02 -0.99118253874E+01  0.36893556192E+02  0.51100000000E-03 0. -1.
        -11    1    3    3    0    0  0.27512902818E+01  0.78404573818E+01 -0.16293353068E+00  0.83107711896E+01  0.51100000000E-03 0.  1.
         12    1    3    3    0    0  0.18714223210E+00  0.49524377924E+00 -0.77429703543E+00  0.93798961348E+00  0.00000000000E+00 0. -1.
</event>
<event>
 7    1  0.1519238E-008  0.4614232E+02  0.7816164E-02  0.1320468E+00
        -11   -1    0    0    0    0  0.00000000000E+00  0.00000000000E+00  0.45593999997E+02  0.45594000000E+02  0.51100000000E-03 0.  1.
         11   -1    0    0    0    0 -0.00000000000E+00 -0.00000000000E+00 -0.45593999997E+02  0.45594000000E+02  0.51100000000E-03 0. -1.
    9900012    2    1    2    0    0  0.35148117507E+02  0.18991503218E+02 -0.20809757808E+02  0.46142318977E+02  0.10000011092E+02 0.  0.
        -12    1    1    2    0    0 -0.35148117507E+02 -0.18991503218E+02  0.20809757808E+02  0.45045681023E+02  0.00000000000E+00 0.  1.
         11    1    3    3    0    0  0.19616671988E+02  0.15356538257E+02 -0.13122644206E+02  0.28157430251E+02  0.51100000000E-03 0. -1.
        -11    1    3    3    0    0  0.59372392851E+01 -0.43880639077E-01 -0.21657561341E+01  0.63200661178E+01  0.51100000000E-03 0.  1.
         12    1    3    3    0    0  0.95942062333E+01  0.36788455999E+01 -0.55213574686E+01  0.11664822609E+02  0.00000000000E+00 0. -1.
</event>
<event>
 7    1  0.1519238E-008  0.4614232E+02  0.7816164E-02  0.1320468E+00
        -11   -1    0    0    0    0  0.00000000000E+00  0.00000000000E+00  0.45593999997E+02  0.45594000000E+02  0.51100000000E-03 0. -1.
         11   -1    0    0    0    0 -0.00000000000E+00 -0.00000000000E+00 -0.45593999997E+02  0.45594000000E+02  0.51100000000E-03 0.  1.
    9900012    2    1    2    0    0  0.39618282677E+02  0.68790482059E+01  0.20302307452E+02  0.46142319692E+02  0.10000017607E+02 0.  0.
        -12    1    1    2    0    0 -0.39618282677E+02 -0.68790482059E+01 -0.20302307452E+02  0.45045680308E+02  0.00000000000E+00 0.  1.
         11    1    3    3    0    0 -0.27467277943E+00 -0.52833274372E+00  0.66136490460E+00  0.88993506617E+00  0.51100000000E-03 0. -1.
        -11    1    3    3    0    0  0.33003152160E+02  0.52167027437E+01  0.14750282298E+02  0.36523867103E+02  0.51100000000E-03 0.  1.
         12    1    3    3    0    0  0.68898032966E+01  0.21906782060E+01  0.48906602498E+01  0.87285175229E+01  0.00000000000E+00 0. -1.
</event>
<event>
 7    1  0.1519238E-008  0.4614232E+02  0.7816164E-02  0.1320468E+00
        -11   -1    0    0    0    0  0.00000000000E+00  0.00000000000E+00  0.45593999997E+02  0.45594000000E+02  0.51100000000E-03 0.  1.
         11   -1    0    0    0    0 -0.00000000000E+00 -0.00000000000E+00 -0.45593999997E+02  0.45594000000E+02  0.51100000000E-03 0. -1.
    9900012    2    1    2    0    0 -0.31384522151E+02 -0.29479329366E+02 -0.13232323995E+02  0.46142317756E+02  0.99999999542E+01 0.  0.
        -12    1    1    2    0    0  0.31384522151E+02  0.29479329366E+02  0.13232323995E+02  0.45045682244E+02  0.00000000000E+00 0.  1.
         11    1    3    3    0    0 -0.17394094273E+02 -0.13969817864E+02 -0.10904459633E+02  0.24831785415E+02  0.51100000000E-03 0. -1.
        -11    1    3    3    0    0 -0.89947279643E+01 -0.83527946809E+01  0.10109942857E-01  0.12274950615E+02  0.51100000000E-03 0.  1.
        -12    1    3    3    0    0 -0.49956999137E+01 -0.71567168206E+01 -0.23379743053E+01  0.90355817261E+01  0.00000000000E+00 0.  1.
</event>
<event>
 7    1  0.1519238E-008  0.4614232E+02  0.7816164E-02  0.1320468E+00
        -11   -1    0    0    0    0  0.00000000000E+00  0.00000000000E+00  0.45593999997E+02  0.45594000000E+02  0.51100000000E-03 0. -1.
         11   -1    0    0    0    0 -0.00000000000E+00 -0.00000000000E+00 -0.45593999997E+02  0.45594000000E+02  0.51100000000E-03 0.  1.
    9900012    2    1    2    0    0  0.10139619906E+02  0.13859106838E+01  0.43867764281E+02  0.46142318928E+02  0.10000010642E+02 0.  0.
        -12    1    1    2    0    0 -0.10139619906E+02 -0.13859106838E+01 -0.43867764281E+02  0.45045681072E+02  0.00000000000E+00 0.  1.
         11    1    3    3    0    0  0.10539058952E+02 -0.17456332907E+00  0.29296735037E+02  0.31135203870E+02  0.51100000000E-03 0. -1.
        -11    1    3    3    0    0 -0.12205847430E+01  0.21289631806E+01  0.82357358990E+01  0.85935823379E+01  0.51100000000E-03 0.  1.
        -12    1    3    3    0    0  0.82114569663E+00 -0.56848916777E+00  0.63352933447E+01  0.64135327201E+01  0.00000000000E+00 0.  1.
</event>
<event>
 7    1  0.1519238E-008  0.4614232E+02  0.7816164E-02  0.1320468E+00
        -11   -1    0    0    0    0  0.00000000000E+00  0.00000000000E+00  0.45593999997E+02  0.45594000000E+02  0.51100000000E-03 0. -1.
         11   -1    0    0    0    0 -0.00000000000E+00 -0.00000000000E+00 -0.45593999997E+02  0.45594000000E+02  0.51100000000E-03 0.  1.
    9900012    2    1    2    0    0 -0.11247503988E+02  0.21074013217E+02  0.38190223002E+02  0.46142317499E+02  0.99999976071E+01 0.  0.
        -12    1    1    2    0    0  0.11247503988E+02 -0.21074013217E+02 -0.38190223002E+02  0.45045682501E+02  0.00000000000E+00 0.  1.
         11    1    3    3    0    0 -0.23487262541E+01  0.98669819724E+01  0.12386742857E+02  0.16009536131E+02  0.51100000000E-03 0.  1.
        -11    1    3    3    0    0 -0.54755176303E+01  0.29553392481E+01  0.73460790048E+01  0.96270556452E+01  0.51100000000E-03 0. -1.
         12    1    3    3    0    0 -0.34232601040E+01  0.82516919967E+01  0.18457401141E+02  0.20505725723E+02  0.00000000000E+00 0. -1.
</event>
<event>
 7    1  0.1519238E-008  0.4614232E+02  0.7816164E-02  0.1320468E+00
        -11   -1    0    0    0    0  0.00000000000E+00  0.00000000000E+00  0.45593999997E+02  0.45594000000E+02  0.51100000000E-03 0.  1.
         11   -1    0    0    0    0 -0.00000000000E+00 -0.00000000000E+00 -0.45593999997E+02  0.45594000000E+02  0.51100000000E-03 0. -1.
    9900012    2    1    2    0    0 -0.43940177278E+02  0.96672698982E+01  0.22176873234E+01  0.46142318480E+02  0.10000006555E+02 0.  0.
        -12    1    1    2    0    0  0.43940177278E+02 -0.96672698982E+01 -0.22176873234E+01  0.45045681520E+02  0.00000000000E+00 0.  1.
         11    1    3    3    0    0 -0.63218183360E+01 -0.87831380089E-01  0.39084266347E+00  0.63344975865E+01  0.51100000000E-03 0. -1.
        -11    1    3    3    0    0 -0.25075910376E+02  0.10284343462E+02 -0.12600179775E+00  0.27103226345E+02  0.51100000000E-03 0.  1.
        -12    1    3    3    0    0 -0.12542448567E+02 -0.52924218416E+00  0.19528464577E+01  0.12704594548E+02  0.00000000000E+00 0.  1.
</event>
<event>
 7    1  0.1519238E-008  0.4614232E+02  0.7816164E-02  0.1320468E+00
        -11   -1    0    0    0    0  0.00000000000E+00  0.00000000000E+00  0.45593999997E+02  0.45594000000E+02  0.51100000000E-03 0. -1.
         11   -1    0    0    0    0 -0.00000000000E+00 -0.00000000000E+00 -0.45593999997E+02  0.45594000000E+02  0.51100000000E-03 0.  1.
    9900012    2    1    2    0    0 -0.81956458836E+01 -0.45556627511E+01  0.44058946222E+02  0.46142318556E+02  0.10000007246E+02 0.  0.
        -12    1    1    2    0    0  0.81956458836E+01  0.45556627511E+01 -0.44058946222E+02  0.45045681444E+02  0.00000000000E+00 0.  1.
         11    1    3    3    0    0 -0.23153462773E+01 -0.22568864483E+01  0.27873058402E+02  0.28059967031E+02  0.51100000000E-03 0. -1.
        -11    1    3    3    0    0 -0.30592227374E+01 -0.51145789555E+00  0.24679014511E+01  0.39637066957E+01  0.51100000000E-03 0.  1.
        -12    1    3    3    0    0 -0.28210768689E+01 -0.17873184073E+01  0.13717986369E+02  0.14118644829E+02  0.00000000000E+00 0.  1.
</event>
<event>
 7    1  0.1519238E-008  0.4614231E+02  0.7816164E-02  0.1320468E+00
        -11   -1    0    0    0    0  0.00000000000E+00  0.00000000000E+00  0.45593999997E+02  0.45594000000E+02  0.51100000000E-03 0.  1.
         11   -1    0    0    0    0 -0.00000000000E+00 -0.00000000000E+00 -0.45593999997E+02  0.45594000000E+02  0.51100000000E-03 0. -1.
    9900012    2    1    2    0    0 -0.18666762090E+02  0.40324063888E+02 -0.73915933904E+01  0.46142314433E+02  0.99999696481E+01 0.  0.
        -12    1    1    2    0    0  0.18666762090E+02 -0.40324063888E+02  0.73915933904E+01  0.45045685567E+02  0.00000000000E+00 0.  1.
         11    1    3    3    0    0 -0.14457084530E+02  0.29734223323E+02 -0.49333013913E+01  0.33428562527E+02  0.51100000000E-03 0. -1.
        -11    1    3    3    0    0 -0.31036274177E+01  0.65920995103E+01 -0.39717074202E+01  0.82983576203E+01  0.51100000000E-03 0.  1.
        -12    1    3    3    0    0 -0.11060501423E+01  0.39977410553E+01  0.15134154211E+01  0.44153942858E+01  0.00000000000E+00 0.  1.
</event>
<event>
 7    1  0.1519238E-008  0.4614232E+02  0.7816164E-02  0.1320468E+00
        -11   -1    0    0    0    0  0.00000000000E+00  0.00000000000E+00  0.45593999997E+02  0.45594000000E+02  0.51100000000E-03 0. -1.
         11   -1    0    0    0    0 -0.00000000000E+00 -0.00000000000E+00 -0.45593999997E+02  0.45594000000E+02  0.51100000000E-03 0.  1.
    9900012    2    1    2    0    0  0.28144159684E+02  0.16791361125E+02  0.30904205720E+02  0.46142318033E+02  0.10000002477E+02 0.  0.
        -12    1    1    2    0    0 -0.28144159684E+02 -0.16791361125E+02 -0.30904205720E+02  0.45045681967E+02  0.00000000000E+00 0.  1.
         11    1    3    3    0    0  0.18843207819E+02  0.62058477778E+01  0.15111962747E+02  0.24938934337E+02  0.51100000000E-03 0. -1.
        -11    1    3    3    0    0  0.60756829515E+01  0.66890651082E+01  0.10997630194E+02  0.14233951858E+02  0.51100000000E-03 0.  1.
         12    1    3    3    0    0  0.32252689136E+01  0.38964482391E+01  0.47946127793E+01  0.69694318382E+01  0.00000000000E+00 0. -1.
</event>
<event>
 7    1  0.1519238E-008  0.4614232E+02  0.7816164E-02  0.1320468E+00
        -11   -1    0    0    0    0  0.00000000000E+00  0.00000000000E+00  0.45593999997E+02  0.45594000000E+02  0.51100000000E-03 0. -1.
         11   -1    0    0    0    0 -0.00000000000E+00 -0.00000000000E+00 -0.45593999997E+02  0.45594000000E+02  0.51100000000E-03 0.  1.
    9900012    2    1    2    0    0  0.96140479292E+01 -0.43320918778E+02  0.77447720533E+01  0.46142318569E+02  0.10000007371E+02 0.  0.
        -12    1    1    2    0    0 -0.96140479292E+01  0.43320918778E+02 -0.77447720533E+01  0.45045681431E+02  0.00000000000E+00 0.  1.
         11    1    3    3    0    0  0.75359920449E+01 -0.27881636798E+02  0.45719003162E+01  0.29241735917E+02  0.51100000000E-03 0. -1.
        -11    1    3    3    0    0 -0.38695776375E+00 -0.15231818584E+01 -0.13394972509E+01  0.20649630581E+01  0.51100000000E-03 0.  1.
        -12    1    3    3    0    0  0.24650136480E+01 -0.13916100122E+02  0.45123689880E+01  0.14835619595E+02  0.00000000000E+00 0.  1.
</event>
<event>
 7    1  0.1519238E-008  0.4614232E+02  0.7816164E-02  0.1320468E+00
        -11   -1    0    0    0    0  0.00000000000E+00  0.00000000000E+00  0.45593999997E+02  0.45594000000E+02  0.51100000000E-03 0.  1.
         11   -1    0    0    0    0 -0.00000000000E+00 -0.00000000000E+00 -0.45593999997E+02  0.45594000000E+02  0.51100000000E-03 0. -1.
    9900012    2    1    2    0    0 -0.25756179547E+01  0.37555840708E+02 -0.24739410933E+02  0.46142318381E+02  0.10000005657E+02 0.  0.
        -12    1    1    2    0    0  0.25756179547E+01 -0.37555840708E+02  0.24739410933E+02  0.45045681619E+02  0.00000000000E+00 0.  1.
         11    1    3    3    0    0 -0.40663974585E+01  0.31064817472E+02 -0.20372281721E+02  0.37370955777E+02  0.51100000000E-03 0. -1.
        -11    1    3    3    0    0  0.25837961105E+01  0.34102950012E+01 -0.19286917147E+01  0.46931829633E+01  0.51100000000E-03 0.  1.
         12    1    3    3    0    0 -0.10930166067E+01  0.30807282348E+01 -0.24384374974E+01  0.40781796415E+01  0.00000000000E+00 0. -1.
</event>
<event>
 7    1  0.1519238E-008  0.4614231E+02  0.7816164E-02  0.1320468E+00
        -11   -1    0    0    0    0  0.00000000000E+00  0.00000000000E+00  0.45593999997E+02  0.45594000000E+02  0.51100000000E-03 0. -1.
         11   -1    0    0    0    0 -0.00000000000E+00 -0.00000000000E+00 -0.45593999997E+02  0.45594000000E+02  0.51100000000E-03 0.  1.
    9900012    2    1    2    0    0  0.43318108319E+01 -0.27985190680E+02  0.35031108240E+02  0.46142311782E+02  0.99999454815E+01 0.  0.
        -12    1    1    2    0    0 -0.43318108319E+01  0.27985190680E+02 -0.35031108240E+02  0.45045688218E+02  0.00000000000E+00 0.  1.
         11    1    3    3    0    0  0.73307807437E+00 -0.87424478894E+01  0.11865615889E+02  0.14756715056E+02  0.51100000000E-03 0. -1.
        -11    1    3    3    0    0  0.43890323565E+00  0.67584365817E+00  0.21706828536E+00  0.83457749921E+00  0.51100000000E-03 0.  1.
        -12    1    3    3    0    0  0.31598295219E+01 -0.19918586448E+02  0.22948424066E+02  0.30551019227E+02  0.00000000000E+00 0.  1.
</event>
<event>
 7    1  0.1519238E-008  0.4614232E+02  0.7816164E-02  0.1320468E+00
        -11   -1    0    0    0    0  0.00000000000E+00  0.00000000000E+00  0.45593999997E+02  0.45594000000E+02  0.51100000000E-03 0. -1.
         11   -1    0    0    0    0 -0.00000000000E+00 -0.00000000000E+00 -0.45593999997E+02  0.45594000000E+02  0.51100000000E-03 0.  1.
    9900012    2    1    2    0    0 -0.30165544021E+02  0.30844227826E+02  0.12953264996E+02  0.46142317517E+02  0.99999977774E+01 0.  0.
        -12    1    1    2    0    0  0.30165544021E+02 -0.30844227826E+02 -0.12953264996E+02  0.45045682483E+02  0.00000000000E+00 0.  1.
         11    1    3    3    0    0 -0.18840293947E+02  0.20248485315E+02  0.11188355952E+02  0.29835166209E+02  0.51100000000E-03 0. -1.
        -11    1    3    3    0    0 -0.71432637694E+01  0.79865105340E+01 -0.81070843109E+00  0.10745595200E+02  0.51100000000E-03 0.  1.
         12    1    3    3    0    0 -0.41819863047E+01  0.26092319769E+01  0.25756174747E+01  0.55615561075E+01  0.00000000000E+00 0. -1.
</event>
<event>
 7    1  0.1519238E-008  0.4614232E+02  0.7816164E-02  0.1320468E+00
        -11   -1    0    0    0    0  0.00000000000E+00  0.00000000000E+00  0.45593999997E+02  0.45594000000E+02  0.51100000000E-03 0.  1.
         11   -1    0    0    0    0 -0.00000000000E+00 -0.00000000000E+00 -0.45593999997E+02  0.45594000000E+02  0.51100000000E-03 0. -1.
    9900012    2    1    2    0    0  0.35289381831E+02  0.10387635347E+02 -0.25997502179E+02  0.46142316992E+02  0.99999929839E+01 0.  0.
        -12    1    1    2    0    0 -0.35289381831E+02 -0.10387635347E+02  0.25997502179E+02  0.45045683008E+02  0.00000000000E+00 0.  1.
         11    1    3    3    0    0  0.20069704938E+02  0.30076278218E+01 -0.17158128558E+02  0.26575181228E+02  0.51100000000E-03 0. -1.
        -11    1    3    3    0    0  0.13133365311E+02  0.56154891044E+01 -0.89083508331E+01  0.16833826573E+02  0.51100000000E-03 0.  1.
        -12    1    3    3    0    0  0.20863115827E+01  0.17645184209E+01  0.68977212114E-01  0.27333091910E+01  0.00000000000E+00 0.  1.
</event>
<event>
 7    1  0.1519238E-008  0.4614232E+02  0.7816164E-02  0.1320468E+00
        -11   -1    0    0    0    0  0.00000000000E+00  0.00000000000E+00  0.45593999997E+02  0.45594000000E+02  0.51100000000E-03 0.  1.
         11   -1    0    0    0    0 -0.00000000000E+00 -0.00000000000E+00 -0.45593999997E+02  0.45594000000E+02  0.51100000000E-03 0. -1.
    9900012    2    1    2    0    0  0.14540283457E+02  0.14099298004E+00 -0.42634184711E+02  0.46142318431E+02  0.10000006112E+02 0.  0.
        -12    1    1    2    0    0 -0.14540283457E+02 -0.14099298004E+00  0.42634184711E+02  0.45045681569E+02  0.00000000000E+00 0.  1.
         11    1    3    3    0    0  0.86012114540E+01  0.26661595578E+00 -0.22669585874E+02  0.24247928705E+02  0.51100000000E-03 0. -1.
        -11    1    3    3    0    0 -0.38891262647E+00 -0.54667453490E+00 -0.10379377663E+02  0.10401037785E+02  0.51100000000E-03 0.  1.
        -12    1    3    3    0    0  0.63279846295E+01  0.42105155916E+00 -0.95852211744E+01  0.11493351941E+02  0.00000000000E+00 0.  1.
</event>
<event>
 7    1  0.1519238E-008  0.4614232E+02  0.7816164E-02  0.1320468E+00
        -11   -1    0    0    0    0  0.00000000000E+00  0.00000000000E+00  0.45593999997E+02  0.45594000000E+02  0.51100000000E-03 0. -1.
         11   -1    0    0    0    0 -0.00000000000E+00 -0.00000000000E+00 -0.45593999997E+02  0.45594000000E+02  0.51100000000E-03 0.  1.
    9900012    2    1    2    0    0 -0.99365311341E+00 -0.32244681253E+02  0.31438937716E+02  0.46142316296E+02  0.99999866375E+01 0.  0.
        -12    1    1    2    0    0  0.99365311341E+00  0.32244681253E+02 -0.31438937716E+02  0.45045683704E+02  0.00000000000E+00 0.  1.
         11    1    3    3    0    0 -0.14086105141E+01 -0.13159005565E+02  0.15048782626E+02  0.20040196352E+02  0.51100000000E-03 0. -1.
        -11    1    3    3    0    0  0.22056464296E+01 -0.16524381247E+02  0.11336671062E+02  0.20160361178E+02  0.51100000000E-03 0.  1.
        -12    1    3    3    0    0 -0.17906890289E+01 -0.25612944415E+01  0.50534840282E+01  0.59417587663E+01  0.00000000000E+00 0.  1.
</event>
<event>
 7    1  0.1519238E-008  0.4614232E+02  0.7816164E-02  0.1320468E+00
        -11   -1    0    0    0    0  0.00000000000E+00  0.00000000000E+00  0.45593999997E+02  0.45594000000E+02  0.51100000000E-03 0. -1.
         11   -1    0    0    0    0 -0.00000000000E+00 -0.00000000000E+00 -0.45593999997E+02  0.45594000000E+02  0.51100000000E-03 0.  1.
    9900012    2    1    2    0    0  0.40814740103E+02  0.19015270506E+02 -0.13000738914E+01  0.46142315254E+02  0.99999771358E+01 0.  0.
        -12    1    1    2    0    0 -0.40814740103E+02 -0.19015270506E+02  0.13000738914E+01  0.45045684746E+02  0.00000000000E+00 0.  1.
         11    1    3    3    0    0  0.10461840560E+02  0.50780253272E+01  0.22284858205E+01  0.11840717818E+02  0.51100000000E-03 0. -1.
        -11    1    3    3    0    0  0.86772076690E+01  0.66584220389E+00 -0.10175355067E+01  0.87620007727E+01  0.51100000000E-03 0.  1.
         12    1    3    3    0    0  0.21675691874E+02  0.13271402975E+02 -0.25110242052E+01  0.25539596663E+02  0.00000000000E+00 0. -1.
</event>
<event>
 7    1  0.1519238E-008  0.4614232E+02  0.7816164E-02  0.1320468E+00
        -11   -1    0    0    0    0  0.00000000000E+00  0.00000000000E+00  0.45593999997E+02  0.45594000000E+02  0.51100000000E-03 0.  1.
         11   -1    0    0    0    0 -0.00000000000E+00 -0.00000000000E+00 -0.45593999997E+02  0.45594000000E+02  0.51100000000E-03 0. -1.
    9900012    2    1    2    0    0  0.32917160221E+02  0.29857775340E+02 -0.73544108641E+01  0.46142317139E+02  0.99999943230E+01 0.  0.
        -12    1    1    2    0    0 -0.32917160221E+02 -0.29857775340E+02  0.73544108641E+01  0.45045682861E+02  0.00000000000E+00 0.  1.
         11    1    3    3    0    0  0.58129356373E+01  0.85118137189E+01  0.44219260047E+00  0.10316817730E+02  0.51100000000E-03 0. -1.
        -11    1    3    3    0    0  0.64569310546E+01  0.62120274778E+01 -0.44618782653E+01  0.10009475608E+02  0.51100000000E-03 0.  1.
        -12    1    3    3    0    0  0.20647293529E+02  0.15133934144E+02 -0.33347251993E+01  0.25816023801E+02  0.00000000000E+00 0.  1.
</event>
<event>
 7    1  0.1761966E-008  0.4614232E+02  0.7816164E-02  0.1320468E+00
        -11   -1    0    0    0    0  0.00000000000E+00  0.00000000000E+00  0.45593999997E+02  0.45594000000E+02  0.51100000000E-03 0. -1.
         11   -1    0    0    0    0 -0.00000000000E+00 -0.00000000000E+00 -0.45593999997E+02  0.45594000000E+02  0.51100000000E-03 0.  1.
    9900012    2    1    2    0    0 -0.28342367230E+02  0.17242581375E+02  0.30471577321E+02  0.46142318552E+02  0.10000007212E+02 0.  0.
        -12    1    1    2    0    0  0.28342367230E+02 -0.17242581375E+02 -0.30471577321E+02  0.45045681448E+02  0.00000000000E+00 0.  1.
         11    1    3    3    0    0 -0.21112966785E+02  0.11981513876E+02  0.19518370191E+02  0.31149330914E+02  0.51100000000E-03 0. -1.
        -11    1    3    3    0    0 -0.14861401835E+01  0.32322480790E+01  0.66282642522E+01  0.75226277023E+01  0.51100000000E-03 0.  1.
        -12    1    3    3    0    0 -0.57432602613E+01  0.20288194205E+01  0.43249428779E+01  0.74703599356E+01  0.00000000000E+00 0.  1.
</event>
<event>
 7    1  0.1519238E-008  0.4614231E+02  0.7816164E-02  0.1320468E+00
        -11   -1    0    0    0    0  0.00000000000E+00  0.00000000000E+00  0.45593999997E+02  0.45594000000E+02  0.51100000000E-03 0.  1.
         11   -1    0    0    0    0 -0.00000000000E+00 -0.00000000000E+00 -0.45593999997E+02  0.45594000000E+02  0.51100000000E-03 0. -1.
    9900012    2    1    2    0    0 -0.20331628486E+02  0.30897823719E+02 -0.25711148390E+02  0.46142314535E+02  0.99999705852E+01 0.  0.
        -12    1    1    2    0    0  0.20331628486E+02 -0.30897823719E+02  0.25711148390E+02  0.45045685465E+02  0.00000000000E+00 0.  1.
         11    1    3    3    0    0 -0.18365016274E+02  0.22681355505E+02 -0.18961716061E+02  0.34803223794E+02  0.51100000000E-03 0. -1.
        -11    1    3    3    0    0  0.77563882450E+00  0.13371563445E+01 -0.20524083972E+01  0.25694324599E+01  0.51100000000E-03 0.  1.
        -12    1    3    3    0    0 -0.27422510368E+01  0.68793118695E+01 -0.46970239323E+01  0.87696582811E+01  0.00000000000E+00 0.  1.
</event>
<event>
 7    1  0.1519238E-008  0.4614232E+02  0.7816164E-02  0.1320468E+00
        -11   -1    0    0    0    0  0.00000000000E+00  0.00000000000E+00  0.45593999997E+02  0.45594000000E+02  0.51100000000E-03 0.  1.
         11   -1    0    0    0    0 -0.00000000000E+00 -0.00000000000E+00 -0.45593999997E+02  0.45594000000E+02  0.51100000000E-03 0. -1.
    9900012    2    1    2    0    0 -0.22207826871E+01 -0.38078790474E+02 -0.23962207795E+02  0.46142316943E+02  0.99999925409E+01 0.  0.
        -12    1    1    2    0    0  0.22207826871E+01  0.38078790474E+02  0.23962207795E+02  0.45045683057E+02  0.00000000000E+00 0.  1.
         11    1    3    3    0    0  0.16100980873E+01 -0.13179284340E+02 -0.11256293643E+02  0.17406610767E+02  0.51100000000E-03 0. -1.
        -11    1    3    3    0    0 -0.24909260839E+01 -0.65559603649E+01 -0.14163885892E+01  0.71548225665E+01  0.51100000000E-03 0.  1.
         12    1    3    3    0    0 -0.13399546905E+01 -0.18343545768E+02 -0.11289525563E+02  0.21580883609E+02  0.00000000000E+00 0. -1.
</event>
<event>
 7    1  0.1519238E-008  0.4614232E+02  0.7816164E-02  0.1320468E+00
        -11   -1    0    0    0    0  0.00000000000E+00  0.00000000000E+00  0.45593999997E+02  0.45594000000E+02  0.51100000000E-03 0.  1.
         11   -1    0    0    0    0 -0.00000000000E+00 -0.00000000000E+00 -0.45593999997E+02  0.45594000000E+02  0.51100000000E-03 0. -1.
    9900012    2    1    2    0    0  0.26306457784E+02  0.29560767588E+02 -0.21523122215E+02  0.46142317728E+02  0.99999996962E+01 0.  0.
        -12    1    1    2    0    0 -0.26306457784E+02 -0.29560767588E+02  0.21523122215E+02  0.45045682272E+02  0.00000000000E+00 0.  1.
         11    1    3    3    0    0  0.19633115211E+02  0.20415995325E+02 -0.12067490565E+02  0.30787926315E+02  0.51100000000E-03 0. -1.
        -11    1    3    3    0    0  0.85202922890E+00  0.41422840647E+00  0.33301537893E+00  0.10042103780E+01  0.51100000000E-03 0.  1.
         12    1    3    3    0    0  0.58213133442E+01  0.87305438561E+01 -0.97886470287E+01  0.14350181035E+02  0.00000000000E+00 0. -1.
</event>
<event>
 7    1  0.1519238E-008  0.4614232E+02  0.7816164E-02  0.1320468E+00
        -11   -1    0    0    0    0  0.00000000000E+00  0.00000000000E+00  0.45593999997E+02  0.45594000000E+02  0.51100000000E-03 0.  1.
         11   -1    0    0    0    0 -0.00000000000E+00 -0.00000000000E+00 -0.45593999997E+02  0.45594000000E+02  0.51100000000E-03 0. -1.
    9900012    2    1    2    0    0  0.25091635682E+02 -0.14599899969E+02 -0.34443665877E+02  0.46142318971E+02  0.10000011035E+02 0.  0.
        -12    1    1    2    0    0 -0.25091635682E+02  0.14599899969E+02  0.34443665877E+02  0.45045681029E+02  0.00000000000E+00 0.  1.
         11    1    3    3    0    0  0.74358049976E+01 -0.70469500161E+01 -0.11472979371E+02  0.15381155886E+02  0.51100000000E-03 0. -1.
        -11    1    3    3    0    0  0.19482803753E+01 -0.30231159971E+01 -0.71904681348E+01  0.80397673481E+01  0.51100000000E-03 0.  1.
        -12    1    3    3    0    0  0.15707550309E+02 -0.45298339553E+01 -0.15780218371E+02  0.22721395737E+02  0.00000000000E+00 0.  1.
</event>
<event>
 7    1  0.1519238E-008  0.4614232E+02  0.7816164E-02  0.1320468E+00
        -11   -1    0    0    0    0  0.00000000000E+00  0.00000000000E+00  0.45593999997E+02  0.45594000000E+02  0.51100000000E-03 0. -1.
         11   -1    0    0    0    0 -0.00000000000E+00 -0.00000000000E+00 -0.45593999997E+02  0.45594000000E+02  0.51100000000E-03 0.  1.
    9900012    2    1    2    0    0  0.19889202468E+02 -0.77988677498E+01  0.39657418025E+02  0.46142317439E+02  0.99999970596E+01 0.  0.
        -12    1    1    2    0    0 -0.19889202468E+02  0.77988677498E+01 -0.39657418025E+02  0.45045682561E+02  0.00000000000E+00 0.  1.
         11    1    3    3    0    0  0.17287944693E+02 -0.54622268783E+01  0.30951178068E+02  0.35870383023E+02  0.51100000000E-03 0. -1.
        -11    1    3    3    0    0 -0.43889023680E+00 -0.13634868327E+01  0.58746540312E+00  0.15481720976E+01  0.51100000000E-03 0.  1.
        -12    1    3    3    0    0  0.30401480119E+01 -0.97315403888E+00  0.81187745546E+01  0.87237623183E+01  0.00000000000E+00 0.  1.
</event>
<event>
 7    1  0.1519238E-008  0.4614232E+02  0.7816164E-02  0.1320468E+00
        -11   -1    0    0    0    0  0.00000000000E+00  0.00000000000E+00  0.45593999997E+02  0.45594000000E+02  0.51100000000E-03 0.  1.
         11   -1    0    0    0    0 -0.00000000000E+00 -0.00000000000E+00 -0.45593999997E+02  0.45594000000E+02  0.51100000000E-03 0. -1.
    9900012    2    1    2    0    0 -0.66430829380E+01  0.41962906784E+02 -0.14969881890E+02  0.46142318070E+02  0.10000002821E+02 0.  0.
        -12    1    1    2    0    0  0.66430829380E+01 -0.41962906784E+02  0.14969881890E+02  0.45045681930E+02  0.00000000000E+00 0.  1.
         11    1    3    3    0    0 -0.80344150816E+01  0.28312091144E+02 -0.11301620155E+02  0.31525433368E+02  0.51100000000E-03 0. -1.
        -11    1    3    3    0    0 -0.18165744083E+00  0.89278965501E+01 -0.10469324950E+01  0.89909067476E+01  0.51100000000E-03 0.  1.
         12    1    3    3    0    0  0.15729895844E+01  0.47229190904E+01 -0.26213292394E+01  0.56259779548E+01  0.00000000000E+00 0. -1.
</event>
<event>
 7    1  0.1519238E-008  0.4614232E+02  0.7816164E-02  0.1320468E+00
        -11   -1    0    0    0    0  0.00000000000E+00  0.00000000000E+00  0.45593999997E+02  0.45594000000E+02  0.51100000000E-03 0.  1.
         11   -1    0    0    0    0 -0.00000000000E+00 -0.00000000000E+00 -0.45593999997E+02  0.45594000000E+02  0.51100000000E-03 0. -1.
    9900012    2    1    2    0    0 -0.30520583764E+02  0.20585338837E+02 -0.25958646172E+02  0.46142317417E+02  0.99999968590E+01 0.  0.
        -12    1    1    2    0    0  0.30520583764E+02 -0.20585338837E+02  0.25958646172E+02  0.45045682583E+02  0.00000000000E+00 0.  1.
         11    1    3    3    0    0 -0.79402992044E+01  0.39111708134E+01 -0.53358858225E+01  0.10335244862E+02  0.51100000000E-03 0.  1.
        -11    1    3    3    0    0 -0.13555935776E+02  0.11900046673E+02 -0.84485905109E+01  0.19918664299E+02  0.51100000000E-03 0. -1.
        -12    1    3    3    0    0 -0.90243487839E+01  0.47741213507E+01 -0.12174169838E+02  0.15888408256E+02  0.00000000000E+00 0.  1.
</event>
<event>
 7    1  0.1519238E-008  0.4614232E+02  0.7816164E-02  0.1320468E+00
        -11   -1    0    0    0    0  0.00000000000E+00  0.00000000000E+00  0.45593999997E+02  0.45594000000E+02  0.51100000000E-03 0.  1.
         11   -1    0    0    0    0 -0.00000000000E+00 -0.00000000000E+00 -0.45593999997E+02  0.45594000000E+02  0.51100000000E-03 0. -1.
    9900012    2    1    2    0    0 -0.26370679639E+02 -0.50134605780E+01 -0.36174105752E+02  0.46142318092E+02  0.10000003019E+02 0.  0.
        -12    1    1    2    0    0  0.26370679639E+02  0.50134605780E+01  0.36174105752E+02  0.45045681908E+02  0.00000000000E+00 0.  1.
         11    1    3    3    0    0 -0.17374095595E+02 -0.59017831994E+01 -0.22389780966E+02  0.28948100708E+02  0.51100000000E-03 0. -1.
        -11    1    3    3    0    0 -0.67131724838E+01  0.25960576376E+01 -0.81071947007E+01  0.10841254827E+02  0.51100000000E-03 0.  1.
         12    1    3    3    0    0 -0.22834115611E+01 -0.17077350162E+01 -0.56771300851E+01  0.63529625566E+01  0.00000000000E+00 0. -1.
</event>
<event>
 7    1  0.1519238E-008  0.4614232E+02  0.7816164E-02  0.1320468E+00
        -11   -1    0    0    0    0  0.00000000000E+00  0.00000000000E+00  0.45593999997E+02  0.45594000000E+02  0.51100000000E-03 0. -1.
         11   -1    0    0    0    0 -0.00000000000E+00 -0.00000000000E+00 -0.45593999997E+02  0.45594000000E+02  0.51100000000E-03 0.  1.
    9900012    2    1    2    0    0 -0.10660781683E+02  0.11806623888E+02  0.42143384511E+02  0.46142317724E+02  0.99999996596E+01 0.  0.
        -12    1    1    2    0    0  0.10660781683E+02 -0.11806623888E+02 -0.42143384511E+02  0.45045682276E+02  0.00000000000E+00 0.  1.
         11    1    3    3    0    0 -0.19319564583E+01  0.92138827575E+01  0.19140750200E+02  0.21330644850E+02  0.51100000000E-03 0. -1.
        -11    1    3    3    0    0 -0.66229549715E+01  0.13062588132E+01  0.15290463628E+02  0.16714308925E+02  0.51100000000E-03 0.  1.
         12    1    3    3    0    0 -0.21058702528E+01  0.12864823174E+01  0.77121706828E+01  0.80973639486E+01  0.00000000000E+00 0. -1.
</event>
<event>
 7    1  0.1519238E-008  0.4614232E+02  0.7816164E-02  0.1320468E+00
        -11   -1    0    0    0    0  0.00000000000E+00  0.00000000000E+00  0.45593999997E+02  0.45594000000E+02  0.51100000000E-03 0.  1.
         11   -1    0    0    0    0 -0.00000000000E+00 -0.00000000000E+00 -0.45593999997E+02  0.45594000000E+02  0.51100000000E-03 0. -1.
    9900012    2    1    2    0    0 -0.35359495503E+02 -0.26773951495E+02  0.78724281022E+01  0.46142317353E+02  0.99999962816E+01 0.  0.
        -12    1    1    2    0    0  0.35359495503E+02  0.26773951495E+02 -0.78724281022E+01  0.45045682647E+02  0.00000000000E+00 0.  1.
         11    1    3    3    0    0 -0.16958191339E+02 -0.16345110355E+02  0.40141390787E+01  0.23892597155E+02  0.51100000000E-03 0. -1.
        -11    1    3    3    0    0 -0.17620281936E+02 -0.88472101855E+01  0.22181365812E+01  0.19841058281E+02  0.51100000000E-03 0.  1.
         12    1    3    3    0    0 -0.78102222819E+00 -0.15816309546E+01  0.16401524423E+01  0.24086619172E+01  0.00000000000E+00 0. -1.
</event>
<event>
 7    1  0.1519238E-008  0.4614232E+02  0.7816164E-02  0.1320468E+00
        -11   -1    0    0    0    0  0.00000000000E+00  0.00000000000E+00  0.45593999997E+02  0.45594000000E+02  0.51100000000E-03 0. -1.
         11   -1    0    0    0    0 -0.00000000000E+00 -0.00000000000E+00 -0.45593999997E+02  0.45594000000E+02  0.51100000000E-03 0.  1.
    9900012    2    1    2    0    0  0.23254249322E+02  0.31820070502E+02  0.21813675796E+02  0.46142318187E+02  0.10000003883E+02 0.  0.
        -12    1    1    2    0    0 -0.23254249322E+02 -0.31820070502E+02 -0.21813675796E+02  0.45045681813E+02  0.00000000000E+00 0.  1.
         11    1    3    3    0    0  0.58579540868E+01  0.10605703172E+02  0.48576517856E+01  0.13053480263E+02  0.51100000000E-03 0. -1.
        -11    1    3    3    0    0  0.15752078726E+02  0.21572724622E+02  0.15648947145E+02  0.30958035771E+02  0.51100000000E-03 0.  1.
        -12    1    3    3    0    0  0.16442165096E+01 -0.35835729257E+00  0.13070768660E+01  0.21308021525E+01  0.00000000000E+00 0.  1.
</event>
<event>
 7    1  0.1519238E-008  0.4614232E+02  0.7816164E-02  0.1320468E+00
        -11   -1    0    0    0    0  0.00000000000E+00  0.00000000000E+00  0.45593999997E+02  0.45594000000E+02  0.51100000000E-03 0.  1.
         11   -1    0    0    0    0 -0.00000000000E+00 -0.00000000000E+00 -0.45593999997E+02  0.45594000000E+02  0.51100000000E-03 0. -1.
    9900012    2    1    2    0    0  0.14201369172E+02  0.41216492114E+02  0.11341753976E+02  0.46142317724E+02  0.99999996574E+01 0.  0.
        -12    1    1    2    0    0 -0.14201369172E+02 -0.41216492114E+02 -0.11341753976E+02  0.45045682276E+02  0.00000000000E+00 0.  1.
         11    1    3    3    0    0  0.42178026517E+01  0.48256420942E+01 -0.30550456488E+00  0.64163863763E+01  0.51100000000E-03 0.  1.
        -11    1    3    3    0    0  0.32843903270E+01  0.19960373634E+02  0.66020508804E+01  0.21278881820E+02  0.51100000000E-03 0. -1.
         12    1    3    3    0    0  0.66991761932E+01  0.16430476386E+02  0.50452076601E+01  0.18447049527E+02  0.00000000000E+00 0. -1.
</event>
<event>
 7    1  0.1519238E-008  0.4614232E+02  0.7816164E-02  0.1320468E+00
        -11   -1    0    0    0    0  0.00000000000E+00  0.00000000000E+00  0.45593999997E+02  0.45594000000E+02  0.51100000000E-03 0. -1.
         11   -1    0    0    0    0 -0.00000000000E+00 -0.00000000000E+00 -0.45593999997E+02  0.45594000000E+02  0.51100000000E-03 0.  1.
    9900012    2    1    2    0    0 -0.28276700083E+02  0.32708265045E+02  0.12637686457E+02  0.46142317756E+02  0.99999999544E+01 0.  0.
        -12    1    1    2    0    0  0.28276700083E+02 -0.32708265045E+02 -0.12637686457E+02  0.45045682244E+02  0.00000000000E+00 0.  1.
         11    1    3    3    0    0 -0.20394551092E+02  0.21514743049E+02  0.10574488976E+02  0.31474461076E+02  0.51100000000E-03 0. -1.
        -11    1    3    3    0    0 -0.72586843119E+01  0.77086946768E+01  0.36029891298E-01  0.10588379006E+02  0.51100000000E-03 0.  1.
         12    1    3    3    0    0 -0.62346467906E+00  0.34848273196E+01  0.20271675897E+01  0.40794776737E+01  0.00000000000E+00 0. -1.
</event>
<event>
 7    1  0.1519238E-008  0.4614232E+02  0.7816164E-02  0.1320468E+00
        -11   -1    0    0    0    0  0.00000000000E+00  0.00000000000E+00  0.45593999997E+02  0.45594000000E+02  0.51100000000E-03 0. -1.
         11   -1    0    0    0    0 -0.00000000000E+00 -0.00000000000E+00 -0.45593999997E+02  0.45594000000E+02  0.51100000000E-03 0.  1.
    9900012    2    1    2    0    0  0.65593769606E+01  0.43372996878E+02  0.10240665422E+02  0.46142317492E+02  0.99999975448E+01 0.  0.
        -12    1    1    2    0    0 -0.65593769606E+01 -0.43372996878E+02 -0.10240665422E+02  0.45045682508E+02  0.00000000000E+00 0.  1.
         11    1    3    3    0    0  0.57984593231E+01  0.33812075888E+02  0.53230273715E+01  0.34716181055E+02  0.51100000000E-03 0. -1.
        -11    1    3    3    0    0 -0.49624857437E+00  0.76836022157E+01  0.49732190665E+01  0.91660740670E+01  0.51100000000E-03 0.  1.
         12    1    3    3    0    0  0.12571662119E+01  0.18773187744E+01 -0.55581015813E-01  0.22600623696E+01  0.00000000000E+00 0. -1.
</event>
<event>
 7    1  0.1519238E-008  0.4614232E+02  0.7816164E-02  0.1320468E+00
        -11   -1    0    0    0    0  0.00000000000E+00  0.00000000000E+00  0.45593999997E+02  0.45594000000E+02  0.51100000000E-03 0.  1.
         11   -1    0    0    0    0 -0.00000000000E+00 -0.00000000000E+00 -0.45593999997E+02  0.45594000000E+02  0.51100000000E-03 0. -1.
    9900012    2    1    2    0    0  0.17355104998E+02  0.18542289589E+02 -0.37203457797E+02  0.46142318245E+02  0.10000004416E+02 0.  0.
        -12    1    1    2    0    0 -0.17355104998E+02 -0.18542289589E+02  0.37203457797E+02  0.45045681755E+02  0.00000000000E+00 0.  1.
         11    1    3    3    0    0  0.10013601584E+02  0.12442437749E+02 -0.18302915497E+02  0.24291627977E+02  0.51100000000E-03 0. -1.
        -11    1    3    3    0    0  0.51102989463E+01  0.86422040418E+00 -0.76164474050E+01  0.92126165426E+01  0.51100000000E-03 0.  1.
         12    1    3    3    0    0  0.22312044685E+01  0.52356314358E+01 -0.11284094895E+02  0.12638073726E+02  0.00000000000E+00 0. -1.
</event>
<event>
 7    1  0.1519238E-008  0.4614232E+02  0.7816164E-02  0.1320468E+00
        -11   -1    0    0    0    0  0.00000000000E+00  0.00000000000E+00  0.45593999997E+02  0.45594000000E+02  0.51100000000E-03 0.  1.
         11   -1    0    0    0    0 -0.00000000000E+00 -0.00000000000E+00 -0.45593999997E+02  0.45594000000E+02  0.51100000000E-03 0. -1.
    9900012    2    1    2    0    0 -0.36623104877E+02 -0.16684775545E+01 -0.26173992993E+02  0.46142317217E+02  0.99999950392E+01 0.  0.
        -12    1    1    2    0    0  0.36623104877E+02  0.16684775545E+01  0.26173992993E+02  0.45045682783E+02  0.00000000000E+00 0.  1.
         11    1    3    3    0    0 -0.13219050788E+02 -0.19746066065E+01 -0.13208502627E+02  0.18791139318E+02  0.51100000000E-03 0. -1.
        -11    1    3    3    0    0 -0.13612446482E+02  0.16911319896E+01 -0.48197972128E+01  0.14539225291E+02  0.51100000000E-03 0.  1.
        -12    1    3    3    0    0 -0.97916076075E+01 -0.13850029377E+01 -0.81456931533E+01  0.12811952608E+02  0.00000000000E+00 0.  1.
</event>
<event>
 7    1  0.1519238E-008  0.4614232E+02  0.7816164E-02  0.1320468E+00
        -11   -1    0    0    0    0  0.00000000000E+00  0.00000000000E+00  0.45593999997E+02  0.45594000000E+02  0.51100000000E-03 0.  1.
         11   -1    0    0    0    0 -0.00000000000E+00 -0.00000000000E+00 -0.45593999997E+02  0.45594000000E+02  0.51100000000E-03 0. -1.
    9900012    2    1    2    0    0  0.12289345990E+02  0.10402085596E+02 -0.42069965109E+02  0.46142319032E+02  0.10000011586E+02 0.  0.
        -12    1    1    2    0    0 -0.12289345990E+02 -0.10402085596E+02  0.42069965109E+02  0.45045680968E+02  0.00000000000E+00 0.  1.
         11    1    3    3    0    0  0.62261563481E+01  0.38497287590E+01 -0.15786765473E+02  0.17401361980E+02  0.51100000000E-03 0. -1.
        -11    1    3    3    0    0  0.99329598167E+00  0.54612393104E+01 -0.19039969131E+02  0.19832604379E+02  0.51100000000E-03 0.  1.
        -12    1    3    3    0    0  0.50698936599E+01  0.10911175269E+01 -0.72432305057E+01  0.89083526726E+01  0.00000000000E+00 0.  1.
</event>
<event>
 7    1  0.1519238E-008  0.4614232E+02  0.7816164E-02  0.1320468E+00
        -11   -1    0    0    0    0  0.00000000000E+00  0.00000000000E+00  0.45593999997E+02  0.45594000000E+02  0.51100000000E-03 0.  1.
         11   -1    0    0    0    0 -0.00000000000E+00 -0.00000000000E+00 -0.45593999997E+02  0.45594000000E+02  0.51100000000E-03 0. -1.
    9900012    2    1    2    0    0 -0.88097225725E+01 -0.43744050514E+02 -0.61611943304E+01  0.46142317823E+02  0.10000000566E+02 0.  0.
        -12    1    1    2    0    0  0.88097225725E+01  0.43744050514E+02  0.61611943304E+01  0.45045682177E+02  0.00000000000E+00 0.  1.
         11    1    3    3    0    0 -0.60648792655E+01 -0.40172273506E+02 -0.72990877242E+01  0.41277972346E+02  0.51100000000E-03 0. -1.
        -11    1    3    3    0    0 -0.21630286719E+01 -0.33679581207E+01  0.60247773492E+00  0.40478160310E+01  0.51100000000E-03 0.  1.
         12    1    3    3    0    0 -0.58181463507E+00 -0.20381888780E+00  0.53541565894E+00  0.81652944616E+00  0.00000000000E+00 0. -1.
</event>
<event>
 7    1  0.1519238E-008  0.4614232E+02  0.7816164E-02  0.1320468E+00
        -11   -1    0    0    0    0  0.00000000000E+00  0.00000000000E+00  0.45593999997E+02  0.45594000000E+02  0.51100000000E-03 0.  1.
         11   -1    0    0    0    0 -0.00000000000E+00 -0.00000000000E+00 -0.45593999997E+02  0.45594000000E+02  0.51100000000E-03 0. -1.
    9900012    2    1    2    0    0 -0.57158557896E+01  0.24456621966E+02 -0.37394065074E+02  0.46142317986E+02  0.10000002051E+02 0.  0.
        -12    1    1    2    0    0  0.57158557896E+01 -0.24456621966E+02  0.37394065074E+02  0.45045682014E+02  0.00000000000E+00 0.  1.
         11    1    3    3    0    0  0.21676965367E+01  0.11902502292E+02 -0.15460007354E+02  0.19631105337E+02  0.51100000000E-03 0. -1.
        -11    1    3    3    0    0 -0.63401986612E+01  0.90920087065E+01 -0.16870376642E+02  0.20185944359E+02  0.51100000000E-03 0.  1.
         12    1    3    3    0    0 -0.15433536651E+01  0.34621109671E+01 -0.50636810775E+01  0.63252682899E+01  0.00000000000E+00 0. -1.
</event>
<event>
 7    1  0.1519238E-008  0.4614232E+02  0.7816164E-02  0.1320468E+00
        -11   -1    0    0    0    0  0.00000000000E+00  0.00000000000E+00  0.45593999997E+02  0.45594000000E+02  0.51100000000E-03 0.  1.
         11   -1    0    0    0    0 -0.00000000000E+00 -0.00000000000E+00 -0.45593999997E+02  0.45594000000E+02  0.51100000000E-03 0. -1.
    9900012    2    1    2    0    0  0.49962077685E+01  0.13473245760E+02 -0.42692190188E+02  0.46142317117E+02  0.99999941245E+01 0.  0.
        -12    1    1    2    0    0 -0.49962077685E+01 -0.13473245760E+02  0.42692190188E+02  0.45045682883E+02  0.00000000000E+00 0.  1.
         11    1    3    3    0    0 -0.25329965531E+01  0.27426998622E+01 -0.57265297119E+01  0.68360527261E+01  0.51100000000E-03 0. -1.
        -11    1    3    3    0    0  0.54723673783E+01  0.63940870568E+01 -0.20646015760E+02  0.22295495532E+02  0.51100000000E-03 0.  1.
         12    1    3    3    0    0  0.20568369433E+01  0.43364588408E+01 -0.16319644716E+02  0.17010768859E+02  0.00000000000E+00 0. -1.
</event>
<event>
 7    1  0.1519238E-008  0.4614232E+02  0.7816164E-02  0.1320468E+00
        -11   -1    0    0    0    0  0.00000000000E+00  0.00000000000E+00  0.45593999997E+02  0.45594000000E+02  0.51100000000E-03 0.  1.
         11   -1    0    0    0    0 -0.00000000000E+00 -0.00000000000E+00 -0.45593999997E+02  0.45594000000E+02  0.51100000000E-03 0. -1.
    9900012    2    1    2    0    0  0.32405727334E+02  0.26750166456E+02 -0.16229940191E+02  0.46142317320E+02  0.99999959817E+01 0.  0.
        -12    1    1    2    0    0 -0.32405727334E+02 -0.26750166456E+02  0.16229940191E+02  0.45045682680E+02  0.00000000000E+00 0.  1.
         11    1    3    3    0    0  0.74452117458E+01  0.46442536152E+01 -0.52002757018E+01  0.10200153784E+02  0.51100000000E-03 0. -1.
        -11    1    3    3    0    0  0.24258390156E+01  0.29747118902E+01  0.10954413449E+01  0.39916910904E+01  0.51100000000E-03 0.  1.
        -12    1    3    3    0    0  0.22534676573E+02  0.19131200950E+02 -0.12125105834E+02  0.31950472446E+02  0.00000000000E+00 0.  1.
</event>
<event>
 7    1  0.1519238E-008  0.4614232E+02  0.7816164E-02  0.1320468E+00
        -11   -1    0    0    0    0  0.00000000000E+00  0.00000000000E+00  0.45593999997E+02  0.45594000000E+02  0.51100000000E-03 0.  1.
         11   -1    0    0    0    0 -0.00000000000E+00 -0.00000000000E+00 -0.45593999997E+02  0.45594000000E+02  0.51100000000E-03 0. -1.
    9900012    2    1    2    0    0 -0.34058917078E+01  0.12288498006E+02 -0.43203082181E+02  0.46142316616E+02  0.99999895608E+01 0.  0.
        -12    1    1    2    0    0  0.34058917078E+01 -0.12288498006E+02  0.43203082181E+02  0.45045683384E+02  0.00000000000E+00 0.  1.
         11    1    3    3    0    0 -0.49162045631E+01  0.29406888261E+01 -0.10121752003E+02  0.11630416242E+02  0.51100000000E-03 0. -1.
        -11    1    3    3    0    0  0.15059916124E+01  0.21377737122E+01 -0.81858725098E+01  0.85934042258E+01  0.51100000000E-03 0.  1.
        -12    1    3    3    0    0  0.43212430094E-02  0.72100354680E+01 -0.24895457668E+02  0.25918496149E+02  0.00000000000E+00 0.  1.
</event>
<event>
 7    1  0.1519238E-008  0.4614232E+02  0.7816164E-02  0.1320468E+00
        -11   -1    0    0    0    0  0.00000000000E+00  0.00000000000E+00  0.45593999997E+02  0.45594000000E+02  0.51100000000E-03 0.  1.
         11   -1    0    0    0    0 -0.00000000000E+00 -0.00000000000E+00 -0.45593999997E+02  0.45594000000E+02  0.51100000000E-03 0. -1.
    9900012    2    1    2    0    0  0.57525411681E+01  0.94806282512E+01 -0.43659356614E+02  0.46142318055E+02  0.10000002678E+02 0.  0.
        -12    1    1    2    0    0 -0.57525411681E+01 -0.94806282512E+01  0.43659356614E+02  0.45045681945E+02  0.00000000000E+00 0.  1.
         11    1    3    3    0    0  0.16637894124E+01  0.26505200373E+01 -0.18840651121E+02  0.19098784951E+02  0.51100000000E-03 0. -1.
        -11    1    3    3    0    0  0.15694739209E+01 -0.12977006596E+01 -0.30163369355E+01  0.36394455842E+01  0.51100000000E-03 0.  1.
        -12    1    3    3    0    0  0.25192778347E+01  0.81278088736E+01 -0.21802368558E+02  0.23404087520E+02  0.00000000000E+00 0.  1.
</event>
<event>
 7    1  0.1519238E-008  0.4614232E+02  0.7816164E-02  0.1320468E+00
        -11   -1    0    0    0    0  0.00000000000E+00  0.00000000000E+00  0.45593999997E+02  0.45594000000E+02  0.51100000000E-03 0. -1.
         11   -1    0    0    0    0 -0.00000000000E+00 -0.00000000000E+00 -0.45593999997E+02  0.45594000000E+02  0.51100000000E-03 0.  1.
    9900012    2    1    2    0    0  0.11079426979E+02  0.43291335721E+02  0.56762592741E+01  0.46142319075E+02  0.10000011978E+02 0.  0.
        -12    1    1    2    0    0 -0.11079426979E+02 -0.43291335721E+02 -0.56762592741E+01  0.45045680925E+02  0.00000000000E+00 0.  1.
         11    1    3    3    0    0  0.11566088555E+02  0.27516521855E+02  0.48242620665E+01  0.30235854283E+02  0.51100000000E-03 0. -1.
        -11    1    3    3    0    0  0.29349702678E+00  0.17741505276E+01 -0.35235010706E+00  0.18324577644E+01  0.51100000000E-03 0.  1.
         12    1    3    3    0    0 -0.78015860274E+00  0.14000663338E+02  0.12043473146E+01  0.14074007027E+02  0.00000000000E+00 0. -1.
</event>
<event>
 7    1  0.1519238E-008  0.4614232E+02  0.7816164E-02  0.1320468E+00
        -11   -1    0    0    0    0  0.00000000000E+00  0.00000000000E+00  0.45593999997E+02  0.45594000000E+02  0.51100000000E-03 0.  1.
         11   -1    0    0    0    0 -0.00000000000E+00 -0.00000000000E+00 -0.45593999997E+02  0.45594000000E+02  0.51100000000E-03 0. -1.
    9900012    2    1    2    0    0  0.19068198133E+01  0.16416946744E+02 -0.41904192811E+02  0.46142317884E+02  0.10000001117E+02 0.  0.
        -12    1    1    2    0    0 -0.19068198133E+01 -0.16416946744E+02  0.41904192811E+02  0.45045682116E+02  0.00000000000E+00 0.  1.
         11    1    3    3    0    0 -0.23024208877E+01  0.30983943218E+01 -0.57862859614E+01  0.69557382646E+01  0.51100000000E-03 0. -1.
        -11    1    3    3    0    0 -0.15577083934E+01  0.26611568345E+01 -0.72326359736E+01  0.78625208759E+01  0.51100000000E-03 0.  1.
         12    1    3    3    0    0  0.57669490943E+01  0.10657395587E+02 -0.28885270876E+02  0.31324058743E+02  0.00000000000E+00 0. -1.
</event>
<event>
 7    1  0.1519238E-008  0.4614232E+02  0.7816164E-02  0.1320468E+00
        -11   -1    0    0    0    0  0.00000000000E+00  0.00000000000E+00  0.45593999997E+02  0.45594000000E+02  0.51100000000E-03 0. -1.
         11   -1    0    0    0    0 -0.00000000000E+00 -0.00000000000E+00 -0.45593999997E+02  0.45594000000E+02  0.51100000000E-03 0.  1.
    9900012    2    1    2    0    0  0.31682541292E+02 -0.32013972921E+02 -0.65988330615E+00  0.46142319509E+02  0.10000015941E+02 0.  0.
        -12    1    1    2    0    0 -0.31682541292E+02  0.32013972921E+02  0.65988330615E+00  0.45045680491E+02  0.00000000000E+00 0.  1.
         11    1    3    3    0    0  0.16345330104E+02 -0.19334274368E+02  0.26278229212E+01  0.25453672331E+02  0.51100000000E-03 0. -1.
        -11    1    3    3    0    0  0.80430625767E+01 -0.39341973187E+01 -0.51844557406E+00  0.89686983575E+01  0.51100000000E-03 0.  1.
        -12    1    3    3    0    0  0.72941486108E+01 -0.87455012343E+01 -0.27692606533E+01  0.11719948821E+02  0.00000000000E+00 0.  1.
</event>
<event>
 7    1  0.1519238E-008  0.4614231E+02  0.7816164E-02  0.1320468E+00
        -11   -1    0    0    0    0  0.00000000000E+00  0.00000000000E+00  0.45593999997E+02  0.45594000000E+02  0.51100000000E-03 0.  1.
         11   -1    0    0    0    0 -0.00000000000E+00 -0.00000000000E+00 -0.45593999997E+02  0.45594000000E+02  0.51100000000E-03 0. -1.
    9900012    2    1    2    0    0 -0.13912894347E+02  0.37057855982E+02 -0.21500249040E+02  0.46142311773E+02  0.99999453930E+01 0.  0.
        -12    1    1    2    0    0  0.13912894347E+02 -0.37057855982E+02  0.21500249040E+02  0.45045688227E+02  0.00000000000E+00 0.  1.
         11    1    3    3    0    0 -0.89598007045E+01  0.24947717171E+02 -0.17649977693E+02  0.31846323705E+02  0.51100000000E-03 0. -1.
        -11    1    3    3    0    0 -0.30582218284E+01  0.11174912596E+02 -0.27251092028E+01  0.11902000366E+02  0.51100000000E-03 0.  1.
        -12    1    3    3    0    0 -0.18948718145E+01  0.93522621495E+00 -0.11251621442E+01  0.23939877020E+01  0.00000000000E+00 0.  1.
</event>
<event>
 7    1  0.1519238E-008  0.4614232E+02  0.7816164E-02  0.1320468E+00
        -11   -1    0    0    0    0  0.00000000000E+00  0.00000000000E+00  0.45593999997E+02  0.45594000000E+02  0.51100000000E-03 0. -1.
         11   -1    0    0    0    0 -0.00000000000E+00 -0.00000000000E+00 -0.45593999997E+02  0.45594000000E+02  0.51100000000E-03 0.  1.
    9900012    2    1    2    0    0  0.26199309446E+02  0.29995914982E+02  0.21046490821E+02  0.46142317555E+02  0.99999981224E+01 0.  0.
        -12    1    1    2    0    0 -0.26199309446E+02 -0.29995914982E+02 -0.21046490821E+02  0.45045682445E+02  0.00000000000E+00 0.  1.
         11    1    3    3    0    0  0.49384185561E+00  0.48261152174E+01  0.40989963756E+01  0.63511447329E+01  0.51100000000E-03 0. -1.
        -11    1    3    3    0    0  0.86214513852E+01  0.91963334490E+01  0.55444009241E+01  0.13771069485E+02  0.51100000000E-03 0.  1.
         12    1    3    3    0    0  0.17084016205E+02  0.15973466316E+02  0.11403093521E+02  0.26020103337E+02  0.00000000000E+00 0. -1.
</event>
<event>
 7    1  0.1519238E-008  0.4614232E+02  0.7816164E-02  0.1320468E+00
        -11   -1    0    0    0    0  0.00000000000E+00  0.00000000000E+00  0.45593999997E+02  0.45594000000E+02  0.51100000000E-03 0.  1.
         11   -1    0    0    0    0 -0.00000000000E+00 -0.00000000000E+00 -0.45593999997E+02  0.45594000000E+02  0.51100000000E-03 0. -1.
    9900012    2    1    2    0    0  0.23652817798E+02 -0.29306816065E+02  0.24713729491E+02  0.46142315601E+02  0.99999802988E+01 0.  0.
        -12    1    1    2    0    0 -0.23652817798E+02  0.29306816065E+02 -0.24713729491E+02  0.45045684399E+02  0.00000000000E+00 0.  1.
         11    1    3    3    0    0  0.18060239032E+02 -0.21120184269E+02  0.18624216113E+02  0.33452889913E+02  0.51100000000E-03 0. -1.
        -11    1    3    3    0    0  0.53948297611E+01 -0.65558167757E+01  0.26771909161E+01  0.89022622524E+01  0.51100000000E-03 0.  1.
         12    1    3    3    0    0  0.19774900486E+00 -0.16308150201E+01  0.34123224622E+01  0.37871634351E+01  0.00000000000E+00 0. -1.
</event>
<event>
 7    1  0.1519238E-008  0.4614232E+02  0.7816164E-02  0.1320468E+00
        -11   -1    0    0    0    0  0.00000000000E+00  0.00000000000E+00  0.45593999997E+02  0.45594000000E+02  0.51100000000E-03 0.  1.
         11   -1    0    0    0    0 -0.00000000000E+00 -0.00000000000E+00 -0.45593999997E+02  0.45594000000E+02  0.51100000000E-03 0. -1.
    9900012    2    1    2    0    0  0.29205379350E+02  0.23278929793E+02 -0.25184332299E+02  0.46142319312E+02  0.10000014143E+02 0.  0.
        -12    1    1    2    0    0 -0.29205379350E+02 -0.23278929793E+02  0.25184332299E+02  0.45045680688E+02  0.00000000000E+00 0.  1.
         11    1    3    3    0    0  0.57577825574E+01  0.26734044489E+01 -0.19376378550E+01  0.66372880037E+01  0.51100000000E-03 0.  1.
        -11    1    3    3    0    0  0.86073249310E+01  0.38873425743E+01 -0.86483356972E+01  0.12805904316E+02  0.51100000000E-03 0. -1.
        -12    1    3    3    0    0  0.14840271862E+02  0.16718182770E+02 -0.14598358747E+02  0.26699126992E+02  0.00000000000E+00 0.  1.
</event>
<event>
 7    1  0.1519238E-008  0.4614232E+02  0.7816164E-02  0.1320468E+00
        -11   -1    0    0    0    0  0.00000000000E+00  0.00000000000E+00  0.45593999997E+02  0.45594000000E+02  0.51100000000E-03 0.  1.
         11   -1    0    0    0    0 -0.00000000000E+00 -0.00000000000E+00 -0.45593999997E+02  0.45594000000E+02  0.51100000000E-03 0. -1.
    9900012    2    1    2    0    0  0.23896392848E+02 -0.17738989131E+01 -0.38143533915E+02  0.46142317765E+02  0.10000000037E+02 0.  0.
        -12    1    1    2    0    0 -0.23896392848E+02  0.17738989131E+01  0.38143533915E+02  0.45045682235E+02  0.00000000000E+00 0.  1.
         11    1    3    3    0    0  0.15128461510E+02  0.15302476614E+00 -0.21080033640E+02  0.25947284689E+02  0.51100000000E-03 0. -1.
        -11    1    3    3    0    0 -0.26684786774E+00  0.43741723095E+00  0.21380822167E+00  0.55520792072E+00  0.51100000000E-03 0.  1.
        -12    1    3    3    0    0  0.90347792054E+01 -0.23643409102E+01 -0.17277308497E+02  0.19639825155E+02  0.00000000000E+00 0.  1.
</event>
<event>
 7    1  0.1519238E-008  0.4614232E+02  0.7816164E-02  0.1320468E+00
        -11   -1    0    0    0    0  0.00000000000E+00  0.00000000000E+00  0.45593999997E+02  0.45594000000E+02  0.51100000000E-03 0.  1.
         11   -1    0    0    0    0 -0.00000000000E+00 -0.00000000000E+00 -0.45593999997E+02  0.45594000000E+02  0.51100000000E-03 0. -1.
    9900012    2    1    2    0    0  0.46159495770E+01 -0.15130942398E+02 -0.42176548488E+02  0.46142315959E+02  0.99999835698E+01 0.  0.
        -12    1    1    2    0    0 -0.46159495770E+01  0.15130942398E+02  0.42176548488E+02  0.45045684041E+02  0.00000000000E+00 0.  1.
         11    1    3    3    0    0  0.94140026239E+00 -0.36852924882E+01 -0.14601663201E+02  0.15088942431E+02  0.51100000000E-03 0. -1.
        -11    1    3    3    0    0 -0.11676824369E+01 -0.83368984802E+01 -0.14466298433E+02  0.16737417637E+02  0.51100000000E-03 0.  1.
        -12    1    3    3    0    0  0.48422317515E+01 -0.31087514292E+01 -0.13108586854E+02  0.14315955892E+02  0.00000000000E+00 0.  1.
</event>
<event>
 7    1  0.1519238E-008  0.4614232E+02  0.7816164E-02  0.1320468E+00
        -11   -1    0    0    0    0  0.00000000000E+00  0.00000000000E+00  0.45593999997E+02  0.45594000000E+02  0.51100000000E-03 0. -1.
         11   -1    0    0    0    0 -0.00000000000E+00 -0.00000000000E+00 -0.45593999997E+02  0.45594000000E+02  0.51100000000E-03 0.  1.
    9900012    2    1    2    0    0  0.39088674530E+02 -0.83196245442E+01  0.20783956610E+02  0.46142317838E+02  0.10000000704E+02 0.  0.
        -12    1    1    2    0    0 -0.39088674530E+02  0.83196245442E+01 -0.20783956610E+02  0.45045682162E+02  0.00000000000E+00 0.  1.
         11    1    3    3    0    0  0.11241258891E+02 -0.50767995958E+01  0.61731818692E+01  0.13793040645E+02  0.51100000000E-03 0. -1.
        -11    1    3    3    0    0  0.27666460975E+02 -0.24183381563E+01  0.13305316331E+02  0.30794688914E+02  0.51100000000E-03 0.  1.
        -12    1    3    3    0    0  0.18095466325E+00 -0.82448679214E+00  0.13054584089E+01  0.15545882792E+01  0.00000000000E+00 0.  1.
</event>
<event>
 7    1  0.1519238E-008  0.4614232E+02  0.7816164E-02  0.1320468E+00
        -11   -1    0    0    0    0  0.00000000000E+00  0.00000000000E+00  0.45593999997E+02  0.45594000000E+02  0.51100000000E-03 0.  1.
         11   -1    0    0    0    0 -0.00000000000E+00 -0.00000000000E+00 -0.45593999997E+02  0.45594000000E+02  0.51100000000E-03 0. -1.
    9900012    2    1    2    0    0 -0.42645358632E+02  0.10791757316E+02 -0.96966392332E+01  0.46142318173E+02  0.10000003760E+02 0.  0.
        -12    1    1    2    0    0  0.42645358632E+02 -0.10791757316E+02  0.96966392332E+01  0.45045681827E+02  0.00000000000E+00 0.  1.
         11    1    3    3    0    0 -0.12703909136E+02  0.52776971396E+01 -0.26841304210E+01  0.14015989113E+02  0.51100000000E-03 0. -1.
        -11    1    3    3    0    0 -0.23493737474E+01  0.22186152810E+01  0.66064181386E+00  0.32982205259E+01  0.51100000000E-03 0.  1.
         12    1    3    3    0    0 -0.27592075748E+02  0.32954448954E+01 -0.76731506260E+01  0.28828108534E+02  0.00000000000E+00 0. -1.
</event>
<event>
 7    1  0.1519238E-008  0.4614232E+02  0.7816164E-02  0.1320468E+00
        -11   -1    0    0    0    0  0.00000000000E+00  0.00000000000E+00  0.45593999997E+02  0.45594000000E+02  0.51100000000E-03 0.  1.
         11   -1    0    0    0    0 -0.00000000000E+00 -0.00000000000E+00 -0.45593999997E+02  0.45594000000E+02  0.51100000000E-03 0. -1.
    9900012    2    1    2    0    0  0.23773182105E+02  0.88687901887E+01 -0.37219535186E+02  0.46142318450E+02  0.10000006286E+02 0.  0.
        -12    1    1    2    0    0 -0.23773182105E+02 -0.88687901887E+01  0.37219535186E+02  0.45045681550E+02  0.00000000000E+00 0.  1.
         11    1    3    3    0    0  0.12805274214E+01  0.19428532265E+01 -0.52439622158E+01  0.57370348717E+01  0.51100000000E-03 0. -1.
        -11    1    3    3    0    0  0.98442242002E+01  0.12903072245E+01 -0.81371171312E+01  0.12836912335E+02  0.51100000000E-03 0.  1.
        -12    1    3    3    0    0  0.12648430484E+02  0.56356297377E+01 -0.23838455839E+02  0.27568371243E+02  0.00000000000E+00 0.  1.
</event>
<event>
 7    1  0.1519238E-008  0.4614232E+02  0.7816164E-02  0.1320468E+00
        -11   -1    0    0    0    0  0.00000000000E+00  0.00000000000E+00  0.45593999997E+02  0.45594000000E+02  0.51100000000E-03 0. -1.
         11   -1    0    0    0    0 -0.00000000000E+00 -0.00000000000E+00 -0.45593999997E+02  0.45594000000E+02  0.51100000000E-03 0.  1.
    9900012    2    1    2    0    0 -0.28013237675E+02 -0.20582123260E+02  0.28648703232E+02  0.46142317856E+02  0.10000000866E+02 0.  0.
        -12    1    1    2    0    0  0.28013237675E+02  0.20582123260E+02 -0.28648703232E+02  0.45045682144E+02  0.00000000000E+00 0.  1.
         11    1    3    3    0    0 -0.40077280825E+01 -0.41786036079E+01  0.60013649823E+01  0.83390044014E+01  0.51100000000E-03 0. -1.
        -11    1    3    3    0    0 -0.66234888393E+01 -0.55842610716E+01  0.23573113894E+01  0.89783903550E+01  0.51100000000E-03 0.  1.
        -12    1    3    3    0    0 -0.17382020753E+02 -0.10819258580E+02  0.20290026861E+02  0.28824923100E+02  0.00000000000E+00 0.  1.
</event>
<event>
 7    1  0.1519238E-008  0.4614232E+02  0.7816164E-02  0.1320468E+00
        -11   -1    0    0    0    0  0.00000000000E+00  0.00000000000E+00  0.45593999997E+02  0.45594000000E+02  0.51100000000E-03 0.  1.
         11   -1    0    0    0    0 -0.00000000000E+00 -0.00000000000E+00 -0.45593999997E+02  0.45594000000E+02  0.51100000000E-03 0. -1.
    9900012    2    1    2    0    0 -0.40990961782E+02 -0.63494794391E+01 -0.17565268457E+02  0.46142317710E+02  0.99999995366E+01 0.  0.
        -12    1    1    2    0    0  0.40990961782E+02  0.63494794391E+01  0.17565268457E+02  0.45045682290E+02  0.00000000000E+00 0.  1.
         11    1    3    3    0    0 -0.25828922479E+02 -0.29875203662E+01 -0.14514003515E+02  0.29777757012E+02  0.51100000000E-03 0. -1.
        -11    1    3    3    0    0 -0.56159264962E+01  0.37735191613E+00  0.12966105714E+00  0.56300832259E+01  0.51100000000E-03 0.  1.
        -12    1    3    3    0    0 -0.95461128068E+01 -0.37393109891E+01 -0.31809259992E+01  0.10734477472E+02  0.00000000000E+00 0.  1.
</event>
<event>
 7    1  0.1519238E-008  0.4614232E+02  0.7816164E-02  0.1320468E+00
        -11   -1    0    0    0    0  0.00000000000E+00  0.00000000000E+00  0.45593999997E+02  0.45594000000E+02  0.51100000000E-03 0. -1.
         11   -1    0    0    0    0 -0.00000000000E+00 -0.00000000000E+00 -0.45593999997E+02  0.45594000000E+02  0.51100000000E-03 0.  1.
    9900012    2    1    2    0    0 -0.38545524244E+00  0.42995142424E+02  0.13430661137E+02  0.46142317561E+02  0.99999981764E+01 0.  0.
        -12    1    1    2    0    0  0.38545524244E+00 -0.42995142424E+02 -0.13430661137E+02  0.45045682439E+02  0.00000000000E+00 0.  1.
         11    1    3    3    0    0 -0.27800863805E+01  0.91000756391E+01  0.11826286035E+01  0.95884757701E+01  0.51100000000E-03 0. -1.
        -11    1    3    3    0    0  0.20257691396E+01  0.51796997344E+01  0.71791847546E+00  0.56078906145E+01  0.51100000000E-03 0.  1.
         12    1    3    3    0    0  0.36886199842E+00  0.28715367050E+02  0.11530114058E+02  0.30945951177E+02  0.00000000000E+00 0. -1.
</event>
<event>
 7    1  0.1519238E-008  0.4614231E+02  0.7816164E-02  0.1320468E+00
        -11   -1    0    0    0    0  0.00000000000E+00  0.00000000000E+00  0.45593999997E+02  0.45594000000E+02  0.51100000000E-03 0. -1.
         11   -1    0    0    0    0 -0.00000000000E+00 -0.00000000000E+00 -0.45593999997E+02  0.45594000000E+02  0.51100000000E-03 0.  1.
    9900012    2    1    2    0    0  0.12044149548E+01  0.40663243795E+02  0.19343316320E+02  0.46142313219E+02  0.99999585809E+01 0.  0.
        -12    1    1    2    0    0 -0.12044149548E+01 -0.40663243795E+02 -0.19343316320E+02  0.45045686781E+02  0.00000000000E+00 0.  1.
         11    1    3    3    0    0 -0.23912451376E+01  0.24102289790E+02  0.10314882476E+02  0.26325562239E+02  0.51100000000E-03 0. -1.
        -11    1    3    3    0    0  0.34514450698E+01  0.49822049571E+01  0.30840005028E+01  0.68004337117E+01  0.51100000000E-03 0.  1.
        -12    1    3    3    0    0  0.14421502262E+00  0.11578749048E+02  0.59444333410E+01  0.13016317269E+02  0.00000000000E+00 0.  1.
</event>
<event>
 7    1  0.1519238E-008  0.4614232E+02  0.7816164E-02  0.1320468E+00
        -11   -1    0    0    0    0  0.00000000000E+00  0.00000000000E+00  0.45593999997E+02  0.45594000000E+02  0.51100000000E-03 0.  1.
         11   -1    0    0    0    0 -0.00000000000E+00 -0.00000000000E+00 -0.45593999997E+02  0.45594000000E+02  0.51100000000E-03 0. -1.
    9900012    2    1    2    0    0  0.17770631547E+02 -0.38815677707E+02 -0.14375721340E+02  0.46142317127E+02  0.99999942169E+01 0.  0.
        -12    1    1    2    0    0 -0.17770631547E+02  0.38815677707E+02  0.14375721340E+02  0.45045682873E+02  0.00000000000E+00 0.  1.
         11    1    3    3    0    0  0.89325394676E+01 -0.22329588627E+02 -0.87208337501E+01  0.25582293313E+02  0.51100000000E-03 0. -1.
        -11    1    3    3    0    0 -0.49398589885E+00 -0.37722205002E+01  0.37171770141E-02  0.38044294774E+01  0.51100000000E-03 0.  1.
         12    1    3    3    0    0  0.93320779779E+01 -0.12713868580E+02 -0.56586047671E+01  0.16755594337E+02  0.00000000000E+00 0. -1.
</event>
<event>
 7    1  0.1519238E-008  0.4614232E+02  0.7816164E-02  0.1320468E+00
        -11   -1    0    0    0    0  0.00000000000E+00  0.00000000000E+00  0.45593999997E+02  0.45594000000E+02  0.51100000000E-03 0.  1.
         11   -1    0    0    0    0 -0.00000000000E+00 -0.00000000000E+00 -0.45593999997E+02  0.45594000000E+02  0.51100000000E-03 0. -1.
    9900012    2    1    2    0    0  0.39352344965E+01 -0.32253767076E+02 -0.31198107367E+02  0.46142318027E+02  0.10000002428E+02 0.  0.
        -12    1    1    2    0    0 -0.39352344965E+01  0.32253767076E+02  0.31198107367E+02  0.45045681973E+02  0.00000000000E+00 0.  1.
         11    1    3    3    0    0 -0.34248442797E+00 -0.25674636268E+00  0.49450278837E+00  0.65402411804E+00  0.51100000000E-03 0.  1.
        -11    1    3    3    0    0  0.28697047593E+01 -0.30253378448E+02 -0.29570731790E+02  0.42402008111E+02  0.51100000000E-03 0. -1.
         12    1    3    3    0    0  0.14080141651E+01 -0.17436422651E+01 -0.21218783646E+01  0.30862857988E+01  0.00000000000E+00 0. -1.
</event>
<event>
 7    1  0.1519238E-008  0.4614232E+02  0.7816164E-02  0.1320468E+00
        -11   -1    0    0    0    0  0.00000000000E+00  0.00000000000E+00  0.45593999997E+02  0.45594000000E+02  0.51100000000E-03 0.  1.
         11   -1    0    0    0    0 -0.00000000000E+00 -0.00000000000E+00 -0.45593999997E+02  0.45594000000E+02  0.51100000000E-03 0. -1.
    9900012    2    1    2    0    0  0.41537901803E+02 -0.49822996971E+01 -0.16700086322E+02  0.46142317858E+02  0.10000000883E+02 0.  0.
        -12    1    1    2    0    0 -0.41537901803E+02  0.49822996971E+01  0.16700086322E+02  0.45045682142E+02  0.00000000000E+00 0.  1.
         11    1    3    3    0    0  0.27021428429E+02 -0.20306441859E+01 -0.12270179300E+02  0.29746233551E+02  0.51100000000E-03 0. -1.
        -11    1    3    3    0    0  0.55567648899E+01 -0.85923947444E+00 -0.44892695346E+01  0.71951003976E+01  0.51100000000E-03 0.  1.
         12    1    3    3    0    0  0.89597084840E+01 -0.20924160368E+01  0.59362512627E-01  0.92009839092E+01  0.00000000000E+00 0. -1.
</event>
<event>
 7    1  0.1519238E-008  0.4614232E+02  0.7816164E-02  0.1320468E+00
        -11   -1    0    0    0    0  0.00000000000E+00  0.00000000000E+00  0.45593999997E+02  0.45594000000E+02  0.51100000000E-03 0. -1.
         11   -1    0    0    0    0 -0.00000000000E+00 -0.00000000000E+00 -0.45593999997E+02  0.45594000000E+02  0.51100000000E-03 0.  1.
    9900012    2    1    2    0    0 -0.26110832595E+02  0.30821304101E+02  0.19934518604E+02  0.46142318772E+02  0.10000009217E+02 0.  0.
        -12    1    1    2    0    0  0.26110832595E+02 -0.30821304101E+02 -0.19934518604E+02  0.45045681228E+02  0.00000000000E+00 0.  1.
         11    1    3    3    0    0 -0.36370363378E+01  0.64937675086E+01  0.39591198241E+01  0.84304021150E+01  0.51100000000E-03 0. -1.
        -11    1    3    3    0    0 -0.41490459066E+01  0.26477940514E+01 -0.40414573727E+00  0.49384946402E+01  0.51100000000E-03 0.  1.
        -12    1    3    3    0    0 -0.18324750351E+02  0.21679742541E+02  0.16379544518E+02  0.32773422017E+02  0.00000000000E+00 0.  1.
</event>
<event>
 7    1  0.1519238E-008  0.4614232E+02  0.7816164E-02  0.1320468E+00
        -11   -1    0    0    0    0  0.00000000000E+00  0.00000000000E+00  0.45593999997E+02  0.45594000000E+02  0.51100000000E-03 0.  1.
         11   -1    0    0    0    0 -0.00000000000E+00 -0.00000000000E+00 -0.45593999997E+02  0.45594000000E+02  0.51100000000E-03 0. -1.
    9900012    2    1    2    0    0 -0.39280383020E+02  0.11659568174E+02 -0.18714151408E+02  0.46142317820E+02  0.10000000534E+02 0.  0.
        -12    1    1    2    0    0  0.39280383020E+02 -0.11659568174E+02  0.18714151408E+02  0.45045682180E+02  0.00000000000E+00 0.  1.
         11    1    3    3    0    0 -0.16488932860E+02  0.77205692922E+01 -0.95875479869E+01  0.20577005947E+02  0.51100000000E-03 0.  1.
        -11    1    3    3    0    0 -0.21746691840E+02  0.40177702797E+01 -0.70025558315E+01  0.23196915149E+02  0.51100000000E-03 0. -1.
        -12    1    3    3    0    0 -0.10447583195E+01 -0.78771398057E-01 -0.21240475896E+01  0.23683967239E+01  0.00000000000E+00 0.  1.
</event>
<event>
 7    1  0.1519238E-008  0.4614232E+02  0.7816164E-02  0.1320468E+00
        -11   -1    0    0    0    0  0.00000000000E+00  0.00000000000E+00  0.45593999997E+02  0.45594000000E+02  0.51100000000E-03 0. -1.
         11   -1    0    0    0    0 -0.00000000000E+00 -0.00000000000E+00 -0.45593999997E+02  0.45594000000E+02  0.51100000000E-03 0.  1.
    9900012    2    1    2    0    0 -0.22706633265E+02  0.12378946061E+02  0.36882027011E+02  0.46142318562E+02  0.10000007300E+02 0.  0.
        -12    1    1    2    0    0  0.22706633265E+02 -0.12378946061E+02 -0.36882027011E+02  0.45045681438E+02  0.00000000000E+00 0.  1.
         11    1    3    3    0    0 -0.76851189970E+01  0.47394430765E+01  0.20201444811E+02  0.22127398116E+02  0.51100000000E-03 0. -1.
        -11    1    3    3    0    0 -0.75764170446E+00 -0.78097416429E-01  0.19972148314E+01  0.21375190064E+01  0.51100000000E-03 0.  1.
         12    1    3    3    0    0 -0.14263872564E+02  0.77176004005E+01  0.14683367369E+02  0.21877401440E+02  0.00000000000E+00 0. -1.
</event>
<event>
 7    1  0.1519238E-008  0.4614232E+02  0.7816164E-02  0.1320468E+00
        -11   -1    0    0    0    0  0.00000000000E+00  0.00000000000E+00  0.45593999997E+02  0.45594000000E+02  0.51100000000E-03 0. -1.
         11   -1    0    0    0    0 -0.00000000000E+00 -0.00000000000E+00 -0.45593999997E+02  0.45594000000E+02  0.51100000000E-03 0.  1.
    9900012    2    1    2    0    0  0.42156194750E+02  0.16074618916E+01  0.15791920692E+02  0.46142318201E+02  0.10000004015E+02 0.  0.
        -12    1    1    2    0    0 -0.42156194750E+02 -0.16074618916E+01 -0.15791920692E+02  0.45045681799E+02  0.00000000000E+00 0.  1.
         11    1    3    3    0    0  0.10979851952E+02  0.77594208596E+00  0.32495887294E+01  0.11476892532E+02  0.51100000000E-03 0. -1.
        -11    1    3    3    0    0  0.18612966178E+02 -0.78578705781E+00  0.11638405194E+02  0.21966165959E+02  0.51100000000E-03 0.  1.
        -12    1    3    3    0    0  0.12563376620E+02  0.16173068634E+01  0.90392676946E+00  0.12699259710E+02  0.00000000000E+00 0.  1.
</event>
<event>
 7    1  0.1519238E-008  0.4614232E+02  0.7816164E-02  0.1320468E+00
        -11   -1    0    0    0    0  0.00000000000E+00  0.00000000000E+00  0.45593999997E+02  0.45594000000E+02  0.51100000000E-03 0.  1.
         11   -1    0    0    0    0 -0.00000000000E+00 -0.00000000000E+00 -0.45593999997E+02  0.45594000000E+02  0.51100000000E-03 0. -1.
    9900012    2    1    2    0    0  0.22599005835E+02  0.20920578160E+02 -0.32874426490E+02  0.46142316829E+02  0.99999914971E+01 0.  0.
        -12    1    1    2    0    0 -0.22599005835E+02 -0.20920578160E+02  0.32874426490E+02  0.45045683171E+02  0.00000000000E+00 0.  1.
         11    1    3    3    0    0  0.61184872346E+01  0.85843774459E+01 -0.16729947265E+02  0.19774189185E+02  0.51100000000E-03 0. -1.
        -11    1    3    3    0    0  0.76288563261E+01  0.75792713553E+01 -0.74778444118E+01  0.13098204474E+02  0.51100000000E-03 0.  1.
         12    1    3    3    0    0  0.88516622743E+01  0.47569293591E+01 -0.86666348136E+01  0.13269923170E+02  0.00000000000E+00 0. -1.
</event>
<event>
 7    1  0.1519238E-008  0.4614232E+02  0.7816164E-02  0.1320468E+00
        -11   -1    0    0    0    0  0.00000000000E+00  0.00000000000E+00  0.45593999997E+02  0.45594000000E+02  0.51100000000E-03 0.  1.
         11   -1    0    0    0    0 -0.00000000000E+00 -0.00000000000E+00 -0.45593999997E+02  0.45594000000E+02  0.51100000000E-03 0. -1.
    9900012    2    1    2    0    0 -0.24687243130E+02  0.18759712233E+02 -0.32676087486E+02  0.46142317967E+02  0.10000001881E+02 0.  0.
        -12    1    1    2    0    0  0.24687243130E+02 -0.18759712233E+02  0.32676087486E+02  0.45045682033E+02  0.00000000000E+00 0.  1.
         11    1    3    3    0    0 -0.26251978959E+01  0.26588437640E+01 -0.49237255097E+01  0.61809535923E+01  0.51100000000E-03 0. -1.
        -11    1    3    3    0    0  0.30680331326E-02 -0.36006928506E+00 -0.27495522746E+01  0.27730303415E+01  0.51100000000E-03 0.  1.
        -12    1    3    3    0    0 -0.22065113267E+02  0.16460937754E+02 -0.25002809701E+02  0.37188334034E+02  0.00000000000E+00 0.  1.
</event>
<event>
 7    1  0.1519238E-008  0.4614232E+02  0.7816164E-02  0.1320468E+00
        -11   -1    0    0    0    0  0.00000000000E+00  0.00000000000E+00  0.45593999997E+02  0.45594000000E+02  0.51100000000E-03 0.  1.
         11   -1    0    0    0    0 -0.00000000000E+00 -0.00000000000E+00 -0.45593999997E+02  0.45594000000E+02  0.51100000000E-03 0. -1.
    9900012    2    1    2    0    0  0.48886533585E+00 -0.41774927646E+02 -0.16844284907E+02  0.46142317597E+02  0.99999985003E+01 0.  0.
        -12    1    1    2    0    0 -0.48886533585E+00  0.41774927646E+02  0.16844284907E+02  0.45045682403E+02  0.00000000000E+00 0.  1.
         11    1    3    3    0    0 -0.12602464732E+01 -0.11701286529E+02 -0.45129161837E+01  0.12604552366E+02  0.51100000000E-03 0. -1.
        -11    1    3    3    0    0 -0.20956662176E+00 -0.11254022058E+01  0.10799046844E+01  0.15737352644E+01  0.51100000000E-03 0.  1.
        -12    1    3    3    0    0  0.19586784308E+01 -0.28948238911E+02 -0.13411273408E+02  0.31964029966E+02  0.00000000000E+00 0.  1.
</event>
<event>
 7    1  0.1519238E-008  0.4614232E+02  0.7816164E-02  0.1320468E+00
        -11   -1    0    0    0    0  0.00000000000E+00  0.00000000000E+00  0.45593999997E+02  0.45594000000E+02  0.51100000000E-03 0.  1.
         11   -1    0    0    0    0 -0.00000000000E+00 -0.00000000000E+00 -0.45593999997E+02  0.45594000000E+02  0.51100000000E-03 0. -1.
    9900012    2    1    2    0    0 -0.32574597208E+02  0.29802711276E+02 -0.89334899152E+01  0.46142320688E+02  0.10000026688E+02 0.  0.
        -12    1    1    2    0    0  0.32574597208E+02 -0.29802711276E+02  0.89334899152E+01  0.45045679312E+02  0.00000000000E+00 0.  1.
         11    1    3    3    0    0 -0.28956013350E+02  0.22593084459E+02 -0.73839861803E+01  0.37462266704E+02  0.51100000000E-03 0. -1.
        -11    1    3    3    0    0 -0.11912044700E+01  0.24831390287E+01 -0.19145404373E+01  0.33541635130E+01  0.51100000000E-03 0.  1.
         12    1    3    3    0    0 -0.24273793881E+01  0.47264877885E+01  0.36503670231E+00  0.53258904704E+01  0.00000000000E+00 0. -1.
</event>
<event>
 7    1  0.1519238E-008  0.4614232E+02  0.7816164E-02  0.1320468E+00
        -11   -1    0    0    0    0  0.00000000000E+00  0.00000000000E+00  0.45593999997E+02  0.45594000000E+02  0.51100000000E-03 0.  1.
         11   -1    0    0    0    0 -0.00000000000E+00 -0.00000000000E+00 -0.45593999997E+02  0.45594000000E+02  0.51100000000E-03 0. -1.
    9900012    2    1    2    0    0  0.17149229218E+02  0.61169237957E+01 -0.41201950228E+02  0.46142317387E+02  0.99999965917E+01 0.  0.
        -12    1    1    2    0    0 -0.17149229218E+02 -0.61169237957E+01  0.41201950228E+02  0.45045682613E+02  0.00000000000E+00 0.  1.
         11    1    3    3    0    0  0.14768856964E+02  0.12257455261E+01 -0.31964097955E+02  0.35232444515E+02  0.51100000000E-03 0. -1.
        -11    1    3    3    0    0  0.22658503391E+01  0.37193148734E+01 -0.56497406119E+01  0.71335089633E+01  0.51100000000E-03 0.  1.
         12    1    3    3    0    0  0.11452191438E+00  0.11718633962E+01 -0.35881116606E+01  0.37763639096E+01  0.00000000000E+00 0. -1.
</event>
<event>
 7    1  0.1519238E-008  0.4614232E+02  0.7816164E-02  0.1320468E+00
        -11   -1    0    0    0    0  0.00000000000E+00  0.00000000000E+00  0.45593999997E+02  0.45594000000E+02  0.51100000000E-03 0.  1.
         11   -1    0    0    0    0 -0.00000000000E+00 -0.00000000000E+00 -0.45593999997E+02  0.45594000000E+02  0.51100000000E-03 0. -1.
    9900012    2    1    2    0    0  0.58849946718E+01 -0.37272439324E+02 -0.24601739934E+02  0.46142317596E+02  0.99999984953E+01 0.  0.
        -12    1    1    2    0    0 -0.58849946718E+01  0.37272439324E+02  0.24601739934E+02  0.45045682404E+02  0.00000000000E+00 0.  1.
         11    1    3    3    0    0 -0.63221886047E+00 -0.67899825061E+00  0.39281806119E+00  0.10074947157E+01  0.51100000000E-03 0.  1.
        -11    1    3    3    0    0  0.30446056280E+01 -0.26525111532E+02 -0.15534205625E+02  0.30889524274E+02  0.51100000000E-03 0. -1.
         12    1    3    3    0    0  0.34726079042E+01 -0.10068329541E+02 -0.94603523709E+01  0.14245298606E+02  0.00000000000E+00 0. -1.
</event>
<event>
 7    1  0.1519238E-008  0.4614232E+02  0.7816164E-02  0.1320468E+00
        -11   -1    0    0    0    0  0.00000000000E+00  0.00000000000E+00  0.45593999997E+02  0.45594000000E+02  0.51100000000E-03 0.  1.
         11   -1    0    0    0    0 -0.00000000000E+00 -0.00000000000E+00 -0.45593999997E+02  0.45594000000E+02  0.51100000000E-03 0. -1.
    9900012    2    1    2    0    0 -0.17429570623E+02 -0.75248854351E+01 -0.40849720269E+02  0.46142317866E+02  0.10000000957E+02 0.  0.
        -12    1    1    2    0    0  0.17429570623E+02  0.75248854351E+01  0.40849720269E+02  0.45045682134E+02  0.00000000000E+00 0.  1.
         11    1    3    3    0    0 -0.79680108779E+01 -0.84626984459E+01 -0.22953471526E+02  0.25728744969E+02  0.51100000000E-03 0. -1.
        -11    1    3    3    0    0 -0.62123898793E+01  0.13535453593E+01 -0.13583204310E+02  0.14997643570E+02  0.51100000000E-03 0.  1.
        -12    1    3    3    0    0 -0.32491698654E+01 -0.41573234839E+00 -0.43130444320E+01  0.54159293267E+01  0.00000000000E+00 0.  1.
</event>
<event>
 7    1  0.1519238E-008  0.4614233E+02  0.7816164E-02  0.1320468E+00
        -11   -1    0    0    0    0  0.00000000000E+00  0.00000000000E+00  0.45593999997E+02  0.45594000000E+02  0.51100000000E-03 0.  1.
         11   -1    0    0    0    0 -0.00000000000E+00 -0.00000000000E+00 -0.45593999997E+02  0.45594000000E+02  0.51100000000E-03 0. -1.
    9900012    2    1    2    0    0 -0.47016155276E+01  0.41256948087E+02 -0.17460560045E+02  0.46142333049E+02  0.10000139407E+02 0.  0.
        -12    1    1    2    0    0  0.47016155276E+01 -0.41256948087E+02  0.17460560045E+02  0.45045666951E+02  0.00000000000E+00 0.  1.
         11    1    3    3    0    0 -0.55325970474E+00  0.56464718379E+01  0.13278293104E-01  0.56735277466E+01  0.51100000000E-03 0.  1.
        -11    1    3    3    0    0 -0.18313899014E+00  0.14455265476E+02 -0.10414365653E+02  0.17817049478E+02  0.51100000000E-03 0. -1.
         12    1    3    3    0    0 -0.39652168327E+01  0.21155210772E+02 -0.70594726845E+01  0.22651755825E+02  0.00000000000E+00 0. -1.
</event>
<event>
 7    1  0.1519238E-008  0.4614232E+02  0.7816164E-02  0.1320468E+00
        -11   -1    0    0    0    0  0.00000000000E+00  0.00000000000E+00  0.45593999997E+02  0.45594000000E+02  0.51100000000E-03 0.  1.
         11   -1    0    0    0    0 -0.00000000000E+00 -0.00000000000E+00 -0.45593999997E+02  0.45594000000E+02  0.51100000000E-03 0. -1.
    9900012    2    1    2    0    0  0.42596719966E+02  0.13082038273E+02 -0.65949319495E+01  0.46142318691E+02  0.10000008477E+02 0.  0.
        -12    1    1    2    0    0 -0.42596719966E+02 -0.13082038273E+02  0.65949319495E+01  0.45045681309E+02  0.00000000000E+00 0.  1.
         11    1    3    3    0    0  0.72818527198E+01  0.35423651240E+01  0.48850496683E+00  0.81124821768E+01  0.51100000000E-03 0. -1.
        -11    1    3    3    0    0  0.90141328088E+01  0.56643837425E+01 -0.58374962942E+00  0.10662110362E+02  0.51100000000E-03 0.  1.
        -12    1    3    3    0    0  0.26300734437E+02  0.38752894064E+01 -0.64996872869E+01  0.27367726152E+02  0.00000000000E+00 0.  1.
</event>
<event>
 7    1  0.1519238E-008  0.4614232E+02  0.7816164E-02  0.1320468E+00
        -11   -1    0    0    0    0  0.00000000000E+00  0.00000000000E+00  0.45593999997E+02  0.45594000000E+02  0.51100000000E-03 0.  1.
         11   -1    0    0    0    0 -0.00000000000E+00 -0.00000000000E+00 -0.45593999997E+02  0.45594000000E+02  0.51100000000E-03 0. -1.
    9900012    2    1    2    0    0  0.94829540398E+01 -0.32580958488E+02 -0.29625464258E+02  0.46142318677E+02  0.10000008354E+02 0.  0.
        -12    1    1    2    0    0 -0.94829540398E+01  0.32580958488E+02  0.29625464258E+02  0.45045681323E+02  0.00000000000E+00 0.  1.
         11    1    3    3    0    0  0.96424956756E+00 -0.15527580717E+02 -0.13984731450E+02  0.20919088273E+02  0.51100000000E-03 0. -1.
        -11    1    3    3    0    0  0.85411194303E+00 -0.87958794303E+00  0.29271855161E+00  0.12605025079E+01  0.51100000000E-03 0.  1.
        -12    1    3    3    0    0  0.76645925292E+01 -0.16173789828E+02 -0.15933451359E+02  0.23962727897E+02  0.00000000000E+00 0.  1.
</event>
<event>
 7    1  0.1519238E-008  0.4614231E+02  0.7816164E-02  0.1320468E+00
        -11   -1    0    0    0    0  0.00000000000E+00  0.00000000000E+00  0.45593999997E+02  0.45594000000E+02  0.51100000000E-03 0.  1.
         11   -1    0    0    0    0 -0.00000000000E+00 -0.00000000000E+00 -0.45593999997E+02  0.45594000000E+02  0.51100000000E-03 0. -1.
    9900012    2    1    2    0    0 -0.12956677470E+02  0.38834294189E+02 -0.18791912413E+02  0.46142313544E+02  0.99999615410E+01 0.  0.
        -12    1    1    2    0    0  0.12956677470E+02 -0.38834294189E+02  0.18791912413E+02  0.45045686456E+02  0.00000000000E+00 0.  1.
         11    1    3    3    0    0 -0.82211377391E+01  0.29576192163E+02 -0.12505051929E+02  0.33146863691E+02  0.51100000000E-03 0. -1.
        -11    1    3    3    0    0 -0.29521413902E+01  0.42329057831E+01 -0.56063025834E+01  0.76199251357E+01  0.51100000000E-03 0.  1.
         12    1    3    3    0    0 -0.17833983410E+01  0.50251962429E+01 -0.68055790081E+00  0.53755247166E+01  0.00000000000E+00 0. -1.
</event>
<event>
 7    1  0.1519238E-008  0.4614232E+02  0.7816164E-02  0.1320468E+00
        -11   -1    0    0    0    0  0.00000000000E+00  0.00000000000E+00  0.45593999997E+02  0.45594000000E+02  0.51100000000E-03 0.  1.
         11   -1    0    0    0    0 -0.00000000000E+00 -0.00000000000E+00 -0.45593999997E+02  0.45594000000E+02  0.51100000000E-03 0. -1.
    9900012    2    1    2    0    0 -0.11589602921E+02  0.27319856848E+02 -0.33888345525E+02  0.46142318337E+02  0.10000005251E+02 0.  0.
        -12    1    1    2    0    0  0.11589602921E+02 -0.27319856848E+02  0.33888345525E+02  0.45045681663E+02  0.00000000000E+00 0.  1.
         11    1    3    3    0    0  0.98630391075E+00  0.12875144891E+01 -0.43619724053E+01  0.46537396241E+01  0.51100000000E-03 0. -1.
        -11    1    3    3    0    0 -0.71909209275E+01  0.11690559104E+02 -0.12230675285E+02  0.18383904214E+02  0.51100000000E-03 0.  1.
         12    1    3    3    0    0 -0.53849859042E+01  0.14341783254E+02 -0.17295697835E+02  0.23104674499E+02  0.00000000000E+00 0. -1.
</event>
<event>
 7    1  0.1519238E-008  0.4614232E+02  0.7816164E-02  0.1320468E+00
        -11   -1    0    0    0    0  0.00000000000E+00  0.00000000000E+00  0.45593999997E+02  0.45594000000E+02  0.51100000000E-03 0. -1.
         11   -1    0    0    0    0 -0.00000000000E+00 -0.00000000000E+00 -0.45593999997E+02  0.45594000000E+02  0.51100000000E-03 0.  1.
    9900012    2    1    2    0    0  0.25054960179E+02  0.10089343019E+02  0.36049516765E+02  0.46142317287E+02  0.99999956738E+01 0.  0.
        -12    1    1    2    0    0 -0.25054960179E+02 -0.10089343019E+02 -0.36049516765E+02  0.45045682713E+02  0.00000000000E+00 0.  1.
         11    1    3    3    0    0  0.13218881669E+02  0.48749612051E+01  0.20726545678E+02  0.25061799124E+02  0.51100000000E-03 0. -1.
        -11    1    3    3    0    0  0.61189878795E+00  0.28589715301E+01  0.22453283360E+01  0.36864126104E+01  0.51100000000E-03 0.  1.
        -12    1    3    3    0    0  0.11224179722E+02  0.23554102833E+01  0.13077642750E+02  0.17394105552E+02  0.00000000000E+00 0.  1.
</event>
<event>
 7    1  0.1519238E-008  0.4614232E+02  0.7816164E-02  0.1320468E+00
        -11   -1    0    0    0    0  0.00000000000E+00  0.00000000000E+00  0.45593999997E+02  0.45594000000E+02  0.51100000000E-03 0.  1.
         11   -1    0    0    0    0 -0.00000000000E+00 -0.00000000000E+00 -0.45593999997E+02  0.45594000000E+02  0.51100000000E-03 0. -1.
    9900012    2    1    2    0    0 -0.35828092401E+02  0.23592346734E+02 -0.13742720783E+02  0.46142318697E+02  0.10000008534E+02 0.  0.
        -12    1    1    2    0    0  0.35828092401E+02 -0.23592346734E+02  0.13742720783E+02  0.45045681303E+02  0.00000000000E+00 0.  1.
         11    1    3    3    0    0 -0.15041417113E+02  0.68882512432E+01 -0.80671077454E+01  0.18405718177E+02  0.51100000000E-03 0.  1.
        -11    1    3    3    0    0 -0.14062050771E+02  0.10575795104E+02 -0.13060276255E+01  0.17643537695E+02  0.51100000000E-03 0. -1.
         12    1    3    3    0    0 -0.67246245170E+01  0.61283003867E+01 -0.43695854119E+01  0.10093062825E+02  0.00000000000E+00 0. -1.
</event>
<event>
 7    1  0.1519238E-008  0.4614232E+02  0.7816164E-02  0.1320468E+00
        -11   -1    0    0    0    0  0.00000000000E+00  0.00000000000E+00  0.45593999997E+02  0.45594000000E+02  0.51100000000E-03 0.  1.
         11   -1    0    0    0    0 -0.00000000000E+00 -0.00000000000E+00 -0.45593999997E+02  0.45594000000E+02  0.51100000000E-03 0. -1.
    9900012    2    1    2    0    0 -0.24070469106E+02  0.12789479985E+02 -0.35863005673E+02  0.46142318107E+02  0.10000003158E+02 0.  0.
        -12    1    1    2    0    0  0.24070469106E+02 -0.12789479985E+02  0.35863005673E+02  0.45045681893E+02  0.00000000000E+00 0.  1.
         11    1    3    3    0    0 -0.22251626958E+01  0.14850551636E+01 -0.40025406525E+01  0.48142569310E+01  0.51100000000E-03 0. -1.
        -11    1    3    3    0    0 -0.25061656336E+01 -0.11918296312E+01 -0.65377557716E+01  0.71023640320E+01  0.51100000000E-03 0.  1.
        -12    1    3    3    0    0 -0.19339140777E+02  0.12496254452E+02 -0.25322709249E+02  0.34225697144E+02  0.00000000000E+00 0.  1.
</event>
<event>
 7    1  0.1519238E-008  0.4614232E+02  0.7816164E-02  0.1320468E+00
        -11   -1    0    0    0    0  0.00000000000E+00  0.00000000000E+00  0.45593999997E+02  0.45594000000E+02  0.51100000000E-03 0.  1.
         11   -1    0    0    0    0 -0.00000000000E+00 -0.00000000000E+00 -0.45593999997E+02  0.45594000000E+02  0.51100000000E-03 0. -1.
    9900012    2    1    2    0    0  0.18143966586E+02  0.21860276201E+02 -0.34957664076E+02  0.46142317891E+02  0.10000001183E+02 0.  0.
        -12    1    1    2    0    0 -0.18143966586E+02 -0.21860276201E+02  0.34957664076E+02  0.45045682109E+02  0.00000000000E+00 0.  1.
         11    1    3    3    0    0  0.46211188593E+01  0.49739615936E+01 -0.46697688999E+01  0.82402533508E+01  0.51100000000E-03 0. -1.
        -11    1    3    3    0    0  0.80556953041E+01  0.50259642154E+01 -0.15459751176E+02  0.18142724432E+02  0.51100000000E-03 0.  1.
        -12    1    3    3    0    0  0.54671524225E+01  0.11860350392E+02 -0.14828144000E+02  0.19759340108E+02  0.00000000000E+00 0.  1.
</event>
<event>
 7    1  0.1519238E-008  0.4614232E+02  0.7816164E-02  0.1320468E+00
        -11   -1    0    0    0    0  0.00000000000E+00  0.00000000000E+00  0.45593999997E+02  0.45594000000E+02  0.51100000000E-03 0.  1.
         11   -1    0    0    0    0 -0.00000000000E+00 -0.00000000000E+00 -0.45593999997E+02  0.45594000000E+02  0.51100000000E-03 0. -1.
    9900012    2    1    2    0    0  0.11821774461E+02  0.43400912538E+02  0.23916376558E+01  0.46142317729E+02  0.99999997104E+01 0.  0.
        -12    1    1    2    0    0 -0.11821774461E+02 -0.43400912538E+02 -0.23916376558E+01  0.45045682271E+02  0.00000000000E+00 0.  1.
         11    1    3    3    0    0  0.33400335442E+01  0.60180566424E+01  0.57816497703E+00  0.69070329976E+01  0.51100000000E-03 0. -1.
        -11    1    3    3    0    0  0.76999618231E+00  0.18982095280E+02 -0.13011862025E+01  0.19042214187E+02  0.51100000000E-03 0.  1.
        -12    1    3    3    0    0  0.77117447347E+01  0.18400760616E+02  0.31146588813E+01  0.20193070545E+02  0.00000000000E+00 0.  1.
</event>
<event>
 7    1  0.1519238E-008  0.4614232E+02  0.7816164E-02  0.1320468E+00
        -11   -1    0    0    0    0  0.00000000000E+00  0.00000000000E+00  0.45593999997E+02  0.45594000000E+02  0.51100000000E-03 0. -1.
         11   -1    0    0    0    0 -0.00000000000E+00 -0.00000000000E+00 -0.45593999997E+02  0.45594000000E+02  0.51100000000E-03 0.  1.
    9900012    2    1    2    0    0  0.16735382877E+02 -0.41759459966E+02  0.22776848080E+01  0.46142318911E+02  0.10000010483E+02 0.  0.
        -12    1    1    2    0    0 -0.16735382877E+02  0.41759459966E+02 -0.22776848080E+01  0.45045681089E+02  0.00000000000E+00 0.  1.
         11    1    3    3    0    0  0.17143870761E+02 -0.36199728727E+02  0.35929773743E+01  0.40214949350E+02  0.51100000000E-03 0. -1.
        -11    1    3    3    0    0 -0.71015192937E+00 -0.32307610876E+01 -0.13649015346E+01  0.35784199625E+01  0.51100000000E-03 0.  1.
         12    1    3    3    0    0  0.30166404511E+00 -0.23289701516E+01  0.49608968285E-01  0.23489495977E+01  0.00000000000E+00 0. -1.
</event>
<event>
 7    1  0.1519238E-008  0.4614232E+02  0.7816164E-02  0.1320468E+00
        -11   -1    0    0    0    0  0.00000000000E+00  0.00000000000E+00  0.45593999997E+02  0.45594000000E+02  0.51100000000E-03 0.  1.
         11   -1    0    0    0    0 -0.00000000000E+00 -0.00000000000E+00 -0.45593999997E+02  0.45594000000E+02  0.51100000000E-03 0. -1.
    9900012    2    1    2    0    0 -0.43507178827E+02 -0.66309785582E+01 -0.96056769095E+01  0.46142317466E+02  0.99999973071E+01 0.  0.
        -12    1    1    2    0    0  0.43507178827E+02  0.66309785582E+01  0.96056769095E+01  0.45045682534E+02  0.00000000000E+00 0.  1.
         11    1    3    3    0    0 -0.41473933430E+02 -0.72116312302E+01 -0.80832745806E+01  0.42865301905E+02  0.51100000000E-03 0. -1.
        -11    1    3    3    0    0  0.36446395048E+00  0.93617829564E-01  0.33085445332E-01  0.37774750433E+00  0.51100000000E-03 0.  1.
         12    1    3    3    0    0 -0.23977093469E+01  0.48703484243E+00 -0.15554877742E+01  0.28992680569E+01  0.00000000000E+00 0. -1.
</event>
<event>
 7    1  0.1600944E-008  0.4614232E+02  0.7816164E-02  0.1320468E+00
        -11   -1    0    0    0    0  0.00000000000E+00  0.00000000000E+00  0.45593999997E+02  0.45594000000E+02  0.51100000000E-03 0. -1.
         11   -1    0    0    0    0 -0.00000000000E+00 -0.00000000000E+00 -0.45593999997E+02  0.45594000000E+02  0.51100000000E-03 0.  1.
    9900012    2    1    2    0    0 -0.25313780862E+02 -0.29180981826E+02  0.23168867059E+02  0.46142316492E+02  0.99999884271E+01 0.  0.
        -12    1    1    2    0    0  0.25313780862E+02  0.29180981826E+02 -0.23168867059E+02  0.45045683508E+02  0.00000000000E+00 0.  1.
         11    1    3    3    0    0 -0.14688406613E+02 -0.16773760847E+02  0.16558692601E+02  0.27772263910E+02  0.51100000000E-03 0. -1.
        -11    1    3    3    0    0 -0.65750992429E+01 -0.91056541245E+01  0.20133269816E+01  0.11410449285E+02  0.51100000000E-03 0.  1.
        -12    1    3    3    0    0 -0.40502750067E+01 -0.33015668548E+01  0.45968474772E+01  0.69596032973E+01  0.00000000000E+00 0.  1.
</event>
<event>
 7    1  0.1519238E-008  0.4614232E+02  0.7816164E-02  0.1320468E+00
        -11   -1    0    0    0    0  0.00000000000E+00  0.00000000000E+00  0.45593999997E+02  0.45594000000E+02  0.51100000000E-03 0.  1.
         11   -1    0    0    0    0 -0.00000000000E+00 -0.00000000000E+00 -0.45593999997E+02  0.45594000000E+02  0.51100000000E-03 0. -1.
    9900012    2    1    2    0    0  0.20675382584E+02 -0.23729959756E+02 -0.32226248302E+02  0.46142317470E+02  0.99999973437E+01 0.  0.
        -12    1    1    2    0    0 -0.20675382584E+02  0.23729959756E+02  0.32226248302E+02  0.45045682530E+02  0.00000000000E+00 0.  1.
         11    1    3    3    0    0  0.96818122442E+01 -0.13547663291E+02 -0.14608142272E+02  0.22151173555E+02  0.51100000000E-03 0. -1.
        -11    1    3    3    0    0  0.49514831249E+01 -0.56906464579E+01 -0.13358013917E+02  0.15340703319E+02  0.51100000000E-03 0.  1.
        -12    1    3    3    0    0  0.60420872145E+01 -0.44916500062E+01 -0.42600921137E+01  0.86504405958E+01  0.00000000000E+00 0.  1.
</event>
<event>
 7    1  0.1519238E-008  0.4614232E+02  0.7816164E-02  0.1320468E+00
        -11   -1    0    0    0    0  0.00000000000E+00  0.00000000000E+00  0.45593999997E+02  0.45594000000E+02  0.51100000000E-03 0. -1.
         11   -1    0    0    0    0 -0.00000000000E+00 -0.00000000000E+00 -0.45593999997E+02  0.45594000000E+02  0.51100000000E-03 0.  1.
    9900012    2    1    2    0    0  0.32426403218E+02 -0.28724193350E+02  0.12351622048E+02  0.46142317893E+02  0.10000001201E+02 0.  0.
        -12    1    1    2    0    0 -0.32426403218E+02  0.28724193350E+02 -0.12351622048E+02  0.45045682107E+02  0.00000000000E+00 0.  1.
         11    1    3    3    0    0  0.13556132631E+02 -0.11235838684E+02  0.91666001860E+01  0.19850424733E+02  0.51100000000E-03 0. -1.
        -11    1    3    3    0    0  0.11227027461E+02 -0.86253704440E+01 -0.18785135041E-01  0.14157807530E+02  0.51100000000E-03 0.  1.
         12    1    3    3    0    0  0.76432431260E+01 -0.88629842222E+01  0.32038069975E+01  0.12134085630E+02  0.00000000000E+00 0. -1.
</event>
<event>
 7    1  0.1519238E-008  0.4614232E+02  0.7816164E-02  0.1320468E+00
        -11   -1    0    0    0    0  0.00000000000E+00  0.00000000000E+00  0.45593999997E+02  0.45594000000E+02  0.51100000000E-03 0.  1.
         11   -1    0    0    0    0 -0.00000000000E+00 -0.00000000000E+00 -0.45593999997E+02  0.45594000000E+02  0.51100000000E-03 0. -1.
    9900012    2    1    2    0    0 -0.20220764385E+02  0.40225450154E+02 -0.14653506839E+01  0.46142318686E+02  0.10000008437E+02 0.  0.
        -12    1    1    2    0    0  0.20220764385E+02 -0.40225450154E+02  0.14653506839E+01  0.45045681314E+02  0.00000000000E+00 0.  1.
         11    1    3    3    0    0 -0.10340680166E+02  0.25658395069E+02  0.15636292569E+00  0.27664189008E+02  0.51100000000E-03 0. -1.
        -11    1    3    3    0    0 -0.11373757716E+01  0.61977448163E+01 -0.70494259561E+00  0.63405527187E+01  0.51100000000E-03 0.  1.
         12    1    3    3    0    0 -0.87427084479E+01  0.83693102680E+01 -0.91677101396E+00  0.12137576960E+02  0.00000000000E+00 0. -1.
</event>
<event>
 7    1  0.1519238E-008  0.4614232E+02  0.7816164E-02  0.1320468E+00
        -11   -1    0    0    0    0  0.00000000000E+00  0.00000000000E+00  0.45593999997E+02  0.45594000000E+02  0.51100000000E-03 0.  1.
         11   -1    0    0    0    0 -0.00000000000E+00 -0.00000000000E+00 -0.45593999997E+02  0.45594000000E+02  0.51100000000E-03 0. -1.
    9900012    2    1    2    0    0 -0.40269707740E+00 -0.60464238000E+01 -0.44636219969E+02  0.46142317201E+02  0.99999948902E+01 0.  0.
        -12    1    1    2    0    0  0.40269707740E+00  0.60464238000E+01  0.44636219969E+02  0.45045682799E+02  0.00000000000E+00 0.  1.
         11    1    3    3    0    0 -0.27759572725E+01 -0.64061220842E+01 -0.28067773673E+02  0.28923074839E+02  0.51100000000E-03 0. -1.
        -11    1    3    3    0    0  0.33380709403E+01  0.80678817038E+00 -0.14403501700E+02  0.14807244383E+02  0.51100000000E-03 0.  1.
        -12    1    3    3    0    0 -0.96481074524E+00 -0.44708988614E+00 -0.21649445969E+01  0.24119979785E+01  0.00000000000E+00 0.  1.
</event>
<event>
 7    1  0.1519238E-008  0.4614232E+02  0.7816164E-02  0.1320468E+00
        -11   -1    0    0    0    0  0.00000000000E+00  0.00000000000E+00  0.45593999997E+02  0.45594000000E+02  0.51100000000E-03 0.  1.
         11   -1    0    0    0    0 -0.00000000000E+00 -0.00000000000E+00 -0.45593999997E+02  0.45594000000E+02  0.51100000000E-03 0. -1.
    9900012    2    1    2    0    0  0.10707952097E+02 -0.42656310288E+01 -0.43546040387E+02  0.46142317859E+02  0.10000000894E+02 0.  0.
        -12    1    1    2    0    0 -0.10707952097E+02  0.42656310288E+01  0.43546040387E+02  0.45045682141E+02  0.00000000000E+00 0.  1.
         11    1    3    3    0    0  0.71167202636E+00  0.13996003340E+01 -0.18477805177E+01  0.24247992228E+01  0.51100000000E-03 0. -1.
        -11    1    3    3    0    0  0.10637259943E+01  0.38114506365E+00 -0.71179705113E+00  0.13354549238E+01  0.51100000000E-03 0.  1.
         12    1    3    3    0    0  0.89325540766E+01 -0.60463764265E+01 -0.40986462818E+02  0.42382063712E+02  0.00000000000E+00 0. -1.
</event>
<event>
 7    1  0.1519238E-008  0.4614232E+02  0.7816164E-02  0.1320468E+00
        -11   -1    0    0    0    0  0.00000000000E+00  0.00000000000E+00  0.45593999997E+02  0.45594000000E+02  0.51100000000E-03 0. -1.
         11   -1    0    0    0    0 -0.00000000000E+00 -0.00000000000E+00 -0.45593999997E+02  0.45594000000E+02  0.51100000000E-03 0.  1.
    9900012    2    1    2    0    0 -0.40588341767E+02 -0.15122172931E+02  0.12370116870E+02  0.46142318820E+02  0.10000009658E+02 0.  0.
        -12    1    1    2    0    0  0.40588341767E+02  0.15122172931E+02 -0.12370116870E+02  0.45045681180E+02  0.00000000000E+00 0.  1.
         11    1    3    3    0    0 -0.90671578928E+01 -0.56954808991E+01  0.55014172959E+01  0.12038166283E+02  0.51100000000E-03 0. -1.
        -11    1    3    3    0    0 -0.15384903290E+02 -0.75318301007E+01  0.42293685340E+01  0.17644015200E+02  0.51100000000E-03 0.  1.
         12    1    3    3    0    0 -0.16136280585E+02 -0.18948619311E+01  0.26393310397E+01  0.16460137338E+02  0.00000000000E+00 0. -1.
</event>
<event>
 7    1  0.1519238E-008  0.4614232E+02  0.7816164E-02  0.1320468E+00
        -11   -1    0    0    0    0  0.00000000000E+00  0.00000000000E+00  0.45593999997E+02  0.45594000000E+02  0.51100000000E-03 0.  1.
         11   -1    0    0    0    0 -0.00000000000E+00 -0.00000000000E+00 -0.45593999997E+02  0.45594000000E+02  0.51100000000E-03 0. -1.
    9900012    2    1    2    0    0 -0.40359706226E+02  0.25402759909E+01 -0.19843256596E+02  0.46142315178E+02  0.99999764483E+01 0.  0.
        -12    1    1    2    0    0  0.40359706226E+02 -0.25402759909E+01  0.19843256596E+02  0.45045684822E+02  0.00000000000E+00 0.  1.
         11    1    3    3    0    0 -0.98222374103E+01  0.33054465885E+01 -0.52419552648E+01  0.11613803001E+02  0.51100000000E-03 0. -1.
        -11    1    3    3    0    0 -0.24695616268E+01 -0.20072228844E+01 -0.17733370630E+01  0.36431309249E+01  0.51100000000E-03 0.  1.
         12    1    3    3    0    0 -0.28067907189E+02  0.12420522869E+01 -0.12827964268E+02  0.30885381252E+02  0.00000000000E+00 0. -1.
</event>
<event>
 7    1  0.1519238E-008  0.4614232E+02  0.7816164E-02  0.1320468E+00
        -11   -1    0    0    0    0  0.00000000000E+00  0.00000000000E+00  0.45593999997E+02  0.45594000000E+02  0.51100000000E-03 0.  1.
         11   -1    0    0    0    0 -0.00000000000E+00 -0.00000000000E+00 -0.45593999997E+02  0.45594000000E+02  0.51100000000E-03 0. -1.
    9900012    2    1    2    0    0  0.24409088944E+02 -0.43537044634E+01 -0.37607914060E+02  0.46142316904E+02  0.99999921858E+01 0.  0.
        -12    1    1    2    0    0 -0.24409088944E+02  0.43537044634E+01  0.37607914060E+02  0.45045683096E+02  0.00000000000E+00 0.  1.
         11    1    3    3    0    0  0.15445797655E+02 -0.98833212365E+00 -0.26260597599E+02  0.30482264550E+02  0.51100000000E-03 0. -1.
        -11    1    3    3    0    0  0.78613041248E+01 -0.29191144939E+01 -0.63377780648E+01  0.10511363519E+02  0.51100000000E-03 0.  1.
        -12    1    3    3    0    0  0.11019871637E+01 -0.44625784585E+00 -0.50095383961E+01  0.51486888347E+01  0.00000000000E+00 0.  1.
</event>
<event>
 7    1  0.1519238E-008  0.4614232E+02  0.7816164E-02  0.1320468E+00
        -11   -1    0    0    0    0  0.00000000000E+00  0.00000000000E+00  0.45593999997E+02  0.45594000000E+02  0.51100000000E-03 0.  1.
         11   -1    0    0    0    0 -0.00000000000E+00 -0.00000000000E+00 -0.45593999997E+02  0.45594000000E+02  0.51100000000E-03 0. -1.
    9900012    2    1    2    0    0  0.26627820140E+02  0.28400309838E+02 -0.22660432018E+02  0.46142316705E+02  0.99999903671E+01 0.  0.
        -12    1    1    2    0    0 -0.26627820140E+02 -0.28400309838E+02  0.22660432018E+02  0.45045683295E+02  0.00000000000E+00 0.  1.
         11    1    3    3    0    0  0.20005396695E+02  0.17270726503E+02 -0.18052305001E+02  0.32005930809E+02  0.51100000000E-03 0. -1.
        -11    1    3    3    0    0  0.66810270755E+01  0.11108120233E+02 -0.48851060757E+01  0.13852462580E+02  0.51100000000E-03 0.  1.
        -12    1    3    3    0    0 -0.58603630779E-01  0.21463102527E-01  0.27697905860E+00  0.28392331573E+00  0.00000000000E+00 0.  1.
</event>
<event>
 7    1  0.1519238E-008  0.4614232E+02  0.7816164E-02  0.1320468E+00
        -11   -1    0    0    0    0  0.00000000000E+00  0.00000000000E+00  0.45593999997E+02  0.45594000000E+02  0.51100000000E-03 0. -1.
         11   -1    0    0    0    0 -0.00000000000E+00 -0.00000000000E+00 -0.45593999997E+02  0.45594000000E+02  0.51100000000E-03 0.  1.
    9900012    2    1    2    0    0  0.36860591607E+01  0.16228534052E+02  0.41858823465E+02  0.46142318171E+02  0.10000003734E+02 0.  0.
        -12    1    1    2    0    0 -0.36860591607E+01 -0.16228534052E+02 -0.41858823465E+02  0.45045681829E+02  0.00000000000E+00 0.  1.
         11    1    3    3    0    0  0.27296341110E+01  0.63742814530E+01  0.14680396710E+02  0.16235652566E+02  0.51100000000E-03 0. -1.
        -11    1    3    3    0    0 -0.30359580797E+01  0.20100549842E+01  0.69407754364E+01  0.78378393975E+01  0.51100000000E-03 0.  1.
        -12    1    3    3    0    0  0.39923831294E+01  0.78441976151E+01  0.20237651318E+02  0.22068826207E+02  0.00000000000E+00 0.  1.
</event>
<event>
 7    1  0.1519238E-008  0.4614232E+02  0.7816164E-02  0.1320468E+00
        -11   -1    0    0    0    0  0.00000000000E+00  0.00000000000E+00  0.45593999997E+02  0.45594000000E+02  0.51100000000E-03 0. -1.
         11   -1    0    0    0    0 -0.00000000000E+00 -0.00000000000E+00 -0.45593999997E+02  0.45594000000E+02  0.51100000000E-03 0.  1.
    9900012    2    1    2    0    0  0.37009749677E+02 -0.12495607237E+02  0.22433271294E+02  0.46142318384E+02  0.10000005675E+02 0.  0.
        -12    1    1    2    0    0 -0.37009749677E+02  0.12495607237E+02 -0.22433271294E+02  0.45045681616E+02  0.00000000000E+00 0.  1.
         11    1    3    3    0    0  0.11861129735E+01  0.11351376795E+01  0.16377245353E+01  0.23189530939E+01  0.51100000000E-03 0. -1.
        -11    1    3    3    0    0  0.68998591647E+01 -0.86741573813E+00  0.40533824613E+01  0.80492469334E+01  0.51100000000E-03 0.  1.
         12    1    3    3    0    0  0.28923777539E+02 -0.12763329178E+02  0.16742164297E+02  0.35774118356E+02  0.00000000000E+00 0. -1.
</event>
<event>
 7    1  0.1519238E-008  0.4614232E+02  0.7816164E-02  0.1320468E+00
        -11   -1    0    0    0    0  0.00000000000E+00  0.00000000000E+00  0.45593999997E+02  0.45594000000E+02  0.51100000000E-03 0.  1.
         11   -1    0    0    0    0 -0.00000000000E+00 -0.00000000000E+00 -0.45593999997E+02  0.45594000000E+02  0.51100000000E-03 0. -1.
    9900012    2    1    2    0    0 -0.41245638651E+01 -0.14195282788E+02 -0.42551091939E+02  0.46142317569E+02  0.99999982485E+01 0.  0.
        -12    1    1    2    0    0  0.41245638651E+01  0.14195282788E+02  0.42551091939E+02  0.45045682431E+02  0.00000000000E+00 0.  1.
         11    1    3    3    0    0 -0.27145691803E+01 -0.12326699796E+02 -0.21305123216E+02  0.24763373946E+02  0.51100000000E-03 0. -1.
        -11    1    3    3    0    0 -0.97356026956E+00 -0.15536713376E+01 -0.17163247691E+02  0.17260903389E+02  0.51100000000E-03 0.  1.
         12    1    3    3    0    0 -0.43643441525E+00 -0.31491165424E+00 -0.40827210314E+01  0.41180402340E+01  0.00000000000E+00 0. -1.
</event>
<event>
 7    1  0.1519238E-008  0.4614232E+02  0.7816164E-02  0.1320468E+00
        -11   -1    0    0    0    0  0.00000000000E+00  0.00000000000E+00  0.45593999997E+02  0.45594000000E+02  0.51100000000E-03 0.  1.
         11   -1    0    0    0    0 -0.00000000000E+00 -0.00000000000E+00 -0.45593999997E+02  0.45594000000E+02  0.51100000000E-03 0. -1.
    9900012    2    1    2    0    0  0.16824181896E+02  0.17559986709E+02 -0.37917110684E+02  0.46142317495E+02  0.99999975779E+01 0.  0.
        -12    1    1    2    0    0 -0.16824181896E+02 -0.17559986709E+02  0.37917110684E+02  0.45045682505E+02  0.00000000000E+00 0.  1.
         11    1    3    3    0    0  0.12710638207E+02  0.13890062000E+02 -0.27727763502E+02  0.33516011324E+02  0.51100000000E-03 0. -1.
        -11    1    3    3    0    0  0.61897913366E-01  0.29174583192E+00  0.57001705123E+00  0.64332470957E+00  0.51100000000E-03 0.  1.
         12    1    3    3    0    0  0.40516457763E+01  0.33781788772E+01 -0.10759364233E+02  0.11982981462E+02  0.00000000000E+00 0. -1.
</event>
<event>
 7    1  0.1519238E-008  0.4614232E+02  0.7816164E-02  0.1320468E+00
        -11   -1    0    0    0    0  0.00000000000E+00  0.00000000000E+00  0.45593999997E+02  0.45594000000E+02  0.51100000000E-03 0.  1.
         11   -1    0    0    0    0 -0.00000000000E+00 -0.00000000000E+00 -0.45593999997E+02  0.45594000000E+02  0.51100000000E-03 0. -1.
    9900012    2    1    2    0    0 -0.20542098874E+02  0.10453252450E+02 -0.38702261507E+02  0.46142319201E+02  0.10000013126E+02 0.  0.
        -12    1    1    2    0    0  0.20542098874E+02 -0.10453252450E+02  0.38702261507E+02  0.45045680799E+02  0.00000000000E+00 0.  1.
         11    1    3    3    0    0 -0.35719835220E+01  0.20495511399E+01 -0.14397848628E+02  0.14975238613E+02  0.51100000000E-03 0. -1.
        -11    1    3    3    0    0  0.28256311523E+00  0.32978059734E+00 -0.32373382058E+00  0.54166502949E+00  0.51100000000E-03 0.  1.
         12    1    3    3    0    0 -0.17252678468E+02  0.80739207123E+01 -0.23980679059E+02  0.30625415558E+02  0.00000000000E+00 0. -1.
</event>
<event>
 7    1  0.1519238E-008  0.4614231E+02  0.7816164E-02  0.1320468E+00
        -11   -1    0    0    0    0  0.00000000000E+00  0.00000000000E+00  0.45593999997E+02  0.45594000000E+02  0.51100000000E-03 0. -1.
         11   -1    0    0    0    0 -0.00000000000E+00 -0.00000000000E+00 -0.45593999997E+02  0.45594000000E+02  0.51100000000E-03 0.  1.
    9900012    2    1    2    0    0  0.15351717283E+02 -0.14512315968E+02  0.39784813371E+02  0.46142313046E+02  0.99999569996E+01 0.  0.
        -12    1    1    2    0    0 -0.15351717283E+02  0.14512315968E+02 -0.39784813371E+02  0.45045686954E+02  0.00000000000E+00 0.  1.
         11    1    3    3    0    0 -0.12562123719E+00  0.44714129182E+00  0.41389106232E+00  0.62211100510E+00  0.51100000000E-03 0.  1.
        -11    1    3    3    0    0  0.37959933772E+01 -0.64685794390E+01  0.19989396647E+02  0.21350130310E+02  0.51100000000E-03 0. -1.
        -12    1    3    3    0    0  0.11681345143E+02 -0.84908778204E+01  0.19381525661E+02  0.24170071731E+02  0.00000000000E+00 0.  1.
</event>
<event>
 7    1  0.1519238E-008  0.4614232E+02  0.7816164E-02  0.1320468E+00
        -11   -1    0    0    0    0  0.00000000000E+00  0.00000000000E+00  0.45593999997E+02  0.45594000000E+02  0.51100000000E-03 0.  1.
         11   -1    0    0    0    0 -0.00000000000E+00 -0.00000000000E+00 -0.45593999997E+02  0.45594000000E+02  0.51100000000E-03 0. -1.
    9900012    2    1    2    0    0 -0.22464024676E+02  0.30985238695E+02 -0.23757022196E+02  0.46142317352E+02  0.99999962654E+01 0.  0.
        -12    1    1    2    0    0  0.22464024676E+02 -0.30985238695E+02  0.23757022196E+02  0.45045682648E+02  0.00000000000E+00 0.  1.
         11    1    3    3    0    0  0.35305418154E+00  0.22925273524E+01 -0.10663744411E+01  0.25529362754E+01  0.51100000000E-03 0. -1.
        -11    1    3    3    0    0 -0.18034271530E+02  0.21906500261E+02 -0.14257980195E+02  0.31755624743E+02  0.51100000000E-03 0.  1.
         12    1    3    3    0    0 -0.47828073268E+01  0.67862110817E+01 -0.84326675598E+01  0.11833756333E+02  0.00000000000E+00 0. -1.
</event>
<event>
 7    1  0.1519238E-008  0.4614232E+02  0.7816164E-02  0.1320468E+00
        -11   -1    0    0    0    0  0.00000000000E+00  0.00000000000E+00  0.45593999997E+02  0.45594000000E+02  0.51100000000E-03 0.  1.
         11   -1    0    0    0    0 -0.00000000000E+00 -0.00000000000E+00 -0.45593999997E+02  0.45594000000E+02  0.51100000000E-03 0. -1.
    9900012    2    1    2    0    0 -0.63672209528E+01  0.22348225997E+02 -0.38589231441E+02  0.46142317731E+02  0.99999997283E+01 0.  0.
        -12    1    1    2    0    0  0.63672209528E+01 -0.22348225997E+02  0.38589231441E+02  0.45045682269E+02  0.00000000000E+00 0.  1.
         11    1    3    3    0    0 -0.58458182185E+00  0.11497557800E+02 -0.14216980687E+02  0.18293663149E+02  0.51100000000E-03 0. -1.
        -11    1    3    3    0    0 -0.59776777468E+01  0.59216469712E+01 -0.13465146031E+02  0.15877930973E+02  0.51100000000E-03 0.  1.
         12    1    3    3    0    0  0.19503861591E+00  0.49290212252E+01 -0.10907104723E+02  0.11970723609E+02  0.00000000000E+00 0. -1.
</event>
<event>
 7    1  0.1519238E-008  0.4614232E+02  0.7816164E-02  0.1320468E+00
        -11   -1    0    0    0    0  0.00000000000E+00  0.00000000000E+00  0.45593999997E+02  0.45594000000E+02  0.51100000000E-03 0.  1.
         11   -1    0    0    0    0 -0.00000000000E+00 -0.00000000000E+00 -0.45593999997E+02  0.45594000000E+02  0.51100000000E-03 0. -1.
    9900012    2    1    2    0    0 -0.38539489078E+02  0.16996999726E+02 -0.15966317392E+02  0.46142317530E+02  0.99999978953E+01 0.  0.
        -12    1    1    2    0    0  0.38539489078E+02 -0.16996999726E+02  0.15966317392E+02  0.45045682470E+02  0.00000000000E+00 0.  1.
         11    1    3    3    0    0 -0.21215873154E+02  0.47633928879E+01 -0.76705249511E+01  0.23057322888E+02  0.51100000000E-03 0. -1.
        -11    1    3    3    0    0 -0.77892403733E+01  0.59274477084E+01 -0.58236537031E+01  0.11389549800E+02  0.51100000000E-03 0.  1.
         12    1    3    3    0    0 -0.95343755513E+01  0.63061591295E+01 -0.24721387376E+01  0.11695444842E+02  0.00000000000E+00 0. -1.
</event>
<event>
 7    1  0.1519238E-008  0.4614232E+02  0.7816164E-02  0.1320468E+00
        -11   -1    0    0    0    0  0.00000000000E+00  0.00000000000E+00  0.45593999997E+02  0.45594000000E+02  0.51100000000E-03 0.  1.
         11   -1    0    0    0    0 -0.00000000000E+00 -0.00000000000E+00 -0.45593999997E+02  0.45594000000E+02  0.51100000000E-03 0. -1.
    9900012    2    1    2    0    0  0.18235316359E+02 -0.83926820464E+01 -0.40325545586E+02  0.46142317616E+02  0.99999986742E+01 0.  0.
        -12    1    1    2    0    0 -0.18235316359E+02  0.83926820464E+01  0.40325545586E+02  0.45045682384E+02  0.00000000000E+00 0.  1.
         11    1    3    3    0    0  0.31709842192E+01 -0.51227869493E+01 -0.70127168083E+01  0.92453385196E+01  0.51100000000E-03 0. -1.
        -11    1    3    3    0    0  0.88846930291E+01 -0.40532239555E-01 -0.18164520668E+02  0.20221009482E+02  0.51100000000E-03 0.  1.
        -12    1    3    3    0    0  0.61796391104E+01 -0.32293628575E+01 -0.15148308110E+02  0.16675969614E+02  0.00000000000E+00 0.  1.
</event>
<event>
 7    1  0.1519238E-008  0.4614232E+02  0.7816164E-02  0.1320468E+00
        -11   -1    0    0    0    0  0.00000000000E+00  0.00000000000E+00  0.45593999997E+02  0.45594000000E+02  0.51100000000E-03 0. -1.
         11   -1    0    0    0    0 -0.00000000000E+00 -0.00000000000E+00 -0.45593999997E+02  0.45594000000E+02  0.51100000000E-03 0.  1.
    9900012    2    1    2    0    0 -0.37788146145E+02 -0.19453457587E+02  0.14924219693E+02  0.46142319468E+02  0.10000015565E+02 0.  0.
        -12    1    1    2    0    0  0.37788146145E+02  0.19453457587E+02 -0.14924219693E+02  0.45045680532E+02  0.00000000000E+00 0.  1.
         11    1    3    3    0    0 -0.18810001399E+02 -0.66025125552E+01  0.87445740033E+01  0.21768713776E+02  0.51100000000E-03 0. -1.
        -11    1    3    3    0    0 -0.98238225362E+01 -0.99197656437E+01  0.34372121271E+01  0.14377888131E+02  0.51100000000E-03 0.  1.
        -12    1    3    3    0    0 -0.91543222092E+01 -0.29311793880E+01  0.27424335629E+01  0.99957175611E+01  0.00000000000E+00 0.  1.
</event>
<event>
 7    1  0.1519238E-008  0.4614232E+02  0.7816164E-02  0.1320468E+00
        -11   -1    0    0    0    0  0.00000000000E+00  0.00000000000E+00  0.45593999997E+02  0.45594000000E+02  0.51100000000E-03 0.  1.
         11   -1    0    0    0    0 -0.00000000000E+00 -0.00000000000E+00 -0.45593999997E+02  0.45594000000E+02  0.51100000000E-03 0. -1.
    9900012    2    1    2    0    0  0.18058632621E+02  0.39380583789E+02 -0.12335677154E+02  0.46142317381E+02  0.99999965346E+01 0.  0.
        -12    1    1    2    0    0 -0.18058632621E+02 -0.39380583789E+02  0.12335677154E+02  0.45045682619E+02  0.00000000000E+00 0.  1.
         11    1    3    3    0    0  0.79001988337E+01  0.15750053350E+02 -0.96480816474E+01  0.20088872589E+02  0.51100000000E-03 0. -1.
        -11    1    3    3    0    0  0.63637027981E+01  0.12721411247E+02 -0.13732814672E+00  0.14224973698E+02  0.51100000000E-03 0.  1.
         12    1    3    3    0    0  0.37947309897E+01  0.10909119192E+02 -0.25502673600E+01  0.11828471094E+02  0.00000000000E+00 0. -1.
</event>
<event>
 7    1  0.1519238E-008  0.4614232E+02  0.7816164E-02  0.1320468E+00
        -11   -1    0    0    0    0  0.00000000000E+00  0.00000000000E+00  0.45593999997E+02  0.45594000000E+02  0.51100000000E-03 0.  1.
         11   -1    0    0    0    0 -0.00000000000E+00 -0.00000000000E+00 -0.45593999997E+02  0.45594000000E+02  0.51100000000E-03 0. -1.
    9900012    2    1    2    0    0 -0.45061714012E+01  0.77041143951E+00 -0.44813105580E+02  0.46142317119E+02  0.99999941478E+01 0.  0.
        -12    1    1    2    0    0  0.45061714012E+01 -0.77041143951E+00  0.44813105580E+02  0.45045682881E+02  0.00000000000E+00 0.  1.
         11    1    3    3    0    0 -0.11157036482E+01  0.91800975059E+00 -0.25425983501E+02  0.25467001664E+02  0.51100000000E-03 0. -1.
        -11    1    3    3    0    0 -0.50710896131E+01  0.30425381734E-01 -0.10904993841E+02  0.12026461097E+02  0.51100000000E-03 0.  1.
         12    1    3    3    0    0  0.16806218600E+01 -0.17802369281E+00 -0.84821282378E+01  0.86488543585E+01  0.00000000000E+00 0. -1.
</event>
<event>
 7    1  0.1519238E-008  0.4614232E+02  0.7816164E-02  0.1320468E+00
        -11   -1    0    0    0    0  0.00000000000E+00  0.00000000000E+00  0.45593999997E+02  0.45594000000E+02  0.51100000000E-03 0.  1.
         11   -1    0    0    0    0 -0.00000000000E+00 -0.00000000000E+00 -0.45593999997E+02  0.45594000000E+02  0.51100000000E-03 0. -1.
    9900012    2    1    2    0    0 -0.31087956781E+02  0.13615496234E+02 -0.29618757117E+02  0.46142316881E+02  0.99999919763E+01 0.  0.
        -12    1    1    2    0    0  0.31087956781E+02 -0.13615496234E+02  0.29618757117E+02  0.45045683119E+02  0.00000000000E+00 0.  1.
         11    1    3    3    0    0 -0.12115637667E+02  0.58785800942E+01 -0.16044936951E+02  0.20947228505E+02  0.51100000000E-03 0. -1.
        -11    1    3    3    0    0 -0.13554958883E+02  0.77204298834E+01 -0.84623628584E+01  0.17746930250E+02  0.51100000000E-03 0.  1.
         12    1    3    3    0    0 -0.54173602311E+01  0.16486256128E-01 -0.51114573070E+01  0.74481581261E+01  0.00000000000E+00 0. -1.
</event>
<event>
 7    1  0.1519238E-008  0.4614232E+02  0.7816164E-02  0.1320468E+00
        -11   -1    0    0    0    0  0.00000000000E+00  0.00000000000E+00  0.45593999997E+02  0.45594000000E+02  0.51100000000E-03 0.  1.
         11   -1    0    0    0    0 -0.00000000000E+00 -0.00000000000E+00 -0.45593999997E+02  0.45594000000E+02  0.51100000000E-03 0. -1.
    9900012    2    1    2    0    0 -0.20297129905E+02 -0.34489797186E+02 -0.20678340860E+02  0.46142319041E+02  0.10000011675E+02 0.  0.
        -12    1    1    2    0    0  0.20297129905E+02  0.34489797186E+02  0.20678340860E+02  0.45045680959E+02  0.00000000000E+00 0.  1.
         11    1    3    3    0    0 -0.29076757051E+01 -0.99427336215E+01 -0.73812777482E+01  0.12719897458E+02  0.51100000000E-03 0. -1.
        -11    1    3    3    0    0 -0.21168446932E+01 -0.72787425232E+01 -0.39347875553E+01  0.85407070866E+01  0.51100000000E-03 0.  1.
         12    1    3    3    0    0 -0.15272609507E+02 -0.17268321041E+02 -0.93622755565E+01  0.24881714497E+02  0.00000000000E+00 0. -1.
</event>
<event>
 7    1  0.1519238E-008  0.4614232E+02  0.7816164E-02  0.1320468E+00
        -11   -1    0    0    0    0  0.00000000000E+00  0.00000000000E+00  0.45593999997E+02  0.45594000000E+02  0.51100000000E-03 0.  1.
         11   -1    0    0    0    0 -0.00000000000E+00 -0.00000000000E+00 -0.45593999997E+02  0.45594000000E+02  0.51100000000E-03 0. -1.
    9900012    2    1    2    0    0 -0.16166606942E+02 -0.28748771697E+02 -0.30679998341E+02  0.46142319271E+02  0.10000013769E+02 0.  0.
        -12    1    1    2    0    0  0.16166606942E+02  0.28748771697E+02  0.30679998341E+02  0.45045680729E+02  0.00000000000E+00 0.  1.
         11    1    3    3    0    0 -0.69053997956E+01 -0.10304037645E+02 -0.11894516924E+02  0.17185379578E+02  0.51100000000E-03 0. -1.
        -11    1    3    3    0    0 -0.64672685444E+01 -0.51520678068E+01 -0.53302725851E+01  0.98377421802E+01  0.51100000000E-03 0.  1.
        -12    1    3    3    0    0 -0.27939386021E+01 -0.13292666245E+02 -0.13455208832E+02  0.19119197513E+02  0.00000000000E+00 0.  1.
</event>
<event>
 7    1  0.1519238E-008  0.4614232E+02  0.7816164E-02  0.1320468E+00
        -11   -1    0    0    0    0  0.00000000000E+00  0.00000000000E+00  0.45593999997E+02  0.45594000000E+02  0.51100000000E-03 0. -1.
         11   -1    0    0    0    0 -0.00000000000E+00 -0.00000000000E+00 -0.45593999997E+02  0.45594000000E+02  0.51100000000E-03 0.  1.
    9900012    2    1    2    0    0 -0.27925382145E+02 -0.35218353115E+02  0.29923413433E+01  0.46142317956E+02  0.10000001781E+02 0.  0.
        -12    1    1    2    0    0  0.27925382145E+02  0.35218353115E+02 -0.29923413433E+01  0.45045682044E+02  0.00000000000E+00 0.  1.
         11    1    3    3    0    0 -0.96457464598E+01 -0.13243014464E+02  0.51613968920E+01  0.17177248761E+02  0.51100000000E-03 0. -1.
        -11    1    3    3    0    0 -0.14467618376E+02 -0.19359345067E+02 -0.26681056723E+01  0.24314913346E+02  0.51100000000E-03 0.  1.
        -12    1    3    3    0    0 -0.38120173093E+01 -0.26159935838E+01  0.49905012361E+00  0.46501558493E+01  0.00000000000E+00 0.  1.
</event>
<event>
 7    1  0.1519238E-008  0.4614232E+02  0.7816164E-02  0.1320468E+00
        -11   -1    0    0    0    0  0.00000000000E+00  0.00000000000E+00  0.45593999997E+02  0.45594000000E+02  0.51100000000E-03 0.  1.
         11   -1    0    0    0    0 -0.00000000000E+00 -0.00000000000E+00 -0.45593999997E+02  0.45594000000E+02  0.51100000000E-03 0. -1.
    9900012    2    1    2    0    0  0.21010026408E+02 -0.32226341763E+02 -0.23434061049E+02  0.46142317295E+02  0.99999957506E+01 0.  0.
        -12    1    1    2    0    0 -0.21010026408E+02  0.32226341763E+02  0.23434061049E+02  0.45045682705E+02  0.00000000000E+00 0.  1.
         11    1    3    3    0    0  0.11445493631E+02 -0.24541450359E+02 -0.16857593410E+02  0.31897657689E+02  0.51100000000E-03 0. -1.
        -11    1    3    3    0    0  0.77132829413E+01 -0.72436536421E+01 -0.63180639615E+01  0.12324089593E+02  0.51100000000E-03 0.  1.
         12    1    3    3    0    0  0.18512498352E+01 -0.44123776182E+00 -0.25840367817E+00  0.19205700132E+01  0.00000000000E+00 0. -1.
</event>
<event>
 7    1  0.1519238E-008  0.4614232E+02  0.7816164E-02  0.1320468E+00
        -11   -1    0    0    0    0  0.00000000000E+00  0.00000000000E+00  0.45593999997E+02  0.45594000000E+02  0.51100000000E-03 0. -1.
         11   -1    0    0    0    0 -0.00000000000E+00 -0.00000000000E+00 -0.45593999997E+02  0.45594000000E+02  0.51100000000E-03 0.  1.
    9900012    2    1    2    0    0 -0.42034057913E+02  0.12701679814E+02  0.10045833848E+02  0.46142317938E+02  0.10000001610E+02 0.  0.
        -12    1    1    2    0    0  0.42034057913E+02 -0.12701679814E+02 -0.10045833848E+02  0.45045682062E+02  0.00000000000E+00 0.  1.
         11    1    3    3    0    0 -0.46162956242E+01  0.17627231470E+01  0.16410407506E+01  0.52067641765E+01  0.51100000000E-03 0. -1.
        -11    1    3    3    0    0 -0.25472428159E+02  0.37489217126E+01  0.27616152415E+01  0.25894507706E+02  0.51100000000E-03 0.  1.
        -12    1    3    3    0    0 -0.11945334130E+02  0.71900349547E+01  0.56431778562E+01  0.15041046056E+02  0.00000000000E+00 0.  1.
</event>
<event>
 7    1  0.1519238E-008  0.4614231E+02  0.7816164E-02  0.1320468E+00
        -11   -1    0    0    0    0  0.00000000000E+00  0.00000000000E+00  0.45593999997E+02  0.45594000000E+02  0.51100000000E-03 0. -1.
         11   -1    0    0    0    0 -0.00000000000E+00 -0.00000000000E+00 -0.45593999997E+02  0.45594000000E+02  0.51100000000E-03 0.  1.
    9900012    2    1    2    0    0  0.26837623150E+02 -0.16628450007E+01 -0.36139877079E+02  0.46142314467E+02  0.99999699613E+01 0.  0.
        -12    1    1    2    0    0 -0.26837623150E+02  0.16628450007E+01  0.36139877079E+02  0.45045685533E+02  0.00000000000E+00 0.  1.
         11    1    3    3    0    0  0.97922364715E+01  0.55878973134E+00 -0.16113889926E+02  0.18864188026E+02  0.51100000000E-03 0. -1.
        -11    1    3    3    0    0 -0.32174562991E+00  0.26714190593E+00 -0.23001825482E+01  0.23378890189E+01  0.51100000000E-03 0.  1.
         12    1    3    3    0    0  0.17367132308E+02 -0.24887766380E+01 -0.17725804606E+02  0.24940237422E+02  0.00000000000E+00 0. -1.
</event>
<event>
 7    1  0.1519238E-008  0.4614232E+02  0.7816164E-02  0.1320468E+00
        -11   -1    0    0    0    0  0.00000000000E+00  0.00000000000E+00  0.45593999997E+02  0.45594000000E+02  0.51100000000E-03 0. -1.
         11   -1    0    0    0    0 -0.00000000000E+00 -0.00000000000E+00 -0.45593999997E+02  0.45594000000E+02  0.51100000000E-03 0.  1.
    9900012    2    1    2    0    0  0.28400610025E+02  0.29736043955E+02  0.18392567200E+02  0.46142317764E+02  0.10000000024E+02 0.  0.
        -12    1    1    2    0    0 -0.28400610025E+02 -0.29736043955E+02 -0.18392567200E+02  0.45045682236E+02  0.00000000000E+00 0.  1.
         11    1    3    3    0    0  0.19233170443E+02  0.17698906284E+02  0.13500075546E+02  0.29417990566E+02  0.51100000000E-03 0. -1.
        -11    1    3    3    0    0  0.72955287407E+00 -0.25592582002E+00 -0.43948834399E+00  0.88932316232E+00  0.51100000000E-03 0.  1.
        -12    1    3    3    0    0  0.84378867079E+01  0.12293063491E+02  0.53319799984E+01  0.15835004035E+02  0.00000000000E+00 0.  1.
</event>
<event>
 7    1  0.1519238E-008  0.4614232E+02  0.7816164E-02  0.1320468E+00
        -11   -1    0    0    0    0  0.00000000000E+00  0.00000000000E+00  0.45593999997E+02  0.45594000000E+02  0.51100000000E-03 0.  1.
         11   -1    0    0    0    0 -0.00000000000E+00 -0.00000000000E+00 -0.45593999997E+02  0.45594000000E+02  0.51100000000E-03 0. -1.
    9900012    2    1    2    0    0 -0.83542780378E+01  0.43935688018E+02 -0.53828264853E+01  0.46142318030E+02  0.10000002451E+02 0.  0.
        -12    1    1    2    0    0  0.83542780378E+01 -0.43935688018E+02  0.53828264853E+01  0.45045681970E+02  0.00000000000E+00 0.  1.
         11    1    3    3    0    0  0.13790855274E+00 -0.24745329602E+00  0.12688570218E+00  0.31040641934E+00  0.51100000000E-03 0. -1.
        -11    1    3    3    0    0 -0.28318116578E+01  0.50899132277E+01 -0.20700541330E+01  0.61815449772E+01  0.51100000000E-03 0.  1.
         12    1    3    3    0    0 -0.56603749327E+01  0.39093228087E+02 -0.34396580545E+01  0.39650366633E+02  0.00000000000E+00 0. -1.
</event>
<event>
 7    1  0.1519238E-008  0.4614232E+02  0.7816164E-02  0.1320468E+00
        -11   -1    0    0    0    0  0.00000000000E+00  0.00000000000E+00  0.45593999997E+02  0.45594000000E+02  0.51100000000E-03 0.  1.
         11   -1    0    0    0    0 -0.00000000000E+00 -0.00000000000E+00 -0.45593999997E+02  0.45594000000E+02  0.51100000000E-03 0. -1.
    9900012    2    1    2    0    0  0.54266054258E+01  0.43215764243E+02 -0.11491871397E+02  0.46142318367E+02  0.10000005525E+02 0.  0.
        -12    1    1    2    0    0 -0.54266054258E+01 -0.43215764243E+02  0.11491871397E+02  0.45045681633E+02  0.00000000000E+00 0.  1.
         11    1    3    3    0    0  0.61764855999E+01  0.28544241110E+02 -0.72828296402E+01  0.30099207344E+02  0.51100000000E-03 0. -1.
        -11    1    3    3    0    0  0.36459047213E+00 -0.28540839132E+00 -0.27037812392E+00  0.53617977695E+00  0.51100000000E-03 0.  1.
         12    1    3    3    0    0 -0.11144706462E+01  0.14956931524E+02 -0.39386636327E+01  0.15506931246E+02  0.00000000000E+00 0. -1.
</event>
<event>
 7    1  0.1519238E-008  0.4614232E+02  0.7816164E-02  0.1320468E+00
        -11   -1    0    0    0    0  0.00000000000E+00  0.00000000000E+00  0.45593999997E+02  0.45594000000E+02  0.51100000000E-03 0.  1.
         11   -1    0    0    0    0 -0.00000000000E+00 -0.00000000000E+00 -0.45593999997E+02  0.45594000000E+02  0.51100000000E-03 0. -1.
    9900012    2    1    2    0    0  0.35065228664E+02 -0.21363254202E+02 -0.18524432075E+02  0.46142317909E+02  0.10000001345E+02 0.  0.
        -12    1    1    2    0    0 -0.35065228664E+02  0.21363254202E+02  0.18524432075E+02  0.45045682091E+02  0.00000000000E+00 0.  1.
         11    1    3    3    0    0  0.23225857988E+02 -0.16964503046E+02 -0.14085709191E+02  0.32025646700E+02  0.51100000000E-03 0. -1.
        -11    1    3    3    0    0  0.12085234607E+02 -0.37010694037E+01 -0.40023315043E+01  0.13257807811E+02  0.51100000000E-03 0.  1.
        -12    1    3    3    0    0 -0.24586393023E+00 -0.69768175193E+00 -0.43639137966E+00  0.85886339741E+00  0.00000000000E+00 0.  1.
</event>
<event>
 7    1  0.1519238E-008  0.4614232E+02  0.7816164E-02  0.1320468E+00
        -11   -1    0    0    0    0  0.00000000000E+00  0.00000000000E+00  0.45593999997E+02  0.45594000000E+02  0.51100000000E-03 0. -1.
         11   -1    0    0    0    0 -0.00000000000E+00 -0.00000000000E+00 -0.45593999997E+02  0.45594000000E+02  0.51100000000E-03 0.  1.
    9900012    2    1    2    0    0 -0.22909941426E+02  0.38083474038E+02  0.73414665748E+01  0.46142317161E+02  0.99999945313E+01 0.  0.
        -12    1    1    2    0    0  0.22909941426E+02 -0.38083474038E+02 -0.73414665748E+01  0.45045682839E+02  0.00000000000E+00 0.  1.
         11    1    3    3    0    0 -0.13746993562E+02  0.20503695448E+02  0.29198740546E+01  0.24857735693E+02  0.51100000000E-03 0. -1.
        -11    1    3    3    0    0 -0.59604724465E+01  0.76156208236E+01  0.48311777006E+01  0.10810420461E+02  0.51100000000E-03 0.  1.
         12    1    3    3    0    0 -0.32024754179E+01  0.99641577663E+01 -0.40958518028E+00  0.10474161008E+02  0.00000000000E+00 0. -1.
</event>
<event>
 7    1  0.1519238E-008  0.4614232E+02  0.7816164E-02  0.1320468E+00
        -11   -1    0    0    0    0  0.00000000000E+00  0.00000000000E+00  0.45593999997E+02  0.45594000000E+02  0.51100000000E-03 0.  1.
         11   -1    0    0    0    0 -0.00000000000E+00 -0.00000000000E+00 -0.45593999997E+02  0.45594000000E+02  0.51100000000E-03 0. -1.
    9900012    2    1    2    0    0 -0.10437348162E+02 -0.43278173251E+02 -0.68684117080E+01  0.46142316567E+02  0.99999891074E+01 0.  0.
        -12    1    1    2    0    0  0.10437348162E+02  0.43278173251E+02  0.68684117080E+01  0.45045683433E+02  0.00000000000E+00 0.  1.
         11    1    3    3    0    0 -0.79001330746E+01 -0.18879487983E+02 -0.19159601026E+01  0.20555244403E+02  0.51100000000E-03 0. -1.
        -11    1    3    3    0    0 -0.22085616940E+01 -0.21553649025E+02 -0.60889798186E+01  0.22505848274E+02  0.51100000000E-03 0.  1.
        -12    1    3    3    0    0 -0.32865339385E+00 -0.28450362431E+01  0.11365282132E+01  0.30812238895E+01  0.00000000000E+00 0.  1.
</event>
<event>
 7    1  0.1519238E-008  0.4614232E+02  0.7816164E-02  0.1320468E+00
        -11   -1    0    0    0    0  0.00000000000E+00  0.00000000000E+00  0.45593999997E+02  0.45594000000E+02  0.51100000000E-03 0. -1.
         11   -1    0    0    0    0 -0.00000000000E+00 -0.00000000000E+00 -0.45593999997E+02  0.45594000000E+02  0.51100000000E-03 0.  1.
    9900012    2    1    2    0    0  0.24020530516E+02 -0.36984249321E+02  0.91811156647E+01  0.46142317977E+02  0.10000001967E+02 0.  0.
        -12    1    1    2    0    0 -0.24020530516E+02  0.36984249321E+02 -0.91811156647E+01  0.45045682023E+02  0.00000000000E+00 0.  1.
         11    1    3    3    0    0  0.16537289071E+01 -0.59641398592E+01 -0.28409781399E+00  0.61956836094E+01  0.51100000000E-03 0.  1.
        -11    1    3    3    0    0  0.95511770657E+01 -0.15281449363E+02  0.12942116956E+01  0.18067170840E+02  0.51100000000E-03 0. -1.
        -12    1    3    3    0    0  0.12815624543E+02 -0.15738660098E+02  0.81710017831E+01  0.21879463528E+02  0.00000000000E+00 0.  1.
</event>
<event>
 7    1  0.1519238E-008  0.4614232E+02  0.7816164E-02  0.1320468E+00
        -11   -1    0    0    0    0  0.00000000000E+00  0.00000000000E+00  0.45593999997E+02  0.45594000000E+02  0.51100000000E-03 0.  1.
         11   -1    0    0    0    0 -0.00000000000E+00 -0.00000000000E+00 -0.45593999997E+02  0.45594000000E+02  0.51100000000E-03 0. -1.
    9900012    2    1    2    0    0 -0.40570712829E+01 -0.20617161607E+02 -0.39844527600E+02  0.46142316969E+02  0.99999927758E+01 0.  0.
        -12    1    1    2    0    0  0.40570712829E+01  0.20617161607E+02  0.39844527600E+02  0.45045683031E+02  0.00000000000E+00 0.  1.
         11    1    3    3    0    0  0.13363916970E+01 -0.12291088119E+02 -0.25848329270E+02  0.28652973951E+02  0.51100000000E-03 0. -1.
        -11    1    3    3    0    0 -0.25330442131E+01 -0.67568109628E+01 -0.93043252592E+01  0.11774603015E+02  0.51100000000E-03 0.  1.
         12    1    3    3    0    0 -0.28604187667E+01 -0.15692625247E+01 -0.46918730705E+01  0.57147400030E+01  0.00000000000E+00 0. -1.
</event>
<event>
 7    1  0.1519238E-008  0.4614232E+02  0.7816164E-02  0.1320468E+00
        -11   -1    0    0    0    0  0.00000000000E+00  0.00000000000E+00  0.45593999997E+02  0.45594000000E+02  0.51100000000E-03 0.  1.
         11   -1    0    0    0    0 -0.00000000000E+00 -0.00000000000E+00 -0.45593999997E+02  0.45594000000E+02  0.51100000000E-03 0. -1.
    9900012    2    1    2    0    0 -0.37574609772E+02  0.58773698335E+01 -0.24139563891E+02  0.46142319624E+02  0.10000016985E+02 0.  0.
        -12    1    1    2    0    0  0.37574609772E+02 -0.58773698335E+01  0.24139563891E+02  0.45045680376E+02  0.00000000000E+00 0.  1.
         11    1    3    3    0    0 -0.20970588127E+02  0.36843647193E+01 -0.11302902897E+02  0.24105927154E+02  0.51100000000E-03 0. -1.
        -11    1    3    3    0    0 -0.45585019290E+01  0.35202025598E+00 -0.73880112582E+01  0.86883006802E+01  0.51100000000E-03 0.  1.
        -12    1    3    3    0    0 -0.12045519716E+02  0.18409848582E+01 -0.54486497356E+01  0.13348091790E+02  0.00000000000E+00 0.  1.
</event>
<event>
 7    1  0.1519238E-008  0.4614232E+02  0.7816164E-02  0.1320468E+00
        -11   -1    0    0    0    0  0.00000000000E+00  0.00000000000E+00  0.45593999997E+02  0.45594000000E+02  0.51100000000E-03 0.  1.
         11   -1    0    0    0    0 -0.00000000000E+00 -0.00000000000E+00 -0.45593999997E+02  0.45594000000E+02  0.51100000000E-03 0. -1.
    9900012    2    1    2    0    0 -0.13907576498E+02 -0.26239186538E+02 -0.33870309085E+02  0.46142318390E+02  0.10000005733E+02 0.  0.
        -12    1    1    2    0    0  0.13907576498E+02  0.26239186538E+02  0.33870309085E+02  0.45045681610E+02  0.00000000000E+00 0.  1.
         11    1    3    3    0    0 -0.26488829086E+01 -0.13579860347E+02 -0.17785120981E+02  0.22533080488E+02  0.51100000000E-03 0. -1.
        -11    1    3    3    0    0 -0.48499390016E+01 -0.42159038945E+01 -0.41662757938E+01  0.76585643706E+01  0.51100000000E-03 0.  1.
         12    1    3    3    0    0 -0.64087545883E+01 -0.84434222969E+01 -0.11918912309E+02  0.15950673531E+02  0.00000000000E+00 0. -1.
</event>
<event>
 7    1  0.1519238E-008  0.4614232E+02  0.7816164E-02  0.1320468E+00
        -11   -1    0    0    0    0  0.00000000000E+00  0.00000000000E+00  0.45593999997E+02  0.45594000000E+02  0.51100000000E-03 0.  1.
         11   -1    0    0    0    0 -0.00000000000E+00 -0.00000000000E+00 -0.45593999997E+02  0.45594000000E+02  0.51100000000E-03 0. -1.
    9900012    2    1    2    0    0  0.44157262108E+02  0.38409616541E+01 -0.80309742628E+01  0.46142319509E+02  0.10000015935E+02 0.  0.
        -12    1    1    2    0    0 -0.44157262108E+02 -0.38409616541E+01  0.80309742628E+01  0.45045680491E+02  0.00000000000E+00 0.  1.
         11    1    3    3    0    0  0.16779780018E+02  0.38286868571E+00 -0.18953640525E+01  0.16890826239E+02  0.51100000000E-03 0. -1.
        -11    1    3    3    0    0  0.18039416160E+02  0.52579938896E+00 -0.71491359420E+01  0.19411520944E+02  0.51100000000E-03 0.  1.
        -12    1    3    3    0    0  0.93380659303E+01  0.29322935795E+01  0.10135257317E+01  0.98399723253E+01  0.00000000000E+00 0.  1.
</event>
<event>
 7    1  0.1519238E-008  0.4614232E+02  0.7816164E-02  0.1320468E+00
        -11   -1    0    0    0    0  0.00000000000E+00  0.00000000000E+00  0.45593999997E+02  0.45594000000E+02  0.51100000000E-03 0.  1.
         11   -1    0    0    0    0 -0.00000000000E+00 -0.00000000000E+00 -0.45593999997E+02  0.45594000000E+02  0.51100000000E-03 0. -1.
    9900012    2    1    2    0    0 -0.31217021132E+01  0.29963969350E+02 -0.33489237234E+02  0.46142317701E+02  0.99999994479E+01 0.  0.
        -12    1    1    2    0    0  0.31217021132E+01 -0.29963969350E+02  0.33489237234E+02  0.45045682299E+02  0.00000000000E+00 0.  1.
         11    1    3    3    0    0 -0.31982992147E+01  0.58557882232E+01 -0.63436084117E+01  0.92065597008E+01  0.51100000000E-03 0. -1.
        -11    1    3    3    0    0  0.23533555771E+01  0.20689874274E+02 -0.21261918727E+02  0.29760348925E+02  0.51100000000E-03 0.  1.
        -12    1    3    3    0    0 -0.22767584756E+01  0.34183068527E+01 -0.58837100956E+01  0.71754090744E+01  0.00000000000E+00 0.  1.
</event>
<event>
 7    1  0.1519238E-008  0.4614232E+02  0.7816164E-02  0.1320468E+00
        -11   -1    0    0    0    0  0.00000000000E+00  0.00000000000E+00  0.45593999997E+02  0.45594000000E+02  0.51100000000E-03 0.  1.
         11   -1    0    0    0    0 -0.00000000000E+00 -0.00000000000E+00 -0.45593999997E+02  0.45594000000E+02  0.51100000000E-03 0. -1.
    9900012    2    1    2    0    0  0.22635278712E+02 -0.15670708128E+02 -0.35653705178E+02  0.46142316205E+02  0.99999858140E+01 0.  0.
        -12    1    1    2    0    0 -0.22635278712E+02  0.15670708128E+02  0.35653705178E+02  0.45045683795E+02  0.00000000000E+00 0.  1.
         11    1    3    3    0    0  0.16126128450E+02 -0.98341999180E+01 -0.21961365630E+02  0.28966620228E+02  0.51100000000E-03 0. -1.
        -11    1    3    3    0    0  0.27227880987E+00 -0.15575628151E+01 -0.66697624729E+01  0.68546239415E+01  0.51100000000E-03 0.  1.
        -12    1    3    3    0    0  0.62368714523E+01 -0.42789453952E+01 -0.70225770747E+01  0.10321072036E+02  0.00000000000E+00 0.  1.
</event>
<event>
 7    1  0.1519238E-008  0.4614232E+02  0.7816164E-02  0.1320468E+00
        -11   -1    0    0    0    0  0.00000000000E+00  0.00000000000E+00  0.45593999997E+02  0.45594000000E+02  0.51100000000E-03 0.  1.
         11   -1    0    0    0    0 -0.00000000000E+00 -0.00000000000E+00 -0.45593999997E+02  0.45594000000E+02  0.51100000000E-03 0. -1.
    9900012    2    1    2    0    0  0.11680530698E+02 -0.40248611907E+02 -0.16514480183E+02  0.46142316372E+02  0.99999873304E+01 0.  0.
        -12    1    1    2    0    0 -0.11680530698E+02  0.40248611907E+02  0.16514480183E+02  0.45045683628E+02  0.00000000000E+00 0.  1.
         11    1    3    3    0    0  0.81925829263E+01 -0.16570870151E+02 -0.59104806896E+01  0.19407368054E+02  0.51100000000E-03 0. -1.
        -11    1    3    3    0    0  0.58412583089E+00 -0.12779828534E+02 -0.82236389777E+01  0.15208335170E+02  0.51100000000E-03 0.  1.
        -12    1    3    3    0    0  0.29038219410E+01 -0.10897913222E+02 -0.23803605156E+01  0.11526613148E+02  0.00000000000E+00 0.  1.
</event>
<event>
 7    1  0.1519238E-008  0.4614232E+02  0.7816164E-02  0.1320468E+00
        -11   -1    0    0    0    0  0.00000000000E+00  0.00000000000E+00  0.45593999997E+02  0.45594000000E+02  0.51100000000E-03 0.  1.
         11   -1    0    0    0    0 -0.00000000000E+00 -0.00000000000E+00 -0.45593999997E+02  0.45594000000E+02  0.51100000000E-03 0. -1.
    9900012    2    1    2    0    0 -0.21647047039E+02 -0.10041221455E+01 -0.39490640750E+02  0.46142316370E+02  0.99999873185E+01 0.  0.
        -12    1    1    2    0    0  0.21647047039E+02  0.10041221455E+01  0.39490640750E+02  0.45045683630E+02  0.00000000000E+00 0.  1.
         11    1    3    3    0    0 -0.54151572471E+01 -0.14384240983E+01 -0.10612317316E+02  0.12000594609E+02  0.51100000000E-03 0. -1.
        -11    1    3    3    0    0 -0.56823242716E+01  0.34289636129E+00 -0.35622383011E+01  0.67153502527E+01  0.51100000000E-03 0.  1.
        -12    1    3    3    0    0 -0.10549565520E+02  0.91405591556E-01 -0.25316085133E+02  0.27426371508E+02  0.00000000000E+00 0.  1.
</event>
<event>
 7    1  0.1519238E-008  0.4614232E+02  0.7816164E-02  0.1320468E+00
        -11   -1    0    0    0    0  0.00000000000E+00  0.00000000000E+00  0.45593999997E+02  0.45594000000E+02  0.51100000000E-03 0.  1.
         11   -1    0    0    0    0 -0.00000000000E+00 -0.00000000000E+00 -0.45593999997E+02  0.45594000000E+02  0.51100000000E-03 0. -1.
    9900012    2    1    2    0    0  0.33756203795E+02 -0.42784560589E+01 -0.29518252536E+02  0.46142315260E+02  0.99999771948E+01 0.  0.
        -12    1    1    2    0    0 -0.33756203795E+02  0.42784560589E+01  0.29518252536E+02  0.45045684740E+02  0.00000000000E+00 0.  1.
         11    1    3    3    0    0  0.37994935680E+01 -0.60965456749E+00 -0.76975571677E+01  0.86058245785E+01  0.51100000000E-03 0.  1.
        -11    1    3    3    0    0  0.25847172154E+02 -0.15007951110E+01 -0.18242851844E+02  0.31672232918E+02  0.51100000000E-03 0. -1.
         12    1    3    3    0    0  0.41095380724E+01 -0.21680063804E+01 -0.35778435246E+01  0.58642577638E+01  0.00000000000E+00 0. -1.
</event>
<event>
 7    1  0.1519238E-008  0.4614231E+02  0.7816164E-02  0.1320468E+00
        -11   -1    0    0    0    0  0.00000000000E+00  0.00000000000E+00  0.45593999997E+02  0.45594000000E+02  0.51100000000E-03 0.  1.
         11   -1    0    0    0    0 -0.00000000000E+00 -0.00000000000E+00 -0.45593999997E+02  0.45594000000E+02  0.51100000000E-03 0. -1.
    9900012    2    1    2    0    0  0.32641876529E+02 -0.28413496205E+01 -0.30911951165E+02  0.46142311018E+02  0.99999385121E+01 0.  0.
        -12    1    1    2    0    0 -0.32641876529E+02  0.28413496205E+01  0.30911951165E+02  0.45045688982E+02  0.00000000000E+00 0.  1.
         11    1    3    3    0    0  0.23265433544E+02 -0.58937472840E+01 -0.19601105983E+02  0.30987416979E+02  0.51100000000E-03 0. -1.
        -11    1    3    3    0    0  0.42909221389E+01  0.80906653609E+00 -0.63391479877E+01  0.76974930291E+01  0.51100000000E-03 0.  1.
         12    1    3    3    0    0  0.50855208459E+01  0.22433311273E+01 -0.49716971948E+01  0.74574010096E+01  0.00000000000E+00 0. -1.
</event>
<event>
 7    1  0.1519238E-008  0.4614232E+02  0.7816164E-02  0.1320468E+00
        -11   -1    0    0    0    0  0.00000000000E+00  0.00000000000E+00  0.45593999997E+02  0.45594000000E+02  0.51100000000E-03 0. -1.
         11   -1    0    0    0    0 -0.00000000000E+00 -0.00000000000E+00 -0.45593999997E+02  0.45594000000E+02  0.51100000000E-03 0.  1.
    9900012    2    1    2    0    0  0.11869926057E+02  0.29236597046E+02  0.32147156794E+02  0.46142318283E+02  0.10000004759E+02 0.  0.
        -12    1    1    2    0    0 -0.11869926057E+02 -0.29236597046E+02 -0.32147156794E+02  0.45045681717E+02  0.00000000000E+00 0.  1.
         11    1    3    3    0    0  0.74635781529E+01  0.15764994718E+02  0.16941756460E+02  0.24315903634E+02  0.51100000000E-03 0. -1.
        -11    1    3    3    0    0  0.42400988183E+01  0.30279785052E+01  0.52712306240E+01  0.74116775678E+01  0.51100000000E-03 0.  1.
         12    1    3    3    0    0  0.16624908589E+00  0.10443623822E+02  0.99341697098E+01  0.14414737081E+02  0.00000000000E+00 0. -1.
</event>
<event>
 7    1  0.1519238E-008  0.4614232E+02  0.7816164E-02  0.1320468E+00
        -11   -1    0    0    0    0  0.00000000000E+00  0.00000000000E+00  0.45593999997E+02  0.45594000000E+02  0.51100000000E-03 0. -1.
         11   -1    0    0    0    0 -0.00000000000E+00 -0.00000000000E+00 -0.45593999997E+02  0.45594000000E+02  0.51100000000E-03 0.  1.
    9900012    2    1    2    0    0  0.40414879639E+02  0.17234697258E+02  0.99356028223E+01  0.46142317751E+02  0.99999999107E+01 0.  0.
        -12    1    1    2    0    0 -0.40414879639E+02 -0.17234697258E+02 -0.99356028223E+01  0.45045682249E+02  0.00000000000E+00 0.  1.
         11    1    3    3    0    0  0.13479928957E+02  0.46933295120E+01  0.68706507050E+01  0.15841138468E+02  0.51100000000E-03 0. -1.
        -11    1    3    3    0    0  0.15477616837E+02  0.46666817909E+01  0.56555009707E+00  0.16175734576E+02  0.51100000000E-03 0.  1.
        -12    1    3    3    0    0  0.11457333844E+02  0.78746859548E+01  0.24994020202E+01  0.14125444707E+02  0.00000000000E+00 0.  1.
</event>
<event>
 7    1  0.1519238E-008  0.4614232E+02  0.7816164E-02  0.1320468E+00
        -11   -1    0    0    0    0  0.00000000000E+00  0.00000000000E+00  0.45593999997E+02  0.45594000000E+02  0.51100000000E-03 0.  1.
         11   -1    0    0    0    0 -0.00000000000E+00 -0.00000000000E+00 -0.45593999997E+02  0.45594000000E+02  0.51100000000E-03 0. -1.
    9900012    2    1    2    0    0 -0.17784207912E+02  0.11787324359E+02 -0.39672338135E+02  0.46142317857E+02  0.10000000873E+02 0.  0.
        -12    1    1    2    0    0  0.17784207912E+02 -0.11787324359E+02  0.39672338135E+02  0.45045682143E+02  0.00000000000E+00 0.  1.
         11    1    3    3    0    0 -0.15662558725E+02  0.10316780405E+02 -0.30635285140E+02  0.35920361908E+02  0.51100000000E-03 0. -1.
        -11    1    3    3    0    0 -0.19434928127E+01  0.27317772677E+01 -0.75695471618E+01  0.82787569024E+01  0.51100000000E-03 0.  1.
         12    1    3    3    0    0 -0.17815637469E+00 -0.12612333128E+01 -0.14675058335E+01  0.19431990466E+01  0.00000000000E+00 0. -1.
</event>
<event>
 7    1  0.1519238E-008  0.4614231E+02  0.7816164E-02  0.1320468E+00
        -11   -1    0    0    0    0  0.00000000000E+00  0.00000000000E+00  0.45593999997E+02  0.45594000000E+02  0.51100000000E-03 0. -1.
         11   -1    0    0    0    0 -0.00000000000E+00 -0.00000000000E+00 -0.45593999997E+02  0.45594000000E+02  0.51100000000E-03 0.  1.
    9900012    2    1    2    0    0 -0.39219702904E+02 -0.40335696335E+01 -0.21786677055E+02  0.46142311228E+02  0.99999404267E+01 0.  0.
        -12    1    1    2    0    0  0.39219702904E+02  0.40335696335E+01  0.21786677055E+02  0.45045688772E+02  0.00000000000E+00 0.  1.
         11    1    3    3    0    0 -0.18283181821E+02 -0.43111709081E+01 -0.70343663488E+01  0.20058495514E+02  0.51100000000E-03 0. -1.
        -11    1    3    3    0    0 -0.13534553659E+02  0.23491634994E+01 -0.83116326560E+01  0.16055713923E+02  0.51100000000E-03 0.  1.
        -12    1    3    3    0    0 -0.74019674234E+01 -0.20715622249E+01 -0.64406780502E+01  0.10028101791E+02  0.00000000000E+00 0.  1.
</event>
<event>
 7    1  0.1519238E-008  0.4614232E+02  0.7816164E-02  0.1320468E+00
        -11   -1    0    0    0    0  0.00000000000E+00  0.00000000000E+00  0.45593999997E+02  0.45594000000E+02  0.51100000000E-03 0. -1.
         11   -1    0    0    0    0 -0.00000000000E+00 -0.00000000000E+00 -0.45593999997E+02  0.45594000000E+02  0.51100000000E-03 0.  1.
    9900012    2    1    2    0    0  0.12581713061E+02  0.32309225953E+02 -0.28756354356E+02  0.46142317620E+02  0.99999987149E+01 0.  0.
        -12    1    1    2    0    0 -0.12581713061E+02 -0.32309225953E+02  0.28756354356E+02  0.45045682380E+02  0.00000000000E+00 0.  1.
         11    1    3    3    0    0  0.48274992456E+01  0.12240182100E+02 -0.12033269543E+02  0.17830490261E+02  0.51100000000E-03 0. -1.
        -11    1    3    3    0    0  0.25902230453E+01  0.43779823128E+01 -0.42245609194E+00  0.51043563714E+01  0.51100000000E-03 0.  1.
        -12    1    3    3    0    0  0.51639907696E+01  0.15691061540E+02 -0.16300628721E+02  0.23207470988E+02  0.00000000000E+00 0.  1.
</event>
<event>
 7    1  0.1519238E-008  0.4614232E+02  0.7816164E-02  0.1320468E+00
        -11   -1    0    0    0    0  0.00000000000E+00  0.00000000000E+00  0.45593999997E+02  0.45594000000E+02  0.51100000000E-03 0.  1.
         11   -1    0    0    0    0 -0.00000000000E+00 -0.00000000000E+00 -0.45593999997E+02  0.45594000000E+02  0.51100000000E-03 0. -1.
    9900012    2    1    2    0    0  0.80817215160E+01  0.35065876659E+02 -0.27095823379E+02  0.46142316820E+02  0.99999914177E+01 0.  0.
        -12    1    1    2    0    0 -0.80817215160E+01 -0.35065876659E+02  0.27095823379E+02  0.45045683180E+02  0.00000000000E+00 0.  1.
         11    1    3    3    0    0  0.33280887839E+01  0.25898105084E+02 -0.22830102572E+02  0.34684313538E+02  0.51100000000E-03 0. -1.
        -11    1    3    3    0    0  0.51419852949E+00  0.15329017200E+01  0.23447369714E+00  0.16337582400E+01  0.51100000000E-03 0.  1.
         12    1    3    3    0    0  0.42394342027E+01  0.76348698550E+01 -0.45001945047E+01  0.98242450418E+01  0.00000000000E+00 0. -1.
</event>
<event>
 7    1  0.1519238E-008  0.4614232E+02  0.7816164E-02  0.1320468E+00
        -11   -1    0    0    0    0  0.00000000000E+00  0.00000000000E+00  0.45593999997E+02  0.45594000000E+02  0.51100000000E-03 0.  1.
         11   -1    0    0    0    0 -0.00000000000E+00 -0.00000000000E+00 -0.45593999997E+02  0.45594000000E+02  0.51100000000E-03 0. -1.
    9900012    2    1    2    0    0 -0.17421417847E+01  0.29650919249E+02 -0.33865933515E+02  0.46142317375E+02  0.99999964769E+01 0.  0.
        -12    1    1    2    0    0  0.17421417847E+01 -0.29650919249E+02  0.33865933515E+02  0.45045682625E+02  0.00000000000E+00 0.  1.
         11    1    3    3    0    0 -0.44556396438E+00  0.85489119148E+01 -0.83320001081E+01  0.11945905082E+02  0.51100000000E-03 0. -1.
        -11    1    3    3    0    0  0.22008946633E+01  0.95537746509E+01 -0.16223445272E+02  0.18955704265E+02  0.51100000000E-03 0.  1.
        -12    1    3    3    0    0 -0.34974724836E+01  0.11548232683E+02 -0.93104881349E+01  0.15240708028E+02  0.00000000000E+00 0.  1.
</event>
<event>
 7    1  0.1519238E-008  0.4614232E+02  0.7816164E-02  0.1320468E+00
        -11   -1    0    0    0    0  0.00000000000E+00  0.00000000000E+00  0.45593999997E+02  0.45594000000E+02  0.51100000000E-03 0.  1.
         11   -1    0    0    0    0 -0.00000000000E+00 -0.00000000000E+00 -0.45593999997E+02  0.45594000000E+02  0.51100000000E-03 0. -1.
    9900012    2    1    2    0    0 -0.14596081891E+02 -0.39831828269E+02 -0.15149036083E+02  0.46142318253E+02  0.10000004487E+02 0.  0.
        -12    1    1    2    0    0  0.14596081891E+02  0.39831828269E+02  0.15149036083E+02  0.45045681747E+02  0.00000000000E+00 0.  1.
         11    1    3    3    0    0 -0.17128968485E+00 -0.54405908007E+01  0.53608528670E+00  0.54696212038E+01  0.51100000000E-03 0. -1.
        -11    1    3    3    0    0 -0.28133082279E+01 -0.97800529720E+01 -0.58429344167E+01  0.11734735710E+02  0.51100000000E-03 0.  1.
         12    1    3    3    0    0 -0.11611483978E+02 -0.24611184496E+02 -0.98421869530E+01  0.28937961339E+02  0.00000000000E+00 0. -1.
</event>
<event>
 7    1  0.1519238E-008  0.4614232E+02  0.7816164E-02  0.1320468E+00
        -11   -1    0    0    0    0  0.00000000000E+00  0.00000000000E+00  0.45593999997E+02  0.45594000000E+02  0.51100000000E-03 0. -1.
         11   -1    0    0    0    0 -0.00000000000E+00 -0.00000000000E+00 -0.45593999997E+02  0.45594000000E+02  0.51100000000E-03 0.  1.
    9900012    2    1    2    0    0  0.27657219591E+02 -0.20388775138E+02  0.29128844728E+02  0.46142317163E+02  0.99999945438E+01 0.  0.
        -12    1    1    2    0    0 -0.27657219591E+02  0.20388775138E+02 -0.29128844728E+02  0.45045682837E+02  0.00000000000E+00 0.  1.
         11    1    3    3    0    0  0.44540649839E+01 -0.39942516554E+01  0.98808580076E+01  0.11550934871E+02  0.51100000000E-03 0. -1.
        -11    1    3    3    0    0  0.18251340199E+01 -0.55978768608E+00  0.30654394343E+00  0.19335061144E+01  0.51100000000E-03 0.  1.
         12    1    3    3    0    0  0.21378020587E+02 -0.15834735796E+02  0.18941442776E+02  0.32657876177E+02  0.00000000000E+00 0. -1.
</event>
<event>
 7    1  0.1519238E-008  0.4614232E+02  0.7816164E-02  0.1320468E+00
        -11   -1    0    0    0    0  0.00000000000E+00  0.00000000000E+00  0.45593999997E+02  0.45594000000E+02  0.51100000000E-03 0.  1.
         11   -1    0    0    0    0 -0.00000000000E+00 -0.00000000000E+00 -0.45593999997E+02  0.45594000000E+02  0.51100000000E-03 0. -1.
    9900012    2    1    2    0    0  0.35862203544E+02 -0.24670184980E+02 -0.11593009947E+02  0.46142317081E+02  0.99999938023E+01 0.  0.
        -12    1    1    2    0    0 -0.35862203544E+02  0.24670184980E+02  0.11593009947E+02  0.45045682919E+02  0.00000000000E+00 0.  1.
         11    1    3    3    0    0  0.15895579273E+02 -0.11607077050E+02 -0.96092780077E+01  0.21902782977E+02  0.51100000000E-03 0. -1.
        -11    1    3    3    0    0  0.16192773697E+02 -0.98480365289E+01 -0.14795232683E+00  0.18952879296E+02  0.51100000000E-03 0.  1.
        -12    1    3    3    0    0  0.37738505746E+01 -0.32150714006E+01 -0.18357796127E+01  0.52866548078E+01  0.00000000000E+00 0.  1.
</event>
<event>
 7    1  0.1519238E-008  0.4614232E+02  0.7816164E-02  0.1320468E+00
        -11   -1    0    0    0    0  0.00000000000E+00  0.00000000000E+00  0.45593999997E+02  0.45594000000E+02  0.51100000000E-03 0.  1.
         11   -1    0    0    0    0 -0.00000000000E+00 -0.00000000000E+00 -0.45593999997E+02  0.45594000000E+02  0.51100000000E-03 0. -1.
    9900012    2    1    2    0    0 -0.14208652435E+01  0.41628500713E+02 -0.17151166859E+02  0.46142318139E+02  0.10000003449E+02 0.  0.
        -12    1    1    2    0    0  0.14208652435E+01 -0.41628500713E+02  0.17151166859E+02  0.45045681861E+02  0.00000000000E+00 0.  1.
         11    1    3    3    0    0 -0.35892287648E+01  0.30877768905E+02 -0.12168806517E+02  0.33382615655E+02  0.51100000000E-03 0. -1.
        -11    1    3    3    0    0  0.45299024383E+00  0.29509838627E+01  0.56154332597E+00  0.30379001114E+01  0.51100000000E-03 0.  1.
         12    1    3    3    0    0  0.17153732775E+01  0.77997479456E+01 -0.55439036676E+01  0.97218023726E+01  0.00000000000E+00 0. -1.
</event>
<event>
 7    1  0.1519238E-008  0.4614232E+02  0.7816164E-02  0.1320468E+00
        -11   -1    0    0    0    0  0.00000000000E+00  0.00000000000E+00  0.45593999997E+02  0.45594000000E+02  0.51100000000E-03 0. -1.
         11   -1    0    0    0    0 -0.00000000000E+00 -0.00000000000E+00 -0.45593999997E+02  0.45594000000E+02  0.51100000000E-03 0.  1.
    9900012    2    1    2    0    0 -0.43614505501E+02 -0.11250732861E+02  0.55626927958E+00  0.46142317460E+02  0.99999972529E+01 0.  0.
        -12    1    1    2    0    0  0.43614505501E+02  0.11250732861E+02 -0.55626927958E+00  0.45045682540E+02  0.00000000000E+00 0.  1.
         11    1    3    3    0    0 -0.35259120962E+02 -0.10291559875E+02 -0.31226539174E+01  0.36862891685E+02  0.51100000000E-03 0. -1.
        -11    1    3    3    0    0 -0.61455795151E+01 -0.12774341701E+00  0.28674616236E+01  0.67828314427E+01  0.51100000000E-03 0.  1.
         12    1    3    3    0    0 -0.22098050244E+01 -0.83142956885E+00  0.81146157332E+00  0.24965943320E+01  0.00000000000E+00 0. -1.
</event>
<event>
 7    1  0.1519238E-008  0.4614232E+02  0.7816164E-02  0.1320468E+00
        -11   -1    0    0    0    0  0.00000000000E+00  0.00000000000E+00  0.45593999997E+02  0.45594000000E+02  0.51100000000E-03 0.  1.
         11   -1    0    0    0    0 -0.00000000000E+00 -0.00000000000E+00 -0.45593999997E+02  0.45594000000E+02  0.51100000000E-03 0. -1.
    9900012    2    1    2    0    0 -0.29272654727E+02  0.18213041522E+02 -0.28991555967E+02  0.46142317481E+02  0.99999974427E+01 0.  0.
        -12    1    1    2    0    0  0.29272654727E+02 -0.18213041522E+02  0.28991555967E+02  0.45045682519E+02  0.00000000000E+00 0.  1.
         11    1    3    3    0    0 -0.10817480821E+02  0.65908276594E+01 -0.15079913061E+02  0.19694178804E+02  0.51100000000E-03 0. -1.
        -11    1    3    3    0    0 -0.13123105573E+02  0.82967739831E+01 -0.67765775463E+01  0.16940317645E+02  0.51100000000E-03 0.  1.
        -12    1    3    3    0    0 -0.53320683330E+01  0.33254398795E+01 -0.71350653594E+01  0.95078210323E+01  0.00000000000E+00 0.  1.
</event>
<event>
 7    1  0.1519238E-008  0.4614232E+02  0.7816164E-02  0.1320468E+00
        -11   -1    0    0    0    0  0.00000000000E+00  0.00000000000E+00  0.45593999997E+02  0.45594000000E+02  0.51100000000E-03 0.  1.
         11   -1    0    0    0    0 -0.00000000000E+00 -0.00000000000E+00 -0.45593999997E+02  0.45594000000E+02  0.51100000000E-03 0. -1.
    9900012    2    1    2    0    0 -0.96743728260E+01  0.21858105508E+02 -0.38180403142E+02  0.46142318187E+02  0.10000003880E+02 0.  0.
        -12    1    1    2    0    0  0.96743728260E+01 -0.21858105508E+02  0.38180403142E+02  0.45045681813E+02  0.00000000000E+00 0.  1.
         11    1    3    3    0    0 -0.22329022143E+01  0.43749935174E+01 -0.67748182916E+01  0.83680692948E+01  0.51100000000E-03 0. -1.
        -11    1    3    3    0    0 -0.44480605807E+00  0.94558475114E+01 -0.20243951451E+02  0.22347896438E+02  0.51100000000E-03 0.  1.
        -12    1    3    3    0    0 -0.69966645536E+01  0.80272644792E+01 -0.11161633399E+02  0.15426352454E+02  0.00000000000E+00 0.  1.
</event>
<event>
 7    1  0.1519238E-008  0.4614233E+02  0.7816164E-02  0.1320468E+00
        -11   -1    0    0    0    0  0.00000000000E+00  0.00000000000E+00  0.45593999997E+02  0.45594000000E+02  0.51100000000E-03 0. -1.
         11   -1    0    0    0    0 -0.00000000000E+00 -0.00000000000E+00 -0.45593999997E+02  0.45594000000E+02  0.51100000000E-03 0.  1.
    9900012    2    1    2    0    0 -0.87898577551E+01  0.43126305754E+02  0.95902471436E+01  0.46142326649E+02  0.10000081046E+02 0.  0.
        -12    1    1    2    0    0  0.87898577551E+01 -0.43126305754E+02 -0.95902471436E+01  0.45045673351E+02  0.00000000000E+00 0.  1.
         11    1    3    3    0    0 -0.70698416194E+01  0.20543203902E+02  0.45455932129E+01  0.22196132659E+02  0.51100000000E-03 0. -1.
        -11    1    3    3    0    0  0.47920890548E+00  0.20030365327E+02  0.41774383245E+01  0.20466953059E+02  0.51100000000E-03 0.  1.
        -12    1    3    3    0    0 -0.21992250412E+01  0.25527365255E+01  0.86721560622E+00  0.34792409313E+01  0.00000000000E+00 0.  1.
</event>
<event>
 7    1  0.1519238E-008  0.4614232E+02  0.7816164E-02  0.1320468E+00
        -11   -1    0    0    0    0  0.00000000000E+00  0.00000000000E+00  0.45593999997E+02  0.45594000000E+02  0.51100000000E-03 0.  1.
         11   -1    0    0    0    0 -0.00000000000E+00 -0.00000000000E+00 -0.45593999997E+02  0.45594000000E+02  0.51100000000E-03 0. -1.
    9900012    2    1    2    0    0  0.26961312433E+02 -0.13500813753E+02 -0.33465341968E+02  0.46142318152E+02  0.10000003560E+02 0.  0.
        -12    1    1    2    0    0 -0.26961312433E+02  0.13500813753E+02  0.33465341968E+02  0.45045681848E+02  0.00000000000E+00 0.  1.
         11    1    3    3    0    0  0.20016676630E+02 -0.77218225007E+01 -0.21361245588E+02  0.30275348047E+02  0.51100000000E-03 0. -1.
        -11    1    3    3    0    0  0.41457040010E+01 -0.53203909719E+01 -0.10827874121E+02  0.12756813081E+02  0.51100000000E-03 0.  1.
         12    1    3    3    0    0  0.27989318028E+01 -0.45860028066E+00 -0.12762222598E+01  0.31101570234E+01  0.00000000000E+00 0. -1.
</event>
<event>
 7    1  0.1519238E-008  0.4614232E+02  0.7816164E-02  0.1320468E+00
        -11   -1    0    0    0    0  0.00000000000E+00  0.00000000000E+00  0.45593999997E+02  0.45594000000E+02  0.51100000000E-03 0.  1.
         11   -1    0    0    0    0 -0.00000000000E+00 -0.00000000000E+00 -0.45593999997E+02  0.45594000000E+02  0.51100000000E-03 0. -1.
    9900012    2    1    2    0    0  0.12417436811E+02  0.39401265496E+02 -0.17957200186E+02  0.46142317652E+02  0.99999990091E+01 0.  0.
        -12    1    1    2    0    0 -0.12417436811E+02 -0.39401265496E+02  0.17957200186E+02  0.45045682348E+02  0.00000000000E+00 0.  1.
         11    1    3    3    0    0  0.62749454394E+01  0.29690073183E+02 -0.15234104653E+02  0.33955166481E+02  0.51100000000E-03 0. -1.
        -11    1    3    3    0    0  0.40538054531E+01  0.77098370614E+01 -0.87503750454E+00  0.87544626940E+01  0.51100000000E-03 0.  1.
         12    1    3    3    0    0  0.20886859186E+01  0.20013552511E+01 -0.18480580282E+01  0.34326884775E+01  0.00000000000E+00 0. -1.
</event>
<event>
 7    1  0.1519238E-008  0.4614232E+02  0.7816164E-02  0.1320468E+00
        -11   -1    0    0    0    0  0.00000000000E+00  0.00000000000E+00  0.45593999997E+02  0.45594000000E+02  0.51100000000E-03 0.  1.
         11   -1    0    0    0    0 -0.00000000000E+00 -0.00000000000E+00 -0.45593999997E+02  0.45594000000E+02  0.51100000000E-03 0. -1.
    9900012    2    1    2    0    0  0.26145574985E+02 -0.21733955353E+02 -0.29549239456E+02  0.46142318087E+02  0.10000002971E+02 0.  0.
        -12    1    1    2    0    0 -0.26145574985E+02  0.21733955353E+02  0.29549239456E+02  0.45045681913E+02  0.00000000000E+00 0.  1.
         11    1    3    3    0    0  0.19441791392E+02 -0.15674645016E+02 -0.19064811900E+02  0.31418860609E+02  0.51100000000E-03 0. -1.
        -11    1    3    3    0    0 -0.25462633800E+00 -0.25097016784E+01 -0.27158285736E+01  0.37066375853E+01  0.51100000000E-03 0.  1.
        -12    1    3    3    0    0  0.69584099316E+01 -0.35496086581E+01 -0.77685989824E+01  0.11016819893E+02  0.00000000000E+00 0.  1.
</event>
<event>
 7    1  0.1519238E-008  0.4614232E+02  0.7816164E-02  0.1320468E+00
        -11   -1    0    0    0    0  0.00000000000E+00  0.00000000000E+00  0.45593999997E+02  0.45594000000E+02  0.51100000000E-03 0.  1.
         11   -1    0    0    0    0 -0.00000000000E+00 -0.00000000000E+00 -0.45593999997E+02  0.45594000000E+02  0.51100000000E-03 0. -1.
    9900012    2    1    2    0    0  0.14257622284E+02 -0.40157186027E+02 -0.14602539049E+02  0.46142317305E+02  0.99999958426E+01 0.  0.
        -12    1    1    2    0    0 -0.14257622284E+02  0.40157186027E+02  0.14602539049E+02  0.45045682695E+02  0.00000000000E+00 0.  1.
         11    1    3    3    0    0  0.46698958654E+01 -0.14336786102E+02 -0.53034915052E+01  0.15983691236E+02  0.51100000000E-03 0. -1.
        -11    1    3    3    0    0  0.45431833732E+01 -0.33470259697E+01 -0.22025489756E+01  0.60575836978E+01  0.51100000000E-03 0.  1.
        -12    1    3    3    0    0  0.50445430457E+01 -0.22473373955E+02 -0.70964985680E+01  0.24101042371E+02  0.00000000000E+00 0.  1.
</event>
<event>
 7    1  0.1519238E-008  0.4614232E+02  0.7816164E-02  0.1320468E+00
        -11   -1    0    0    0    0  0.00000000000E+00  0.00000000000E+00  0.45593999997E+02  0.45594000000E+02  0.51100000000E-03 0.  1.
         11   -1    0    0    0    0 -0.00000000000E+00 -0.00000000000E+00 -0.45593999997E+02  0.45594000000E+02  0.51100000000E-03 0. -1.
    9900012    2    1    2    0    0 -0.90057486298E+01  0.32519583194E+02 -0.29841027622E+02  0.46142315090E+02  0.99999756419E+01 0.  0.
        -12    1    1    2    0    0  0.90057486298E+01 -0.32519583194E+02  0.29841027622E+02  0.45045684910E+02  0.00000000000E+00 0.  1.
         11    1    3    3    0    0 -0.10026152459E+02  0.27144434986E+02 -0.23807557994E+02  0.37471908168E+02  0.51100000000E-03 0. -1.
        -11    1    3    3    0    0  0.76451301019E+00 -0.26538216251E-01 -0.11669402838E+01  0.13953258783E+01  0.51100000000E-03 0.  1.
         12    1    3    3    0    0  0.25589081899E+00  0.54016864242E+01 -0.48665293442E+01  0.72750810439E+01  0.00000000000E+00 0. -1.
</event>
<event>
 7    1  0.1519238E-008  0.4614231E+02  0.7816164E-02  0.1320468E+00
        -11   -1    0    0    0    0  0.00000000000E+00  0.00000000000E+00  0.45593999997E+02  0.45594000000E+02  0.51100000000E-03 0.  1.
         11   -1    0    0    0    0 -0.00000000000E+00 -0.00000000000E+00 -0.45593999997E+02  0.45594000000E+02  0.51100000000E-03 0. -1.
    9900012    2    1    2    0    0  0.38545581021E+02  0.23309894910E+02 -0.29321558601E-01  0.46142313450E+02  0.99999606914E+01 0.  0.
        -12    1    1    2    0    0 -0.38545581021E+02 -0.23309894910E+02  0.29321558601E-01  0.45045686550E+02  0.00000000000E+00 0.  1.
         11    1    3    3    0    0  0.22629576763E+02  0.16886802472E+02  0.39037434824E+01  0.28504404145E+02  0.51100000000E-03 0. -1.
        -11    1    3    3    0    0  0.12052510325E+02  0.52017282549E+01 -0.26934972774E+01  0.13400593637E+02  0.51100000000E-03 0.  1.
         12    1    3    3    0    0  0.38634939332E+01  0.12213641832E+01 -0.12395677636E+01  0.42373156692E+01  0.00000000000E+00 0. -1.
</event>
<event>
 7    1  0.1519238E-008  0.4614232E+02  0.7816164E-02  0.1320468E+00
        -11   -1    0    0    0    0  0.00000000000E+00  0.00000000000E+00  0.45593999997E+02  0.45594000000E+02  0.51100000000E-03 0.  1.
         11   -1    0    0    0    0 -0.00000000000E+00 -0.00000000000E+00 -0.45593999997E+02  0.45594000000E+02  0.51100000000E-03 0. -1.
    9900012    2    1    2    0    0  0.14559989339E+02  0.24725294386E+02 -0.34724343407E+02  0.46142317664E+02  0.99999991168E+01 0.  0.
        -12    1    1    2    0    0 -0.14559989339E+02 -0.24725294386E+02  0.34724343407E+02  0.45045682336E+02  0.00000000000E+00 0.  1.
         11    1    3    3    0    0  0.10698274948E+02  0.10156437770E+02 -0.14760412812E+02  0.20868064157E+02  0.51100000000E-03 0. -1.
        -11    1    3    3    0    0  0.34186854183E+01  0.12565831128E+02 -0.14776962080E+02  0.19696348152E+02  0.51100000000E-03 0.  1.
         12    1    3    3    0    0  0.44302897288E+00  0.20030254881E+01 -0.51869685151E+01  0.55779053553E+01  0.00000000000E+00 0. -1.
</event>
<event>
 7    1  0.1519238E-008  0.4614232E+02  0.7816164E-02  0.1320468E+00
        -11   -1    0    0    0    0  0.00000000000E+00  0.00000000000E+00  0.45593999997E+02  0.45594000000E+02  0.51100000000E-03 0. -1.
         11   -1    0    0    0    0 -0.00000000000E+00 -0.00000000000E+00 -0.45593999997E+02  0.45594000000E+02  0.51100000000E-03 0.  1.
    9900012    2    1    2    0    0 -0.39005185347E+02 -0.22512157156E+02 -0.95484321909E+00  0.46142318417E+02  0.10000005979E+02 0.  0.
        -12    1    1    2    0    0  0.39005185347E+02  0.22512157156E+02  0.95484321909E+00  0.45045681583E+02  0.00000000000E+00 0.  1.
         11    1    3    3    0    0 -0.14048248305E+01  0.64010833036E+00  0.46773107839E+00  0.16130852742E+01  0.51100000000E-03 0. -1.
        -11    1    3    3    0    0 -0.22003497446E+02 -0.16098041253E+02  0.75069377827E+00  0.27273877125E+02  0.51100000000E-03 0.  1.
         12    1    3    3    0    0 -0.15596863070E+02 -0.70542242332E+01 -0.21732680757E+01  0.17255356017E+02  0.00000000000E+00 0. -1.
</event>
<event>
 7    1  0.1519238E-008  0.4614232E+02  0.7816164E-02  0.1320468E+00
        -11   -1    0    0    0    0  0.00000000000E+00  0.00000000000E+00  0.45593999997E+02  0.45594000000E+02  0.51100000000E-03 0. -1.
         11   -1    0    0    0    0 -0.00000000000E+00 -0.00000000000E+00 -0.45593999997E+02  0.45594000000E+02  0.51100000000E-03 0.  1.
    9900012    2    1    2    0    0 -0.43322737004E+02 -0.11002961706E+02  0.55846989363E+01  0.46142316855E+02  0.99999917361E+01 0.  0.
        -12    1    1    2    0    0  0.43322737004E+02  0.11002961706E+02 -0.55846989363E+01  0.45045683145E+02  0.00000000000E+00 0.  1.
         11    1    3    3    0    0 -0.32275748542E+02 -0.79179535055E+01  0.65686899208E+01  0.33875737914E+02  0.51100000000E-03 0. -1.
        -11    1    3    3    0    0 -0.89965314762E+01 -0.37946222999E+01 -0.18366293326E+01  0.99352878453E+01  0.51100000000E-03 0.  1.
        -12    1    3    3    0    0 -0.20504569853E+01  0.70961409990E+00  0.85263834810E+00  0.23312910955E+01  0.00000000000E+00 0.  1.
</event>
<event>
 7    1  0.1519238E-008  0.4614232E+02  0.7816164E-02  0.1320468E+00
        -11   -1    0    0    0    0  0.00000000000E+00  0.00000000000E+00  0.45593999997E+02  0.45594000000E+02  0.51100000000E-03 0.  1.
         11   -1    0    0    0    0 -0.00000000000E+00 -0.00000000000E+00 -0.45593999997E+02  0.45594000000E+02  0.51100000000E-03 0. -1.
    9900012    2    1    2    0    0 -0.18077847746E+02 -0.15640693852E+01 -0.41229340967E+02  0.46142318201E+02  0.10000004011E+02 0.  0.
        -12    1    1    2    0    0  0.18077847746E+02  0.15640693852E+01  0.41229340967E+02  0.45045681799E+02  0.00000000000E+00 0.  1.
         11    1    3    3    0    0 -0.10159264191E+02 -0.47017955923E+01 -0.20144815405E+02  0.23046282101E+02  0.51100000000E-03 0. -1.
        -11    1    3    3    0    0 -0.60671602707E+01  0.40875559695E+01 -0.17150273255E+02  0.18645386039E+02  0.51100000000E-03 0.  1.
        -12    1    3    3    0    0 -0.18514232845E+01 -0.94982976237E+00 -0.39342523069E+01  0.44506500615E+01  0.00000000000E+00 0.  1.
</event>
<event>
 7    1  0.1519238E-008  0.4614232E+02  0.7816164E-02  0.1320468E+00
        -11   -1    0    0    0    0  0.00000000000E+00  0.00000000000E+00  0.45593999997E+02  0.45594000000E+02  0.51100000000E-03 0.  1.
         11   -1    0    0    0    0 -0.00000000000E+00 -0.00000000000E+00 -0.45593999997E+02  0.45594000000E+02  0.51100000000E-03 0. -1.
    9900012    2    1    2    0    0 -0.67032739395E+01  0.44517909744E+02 -0.15281990200E+01  0.46142316947E+02  0.99999925761E+01 0.  0.
        -12    1    1    2    0    0  0.67032739395E+01 -0.44517909744E+02  0.15281990200E+01  0.45045683053E+02  0.00000000000E+00 0.  1.
         11    1    3    3    0    0 -0.43625133704E+01  0.16397269636E+02  0.36270247617E+00  0.16971550541E+02  0.51100000000E-03 0. -1.
        -11    1    3    3    0    0  0.62709444115E+00  0.20161014604E+02 -0.36428173248E+01  0.20497069928E+02  0.51100000000E-03 0.  1.
        -12    1    3    3    0    0 -0.29678550102E+01  0.79596255040E+01  0.17519158287E+01  0.86736964782E+01  0.00000000000E+00 0.  1.
</event>
<event>
 7    1  0.1519238E-008  0.4614232E+02  0.7816164E-02  0.1320468E+00
        -11   -1    0    0    0    0  0.00000000000E+00  0.00000000000E+00  0.45593999997E+02  0.45594000000E+02  0.51100000000E-03 0.  1.
         11   -1    0    0    0    0 -0.00000000000E+00 -0.00000000000E+00 -0.45593999997E+02  0.45594000000E+02  0.51100000000E-03 0. -1.
    9900012    2    1    2    0    0 -0.15739597142E+02  0.42071541611E+02  0.33710406904E+01  0.46142318220E+02  0.10000004181E+02 0.  0.
        -12    1    1    2    0    0  0.15739597142E+02 -0.42071541611E+02 -0.33710406904E+01  0.45045681780E+02  0.00000000000E+00 0.  1.
         11    1    3    3    0    0 -0.43088865982E+01  0.16421879677E+02  0.55108667430E+01  0.17849769981E+02  0.51100000000E-03 0. -1.
        -11    1    3    3    0    0 -0.37255840467E+01  0.79885975520E+01 -0.19264321657E+01  0.90226829982E+01  0.51100000000E-03 0.  1.
         12    1    3    3    0    0 -0.77051264975E+01  0.17661064382E+02 -0.21339388691E+00  0.19269865241E+02  0.00000000000E+00 0. -1.
</event>
<event>
 7    1  0.1519238E-008  0.4614232E+02  0.7816164E-02  0.1320468E+00
        -11   -1    0    0    0    0  0.00000000000E+00  0.00000000000E+00  0.45593999997E+02  0.45594000000E+02  0.51100000000E-03 0. -1.
         11   -1    0    0    0    0 -0.00000000000E+00 -0.00000000000E+00 -0.45593999997E+02  0.45594000000E+02  0.51100000000E-03 0.  1.
    9900012    2    1    2    0    0 -0.40737483092E+02  0.55724387122E+01 -0.18398880289E+02  0.46142318767E+02  0.10000009173E+02 0.  0.
        -12    1    1    2    0    0  0.40737483092E+02 -0.55724387122E+01  0.18398880289E+02  0.45045681233E+02  0.00000000000E+00 0.  1.
         11    1    3    3    0    0 -0.44456540911E+01  0.23620067577E+01 -0.47102021049E+01  0.68941221596E+01  0.51100000000E-03 0.  1.
        -11    1    3    3    0    0 -0.35416010041E+02  0.34229255290E+01 -0.12408557977E+02  0.37682655131E+02  0.51100000000E-03 0. -1.
         12    1    3    3    0    0 -0.87581895919E+00 -0.21249357446E+00 -0.12801202071E+01  0.15655414760E+01  0.00000000000E+00 0. -1.
</event>
<event>
 7    1  0.1519238E-008  0.4614232E+02  0.7816164E-02  0.1320468E+00
        -11   -1    0    0    0    0  0.00000000000E+00  0.00000000000E+00  0.45593999997E+02  0.45594000000E+02  0.51100000000E-03 0.  1.
         11   -1    0    0    0    0 -0.00000000000E+00 -0.00000000000E+00 -0.45593999997E+02  0.45594000000E+02  0.51100000000E-03 0. -1.
    9900012    2    1    2    0    0  0.28193736932E+02  0.27129939487E+02 -0.22320237701E+02  0.46142318411E+02  0.10000005930E+02 0.  0.
        -12    1    1    2    0    0 -0.28193736932E+02 -0.27129939487E+02  0.22320237701E+02  0.45045681589E+02  0.00000000000E+00 0.  1.
         11    1    3    3    0    0  0.14719224672E+02  0.15845074464E+02 -0.95067052822E+01  0.23624127610E+02  0.51100000000E-03 0. -1.
        -11    1    3    3    0    0  0.30935097380E+01  0.62621043251E+01 -0.48923454205E+01  0.85275317092E+01  0.51100000000E-03 0.  1.
        -12    1    3    3    0    0  0.10381002522E+02  0.50227606975E+01 -0.79211869986E+01  0.13990659093E+02  0.00000000000E+00 0.  1.
</event>
<event>
 7    1  0.1519238E-008  0.4614232E+02  0.7816164E-02  0.1320468E+00
        -11   -1    0    0    0    0  0.00000000000E+00  0.00000000000E+00  0.45593999997E+02  0.45594000000E+02  0.51100000000E-03 0.  1.
         11   -1    0    0    0    0 -0.00000000000E+00 -0.00000000000E+00 -0.45593999997E+02  0.45594000000E+02  0.51100000000E-03 0. -1.
    9900012    2    1    2    0    0 -0.16711133071E+02 -0.21730936316E+00 -0.41830662698E+02  0.46142317259E+02  0.99999954180E+01 0.  0.
        -12    1    1    2    0    0  0.16711133071E+02  0.21730936316E+00  0.41830662698E+02  0.45045682741E+02  0.00000000000E+00 0.  1.
         11    1    3    3    0    0 -0.41224785899E+01  0.32472041752E+01 -0.17624815698E+02  0.18389488665E+02  0.51100000000E-03 0. -1.
        -11    1    3    3    0    0 -0.10067378405E+02 -0.36135333728E+01 -0.16684420105E+02  0.19818668116E+02  0.51100000000E-03 0.  1.
        -12    1    3    3    0    0 -0.25212760761E+01  0.14901983440E+00 -0.75214268946E+01  0.79341604782E+01  0.00000000000E+00 0.  1.
</event>
<event>
 7    1  0.1519238E-008  0.4614232E+02  0.7816164E-02  0.1320468E+00
        -11   -1    0    0    0    0  0.00000000000E+00  0.00000000000E+00  0.45593999997E+02  0.45594000000E+02  0.51100000000E-03 0.  1.
         11   -1    0    0    0    0 -0.00000000000E+00 -0.00000000000E+00 -0.45593999997E+02  0.45594000000E+02  0.51100000000E-03 0. -1.
    9900012    2    1    2    0    0 -0.36612312972E+02 -0.36159414103E+01 -0.25991863206E+02  0.46142318228E+02  0.10000004254E+02 0.  0.
        -12    1    1    2    0    0  0.36612312972E+02  0.36159414103E+01  0.25991863206E+02  0.45045681772E+02  0.00000000000E+00 0.  1.
         11    1    3    3    0    0 -0.24143826199E+02  0.25144851777E+00 -0.12329911662E+02  0.27111147002E+02  0.51100000000E-03 0. -1.
        -11    1    3    3    0    0 -0.11355089997E+01 -0.18803957899E+00 -0.22759241031E+01  0.25504059198E+01  0.51100000000E-03 0.  1.
         12    1    3    3    0    0 -0.11332977773E+02 -0.36793503491E+01 -0.11386027441E+02  0.16480765306E+02  0.00000000000E+00 0. -1.
</event>
<event>
 7    1  0.1519238E-008  0.4614232E+02  0.7816164E-02  0.1320468E+00
        -11   -1    0    0    0    0  0.00000000000E+00  0.00000000000E+00  0.45593999997E+02  0.45594000000E+02  0.51100000000E-03 0.  1.
         11   -1    0    0    0    0 -0.00000000000E+00 -0.00000000000E+00 -0.45593999997E+02  0.45594000000E+02  0.51100000000E-03 0. -1.
    9900012    2    1    2    0    0 -0.15138962034E+02  0.29666937243E+02 -0.30328173055E+02  0.46142318546E+02  0.10000007155E+02 0.  0.
        -12    1    1    2    0    0  0.15138962034E+02 -0.29666937243E+02  0.30328173055E+02  0.45045681454E+02  0.00000000000E+00 0.  1.
         11    1    3    3    0    0 -0.39066942629E+00  0.66182615396E+01 -0.31047453968E+01  0.73207549233E+01  0.51100000000E-03 0. -1.
        -11    1    3    3    0    0 -0.98227255169E+01  0.13390615112E+02 -0.18856092559E+02  0.25126614107E+02  0.51100000000E-03 0.  1.
        -12    1    3    3    0    0 -0.49255670906E+01  0.96580605921E+01 -0.83673350989E+01  0.13694949515E+02  0.00000000000E+00 0.  1.
</event>
<event>
 7    1  0.1519238E-008  0.4614232E+02  0.7816164E-02  0.1320468E+00
        -11   -1    0    0    0    0  0.00000000000E+00  0.00000000000E+00  0.45593999997E+02  0.45594000000E+02  0.51100000000E-03 0. -1.
         11   -1    0    0    0    0 -0.00000000000E+00 -0.00000000000E+00 -0.45593999997E+02  0.45594000000E+02  0.51100000000E-03 0.  1.
    9900012    2    1    2    0    0  0.18103078537E+02  0.24192370097E+02  0.33408397993E+02  0.46142320075E+02  0.10000021100E+02 0.  0.
        -12    1    1    2    0    0 -0.18103078537E+02 -0.24192370097E+02 -0.33408397993E+02  0.45045679925E+02  0.00000000000E+00 0.  1.
         11    1    3    3    0    0  0.54099538630E+01  0.87192778194E+01  0.11545547294E+02  0.15446458140E+02  0.51100000000E-03 0. -1.
        -11    1    3    3    0    0  0.20299064228E+01  0.83030234531E+01  0.69967431683E+01  0.11046046070E+02  0.51100000000E-03 0.  1.
        -12    1    3    3    0    0  0.10663218252E+02  0.71700688246E+01  0.14866107531E+02  0.19649815866E+02  0.00000000000E+00 0.  1.
</event>
<event>
 7    1  0.1519238E-008  0.4614232E+02  0.7816164E-02  0.1320468E+00
        -11   -1    0    0    0    0  0.00000000000E+00  0.00000000000E+00  0.45593999997E+02  0.45594000000E+02  0.51100000000E-03 0.  1.
         11   -1    0    0    0    0 -0.00000000000E+00 -0.00000000000E+00 -0.45593999997E+02  0.45594000000E+02  0.51100000000E-03 0. -1.
    9900012    2    1    2    0    0 -0.19491419622E+02  0.43224166503E+01 -0.40379633931E+02  0.46142316955E+02  0.99999926495E+01 0.  0.
        -12    1    1    2    0    0  0.19491419622E+02 -0.43224166503E+01  0.40379633931E+02  0.45045683045E+02  0.00000000000E+00 0.  1.
         11    1    3    3    0    0 -0.61598955065E+01 -0.12099774250E+01 -0.20412901073E+02  0.21356378169E+02  0.51100000000E-03 0. -1.
        -11    1    3    3    0    0 -0.43283320303E+01  0.65054832236E+00 -0.49286695518E+01  0.65916200661E+01  0.51100000000E-03 0.  1.
         12    1    3    3    0    0 -0.90031920852E+01  0.48818457529E+01 -0.15038063306E+02  0.18194318720E+02  0.00000000000E+00 0. -1.
</event>
<event>
 7    1  0.1519238E-008  0.4614232E+02  0.7816164E-02  0.1320468E+00
        -11   -1    0    0    0    0  0.00000000000E+00  0.00000000000E+00  0.45593999997E+02  0.45594000000E+02  0.51100000000E-03 0.  1.
         11   -1    0    0    0    0 -0.00000000000E+00 -0.00000000000E+00 -0.45593999997E+02  0.45594000000E+02  0.51100000000E-03 0. -1.
    9900012    2    1    2    0    0 -0.29062153928E+02 -0.25996729726E+02 -0.22553818198E+02  0.46142318046E+02  0.10000002602E+02 0.  0.
        -12    1    1    2    0    0  0.29062153928E+02  0.25996729726E+02  0.22553818198E+02  0.45045681954E+02  0.00000000000E+00 0.  1.
         11    1    3    3    0    0 -0.13485416511E+02 -0.16901171102E+02 -0.14701131210E+02  0.26146305708E+02  0.51100000000E-03 0. -1.
        -11    1    3    3    0    0 -0.79002880061E+01 -0.43845510006E+01 -0.19981998327E+01  0.92537365906E+01  0.51100000000E-03 0.  1.
         12    1    3    3    0    0 -0.76764494103E+01 -0.47110076239E+01 -0.58544871556E+01  0.10742275748E+02  0.00000000000E+00 0. -1.
</event>
<event>
 7    1  0.1519238E-008  0.4614232E+02  0.7816164E-02  0.1320468E+00
        -11   -1    0    0    0    0  0.00000000000E+00  0.00000000000E+00  0.45593999997E+02  0.45594000000E+02  0.51100000000E-03 0.  1.
         11   -1    0    0    0    0 -0.00000000000E+00 -0.00000000000E+00 -0.45593999997E+02  0.45594000000E+02  0.51100000000E-03 0. -1.
    9900012    2    1    2    0    0  0.43117561470E+02 -0.12353718700E+02  0.41683327562E+01  0.46142317956E+02  0.10000001778E+02 0.  0.
        -12    1    1    2    0    0 -0.43117561470E+02  0.12353718700E+02 -0.41683327562E+01  0.45045682044E+02  0.00000000000E+00 0.  1.
         11    1    3    3    0    0  0.16203688852E+02 -0.96185946520E+01  0.25631394551E+01  0.19017007641E+02  0.51100000000E-03 0. -1.
        -11    1    3    3    0    0  0.16182824388E+02 -0.13458847597E+01  0.14539236074E+01  0.16303653121E+02  0.51100000000E-03 0.  1.
         12    1    3    3    0    0  0.10731048230E+02 -0.13892392886E+01  0.15126969362E+00  0.10821657194E+02  0.00000000000E+00 0. -1.
</event>
<event>
 7    1  0.1519238E-008  0.4614231E+02  0.7816164E-02  0.1320468E+00
        -11   -1    0    0    0    0  0.00000000000E+00  0.00000000000E+00  0.45593999997E+02  0.45594000000E+02  0.51100000000E-03 0.  1.
         11   -1    0    0    0    0 -0.00000000000E+00 -0.00000000000E+00 -0.45593999997E+02  0.45594000000E+02  0.51100000000E-03 0. -1.
    9900012    2    1    2    0    0 -0.22135304892E+02 -0.11978800645E+02 -0.37358405710E+02  0.46142313583E+02  0.99999619038E+01 0.  0.
        -12    1    1    2    0    0  0.22135304892E+02  0.11978800645E+02  0.37358405710E+02  0.45045686417E+02  0.00000000000E+00 0.  1.
         11    1    3    3    0    0 -0.34246885500E+01  0.31107769237E+00 -0.10825533929E+02  0.11358584687E+02  0.51100000000E-03 0. -1.
        -11    1    3    3    0    0 -0.10313211596E+02 -0.63562469972E+01 -0.12745473966E+02  0.17584405483E+02  0.51100000000E-03 0.  1.
         12    1    3    3    0    0 -0.83974047459E+01 -0.59336313399E+01 -0.13787397816E+02  0.17199323413E+02  0.00000000000E+00 0. -1.
</event>
<event>
 7    1  0.1519238E-008  0.4614232E+02  0.7816164E-02  0.1320468E+00
        -11   -1    0    0    0    0  0.00000000000E+00  0.00000000000E+00  0.45593999997E+02  0.45594000000E+02  0.51100000000E-03 0.  1.
         11   -1    0    0    0    0 -0.00000000000E+00 -0.00000000000E+00 -0.45593999997E+02  0.45594000000E+02  0.51100000000E-03 0. -1.
    9900012    2    1    2    0    0  0.11445276459E+02  0.33008809282E+02 -0.28434797876E+02  0.46142316814E+02  0.99999913668E+01 0.  0.
        -12    1    1    2    0    0 -0.11445276459E+02 -0.33008809282E+02  0.28434797876E+02  0.45045683186E+02  0.00000000000E+00 0.  1.
         11    1    3    3    0    0  0.36262642786E+01  0.22131205996E+02 -0.16189646950E+02  0.27659442150E+02  0.51100000000E-03 0. -1.
        -11    1    3    3    0    0  0.22625142212E+01  0.10521716598E+01 -0.15787128798E+01  0.29526886766E+01  0.51100000000E-03 0.  1.
         12    1    3    3    0    0  0.55564979591E+01  0.98254316260E+01 -0.10666438047E+02  0.15530185988E+02  0.00000000000E+00 0. -1.
</event>
<event>
 7    1  0.1519238E-008  0.4614231E+02  0.7816164E-02  0.1320468E+00
        -11   -1    0    0    0    0  0.00000000000E+00  0.00000000000E+00  0.45593999997E+02  0.45594000000E+02  0.51100000000E-03 0. -1.
         11   -1    0    0    0    0 -0.00000000000E+00 -0.00000000000E+00 -0.45593999997E+02  0.45594000000E+02  0.51100000000E-03 0.  1.
    9900012    2    1    2    0    0 -0.32778289683E+02  0.13940835694E+02  0.27574467720E+02  0.46142307149E+02  0.99999032305E+01 0.  0.
        -12    1    1    2    0    0  0.32778289683E+02 -0.13940835694E+02 -0.27574467720E+02  0.45045692851E+02  0.00000000000E+00 0.  1.
         11    1    3    3    0    0 -0.22305262508E+02  0.96998728809E+01  0.15123212848E+02  0.28641296000E+02  0.51100000000E-03 0. -1.
        -11    1    3    3    0    0 -0.25126651409E+01  0.28211592684E+01  0.62813666269E+01  0.73299381096E+01  0.51100000000E-03 0.  1.
        -12    1    3    3    0    0 -0.79603620338E+01  0.14198035446E+01  0.61698882453E+01  0.10171073039E+02  0.00000000000E+00 0.  1.
</event>
<event>
 7    1  0.1519238E-008  0.4614232E+02  0.7816164E-02  0.1320468E+00
        -11   -1    0    0    0    0  0.00000000000E+00  0.00000000000E+00  0.45593999997E+02  0.45594000000E+02  0.51100000000E-03 0.  1.
         11   -1    0    0    0    0 -0.00000000000E+00 -0.00000000000E+00 -0.45593999997E+02  0.45594000000E+02  0.51100000000E-03 0. -1.
    9900012    2    1    2    0    0  0.11272659271E+02 -0.18093903824E+01 -0.43574840469E+02  0.46142318048E+02  0.10000002617E+02 0.  0.
        -12    1    1    2    0    0 -0.11272659271E+02  0.18093903824E+01  0.43574840469E+02  0.45045681952E+02  0.00000000000E+00 0.  1.
         11    1    3    3    0    0  0.71015970373E+01 -0.44981817554E+00 -0.18928176316E+02  0.20221544842E+02  0.51100000000E-03 0. -1.
        -11    1    3    3    0    0  0.22148353475E+01  0.21698004519E+01 -0.51535041498E+01  0.60143274687E+01  0.51100000000E-03 0.  1.
        -12    1    3    3    0    0  0.19562268862E+01 -0.35293726587E+01 -0.19493160003E+02  0.19906445738E+02  0.00000000000E+00 0.  1.
</event>
<event>
 7    1  0.1519238E-008  0.4614232E+02  0.7816164E-02  0.1320468E+00
        -11   -1    0    0    0    0  0.00000000000E+00  0.00000000000E+00  0.45593999997E+02  0.45594000000E+02  0.51100000000E-03 0.  1.
         11   -1    0    0    0    0 -0.00000000000E+00 -0.00000000000E+00 -0.45593999997E+02  0.45594000000E+02  0.51100000000E-03 0. -1.
    9900012    2    1    2    0    0 -0.27625403325E+01  0.62153335073E+01 -0.44529220998E+02  0.46142317383E+02  0.99999965556E+01 0.  0.
        -12    1    1    2    0    0  0.27625403325E+01 -0.62153335073E+01  0.44529220998E+02  0.45045682617E+02  0.00000000000E+00 0.  1.
         11    1    3    3    0    0 -0.17549811089E+01  0.50595421581E+01 -0.23655576009E+02  0.24254179065E+02  0.51100000000E-03 0. -1.
        -11    1    3    3    0    0  0.22673484614E+01  0.21150975367E+01 -0.83227550762E+01  0.88815966445E+01  0.51100000000E-03 0.  1.
        -12    1    3    3    0    0 -0.32749076850E+01 -0.95930618747E+00 -0.12550889913E+02  0.13006541674E+02  0.00000000000E+00 0.  1.
</event>
<event>
 7    1  0.1519238E-008  0.4614232E+02  0.7816164E-02  0.1320468E+00
        -11   -1    0    0    0    0  0.00000000000E+00  0.00000000000E+00  0.45593999997E+02  0.45594000000E+02  0.51100000000E-03 0. -1.
         11   -1    0    0    0    0 -0.00000000000E+00 -0.00000000000E+00 -0.45593999997E+02  0.45594000000E+02  0.51100000000E-03 0.  1.
    9900012    2    1    2    0    0  0.12887106884E+02  0.39725161630E+02  0.16880386286E+02  0.46142318392E+02  0.10000005756E+02 0.  0.
        -12    1    1    2    0    0 -0.12887106884E+02 -0.39725161630E+02 -0.16880386286E+02  0.45045681608E+02  0.00000000000E+00 0.  1.
         11    1    3    3    0    0  0.82980484975E+01  0.22821504069E+02  0.13451714887E+02  0.27760174540E+02  0.51100000000E-03 0. -1.
        -11    1    3    3    0    0  0.61883919579E+00  0.97856437563E+01  0.88981290655E+00  0.98454838857E+01  0.51100000000E-03 0.  1.
         12    1    3    3    0    0  0.39702191903E+01  0.71180138041E+01  0.25388584930E+01  0.85366599664E+01  0.00000000000E+00 0. -1.
</event>
<event>
 7    1  0.1519238E-008  0.4614232E+02  0.7816164E-02  0.1320468E+00
        -11   -1    0    0    0    0  0.00000000000E+00  0.00000000000E+00  0.45593999997E+02  0.45594000000E+02  0.51100000000E-03 0. -1.
         11   -1    0    0    0    0 -0.00000000000E+00 -0.00000000000E+00 -0.45593999997E+02  0.45594000000E+02  0.51100000000E-03 0.  1.
    9900012    2    1    2    0    0 -0.25292193791E+02 -0.17996747409E+02  0.32642541149E+02  0.46142317890E+02  0.10000001177E+02 0.  0.
        -12    1    1    2    0    0  0.25292193791E+02  0.17996747409E+02 -0.32642541149E+02  0.45045682110E+02  0.00000000000E+00 0.  1.
         11    1    3    3    0    0 -0.97070354553E+01 -0.27881543878E+01  0.12039551165E+02  0.15714678957E+02  0.51100000000E-03 0. -1.
        -11    1    3    3    0    0 -0.68896499907E+01 -0.83726454106E+01  0.70468479314E+01  0.12931609884E+02  0.51100000000E-03 0.  1.
         12    1    3    3    0    0 -0.86955083454E+01 -0.68359476103E+01  0.13556142053E+02  0.17496029049E+02  0.00000000000E+00 0. -1.
</event>
<event>
 7    1  0.1519238E-008  0.4614232E+02  0.7816164E-02  0.1320468E+00
        -11   -1    0    0    0    0  0.00000000000E+00  0.00000000000E+00  0.45593999997E+02  0.45594000000E+02  0.51100000000E-03 0. -1.
         11   -1    0    0    0    0 -0.00000000000E+00 -0.00000000000E+00 -0.45593999997E+02  0.45594000000E+02  0.51100000000E-03 0.  1.
    9900012    2    1    2    0    0  0.12688637469E+02 -0.32473714513E+02  0.28523140998E+02  0.46142320657E+02  0.10000026406E+02 0.  0.
        -12    1    1    2    0    0 -0.12688637469E+02  0.32473714513E+02 -0.28523140998E+02  0.45045679343E+02  0.00000000000E+00 0.  1.
         11    1    3    3    0    0  0.57994190433E+01 -0.18120818119E+02  0.10241727698E+02  0.21607644412E+02  0.51100000000E-03 0. -1.
        -11    1    3    3    0    0  0.57211930028E+01 -0.13419543579E+02  0.17683858366E+02  0.22924551167E+02  0.51100000000E-03 0.  1.
        -12    1    3    3    0    0  0.11680254232E+01 -0.93335281491E+00  0.59755493426E+00  0.16101250777E+01  0.00000000000E+00 0.  1.
</event>
<event>
 7    1  0.1519238E-008  0.4614232E+02  0.7816164E-02  0.1320468E+00
        -11   -1    0    0    0    0  0.00000000000E+00  0.00000000000E+00  0.45593999997E+02  0.45594000000E+02  0.51100000000E-03 0.  1.
         11   -1    0    0    0    0 -0.00000000000E+00 -0.00000000000E+00 -0.45593999997E+02  0.45594000000E+02  0.51100000000E-03 0. -1.
    9900012    2    1    2    0    0  0.95282807037E+01 -0.36677772086E+02 -0.24352954745E+02  0.46142317597E+02  0.99999985041E+01 0.  0.
        -12    1    1    2    0    0 -0.95282807037E+01  0.36677772086E+02  0.24352954745E+02  0.45045682403E+02  0.00000000000E+00 0.  1.
         11    1    3    3    0    0  0.28103292766E+01 -0.16220904702E+02 -0.11926399734E+02  0.20328667218E+02  0.51100000000E-03 0. -1.
        -11    1    3    3    0    0  0.68102487112E+01 -0.17844497657E+02 -0.80736776984E+01  0.20736196758E+02  0.51100000000E-03 0.  1.
        -12    1    3    3    0    0 -0.92297283999E-01 -0.26123697269E+01 -0.43528773122E+01  0.50774536211E+01  0.00000000000E+00 0.  1.
</event>
<event>
 7    1  0.1519238E-008  0.4614232E+02  0.7816164E-02  0.1320468E+00
        -11   -1    0    0    0    0  0.00000000000E+00  0.00000000000E+00  0.45593999997E+02  0.45594000000E+02  0.51100000000E-03 0.  1.
         11   -1    0    0    0    0 -0.00000000000E+00 -0.00000000000E+00 -0.45593999997E+02  0.45594000000E+02  0.51100000000E-03 0. -1.
    9900012    2    1    2    0    0  0.28822594440E+02 -0.28988851559E+02 -0.18921364174E+02  0.46142317774E+02  0.10000000120E+02 0.  0.
        -12    1    1    2    0    0 -0.28822594440E+02  0.28988851559E+02  0.18921364174E+02  0.45045682226E+02  0.00000000000E+00 0.  1.
         11    1    3    3    0    0  0.33502804484E+01 -0.52048422357E+01 -0.29165166333E+01  0.68425749039E+01  0.51100000000E-03 0. -1.
        -11    1    3    3    0    0  0.30803456299E+01 -0.44135126729E+01 -0.59694536487E+01  0.80375369634E+01  0.51100000000E-03 0.  1.
        -12    1    3    3    0    0  0.22391968362E+02 -0.19370496651E+02 -0.10035393892E+02  0.31262205907E+02  0.00000000000E+00 0.  1.
</event>
<event>
 7    1  0.1519238E-008  0.4614232E+02  0.7816164E-02  0.1320468E+00
        -11   -1    0    0    0    0  0.00000000000E+00  0.00000000000E+00  0.45593999997E+02  0.45594000000E+02  0.51100000000E-03 0.  1.
         11   -1    0    0    0    0 -0.00000000000E+00 -0.00000000000E+00 -0.45593999997E+02  0.45594000000E+02  0.51100000000E-03 0. -1.
    9900012    2    1    2    0    0  0.20466216828E+02 -0.95962857815E+01 -0.38963556614E+02  0.46142317898E+02  0.10000001249E+02 0.  0.
        -12    1    1    2    0    0 -0.20466216828E+02  0.95962857815E+01  0.38963556614E+02  0.45045682102E+02  0.00000000000E+00 0.  1.
         11    1    3    3    0    0  0.16230082605E+02 -0.39603155711E+01 -0.25367191515E+02  0.30374233923E+02  0.51100000000E-03 0. -1.
        -11    1    3    3    0    0  0.24022662993E+01 -0.53074649626E+01 -0.81974197255E+01  0.10056727008E+02  0.51100000000E-03 0.  1.
         12    1    3    3    0    0  0.18338679234E+01 -0.32850524766E+00 -0.53989453732E+01  0.57113569667E+01  0.00000000000E+00 0. -1.
</event>
<event>
 7    1  0.1519238E-008  0.4614232E+02  0.7816164E-02  0.1320468E+00
        -11   -1    0    0    0    0  0.00000000000E+00  0.00000000000E+00  0.45593999997E+02  0.45594000000E+02  0.51100000000E-03 0. -1.
         11   -1    0    0    0    0 -0.00000000000E+00 -0.00000000000E+00 -0.45593999997E+02  0.45594000000E+02  0.51100000000E-03 0.  1.
    9900012    2    1    2    0    0  0.18352384455E+02 -0.33428714121E+02  0.23975497700E+02  0.46142318377E+02  0.10000005615E+02 0.  0.
        -12    1    1    2    0    0 -0.18352384455E+02  0.33428714121E+02 -0.23975497700E+02  0.45045681623E+02  0.00000000000E+00 0.  1.
         11    1    3    3    0    0  0.80996455525E+01 -0.86959705110E+01  0.62285602972E+01  0.13417120587E+02  0.51100000000E-03 0. -1.
        -11    1    3    3    0    0 -0.31273412749E+00 -0.57379168394E+01  0.41286913879E+01  0.70758451883E+01  0.51100000000E-03 0.  1.
         12    1    3    3    0    0  0.10565473030E+02 -0.18994826770E+02  0.13618246015E+02  0.25649352602E+02  0.00000000000E+00 0. -1.
</event>
<event>
 7    1  0.1519238E-008  0.4614232E+02  0.7816164E-02  0.1320468E+00
        -11   -1    0    0    0    0  0.00000000000E+00  0.00000000000E+00  0.45593999997E+02  0.45594000000E+02  0.51100000000E-03 0. -1.
         11   -1    0    0    0    0 -0.00000000000E+00 -0.00000000000E+00 -0.45593999997E+02  0.45594000000E+02  0.51100000000E-03 0.  1.
    9900012    2    1    2    0    0  0.33737780633E+01  0.39268832389E+02  0.21810307683E+02  0.46142322107E+02  0.10000039631E+02 0.  0.
        -12    1    1    2    0    0 -0.33737780633E+01 -0.39268832389E+02 -0.21810307683E+02  0.45045677893E+02  0.00000000000E+00 0.  1.
         11    1    3    3    0    0  0.30437156321E+01  0.10488228995E+02  0.58848672933E+01  0.12405596141E+02  0.51100000000E-03 0. -1.
        -11    1    3    3    0    0  0.24323792144E+01  0.14039330796E+02  0.44172070848E+01  0.14917472860E+02  0.51100000000E-03 0.  1.
        -12    1    3    3    0    0 -0.21023167832E+01  0.14741272598E+02  0.11508233305E+02  0.18819253105E+02  0.00000000000E+00 0.  1.
</event>
<event>
 7    1  0.1519238E-008  0.4614232E+02  0.7816164E-02  0.1320468E+00
        -11   -1    0    0    0    0  0.00000000000E+00  0.00000000000E+00  0.45593999997E+02  0.45594000000E+02  0.51100000000E-03 0. -1.
         11   -1    0    0    0    0 -0.00000000000E+00 -0.00000000000E+00 -0.45593999997E+02  0.45594000000E+02  0.51100000000E-03 0.  1.
    9900012    2    1    2    0    0  0.42998396663E+02 -0.12816470078E+01  0.13364458765E+02  0.46142317712E+02  0.99999995546E+01 0.  0.
        -12    1    1    2    0    0 -0.42998396663E+02  0.12816470078E+01 -0.13364458765E+02  0.45045682288E+02  0.00000000000E+00 0.  1.
         11    1    3    3    0    0  0.15080402839E+02 -0.13120633219E+01  0.71480819571E+00  0.15154240693E+02  0.51100000000E-03 0. -1.
        -11    1    3    3    0    0  0.16287411692E+02  0.22672512392E+01  0.72665989957E+01  0.17978422318E+02  0.51100000000E-03 0.  1.
         12    1    3    3    0    0  0.11630582132E+02 -0.22368349251E+01  0.53830515738E+01  0.13009654702E+02  0.00000000000E+00 0. -1.
</event>
<event>
 7    1  0.1519238E-008  0.4614232E+02  0.7816164E-02  0.1320468E+00
        -11   -1    0    0    0    0  0.00000000000E+00  0.00000000000E+00  0.45593999997E+02  0.45594000000E+02  0.51100000000E-03 0.  1.
         11   -1    0    0    0    0 -0.00000000000E+00 -0.00000000000E+00 -0.45593999997E+02  0.45594000000E+02  0.51100000000E-03 0. -1.
    9900012    2    1    2    0    0 -0.29127406869E+02 -0.12247243433E+02 -0.32104707685E+02  0.46142322537E+02  0.10000043548E+02 0.  0.
        -12    1    1    2    0    0  0.29127406869E+02  0.12247243433E+02  0.32104707685E+02  0.45045677463E+02  0.00000000000E+00 0.  1.
         11    1    3    3    0    0 -0.10239330069E+02 -0.33014081487E+01 -0.12245042253E+02  0.16299823191E+02  0.51100000000E-03 0. -1.
        -11    1    3    3    0    0 -0.10670944921E+02 -0.88264593558E+01 -0.10445412478E+02  0.17345953198E+02  0.51100000000E-03 0.  1.
        -12    1    3    3    0    0 -0.82171318795E+01 -0.11937592811E+00 -0.94142529538E+01  0.12496546147E+02  0.00000000000E+00 0.  1.
</event>
<event>
 7    1  0.1519238E-008  0.4614232E+02  0.7816164E-02  0.1320468E+00
        -11   -1    0    0    0    0  0.00000000000E+00  0.00000000000E+00  0.45593999997E+02  0.45594000000E+02  0.51100000000E-03 0.  1.
         11   -1    0    0    0    0 -0.00000000000E+00 -0.00000000000E+00 -0.45593999997E+02  0.45594000000E+02  0.51100000000E-03 0. -1.
    9900012    2    1    2    0    0  0.41412128830E+02 -0.56020858484E+01 -0.16815641775E+02  0.46142316651E+02  0.99999898727E+01 0.  0.
        -12    1    1    2    0    0 -0.41412128830E+02  0.56020858484E+01  0.16815641775E+02  0.45045683349E+02  0.00000000000E+00 0.  1.
         11    1    3    3    0    0  0.81299256230E+01  0.58446622715E+00 -0.40841636831E+01  0.91168900760E+01  0.51100000000E-03 0. -1.
        -11    1    3    3    0    0  0.48836439118E+01 -0.63453115263E+00  0.95380336813E+00  0.50162086048E+01  0.51100000000E-03 0.  1.
         12    1    3    3    0    0  0.28398559296E+02 -0.55520209230E+01 -0.13685281460E+02  0.32009217970E+02  0.00000000000E+00 0. -1.
</event>
<event>
 7    1  0.1519238E-008  0.4614232E+02  0.7816164E-02  0.1320468E+00
        -11   -1    0    0    0    0  0.00000000000E+00  0.00000000000E+00  0.45593999997E+02  0.45594000000E+02  0.51100000000E-03 0. -1.
         11   -1    0    0    0    0 -0.00000000000E+00 -0.00000000000E+00 -0.45593999997E+02  0.45594000000E+02  0.51100000000E-03 0.  1.
    9900012    2    1    2    0    0 -0.20426460069E+02  0.37294555583E+02 -0.14865709389E+02  0.46142318045E+02  0.10000002593E+02 0.  0.
        -12    1    1    2    0    0  0.20426460069E+02 -0.37294555583E+02  0.14865709389E+02  0.45045681955E+02  0.00000000000E+00 0.  1.
         11    1    3    3    0    0 -0.41153105573E+01  0.10510887257E+02 -0.34621473050E+01  0.11806819900E+02  0.51100000000E-03 0. -1.
        -11    1    3    3    0    0 -0.81624004231E+01  0.64784305452E+01 -0.48612200782E+01  0.11498969689E+02  0.51100000000E-03 0.  1.
        -12    1    3    3    0    0 -0.81487490887E+01  0.20305237781E+02 -0.65423420058E+01  0.22836528457E+02  0.00000000000E+00 0.  1.
</event>
<event>
 7    1  0.1519238E-008  0.4614232E+02  0.7816164E-02  0.1320468E+00
        -11   -1    0    0    0    0  0.00000000000E+00  0.00000000000E+00  0.45593999997E+02  0.45594000000E+02  0.51100000000E-03 0. -1.
         11   -1    0    0    0    0 -0.00000000000E+00 -0.00000000000E+00 -0.45593999997E+02  0.45594000000E+02  0.51100000000E-03 0.  1.
    9900012    2    1    2    0    0 -0.30956589394E+02 -0.31101807122E+02 -0.10172547399E+02  0.46142317035E+02  0.99999933785E+01 0.  0.
        -12    1    1    2    0    0  0.30956589394E+02  0.31101807122E+02  0.10172547399E+02  0.45045682965E+02  0.00000000000E+00 0.  1.
         11    1    3    3    0    0 -0.68237482708E+01 -0.63191114991E+01 -0.38985148664E+01  0.10084301117E+02  0.51100000000E-03 0. -1.
        -11    1    3    3    0    0 -0.10458122936E+02 -0.14932119620E+02 -0.60346947889E+01  0.19203074576E+02  0.51100000000E-03 0.  1.
        -12    1    3    3    0    0 -0.13674718187E+02 -0.98505760033E+01 -0.23933774406E+00  0.16854941342E+02  0.00000000000E+00 0.  1.
</event>
<event>
 7    1  0.1519238E-008  0.4614232E+02  0.7816164E-02  0.1320468E+00
        -11   -1    0    0    0    0  0.00000000000E+00  0.00000000000E+00  0.45593999997E+02  0.45594000000E+02  0.51100000000E-03 0. -1.
         11   -1    0    0    0    0 -0.00000000000E+00 -0.00000000000E+00 -0.45593999997E+02  0.45594000000E+02  0.51100000000E-03 0.  1.
    9900012    2    1    2    0    0 -0.24211631571E+02 -0.47017123344E+01  0.37693556775E+02  0.46142318469E+02  0.10000006453E+02 0.  0.
        -12    1    1    2    0    0  0.24211631571E+02  0.47017123344E+01 -0.37693556775E+02  0.45045681531E+02  0.00000000000E+00 0.  1.
         11    1    3    3    0    0 -0.63159472812E+01 -0.29717046478E+01  0.12914751418E+02  0.14680361815E+02  0.51100000000E-03 0. -1.
        -11    1    3    3    0    0 -0.17738140223E+02 -0.28653073106E+01  0.24295797936E+02  0.30218163448E+02  0.51100000000E-03 0.  1.
        -12    1    3    3    0    0 -0.15754406701E+00  0.11352996240E+01  0.48300742140E+00  0.12437932057E+01  0.00000000000E+00 0.  1.
</event>
<event>
 7    1  0.1519238E-008  0.4614232E+02  0.7816164E-02  0.1320468E+00
        -11   -1    0    0    0    0  0.00000000000E+00  0.00000000000E+00  0.45593999997E+02  0.45594000000E+02  0.51100000000E-03 0.  1.
         11   -1    0    0    0    0 -0.00000000000E+00 -0.00000000000E+00 -0.45593999997E+02  0.45594000000E+02  0.51100000000E-03 0. -1.
    9900012    2    1    2    0    0 -0.11212816281E+02 -0.33880053706E+02 -0.27486874529E+02  0.46142316972E+02  0.99999928076E+01 0.  0.
        -12    1    1    2    0    0  0.11212816281E+02  0.33880053706E+02  0.27486874529E+02  0.45045683028E+02  0.00000000000E+00 0.  1.
         11    1    3    3    0    0 -0.14664414255E+01 -0.74580748793E+01 -0.30727335236E+01  0.81984768663E+01  0.51100000000E-03 0. -1.
        -11    1    3    3    0    0 -0.11500358848E+01 -0.12006342439E+01  0.19294123702E+00  0.16737179291E+01  0.51100000000E-03 0.  1.
         12    1    3    3    0    0 -0.85963389709E+01 -0.25221344583E+02 -0.24607082242E+02  0.36270122177E+02  0.00000000000E+00 0. -1.
</event>
<event>
 7    1  0.1519238E-008  0.4614232E+02  0.7816164E-02  0.1320468E+00
        -11   -1    0    0    0    0  0.00000000000E+00  0.00000000000E+00  0.45593999997E+02  0.45594000000E+02  0.51100000000E-03 0.  1.
         11   -1    0    0    0    0 -0.00000000000E+00 -0.00000000000E+00 -0.45593999997E+02  0.45594000000E+02  0.51100000000E-03 0. -1.
    9900012    2    1    2    0    0 -0.42176634030E+02 -0.35969740622E+01 -0.15404757091E+02  0.46142320723E+02  0.10000027011E+02 0.  0.
        -12    1    1    2    0    0  0.42176634030E+02  0.35969740622E+01  0.15404757091E+02  0.45045679277E+02  0.00000000000E+00 0.  1.
         11    1    3    3    0    0 -0.32224255918E+02 -0.14299621358E+01 -0.90388066449E+01  0.33498469921E+02  0.51100000000E-03 0. -1.
        -11    1    3    3    0    0 -0.87473417586E+01 -0.16044311102E+01 -0.36372362421E+01  0.96083127952E+01  0.51100000000E-03 0.  1.
         12    1    3    3    0    0 -0.12050363526E+01 -0.56258081624E+00 -0.27287142041E+01  0.30355380073E+01  0.00000000000E+00 0. -1.
</event>
<event>
 7    1  0.1519238E-008  0.4614232E+02  0.7816164E-02  0.1320468E+00
        -11   -1    0    0    0    0  0.00000000000E+00  0.00000000000E+00  0.45593999997E+02  0.45594000000E+02  0.51100000000E-03 0.  1.
         11   -1    0    0    0    0 -0.00000000000E+00 -0.00000000000E+00 -0.45593999997E+02  0.45594000000E+02  0.51100000000E-03 0. -1.
    9900012    2    1    2    0    0  0.72614835417E+01 -0.20049203467E+02 -0.39678883457E+02  0.46142317684E+02  0.99999993012E+01 0.  0.
        -12    1    1    2    0    0 -0.72614835417E+01  0.20049203467E+02  0.39678883457E+02  0.45045682316E+02  0.00000000000E+00 0.  1.
         11    1    3    3    0    0  0.62340746646E+01 -0.11296137371E+02 -0.27358406968E+02  0.30248121240E+02  0.51100000000E-03 0. -1.
        -11    1    3    3    0    0  0.34153050493E+00 -0.60105256476E+01 -0.43224525042E+01  0.74112520912E+01  0.51100000000E-03 0.  1.
        -12    1    3    3    0    0  0.68587837218E+00 -0.27425404484E+01 -0.79980239845E+01  0.84829443538E+01  0.00000000000E+00 0.  1.
</event>
<event>
 7    1  0.1519238E-008  0.4614232E+02  0.7816164E-02  0.1320468E+00
        -11   -1    0    0    0    0  0.00000000000E+00  0.00000000000E+00  0.45593999997E+02  0.45594000000E+02  0.51100000000E-03 0.  1.
         11   -1    0    0    0    0 -0.00000000000E+00 -0.00000000000E+00 -0.45593999997E+02  0.45594000000E+02  0.51100000000E-03 0. -1.
    9900012    2    1    2    0    0 -0.22621847313E+02 -0.75543601653E+01 -0.38213834236E+02  0.46142318072E+02  0.10000002833E+02 0.  0.
        -12    1    1    2    0    0  0.22621847313E+02  0.75543601653E+01  0.38213834236E+02  0.45045681928E+02  0.00000000000E+00 0.  1.
         11    1    3    3    0    0 -0.17510289200E+02 -0.49339593623E+01 -0.29003288721E+02  0.34236602340E+02  0.51100000000E-03 0. -1.
        -11    1    3    3    0    0 -0.41106499779E+01 -0.31798763446E+01 -0.94024160495E+01  0.10743113359E+02  0.51100000000E-03 0.  1.
        -12    1    3    3    0    0 -0.10009081354E+01  0.55947554157E+00  0.19187053476E+00  0.11626023737E+01  0.00000000000E+00 0.  1.
</event>
<event>
 7    1  0.1519238E-008  0.4614231E+02  0.7816164E-02  0.1320468E+00
        -11   -1    0    0    0    0  0.00000000000E+00  0.00000000000E+00  0.45593999997E+02  0.45594000000E+02  0.51100000000E-03 0.  1.
         11   -1    0    0    0    0 -0.00000000000E+00 -0.00000000000E+00 -0.45593999997E+02  0.45594000000E+02  0.51100000000E-03 0. -1.
    9900012    2    1    2    0    0 -0.28528363604E+02  0.31259273324E+02 -0.15430622145E+02  0.46142314319E+02  0.99999686149E+01 0.  0.
        -12    1    1    2    0    0  0.28528363604E+02 -0.31259273324E+02  0.15430622145E+02  0.45045685681E+02  0.00000000000E+00 0.  1.
         11    1    3    3    0    0 -0.70082384024E+01  0.60070081033E+01 -0.52577758525E+01  0.10622794314E+02  0.51100000000E-03 0. -1.
        -11    1    3    3    0    0 -0.11196682860E+02  0.13553502386E+02 -0.14390767633E+01  0.17638993060E+02  0.51100000000E-03 0.  1.
        -12    1    3    3    0    0 -0.10323442342E+02  0.11698762835E+02 -0.87337695293E+01  0.17880526945E+02  0.00000000000E+00 0.  1.
</event>
<event>
 7    1  0.1519238E-008  0.4614232E+02  0.7816164E-02  0.1320468E+00
        -11   -1    0    0    0    0  0.00000000000E+00  0.00000000000E+00  0.45593999997E+02  0.45594000000E+02  0.51100000000E-03 0. -1.
         11   -1    0    0    0    0 -0.00000000000E+00 -0.00000000000E+00 -0.45593999997E+02  0.45594000000E+02  0.51100000000E-03 0.  1.
    9900012    2    1    2    0    0 -0.15597520326E+02 -0.41424469891E+02 -0.83572732317E+01  0.46142319164E+02  0.10000012796E+02 0.  0.
        -12    1    1    2    0    0  0.15597520326E+02  0.41424469891E+02  0.83572732317E+01  0.45045680836E+02  0.00000000000E+00 0.  1.
         11    1    3    3    0    0 -0.13167164426E+02 -0.28418640430E+02 -0.25969135707E+01  0.31428288265E+02  0.51100000000E-03 0. -1.
        -11    1    3    3    0    0  0.85724270299E-01 -0.39757649076E+01 -0.28711085603E+01  0.49048261822E+01  0.51100000000E-03 0.  1.
         12    1    3    3    0    0 -0.25160801709E+01 -0.90300645532E+01 -0.28892511007E+01  0.98092047172E+01  0.00000000000E+00 0. -1.
</event>
<event>
 7    1  0.1519238E-008  0.4614232E+02  0.7816164E-02  0.1320468E+00
        -11   -1    0    0    0    0  0.00000000000E+00  0.00000000000E+00  0.45593999997E+02  0.45594000000E+02  0.51100000000E-03 0.  1.
         11   -1    0    0    0    0 -0.00000000000E+00 -0.00000000000E+00 -0.45593999997E+02  0.45594000000E+02  0.51100000000E-03 0. -1.
    9900012    2    1    2    0    0 -0.18644133178E+01 -0.43188006817E+02  0.12666235487E+02  0.46142317730E+02  0.99999997120E+01 0.  0.
        -12    1    1    2    0    0  0.18644133178E+01  0.43188006817E+02 -0.12666235487E+02  0.45045682270E+02  0.00000000000E+00 0.  1.
         11    1    3    3    0    0  0.10496521633E+01 -0.40173859813E+01  0.52449268968E+00  0.41852422426E+01  0.51100000000E-03 0. -1.
        -11    1    3    3    0    0 -0.53262224023E+01 -0.22561864299E+02  0.49855529336E+01  0.23712066634E+02  0.51100000000E-03 0.  1.
        -12    1    3    3    0    0  0.24121569212E+01 -0.16608756536E+02  0.71561898633E+01  0.18245008853E+02  0.00000000000E+00 0.  1.
</event>
<event>
 7    1  0.1519238E-008  0.4614232E+02  0.7816164E-02  0.1320468E+00
        -11   -1    0    0    0    0  0.00000000000E+00  0.00000000000E+00  0.45593999997E+02  0.45594000000E+02  0.51100000000E-03 0.  1.
         11   -1    0    0    0    0 -0.00000000000E+00 -0.00000000000E+00 -0.45593999997E+02  0.45594000000E+02  0.51100000000E-03 0. -1.
    9900012    2    1    2    0    0 -0.98112790520E+00 -0.44957565227E+02 -0.26397174012E+01  0.46142318841E+02  0.10000009850E+02 0.  0.
        -12    1    1    2    0    0  0.98112790520E+00  0.44957565227E+02  0.26397174012E+01  0.45045681159E+02  0.00000000000E+00 0.  1.
         11    1    3    3    0    0 -0.30751029823E+00 -0.35876556548E+02  0.16530709774E+01  0.35915936800E+02  0.51100000000E-03 0. -1.
        -11    1    3    3    0    0  0.59561645418E+00 -0.27345320945E+01 -0.10698592091E+01  0.29961681737E+01  0.51100000000E-03 0.  1.
         12    1    3    3    0    0 -0.12692340611E+01 -0.63464765847E+01 -0.32229291695E+01  0.72302138678E+01  0.00000000000E+00 0. -1.
</event>
<event>
 7    1  0.1519238E-008  0.4614232E+02  0.7816164E-02  0.1320468E+00
        -11   -1    0    0    0    0  0.00000000000E+00  0.00000000000E+00  0.45593999997E+02  0.45594000000E+02  0.51100000000E-03 0. -1.
         11   -1    0    0    0    0 -0.00000000000E+00 -0.00000000000E+00 -0.45593999997E+02  0.45594000000E+02  0.51100000000E-03 0.  1.
    9900012    2    1    2    0    0 -0.22869512565E+02  0.37472983199E+02 -0.10093253452E+02  0.46142324958E+02  0.10000065624E+02 0.  0.
        -12    1    1    2    0    0  0.22869512565E+02 -0.37472983199E+02  0.10093253452E+02  0.45045675042E+02  0.00000000000E+00 0.  1.
         11    1    3    3    0    0 -0.15270297770E+02  0.25913339020E+02 -0.69737170415E+01  0.30875813556E+02  0.51100000000E-03 0. -1.
        -11    1    3    3    0    0 -0.10626483785E+01  0.61072696652E+01  0.52200521413E-02  0.61990315251E+01  0.51100000000E-03 0.  1.
         12    1    3    3    0    0 -0.65365664163E+01  0.54523745143E+01 -0.31247564624E+01  0.90674798764E+01  0.00000000000E+00 0. -1.
</event>
<event>
 7    1  0.1519238E-008  0.4614231E+02  0.7816164E-02  0.1320468E+00
        -11   -1    0    0    0    0  0.00000000000E+00  0.00000000000E+00  0.45593999997E+02  0.45594000000E+02  0.51100000000E-03 0.  1.
         11   -1    0    0    0    0 -0.00000000000E+00 -0.00000000000E+00 -0.45593999997E+02  0.45594000000E+02  0.51100000000E-03 0. -1.
    9900012    2    1    2    0    0  0.96816877793E+01  0.42598549104E+02 -0.10988285436E+02  0.46142313405E+02  0.99999602794E+01 0.  0.
        -12    1    1    2    0    0 -0.96816877793E+01 -0.42598549104E+02  0.10988285436E+02  0.45045686595E+02  0.00000000000E+00 0.  1.
         11    1    3    3    0    0  0.35314240223E+01  0.41535167236E+01 -0.25110379553E+01  0.60023302702E+01  0.51100000000E-03 0. -1.
        -11    1    3    3    0    0  0.23430229417E+01  0.28030142830E+02 -0.55347860950E+01  0.28667272646E+02  0.51100000000E-03 0.  1.
         12    1    3    3    0    0  0.38072408153E+01  0.10414889550E+02 -0.29424613853E+01  0.11472710489E+02  0.00000000000E+00 0. -1.
</event>
<event>
 7    1  0.1519238E-008  0.4614232E+02  0.7816164E-02  0.1320468E+00
        -11   -1    0    0    0    0  0.00000000000E+00  0.00000000000E+00  0.45593999997E+02  0.45594000000E+02  0.51100000000E-03 0.  1.
         11   -1    0    0    0    0 -0.00000000000E+00 -0.00000000000E+00 -0.45593999997E+02  0.45594000000E+02  0.51100000000E-03 0. -1.
    9900012    2    1    2    0    0  0.28879659922E+02 -0.34233183750E+02 -0.48132960215E+01  0.46142318237E+02  0.10000004338E+02 0.  0.
        -12    1    1    2    0    0 -0.28879659922E+02  0.34233183750E+02  0.48132960215E+01  0.45045681763E+02  0.00000000000E+00 0.  1.
         11    1    3    3    0    0  0.18956594082E+02 -0.18863477546E+02 -0.54123092389E+01  0.27285093657E+02  0.51100000000E-03 0. -1.
        -11    1    3    3    0    0 -0.18376219236E+00 -0.18884986293E+00  0.56087182672E+00  0.61968563094E+00  0.51100000000E-03 0.  1.
        -12    1    3    3    0    0  0.10106828033E+02 -0.15180856342E+02  0.38141390636E-01  0.18237538949E+02  0.00000000000E+00 0.  1.
</event>
<event>
 7    1  0.1519238E-008  0.4614232E+02  0.7816164E-02  0.1320468E+00
        -11   -1    0    0    0    0  0.00000000000E+00  0.00000000000E+00  0.45593999997E+02  0.45594000000E+02  0.51100000000E-03 0.  1.
         11   -1    0    0    0    0 -0.00000000000E+00 -0.00000000000E+00 -0.45593999997E+02  0.45594000000E+02  0.51100000000E-03 0. -1.
    9900012    2    1    2    0    0  0.98873091785E+01  0.12889771283E+02 -0.42014382881E+02  0.46142318127E+02  0.10000003337E+02 0.  0.
        -12    1    1    2    0    0 -0.98873091785E+01 -0.12889771283E+02  0.42014382881E+02  0.45045681873E+02  0.00000000000E+00 0.  1.
         11    1    3    3    0    0  0.50527883486E+01  0.87711405371E+01 -0.14733249074E+02  0.17875463769E+02  0.51100000000E-03 0. -1.
        -11    1    3    3    0    0  0.34013085919E+01  0.11733300679E+01 -0.89635640006E+01  0.96587309435E+01  0.51100000000E-03 0.  1.
        -12    1    3    3    0    0  0.14332122381E+01  0.29453006782E+01 -0.18317569806E+02  0.18608123414E+02  0.00000000000E+00 0.  1.
</event>
<event>
 7    1  0.1519238E-008  0.4614232E+02  0.7816164E-02  0.1320468E+00
        -11   -1    0    0    0    0  0.00000000000E+00  0.00000000000E+00  0.45593999997E+02  0.45594000000E+02  0.51100000000E-03 0.  1.
         11   -1    0    0    0    0 -0.00000000000E+00 -0.00000000000E+00 -0.45593999997E+02  0.45594000000E+02  0.51100000000E-03 0. -1.
    9900012    2    1    2    0    0  0.36059354322E+02 -0.21484444073E+02 -0.16347941431E+02  0.46142316963E+02  0.99999927219E+01 0.  0.
        -12    1    1    2    0    0 -0.36059354322E+02  0.21484444073E+02  0.16347941431E+02  0.45045683037E+02  0.00000000000E+00 0.  1.
         11    1    3    3    0    0  0.42651812283E+01 -0.10726841746E+01 -0.32084473516E+01  0.54439468144E+01  0.51100000000E-03 0. -1.
        -11    1    3    3    0    0  0.13395674859E+02 -0.13051155692E+02 -0.62855407315E+01  0.19730301376E+02  0.51100000000E-03 0.  1.
         12    1    3    3    0    0  0.18398498234E+02 -0.73606042062E+01 -0.68539533481E+01  0.20968068772E+02  0.00000000000E+00 0. -1.
</event>
<event>
 7    1  0.1519238E-008  0.4614232E+02  0.7816164E-02  0.1320468E+00
        -11   -1    0    0    0    0  0.00000000000E+00  0.00000000000E+00  0.45593999997E+02  0.45594000000E+02  0.51100000000E-03 0.  1.
         11   -1    0    0    0    0 -0.00000000000E+00 -0.00000000000E+00 -0.45593999997E+02  0.45594000000E+02  0.51100000000E-03 0. -1.
    9900012    2    1    2    0    0  0.54562802789E+01 -0.33563114341E+02 -0.29544197528E+02  0.46142320448E+02  0.10000024499E+02 0.  0.
        -12    1    1    2    0    0 -0.54562802789E+01  0.33563114341E+02  0.29544197528E+02  0.45045679552E+02  0.00000000000E+00 0.  1.
         11    1    3    3    0    0  0.10933631552E+01 -0.60350975274E+01 -0.35892013706E+01  0.71063501105E+01  0.51100000000E-03 0. -1.
        -11    1    3    3    0    0  0.50058842626E+01 -0.22152715005E+02 -0.16259867206E+02  0.27931790869E+02  0.51100000000E-03 0.  1.
        -12    1    3    3    0    0 -0.64296713895E+00 -0.53753018091E+01 -0.96951289510E+01  0.11104179468E+02  0.00000000000E+00 0.  1.
</event>
<event>
 7    1  0.1519238E-008  0.4614232E+02  0.7816164E-02  0.1320468E+00
        -11   -1    0    0    0    0  0.00000000000E+00  0.00000000000E+00  0.45593999997E+02  0.45594000000E+02  0.51100000000E-03 0.  1.
         11   -1    0    0    0    0 -0.00000000000E+00 -0.00000000000E+00 -0.45593999997E+02  0.45594000000E+02  0.51100000000E-03 0. -1.
    9900012    2    1    2    0    0  0.66450473499E+00  0.44751658753E+02  0.50951967860E+01  0.46142316988E+02  0.99999929523E+01 0.  0.
        -12    1    1    2    0    0 -0.66450473499E+00 -0.44751658753E+02 -0.50951967860E+01  0.45045683012E+02  0.00000000000E+00 0.  1.
         11    1    3    3    0    0  0.25548808529E+01  0.30509184257E+02  0.43092119801E+00  0.30619004450E+02  0.51100000000E-03 0. -1.
        -11    1    3    3    0    0 -0.66315471350E+00  0.23271685805E+00 -0.11750531326E-01  0.70290087934E+00  0.51100000000E-03 0.  1.
        -12    1    3    3    0    0 -0.12272214044E+01  0.14009757638E+02  0.46760261194E+01  0.14820411659E+02  0.00000000000E+00 0.  1.
</event>
<event>
 7    1  0.1519238E-008  0.4614233E+02  0.7816164E-02  0.1320468E+00
        -11   -1    0    0    0    0  0.00000000000E+00  0.00000000000E+00  0.45593999997E+02  0.45594000000E+02  0.51100000000E-03 0. -1.
         11   -1    0    0    0    0 -0.00000000000E+00 -0.00000000000E+00 -0.45593999997E+02  0.45594000000E+02  0.51100000000E-03 0.  1.
    9900012    2    1    2    0    0  0.44662912194E+02 -0.28047518164E+01 -0.51449370741E+01  0.46142326114E+02  0.10000076165E+02 0.  0.
        -12    1    1    2    0    0 -0.44662912194E+02  0.28047518164E+01  0.51449370741E+01  0.45045673886E+02  0.00000000000E+00 0.  1.
         11    1    3    3    0    0  0.22135165603E+02 -0.12902317396E+01  0.83363968316E+00  0.22188402593E+02  0.51100000000E-03 0. -1.
        -11    1    3    3    0    0  0.12573142594E+01  0.56844613640E+00 -0.16445175430E+01  0.21467203747E+01  0.51100000000E-03 0.  1.
        -12    1    3    3    0    0  0.21270432331E+02 -0.20829662132E+01 -0.43340592142E+01  0.21807203146E+02  0.00000000000E+00 0.  1.
</event>
<event>
 7    1  0.1519238E-008  0.4614232E+02  0.7816164E-02  0.1320468E+00
        -11   -1    0    0    0    0  0.00000000000E+00  0.00000000000E+00  0.45593999997E+02  0.45594000000E+02  0.51100000000E-03 0.  1.
         11   -1    0    0    0    0 -0.00000000000E+00 -0.00000000000E+00 -0.45593999997E+02  0.45594000000E+02  0.51100000000E-03 0. -1.
    9900012    2    1    2    0    0  0.25715684272E+02 -0.23283392798E+02 -0.28735008123E+02  0.46142317747E+02  0.99999998746E+01 0.  0.
        -12    1    1    2    0    0 -0.25715684272E+02  0.23283392798E+02  0.28735008123E+02  0.45045682253E+02  0.00000000000E+00 0.  1.
         11    1    3    3    0    0  0.14186212773E+02 -0.98094373566E+01 -0.12320038318E+02  0.21195684431E+02  0.51100000000E-03 0. -1.
        -11    1    3    3    0    0  0.24108158079E+01 -0.69017255001E+01 -0.45918279196E+01  0.86331183035E+01  0.51100000000E-03 0.  1.
        -12    1    3    3    0    0  0.91186556910E+01 -0.65722299415E+01 -0.11823141886E+02  0.16313515013E+02  0.00000000000E+00 0.  1.
</event>
<event>
 7    1  0.1519238E-008  0.4614232E+02  0.7816164E-02  0.1320468E+00
        -11   -1    0    0    0    0  0.00000000000E+00  0.00000000000E+00  0.45593999997E+02  0.45594000000E+02  0.51100000000E-03 0.  1.
         11   -1    0    0    0    0 -0.00000000000E+00 -0.00000000000E+00 -0.45593999997E+02  0.45594000000E+02  0.51100000000E-03 0. -1.
    9900012    2    1    2    0    0 -0.38294831252E+02  0.12141668117E+02 -0.20376440196E+02  0.46142317406E+02  0.99999967589E+01 0.  0.
        -12    1    1    2    0    0  0.38294831252E+02 -0.12141668117E+02  0.20376440196E+02  0.45045682594E+02  0.00000000000E+00 0.  1.
         11    1    3    3    0    0 -0.20092562237E+02  0.31353103366E+01 -0.94358400112E+01  0.22418213692E+02  0.51100000000E-03 0. -1.
        -11    1    3    3    0    0 -0.11139833365E+02  0.47128814850E+01 -0.93948706632E+01  0.15315702215E+02  0.51100000000E-03 0.  1.
         12    1    3    3    0    0 -0.70624356505E+01  0.42934762954E+01 -0.15457295219E+01  0.84084014992E+01  0.00000000000E+00 0. -1.
</event>
<event>
 7    1  0.1519238E-008  0.4614231E+02  0.7816164E-02  0.1320468E+00
        -11   -1    0    0    0    0  0.00000000000E+00  0.00000000000E+00  0.45593999997E+02  0.45594000000E+02  0.51100000000E-03 0. -1.
         11   -1    0    0    0    0 -0.00000000000E+00 -0.00000000000E+00 -0.45593999997E+02  0.45594000000E+02  0.51100000000E-03 0.  1.
    9900012    2    1    2    0    0 -0.44832723309E+02  0.84289438750E+00 -0.42930615729E+01  0.46142312882E+02  0.99999555105E+01 0.  0.
        -12    1    1    2    0    0  0.44832723309E+02 -0.84289438750E+00  0.42930615729E+01  0.45045687118E+02  0.00000000000E+00 0.  1.
         11    1    3    3    0    0 -0.24728228168E+02  0.35219301165E+01 -0.52142813182E+01  0.25516229933E+02  0.51100000000E-03 0. -1.
        -11    1    3    3    0    0 -0.16847357997E+02 -0.35582668088E+01  0.50117758083E+00  0.17226314562E+02  0.51100000000E-03 0.  1.
        -12    1    3    3    0    0 -0.32571371439E+01  0.87923107978E+00  0.42004216444E+00  0.33997683871E+01  0.00000000000E+00 0.  1.
</event>
<event>
 7    1  0.1519238E-008  0.4614232E+02  0.7816164E-02  0.1320468E+00
        -11   -1    0    0    0    0  0.00000000000E+00  0.00000000000E+00  0.45593999997E+02  0.45594000000E+02  0.51100000000E-03 0.  1.
         11   -1    0    0    0    0 -0.00000000000E+00 -0.00000000000E+00 -0.45593999997E+02  0.45594000000E+02  0.51100000000E-03 0. -1.
    9900012    2    1    2    0    0 -0.50274901103E+01 -0.32965648170E+02 -0.30283721810E+02  0.46142318489E+02  0.10000006640E+02 0.  0.
        -12    1    1    2    0    0  0.50274901103E+01  0.32965648170E+02  0.30283721810E+02  0.45045681511E+02  0.00000000000E+00 0.  1.
         11    1    3    3    0    0 -0.21984162577E+01 -0.10184874112E+02 -0.11523427910E+02  0.15535574845E+02  0.51100000000E-03 0. -1.
        -11    1    3    3    0    0 -0.50218766739E+01 -0.11161043242E+02 -0.80205838834E+01  0.14632767943E+02  0.51100000000E-03 0.  1.
         12    1    3    3    0    0  0.21928028213E+01 -0.11619730817E+02 -0.10739710017E+02  0.15973975702E+02  0.00000000000E+00 0. -1.
</event>
<event>
 7    1  0.1519238E-008  0.4614232E+02  0.7816164E-02  0.1320468E+00
        -11   -1    0    0    0    0  0.00000000000E+00  0.00000000000E+00  0.45593999997E+02  0.45594000000E+02  0.51100000000E-03 0.  1.
         11   -1    0    0    0    0 -0.00000000000E+00 -0.00000000000E+00 -0.45593999997E+02  0.45594000000E+02  0.51100000000E-03 0. -1.
    9900012    2    1    2    0    0 -0.15033626945E+02  0.39795659549E+02 -0.14812459707E+02  0.46142318513E+02  0.10000006858E+02 0.  0.
        -12    1    1    2    0    0  0.15033626945E+02 -0.39795659549E+02  0.14812459707E+02  0.45045681487E+02  0.00000000000E+00 0.  1.
         11    1    3    3    0    0 -0.10000993387E+02  0.23241986433E+02 -0.84499161779E+01  0.26676035795E+02  0.51100000000E-03 0. -1.
        -11    1    3    3    0    0 -0.35900653339E+01  0.29151778008E+01 -0.22855436499E+01  0.51585405639E+01  0.51100000000E-03 0.  1.
        -12    1    3    3    0    0 -0.14425682247E+01  0.13638495315E+02 -0.40769998791E+01  0.14307742154E+02  0.00000000000E+00 0.  1.
</event>
<event>
 7    1  0.1519238E-008  0.4614232E+02  0.7816164E-02  0.1320468E+00
        -11   -1    0    0    0    0  0.00000000000E+00  0.00000000000E+00  0.45593999997E+02  0.45594000000E+02  0.51100000000E-03 0. -1.
         11   -1    0    0    0    0 -0.00000000000E+00 -0.00000000000E+00 -0.45593999997E+02  0.45594000000E+02  0.51100000000E-03 0.  1.
    9900012    2    1    2    0    0  0.44482012633E+02  0.30271761611E+01  0.64265266317E+01  0.46142317766E+02  0.10000000046E+02 0.  0.
        -12    1    1    2    0    0 -0.44482012633E+02 -0.30271761611E+01 -0.64265266317E+01  0.45045682234E+02  0.00000000000E+00 0.  1.
         11    1    3    3    0    0  0.15518690080E+02  0.17116130138E+01  0.44825166991E+01  0.16243531548E+02  0.51100000000E-03 0. -1.
        -11    1    3    3    0    0  0.26525685665E+02 -0.79832400001E+00  0.23742027409E+01  0.26643688936E+02  0.51100000000E-03 0.  1.
        -12    1    3    3    0    0  0.24376368874E+01  0.21138871473E+01 -0.43019280830E+00  0.32550972825E+01  0.00000000000E+00 0.  1.
</event>
<event>
 7    1  0.1519238E-008  0.4614232E+02  0.7816164E-02  0.1320468E+00
        -11   -1    0    0    0    0  0.00000000000E+00  0.00000000000E+00  0.45593999997E+02  0.45594000000E+02  0.51100000000E-03 0.  1.
         11   -1    0    0    0    0 -0.00000000000E+00 -0.00000000000E+00 -0.45593999997E+02  0.45594000000E+02  0.51100000000E-03 0. -1.
    9900012    2    1    2    0    0  0.23895196247E+02 -0.33567156697E+02 -0.18203824323E+02  0.46142316162E+02  0.99999854223E+01 0.  0.
        -12    1    1    2    0    0 -0.23895196247E+02  0.33567156697E+02  0.18203824323E+02  0.45045683838E+02  0.00000000000E+00 0.  1.
         11    1    3    3    0    0  0.11862224466E+02 -0.23996170533E+02 -0.10531269916E+02  0.28765191045E+02  0.51100000000E-03 0.  1.
        -11    1    3    3    0    0  0.21948108184E-01 -0.20203159851E+00 -0.50063139588E+00  0.54030597064E+00  0.51100000000E-03 0. -1.
         12    1    3    3    0    0  0.12011023672E+02 -0.93689545654E+01 -0.71719230110E+01  0.16836819147E+02  0.00000000000E+00 0. -1.
</event>
<event>
 7    1  0.1519238E-008  0.4614232E+02  0.7816164E-02  0.1320468E+00
        -11   -1    0    0    0    0  0.00000000000E+00  0.00000000000E+00  0.45593999997E+02  0.45594000000E+02  0.51100000000E-03 0.  1.
         11   -1    0    0    0    0 -0.00000000000E+00 -0.00000000000E+00 -0.45593999997E+02  0.45594000000E+02  0.51100000000E-03 0. -1.
    9900012    2    1    2    0    0 -0.20066217050E+02  0.38130464259E+02 -0.13134994742E+02  0.46142318097E+02  0.10000003059E+02 0.  0.
        -12    1    1    2    0    0  0.20066217050E+02 -0.38130464259E+02  0.13134994742E+02  0.45045681903E+02  0.00000000000E+00 0.  1.
         11    1    3    3    0    0 -0.12863459471E+02  0.24934709653E+02 -0.42450554933E+01  0.28376554256E+02  0.51100000000E-03 0. -1.
        -11    1    3    3    0    0 -0.50766049061E+01  0.10165086909E+02 -0.81691993951E+01  0.13994167652E+02  0.51100000000E-03 0.  1.
        -12    1    3    3    0    0 -0.21261526732E+01  0.30306676966E+01 -0.72073985311E+00  0.37715961890E+01  0.00000000000E+00 0.  1.
</event>
<event>
 7    1  0.1519238E-008  0.4614232E+02  0.7816164E-02  0.1320468E+00
        -11   -1    0    0    0    0  0.00000000000E+00  0.00000000000E+00  0.45593999997E+02  0.45594000000E+02  0.51100000000E-03 0.  1.
         11   -1    0    0    0    0 -0.00000000000E+00 -0.00000000000E+00 -0.45593999997E+02  0.45594000000E+02  0.51100000000E-03 0. -1.
    9900012    2    1    2    0    0  0.15254432796E+02 -0.16178899652E+02 -0.39174723356E+02  0.46142318033E+02  0.10000002476E+02 0.  0.
        -12    1    1    2    0    0 -0.15254432796E+02  0.16178899652E+02  0.39174723356E+02  0.45045681967E+02  0.00000000000E+00 0.  1.
         11    1    3    3    0    0  0.49179820566E+01 -0.59233413448E+01 -0.19270410356E+02  0.20751415271E+02  0.51100000000E-03 0. -1.
        -11    1    3    3    0    0  0.23609591314E+01 -0.97450363509E-01 -0.11711166038E+01  0.26372597434E+01  0.51100000000E-03 0.  1.
        -12    1    3    3    0    0  0.79754916075E+01 -0.10158107944E+02 -0.18733196396E+02  0.22753643019E+02  0.00000000000E+00 0.  1.
</event>
<event>
 7    1  0.1519238E-008  0.4614232E+02  0.7816164E-02  0.1320468E+00
        -11   -1    0    0    0    0  0.00000000000E+00  0.00000000000E+00  0.45593999997E+02  0.45594000000E+02  0.51100000000E-03 0.  1.
         11   -1    0    0    0    0 -0.00000000000E+00 -0.00000000000E+00 -0.45593999997E+02  0.45594000000E+02  0.51100000000E-03 0. -1.
    9900012    2    1    2    0    0  0.39883320826E+02  0.52871663259E+01 -0.20260308575E+02  0.46142317506E+02  0.99999976697E+01 0.  0.
        -12    1    1    2    0    0 -0.39883320826E+02 -0.52871663259E+01  0.20260308575E+02  0.45045682494E+02  0.00000000000E+00 0.  1.
         11    1    3    3    0    0  0.23177175508E+02  0.38320930588E+00 -0.14692372829E+02  0.27444382550E+02  0.51100000000E-03 0. -1.
        -11    1    3    3    0    0  0.37355070759E+01  0.29719062236E+00  0.24735778475E+00  0.37554655523E+01  0.51100000000E-03 0.  1.
        -12    1    3    3    0    0  0.12970638242E+02  0.46067663977E+01 -0.58152935304E+01  0.14942469404E+02  0.00000000000E+00 0.  1.
</event>
<event>
 7    1  0.1519238E-008  0.4614232E+02  0.7816164E-02  0.1320468E+00
        -11   -1    0    0    0    0  0.00000000000E+00  0.00000000000E+00  0.45593999997E+02  0.45594000000E+02  0.51100000000E-03 0. -1.
         11   -1    0    0    0    0 -0.00000000000E+00 -0.00000000000E+00 -0.45593999997E+02  0.45594000000E+02  0.51100000000E-03 0.  1.
    9900012    2    1    2    0    0 -0.29481823125E+02  0.28335393876E+02  0.18895529736E+02  0.46142317800E+02  0.10000000355E+02 0.  0.
        -12    1    1    2    0    0  0.29481823125E+02 -0.28335393876E+02 -0.18895529736E+02  0.45045682200E+02  0.00000000000E+00 0.  1.
         11    1    3    3    0    0 -0.16887352683E+02  0.17713072495E+02  0.14865567066E+02  0.28634257495E+02  0.51100000000E-03 0. -1.
        -11    1    3    3    0    0 -0.53183862851E+01  0.66331573774E+01  0.58061607264E+00  0.85218029052E+01  0.51100000000E-03 0.  1.
         12    1    3    3    0    0 -0.72760841569E+01  0.39891640036E+01  0.34493465970E+01  0.89862573996E+01  0.00000000000E+00 0. -1.
</event>
<event>
 7    1  0.1519238E-008  0.4614231E+02  0.7816164E-02  0.1320468E+00
        -11   -1    0    0    0    0  0.00000000000E+00  0.00000000000E+00  0.45593999997E+02  0.45594000000E+02  0.51100000000E-03 0. -1.
         11   -1    0    0    0    0 -0.00000000000E+00 -0.00000000000E+00 -0.45593999997E+02  0.45594000000E+02  0.51100000000E-03 0.  1.
    9900012    2    1    2    0    0 -0.12378299355E+02 -0.81194558612E+01  0.42543697849E+02  0.46142311138E+02  0.99999396067E+01 0.  0.
        -12    1    1    2    0    0  0.12378299355E+02  0.81194558612E+01 -0.42543697849E+02  0.45045688862E+02  0.00000000000E+00 0.  1.
         11    1    3    3    0    0  0.85132440872E-01 -0.46009284610E+00 -0.27066235172E+00  0.54054724981E+00  0.51100000000E-03 0.  1.
        -11    1    3    3    0    0 -0.40794352942E+01 -0.18475539205E+01  0.21634606821E+02  0.22093244677E+02  0.51100000000E-03 0. -1.
         12    1    3    3    0    0 -0.83839965015E+01 -0.58118090945E+01  0.21179753379E+02  0.23508519211E+02  0.00000000000E+00 0. -1.
</event>
<event>
 7    1  0.1519238E-008  0.4614232E+02  0.7816164E-02  0.1320468E+00
        -11   -1    0    0    0    0  0.00000000000E+00  0.00000000000E+00  0.45593999997E+02  0.45594000000E+02  0.51100000000E-03 0. -1.
         11   -1    0    0    0    0 -0.00000000000E+00 -0.00000000000E+00 -0.45593999997E+02  0.45594000000E+02  0.51100000000E-03 0.  1.
    9900012    2    1    2    0    0  0.43931153650E+02  0.50444888988E+01  0.85860534058E+01  0.46142318271E+02  0.10000004653E+02 0.  0.
        -12    1    1    2    0    0 -0.43931153650E+02 -0.50444888988E+01 -0.85860534058E+01  0.45045681729E+02  0.00000000000E+00 0.  1.
         11    1    3    3    0    0  0.13384490153E+02  0.37922997067E+01  0.58966339907E-02  0.13911367609E+02  0.51100000000E-03 0. -1.
        -11    1    3    3    0    0  0.26568593146E+02 -0.82213881723E+00  0.73014520870E+01  0.27565871233E+02  0.51100000000E-03 0.  1.
         12    1    3    3    0    0  0.39780703512E+01  0.20743280094E+01  0.12787046847E+01  0.46650794292E+01  0.00000000000E+00 0. -1.
</event>
<event>
 7    1  0.1519238E-008  0.4614232E+02  0.7816164E-02  0.1320468E+00
        -11   -1    0    0    0    0  0.00000000000E+00  0.00000000000E+00  0.45593999997E+02  0.45594000000E+02  0.51100000000E-03 0.  1.
         11   -1    0    0    0    0 -0.00000000000E+00 -0.00000000000E+00 -0.45593999997E+02  0.45594000000E+02  0.51100000000E-03 0. -1.
    9900012    2    1    2    0    0 -0.14827116713E+02 -0.97535130889E+01 -0.41402162942E+02  0.46142317589E+02  0.99999984299E+01 0.  0.
        -12    1    1    2    0    0  0.14827116713E+02  0.97535130889E+01  0.41402162942E+02  0.45045682411E+02  0.00000000000E+00 0.  1.
         11    1    3    3    0    0 -0.45711143999E+01 -0.86234220642E+01 -0.22737709523E+02  0.24743927125E+02  0.51100000000E-03 0. -1.
        -11    1    3    3    0    0 -0.74924786092E+01 -0.27851970501E+00 -0.14566776594E+02  0.16383094626E+02  0.51100000000E-03 0.  1.
        -12    1    3    3    0    0 -0.27635237042E+01 -0.85157131966E+00 -0.40976768248E+01  0.50152958374E+01  0.00000000000E+00 0.  1.
</event>
<event>
 7    1  0.1519238E-008  0.4614231E+02  0.7816164E-02  0.1320468E+00
        -11   -1    0    0    0    0  0.00000000000E+00  0.00000000000E+00  0.45593999997E+02  0.45594000000E+02  0.51100000000E-03 0. -1.
         11   -1    0    0    0    0 -0.00000000000E+00 -0.00000000000E+00 -0.45593999997E+02  0.45594000000E+02  0.51100000000E-03 0.  1.
    9900012    2    1    2    0    0  0.43566851551E+01  0.18077784437E+02  0.41028365285E+02  0.46142314817E+02  0.99999731526E+01 0.  0.
        -12    1    1    2    0    0 -0.43566851551E+01 -0.18077784437E+02 -0.41028365285E+02  0.45045685183E+02  0.00000000000E+00 0.  1.
         11    1    3    3    0    0  0.37129662933E+01  0.11582696930E+02  0.20946526189E+02  0.24221931106E+02  0.51100000000E-03 0. -1.
        -11    1    3    3    0    0 -0.14392178281E+01  0.18262604331E+01  0.12881481268E+02  0.13089657560E+02  0.51100000000E-03 0.  1.
        -12    1    3    3    0    0  0.20829366899E+01  0.46688270738E+01  0.72003578279E+01  0.88307261507E+01  0.00000000000E+00 0.  1.
</event>
<event>
 7    1  0.1519238E-008  0.4614232E+02  0.7816164E-02  0.1320468E+00
        -11   -1    0    0    0    0  0.00000000000E+00  0.00000000000E+00  0.45593999997E+02  0.45594000000E+02  0.51100000000E-03 0. -1.
         11   -1    0    0    0    0 -0.00000000000E+00 -0.00000000000E+00 -0.45593999997E+02  0.45594000000E+02  0.51100000000E-03 0.  1.
    9900012    2    1    2    0    0 -0.45156163537E+01 -0.37187883637E+02  0.25015676494E+02  0.46142317068E+02  0.99999936753E+01 0.  0.
        -12    1    1    2    0    0  0.45156163537E+01  0.37187883637E+02 -0.25015676494E+02  0.45045682932E+02  0.00000000000E+00 0.  1.
         11    1    3    3    0    0 -0.26143128821E+01 -0.18021392693E+02  0.14883470810E+02  0.23518565647E+02  0.51100000000E-03 0. -1.
        -11    1    3    3    0    0  0.19096213185E+00  0.35627002205E+00 -0.18389109655E+00  0.44408452002E+00  0.51100000000E-03 0.  1.
        -12    1    3    3    0    0 -0.20922656035E+01 -0.19522760965E+02  0.10316096780E+02  0.22179666901E+02  0.00000000000E+00 0.  1.
</event>
<event>
 7    1  0.1519238E-008  0.4614232E+02  0.7816164E-02  0.1320468E+00
        -11   -1    0    0    0    0  0.00000000000E+00  0.00000000000E+00  0.45593999997E+02  0.45594000000E+02  0.51100000000E-03 0.  1.
         11   -1    0    0    0    0 -0.00000000000E+00 -0.00000000000E+00 -0.45593999997E+02  0.45594000000E+02  0.51100000000E-03 0. -1.
    9900012    2    1    2    0    0  0.18666882107E+02 -0.40934066905E+02 -0.22501522557E+01  0.46142317564E+02  0.99999981985E+01 0.  0.
        -12    1    1    2    0    0 -0.18666882107E+02  0.40934066905E+02  0.22501522557E+01  0.45045682436E+02  0.00000000000E+00 0.  1.
         11    1    3    3    0    0  0.26168424200E+01 -0.16626433973E+02 -0.14544497783E+01  0.16893833056E+02  0.51100000000E-03 0. -1.
        -11    1    3    3    0    0  0.14876959243E+02 -0.21084847403E+02 -0.83888739056E+00  0.25818567711E+02  0.51100000000E-03 0.  1.
         12    1    3    3    0    0  0.11730804444E+01 -0.32227855293E+01  0.43184913094E-01  0.34299167969E+01  0.00000000000E+00 0. -1.
</event>
<event>
 7    1  0.1519238E-008  0.4614232E+02  0.7816164E-02  0.1320468E+00
        -11   -1    0    0    0    0  0.00000000000E+00  0.00000000000E+00  0.45593999997E+02  0.45594000000E+02  0.51100000000E-03 0.  1.
         11   -1    0    0    0    0 -0.00000000000E+00 -0.00000000000E+00 -0.45593999997E+02  0.45594000000E+02  0.51100000000E-03 0. -1.
    9900012    2    1    2    0    0 -0.16347220976E+02 -0.33333750475E+02 -0.25509659954E+02  0.46142319793E+02  0.10000018525E+02 0.  0.
        -12    1    1    2    0    0  0.16347220976E+02  0.33333750475E+02  0.25509659954E+02  0.45045680207E+02  0.00000000000E+00 0.  1.
         11    1    3    3    0    0 -0.23662609286E+01 -0.54116069658E+01 -0.34412693050E+01  0.68357161603E+01  0.51100000000E-03 0. -1.
        -11    1    3    3    0    0 -0.15041363792E+02 -0.24657779981E+02 -0.18219665238E+02  0.34149742897E+02  0.51100000000E-03 0.  1.
        -12    1    3    3    0    0  0.10604037448E+01 -0.32643635285E+01 -0.38487254112E+01  0.51568607349E+01  0.00000000000E+00 0.  1.
</event>
<event>
 7    1  0.1519238E-008  0.4614232E+02  0.7816164E-02  0.1320468E+00
        -11   -1    0    0    0    0  0.00000000000E+00  0.00000000000E+00  0.45593999997E+02  0.45594000000E+02  0.51100000000E-03 0. -1.
         11   -1    0    0    0    0 -0.00000000000E+00 -0.00000000000E+00 -0.45593999997E+02  0.45594000000E+02  0.51100000000E-03 0.  1.
    9900012    2    1    2    0    0  0.25017208546E+02 -0.15504324965E+01  0.37427918003E+02  0.46142316407E+02  0.99999876517E+01 0.  0.
        -12    1    1    2    0    0 -0.25017208546E+02  0.15504324965E+01 -0.37427918003E+02  0.45045683593E+02  0.00000000000E+00 0.  1.
         11    1    3    3    0    0  0.13980834962E+02 -0.14235197087E+01  0.21343759303E+02  0.25554768949E+02  0.51100000000E-03 0. -1.
        -11    1    3    3    0    0 -0.68875332620E+00 -0.33581459919E-01  0.80819700776E-02  0.68961905293E+00  0.51100000000E-03 0.  1.
        -12    1    3    3    0    0  0.11725126910E+02 -0.93331327852E-01  0.16076076729E+02  0.19897928405E+02  0.00000000000E+00 0.  1.
</event>
<event>
 7    1  0.1519238E-008  0.4614232E+02  0.7816164E-02  0.1320468E+00
        -11   -1    0    0    0    0  0.00000000000E+00  0.00000000000E+00  0.45593999997E+02  0.45594000000E+02  0.51100000000E-03 0. -1.
         11   -1    0    0    0    0 -0.00000000000E+00 -0.00000000000E+00 -0.45593999997E+02  0.45594000000E+02  0.51100000000E-03 0.  1.
    9900012    2    1    2    0    0 -0.32851926540E+02 -0.30656302442E+02  0.31710521569E+01  0.46142317314E+02  0.99999959274E+01 0.  0.
        -12    1    1    2    0    0  0.32851926540E+02  0.30656302442E+02 -0.31710521569E+01  0.45045682686E+02  0.00000000000E+00 0.  1.
         11    1    3    3    0    0 -0.16676896454E+02 -0.13994349882E+02  0.35773275923E+01  0.22062592253E+02  0.51100000000E-03 0. -1.
        -11    1    3    3    0    0 -0.66611929569E+01 -0.36350099884E+01  0.17982567982E+01  0.77986227629E+01  0.51100000000E-03 0.  1.
         12    1    3    3    0    0 -0.95138371291E+01 -0.13026942572E+02 -0.22045322335E+01  0.16281102298E+02  0.00000000000E+00 0. -1.
</event>
<event>
 7    1  0.1519238E-008  0.4614232E+02  0.7816164E-02  0.1320468E+00
        -11   -1    0    0    0    0  0.00000000000E+00  0.00000000000E+00  0.45593999997E+02  0.45594000000E+02  0.51100000000E-03 0. -1.
         11   -1    0    0    0    0 -0.00000000000E+00 -0.00000000000E+00 -0.45593999997E+02  0.45594000000E+02  0.51100000000E-03 0.  1.
    9900012    2    1    2    0    0 -0.47101833254E+01 -0.39529802022E+02  0.21078954378E+02  0.46142318825E+02  0.10000009697E+02 0.  0.
        -12    1    1    2    0    0  0.47101833254E+01  0.39529802022E+02 -0.21078954378E+02  0.45045681175E+02  0.00000000000E+00 0.  1.
         11    1    3    3    0    0  0.30502248466E+00 -0.14184667938E+02  0.85231759168E+01  0.16551204524E+02  0.51100000000E-03 0. -1.
        -11    1    3    3    0    0 -0.64965576043E+00 -0.16468428801E+02  0.10332306855E+02  0.19452191778E+02  0.51100000000E-03 0.  1.
        -12    1    3    3    0    0 -0.43655500497E+01 -0.88767052838E+01  0.22234716064E+01  0.10138922522E+02  0.00000000000E+00 0.  1.
</event>
<event>
 7    1  0.1519238E-008  0.4614232E+02  0.7816164E-02  0.1320468E+00
        -11   -1    0    0    0    0  0.00000000000E+00  0.00000000000E+00  0.45593999997E+02  0.45594000000E+02  0.51100000000E-03 0. -1.
         11   -1    0    0    0    0 -0.00000000000E+00 -0.00000000000E+00 -0.45593999997E+02  0.45594000000E+02  0.51100000000E-03 0.  1.
    9900012    2    1    2    0    0 -0.18219143802E+02  0.32126326858E+02 -0.25789049258E+02  0.46142321629E+02  0.10000035271E+02 0.  0.
        -12    1    1    2    0    0  0.18219143802E+02 -0.32126326858E+02  0.25789049258E+02  0.45045678371E+02  0.00000000000E+00 0.  1.
         11    1    3    3    0    0 -0.92533466782E+01  0.21034079421E+02 -0.17178237602E+02  0.28690569343E+02  0.51100000000E-03 0. -1.
        -11    1    3    3    0    0 -0.37337296569E+01  0.13115349749E+01 -0.33046297606E+01  0.51557190824E+01  0.51100000000E-03 0.  1.
        -12    1    3    3    0    0 -0.52320674673E+01  0.97807124612E+01 -0.53061818955E+01  0.12296033203E+02  0.00000000000E+00 0.  1.
</event>
<event>
 7    1  0.1519238E-008  0.4614232E+02  0.7816164E-02  0.1320468E+00
        -11   -1    0    0    0    0  0.00000000000E+00  0.00000000000E+00  0.45593999997E+02  0.45594000000E+02  0.51100000000E-03 0. -1.
         11   -1    0    0    0    0 -0.00000000000E+00 -0.00000000000E+00 -0.45593999997E+02  0.45594000000E+02  0.51100000000E-03 0.  1.
    9900012    2    1    2    0    0 -0.26610437432E+02  0.30403155212E+02  0.19915980036E+02  0.46142317766E+02  0.10000000040E+02 0.  0.
        -12    1    1    2    0    0  0.26610437432E+02 -0.30403155212E+02 -0.19915980036E+02  0.45045682234E+02  0.00000000000E+00 0.  1.
         11    1    3    3    0    0 -0.15362935180E+02  0.19172971350E+02  0.95534104510E+01  0.26360771219E+02  0.51100000000E-03 0. -1.
        -11    1    3    3    0    0 -0.65216404869E+00  0.14546351850E+01 -0.56566516602E+00  0.16915255863E+01  0.51100000000E-03 0.  1.
         12    1    3    3    0    0 -0.10595338203E+02  0.97755486766E+01  0.10928234751E+02  0.18090020960E+02  0.00000000000E+00 0. -1.
</event>
<event>
 7    1  0.1519238E-008  0.4614232E+02  0.7816164E-02  0.1320468E+00
        -11   -1    0    0    0    0  0.00000000000E+00  0.00000000000E+00  0.45593999997E+02  0.45594000000E+02  0.51100000000E-03 0. -1.
         11   -1    0    0    0    0 -0.00000000000E+00 -0.00000000000E+00 -0.45593999997E+02  0.45594000000E+02  0.51100000000E-03 0.  1.
    9900012    2    1    2    0    0  0.33508729966E+02  0.39321897583E+01  0.29846547457E+02  0.46142317684E+02  0.99999992931E+01 0.  0.
        -12    1    1    2    0    0 -0.33508729966E+02 -0.39321897583E+01 -0.29846547457E+02  0.45045682316E+02  0.00000000000E+00 0.  1.
         11    1    3    3    0    0  0.26358838914E+02  0.22537590517E+01  0.19366934630E+02  0.32786368753E+02  0.51100000000E-03 0. -1.
        -11    1    3    3    0    0  0.31325245121E+01 -0.36172021549E+00  0.69514865269E+01  0.76332638188E+01  0.51100000000E-03 0.  1.
         12    1    3    3    0    0  0.40173665398E+01  0.20401509221E+01  0.35281263006E+01  0.57226851121E+01  0.00000000000E+00 0. -1.
</event>
<event>
 7    1  0.1519238E-008  0.4614232E+02  0.7816164E-02  0.1320468E+00
        -11   -1    0    0    0    0  0.00000000000E+00  0.00000000000E+00  0.45593999997E+02  0.45594000000E+02  0.51100000000E-03 0. -1.
         11   -1    0    0    0    0 -0.00000000000E+00 -0.00000000000E+00 -0.45593999997E+02  0.45594000000E+02  0.51100000000E-03 0.  1.
    9900012    2    1    2    0    0  0.18804405235E+02 -0.86253333347E+00  0.40923877161E+02  0.46142319388E+02  0.10000014831E+02 0.  0.
        -12    1    1    2    0    0 -0.18804405235E+02  0.86253333347E+00 -0.40923877161E+02  0.45045680612E+02  0.00000000000E+00 0.  1.
         11    1    3    3    0    0  0.11141865449E+02  0.34022813783E+01  0.22916308320E+02  0.25707467233E+02  0.51100000000E-03 0. -1.
        -11    1    3    3    0    0  0.66978898182E+00 -0.22420917917E+01  0.36175323407E+01  0.43083794377E+01  0.51100000000E-03 0.  1.
        -12    1    3    3    0    0  0.69927508035E+01 -0.20227229200E+01  0.14390036500E+02  0.16126472717E+02  0.00000000000E+00 0.  1.
</event>
<event>
 7    1  0.1519238E-008  0.4614232E+02  0.7816164E-02  0.1320468E+00
        -11   -1    0    0    0    0  0.00000000000E+00  0.00000000000E+00  0.45593999997E+02  0.45594000000E+02  0.51100000000E-03 0.  1.
         11   -1    0    0    0    0 -0.00000000000E+00 -0.00000000000E+00 -0.45593999997E+02  0.45594000000E+02  0.51100000000E-03 0. -1.
    9900012    2    1    2    0    0 -0.24814296499E+02  0.58338713178E+01 -0.37139332109E+02  0.46142319244E+02  0.10000013521E+02 0.  0.
        -12    1    1    2    0    0  0.24814296499E+02 -0.58338713178E+01  0.37139332109E+02  0.45045680756E+02  0.00000000000E+00 0.  1.
         11    1    3    3    0    0 -0.15675605613E+02  0.73396778305E+01 -0.22049884576E+02  0.28031997647E+02  0.51100000000E-03 0. -1.
        -11    1    3    3    0    0 -0.15268003662E+01 -0.18041077408E+01 -0.29702934903E+01  0.37958619282E+01  0.51100000000E-03 0.  1.
         12    1    3    3    0    0 -0.76118905197E+01  0.29830122814E+00 -0.12119154042E+02  0.14314459669E+02  0.00000000000E+00 0. -1.
</event>
<event>
 7    1  0.1519238E-008  0.4614232E+02  0.7816164E-02  0.1320468E+00
        -11   -1    0    0    0    0  0.00000000000E+00  0.00000000000E+00  0.45593999997E+02  0.45594000000E+02  0.51100000000E-03 0. -1.
         11   -1    0    0    0    0 -0.00000000000E+00 -0.00000000000E+00 -0.45593999997E+02  0.45594000000E+02  0.51100000000E-03 0.  1.
    9900012    2    1    2    0    0 -0.38472626625E+01  0.43290596669E+02  0.11842137179E+02  0.46142318709E+02  0.10000008647E+02 0.  0.
        -12    1    1    2    0    0  0.38472626625E+01 -0.43290596669E+02 -0.11842137179E+02  0.45045681291E+02  0.00000000000E+00 0.  1.
         11    1    3    3    0    0 -0.35103902119E+01  0.23532876063E+02  0.69413807740E+01  0.24785113729E+02  0.51100000000E-03 0. -1.
        -11    1    3    3    0    0  0.71396464518E+00 -0.22560027252E+00 -0.24140086894E-01  0.74914885200E+00  0.51100000000E-03 0.  1.
        -12    1    3    3    0    0 -0.10508370958E+01  0.19983320879E+02  0.49248964920E+01  0.20608056129E+02  0.00000000000E+00 0.  1.
</event>
<event>
 7    1  0.1519238E-008  0.4614232E+02  0.7816164E-02  0.1320468E+00
        -11   -1    0    0    0    0  0.00000000000E+00  0.00000000000E+00  0.45593999997E+02  0.45594000000E+02  0.51100000000E-03 0.  1.
         11   -1    0    0    0    0 -0.00000000000E+00 -0.00000000000E+00 -0.45593999997E+02  0.45594000000E+02  0.51100000000E-03 0. -1.
    9900012    2    1    2    0    0  0.13610552597E+02 -0.32954973460E+02 -0.27528823025E+02  0.46142317467E+02  0.99999973139E+01 0.  0.
        -12    1    1    2    0    0 -0.13610552597E+02  0.32954973460E+02  0.27528823025E+02  0.45045682533E+02  0.00000000000E+00 0.  1.
         11    1    3    3    0    0 -0.54322612528E+00 -0.41268520115E+00 -0.24543686108E+01  0.25474161884E+01  0.51100000000E-03 0.  1.
        -11    1    3    3    0    0  0.14180688573E+02 -0.32462565057E+02 -0.24637526554E+02  0.43149945231E+02  0.51100000000E-03 0. -1.
         12    1    3    3    0    0 -0.26909851003E-01 -0.79723202599E-01 -0.43692785987E+00  0.44495604709E+00  0.00000000000E+00 0. -1.
</event>
<event>
 7    1  0.1519238E-008  0.4614232E+02  0.7816164E-02  0.1320468E+00
        -11   -1    0    0    0    0  0.00000000000E+00  0.00000000000E+00  0.45593999997E+02  0.45594000000E+02  0.51100000000E-03 0. -1.
         11   -1    0    0    0    0 -0.00000000000E+00 -0.00000000000E+00 -0.45593999997E+02  0.45594000000E+02  0.51100000000E-03 0.  1.
    9900012    2    1    2    0    0  0.23896789463E+02  0.38100407670E+02 -0.25329448747E+01  0.46142318509E+02  0.10000006823E+02 0.  0.
        -12    1    1    2    0    0 -0.23896789463E+02 -0.38100407670E+02  0.25329448747E+01  0.45045681491E+02  0.00000000000E+00 0.  1.
         11    1    3    3    0    0  0.70473161809E+00  0.45582766353E+01  0.59909781397E+00  0.46511773767E+01  0.51100000000E-03 0. -1.
        -11    1    3    3    0    0  0.13918369101E+02  0.22450067453E+02  0.10658008639E+01  0.26436006863E+02  0.51100000000E-03 0.  1.
        -12    1    3    3    0    0  0.92736887439E+01  0.11092063581E+02 -0.41978435525E+01  0.15055134270E+02  0.00000000000E+00 0.  1.
</event>
<event>
 7    1  0.1519238E-008  0.4614232E+02  0.7816164E-02  0.1320468E+00
        -11   -1    0    0    0    0  0.00000000000E+00  0.00000000000E+00  0.45593999997E+02  0.45594000000E+02  0.51100000000E-03 0.  1.
         11   -1    0    0    0    0 -0.00000000000E+00 -0.00000000000E+00 -0.45593999997E+02  0.45594000000E+02  0.51100000000E-03 0. -1.
    9900012    2    1    2    0    0 -0.11292425334E+02  0.69210596923E+01 -0.43054541206E+02  0.46142318124E+02  0.10000003309E+02 0.  0.
        -12    1    1    2    0    0  0.11292425334E+02 -0.69210596923E+01  0.43054541206E+02  0.45045681876E+02  0.00000000000E+00 0.  1.
         11    1    3    3    0    0 -0.56406782313E+00  0.10062771939E+01 -0.13340046071E+02  0.13389831804E+02  0.51100000000E-03 0. -1.
        -11    1    3    3    0    0  0.66329392713E-01  0.57080939358E+00  0.11219796133E+00  0.58550114926E+00  0.51100000000E-03 0.  1.
        -12    1    3    3    0    0 -0.10794686904E+02  0.53439731048E+01 -0.29826693096E+02  0.32166985171E+02  0.00000000000E+00 0.  1.
</event>
<event>
 7    1  0.1519238E-008  0.4614232E+02  0.7816164E-02  0.1320468E+00
        -11   -1    0    0    0    0  0.00000000000E+00  0.00000000000E+00  0.45593999997E+02  0.45594000000E+02  0.51100000000E-03 0.  1.
         11   -1    0    0    0    0 -0.00000000000E+00 -0.00000000000E+00 -0.45593999997E+02  0.45594000000E+02  0.51100000000E-03 0. -1.
    9900012    2    1    2    0    0  0.79949100233E+01  0.84388581894E+01 -0.43519886321E+02  0.46142318529E+02  0.10000006998E+02 0.  0.
        -12    1    1    2    0    0 -0.79949100233E+01 -0.84388581894E+01  0.43519886321E+02  0.45045681471E+02  0.00000000000E+00 0.  1.
         11    1    3    3    0    0  0.50629408710E+01  0.66145211545E+01 -0.25168299993E+02  0.26510914454E+02  0.51100000000E-03 0. -1.
        -11    1    3    3    0    0  0.46038586552E+01  0.59211706066E+00 -0.14867344961E+02  0.15575110387E+02  0.51100000000E-03 0.  1.
         12    1    3    3    0    0 -0.16718895028E+01  0.12322199742E+01 -0.34842413672E+01  0.40562936875E+01  0.00000000000E+00 0. -1.
</event>
<event>
 7    1  0.1519238E-008  0.4614232E+02  0.7816164E-02  0.1320468E+00
        -11   -1    0    0    0    0  0.00000000000E+00  0.00000000000E+00  0.45593999997E+02  0.45594000000E+02  0.51100000000E-03 0.  1.
         11   -1    0    0    0    0 -0.00000000000E+00 -0.00000000000E+00 -0.45593999997E+02  0.45594000000E+02  0.51100000000E-03 0. -1.
    9900012    2    1    2    0    0  0.83134301179E+00  0.28063287712E+02 -0.35226044482E+02  0.46142318095E+02  0.10000003048E+02 0.  0.
        -12    1    1    2    0    0 -0.83134301179E+00 -0.28063287712E+02  0.35226044482E+02  0.45045681905E+02  0.00000000000E+00 0.  1.
         11    1    3    3    0    0  0.49502368575E+01  0.15000114019E+02 -0.21678156857E+02  0.26822579117E+02  0.51100000000E-03 0. -1.
        -11    1    3    3    0    0 -0.51563214958E+00  0.36192308850E+01 -0.32835266326E+01  0.49138840158E+01  0.51100000000E-03 0.  1.
         12    1    3    3    0    0 -0.36032616961E+01  0.94439428083E+01 -0.10264360992E+02  0.14405854962E+02  0.00000000000E+00 0. -1.
</event>
<event>
 7    1  0.1519238E-008  0.4614232E+02  0.7816164E-02  0.1320468E+00
        -11   -1    0    0    0    0  0.00000000000E+00  0.00000000000E+00  0.45593999997E+02  0.45594000000E+02  0.51100000000E-03 0.  1.
         11   -1    0    0    0    0 -0.00000000000E+00 -0.00000000000E+00 -0.45593999997E+02  0.45594000000E+02  0.51100000000E-03 0. -1.
    9900012    2    1    2    0    0  0.34741935070E+02 -0.27181800991E+02 -0.91247554104E+01  0.46142317423E+02  0.99999969212E+01 0.  0.
        -12    1    1    2    0    0 -0.34741935070E+02  0.27181800991E+02  0.91247554104E+01  0.45045682577E+02  0.00000000000E+00 0.  1.
         11    1    3    3    0    0  0.20650842492E+02 -0.15083926854E+02 -0.78155650233E+01  0.26740703092E+02  0.51100000000E-03 0. -1.
        -11    1    3    3    0    0  0.56695697783E+01 -0.18185954723E+01  0.56798363574E+00  0.59811300466E+01  0.51100000000E-03 0.  1.
        -12    1    3    3    0    0  0.84215227990E+01 -0.10279278665E+02 -0.18771740229E+01  0.13420484285E+02  0.00000000000E+00 0.  1.
</event>
<event>
 7    1  0.1519238E-008  0.4614232E+02  0.7816164E-02  0.1320468E+00
        -11   -1    0    0    0    0  0.00000000000E+00  0.00000000000E+00  0.45593999997E+02  0.45594000000E+02  0.51100000000E-03 0. -1.
         11   -1    0    0    0    0 -0.00000000000E+00 -0.00000000000E+00 -0.45593999997E+02  0.45594000000E+02  0.51100000000E-03 0.  1.
    9900012    2    1    2    0    0 -0.27094751067E+01  0.43710909452E+02  0.10541755496E+02  0.46142317971E+02  0.10000001918E+02 0.  0.
        -12    1    1    2    0    0  0.27094751067E+01 -0.43710909452E+02 -0.10541755496E+02  0.45045682029E+02  0.00000000000E+00 0.  1.
         11    1    3    3    0    0 -0.57692244282E+00  0.22798463025E+02  0.70487203514E+01  0.23870216058E+02  0.51100000000E-03 0. -1.
        -11    1    3    3    0    0 -0.43158950103E+00  0.13477372251E+02  0.52070347995E+01  0.14454723932E+02  0.51100000000E-03 0.  1.
        -12    1    3    3    0    0 -0.17009631629E+01  0.74350741759E+01 -0.17139996549E+01  0.78173779811E+01  0.00000000000E+00 0.  1.
</event>
<event>
 7    1  0.1519238E-008  0.4614232E+02  0.7816164E-02  0.1320468E+00
        -11   -1    0    0    0    0  0.00000000000E+00  0.00000000000E+00  0.45593999997E+02  0.45594000000E+02  0.51100000000E-03 0.  1.
         11   -1    0    0    0    0 -0.00000000000E+00 -0.00000000000E+00 -0.45593999997E+02  0.45594000000E+02  0.51100000000E-03 0. -1.
    9900012    2    1    2    0    0 -0.31008518442E+02  0.22165207649E+02 -0.24006016439E+02  0.46142317950E+02  0.10000001718E+02 0.  0.
        -12    1    1    2    0    0  0.31008518442E+02 -0.22165207649E+02  0.24006016439E+02  0.45045682050E+02  0.00000000000E+00 0.  1.
         11    1    3    3    0    0 -0.13132224715E+02  0.70873979213E+01 -0.47734329751E+01  0.15667552390E+02  0.51100000000E-03 0. -1.
        -11    1    3    3    0    0 -0.18532241462E+01  0.39365778334E+00 -0.12983413303E+01  0.22967578578E+01  0.51100000000E-03 0.  1.
         12    1    3    3    0    0 -0.16023069581E+02  0.14684151945E+02 -0.17934242134E+02  0.28178007702E+02  0.00000000000E+00 0. -1.
</event>
<event>
 7    1  0.1519238E-008  0.4614232E+02  0.7816164E-02  0.1320468E+00
        -11   -1    0    0    0    0  0.00000000000E+00  0.00000000000E+00  0.45593999997E+02  0.45594000000E+02  0.51100000000E-03 0.  1.
         11   -1    0    0    0    0 -0.00000000000E+00 -0.00000000000E+00 -0.45593999997E+02  0.45594000000E+02  0.51100000000E-03 0. -1.
    9900012    2    1    2    0    0 -0.14671318834E+02  0.29956736537E+02 -0.30273086665E+02  0.46142318336E+02  0.10000005245E+02 0.  0.
        -12    1    1    2    0    0  0.14671318834E+02 -0.29956736537E+02  0.30273086665E+02  0.45045681664E+02  0.00000000000E+00 0.  1.
         11    1    3    3    0    0 -0.15665953344E+01  0.73382368059E+01 -0.61565484347E+01  0.97060305610E+01  0.51100000000E-03 0. -1.
        -11    1    3    3    0    0 -0.40563065724E+01  0.14786840112E+01 -0.39002892018E+01  0.58182802900E+01  0.51100000000E-03 0.  1.
         12    1    3    3    0    0 -0.90484169269E+01  0.21139815720E+02 -0.20216249029E+02  0.30618007485E+02  0.00000000000E+00 0. -1.
</event>
<event>
 7    1  0.1519238E-008  0.4614232E+02  0.7816164E-02  0.1320468E+00
        -11   -1    0    0    0    0  0.00000000000E+00  0.00000000000E+00  0.45593999997E+02  0.45594000000E+02  0.51100000000E-03 0.  1.
         11   -1    0    0    0    0 -0.00000000000E+00 -0.00000000000E+00 -0.45593999997E+02  0.45594000000E+02  0.51100000000E-03 0. -1.
    9900012    2    1    2    0    0 -0.71381838591E+01  0.17027163451E+02 -0.41088144054E+02  0.46142317124E+02  0.99999941892E+01 0.  0.
        -12    1    1    2    0    0  0.71381838591E+01 -0.17027163451E+02  0.41088144054E+02  0.45045682876E+02  0.00000000000E+00 0.  1.
         11    1    3    3    0    0 -0.21233804585E+01  0.10520608327E+02 -0.30697108087E+02  0.32519292571E+02  0.51100000000E-03 0. -1.
        -11    1    3    3    0    0 -0.56309579665E-01  0.18682649887E+01 -0.33849411068E+01  0.38667054962E+01  0.51100000000E-03 0.  1.
         12    1    3    3    0    0 -0.49584938209E+01  0.46382901352E+01 -0.70060948597E+01  0.97563190566E+01  0.00000000000E+00 0. -1.
</event>
<event>
 7    1  0.1519238E-008  0.4614232E+02  0.7816164E-02  0.1320468E+00
        -11   -1    0    0    0    0  0.00000000000E+00  0.00000000000E+00  0.45593999997E+02  0.45594000000E+02  0.51100000000E-03 0. -1.
         11   -1    0    0    0    0 -0.00000000000E+00 -0.00000000000E+00 -0.45593999997E+02  0.45594000000E+02  0.51100000000E-03 0.  1.
    9900012    2    1    2    0    0  0.27804789348E+02 -0.34847726055E+01  0.35268445318E+02  0.46142321118E+02  0.10000030613E+02 0.  0.
        -12    1    1    2    0    0 -0.27804789348E+02  0.34847726055E+01 -0.35268445318E+02  0.45045678882E+02  0.00000000000E+00 0.  1.
         11    1    3    3    0    0  0.66443972116E+01 -0.10658223671E+01  0.90370970711E+01  0.11267347308E+02  0.51100000000E-03 0. -1.
        -11    1    3    3    0    0  0.17153770779E+02  0.16048585813E+01  0.18467987411E+02  0.25256563153E+02  0.51100000000E-03 0.  1.
        -12    1    3    3    0    0  0.40066213575E+01 -0.40238088197E+01  0.77633608350E+01  0.96184106575E+01  0.00000000000E+00 0.  1.
</event>
<event>
 7    1  0.1519238E-008  0.4614232E+02  0.7816164E-02  0.1320468E+00
        -11   -1    0    0    0    0  0.00000000000E+00  0.00000000000E+00  0.45593999997E+02  0.45594000000E+02  0.51100000000E-03 0. -1.
         11   -1    0    0    0    0 -0.00000000000E+00 -0.00000000000E+00 -0.45593999997E+02  0.45594000000E+02  0.51100000000E-03 0.  1.
    9900012    2    1    2    0    0  0.19687885087E+01 -0.29472407022E+02  0.34009036519E+02  0.46142317978E+02  0.10000001979E+02 0.  0.
        -12    1    1    2    0    0 -0.19687885087E+01  0.29472407022E+02 -0.34009036519E+02  0.45045682022E+02  0.00000000000E+00 0.  1.
         11    1    3    3    0    0  0.11950819995E+01 -0.52430277193E+00 -0.10340596164E+00  0.13091246832E+01  0.51100000000E-03 0.  1.
        -11    1    3    3    0    0  0.13693804576E+00 -0.18891548692E+02  0.24168621468E+02  0.30676238816E+02  0.51100000000E-03 0. -1.
        -12    1    3    3    0    0  0.63676846347E+00 -0.10056555558E+02  0.99438210128E+01  0.14156954478E+02  0.00000000000E+00 0.  1.
</event>
<event>
 7    1  0.1519238E-008  0.4614232E+02  0.7816164E-02  0.1320468E+00
        -11   -1    0    0    0    0  0.00000000000E+00  0.00000000000E+00  0.45593999997E+02  0.45594000000E+02  0.51100000000E-03 0.  1.
         11   -1    0    0    0    0 -0.00000000000E+00 -0.00000000000E+00 -0.45593999997E+02  0.45594000000E+02  0.51100000000E-03 0. -1.
    9900012    2    1    2    0    0  0.81553477427E+01  0.75852704241E+01 -0.43647078744E+02  0.46142317553E+02  0.99999981031E+01 0.  0.
        -12    1    1    2    0    0 -0.81553477427E+01 -0.75852704241E+01  0.43647078744E+02  0.45045682447E+02  0.00000000000E+00 0.  1.
         11    1    3    3    0    0  0.99424472830E+00  0.48102560122E+01 -0.25553105434E+02  0.26020920104E+02  0.51100000000E-03 0. -1.
        -11    1    3    3    0    0  0.69162868355E+01  0.13377471141E+01 -0.12581607797E+02  0.14419481473E+02  0.51100000000E-03 0.  1.
        -12    1    3    3    0    0  0.24481617895E+00  0.14372672977E+01 -0.55123655126E+01  0.57019159755E+01  0.00000000000E+00 0.  1.
</event>
<event>
 7    1  0.1519238E-008  0.4614232E+02  0.7816164E-02  0.1320468E+00
        -11   -1    0    0    0    0  0.00000000000E+00  0.00000000000E+00  0.45593999997E+02  0.45594000000E+02  0.51100000000E-03 0.  1.
         11   -1    0    0    0    0 -0.00000000000E+00 -0.00000000000E+00 -0.45593999997E+02  0.45594000000E+02  0.51100000000E-03 0. -1.
    9900012    2    1    2    0    0  0.21053445106E+02  0.78345854101E+01 -0.39044656514E+02  0.46142317835E+02  0.10000000677E+02 0.  0.
        -12    1    1    2    0    0 -0.21053445106E+02 -0.78345854101E+01  0.39044656514E+02  0.45045682165E+02  0.00000000000E+00 0.  1.
         11    1    3    3    0    0  0.17525342271E+02  0.90810284760E+01 -0.27278262600E+02  0.33670555544E+02  0.51100000000E-03 0. -1.
        -11    1    3    3    0    0  0.11383738365E+01 -0.10350716559E+01 -0.65783394075E+01  0.67558728486E+01  0.51100000000E-03 0.  1.
         12    1    3    3    0    0  0.23897289982E+01 -0.21137141000E+00 -0.51880545065E+01  0.57158894426E+01  0.00000000000E+00 0. -1.
</event>
<event>
 7    1  0.1519238E-008  0.4614232E+02  0.7816164E-02  0.1320468E+00
        -11   -1    0    0    0    0  0.00000000000E+00  0.00000000000E+00  0.45593999997E+02  0.45594000000E+02  0.51100000000E-03 0.  1.
         11   -1    0    0    0    0 -0.00000000000E+00 -0.00000000000E+00 -0.45593999997E+02  0.45594000000E+02  0.51100000000E-03 0. -1.
    9900012    2    1    2    0    0 -0.16789725341E+02 -0.41767543002E+02  0.16404049198E+01  0.46142318145E+02  0.10000003499E+02 0.  0.
        -12    1    1    2    0    0  0.16789725341E+02  0.41767543002E+02 -0.16404049198E+01  0.45045681855E+02  0.00000000000E+00 0.  1.
         11    1    3    3    0    0 -0.11059272693E+02 -0.24130601624E+02 -0.12988823446E+01  0.26575939171E+02  0.51100000000E-03 0. -1.
        -11    1    3    3    0    0 -0.25244522953E+01 -0.11021197461E+02  0.42873179825E+01  0.12092177166E+02  0.51100000000E-03 0.  1.
        -12    1    3    3    0    0 -0.32060003533E+01 -0.66157439179E+01 -0.13480307182E+01  0.74742018082E+01  0.00000000000E+00 0.  1.
</event>
<event>
 7    1  0.1519238E-008  0.4614232E+02  0.7816164E-02  0.1320468E+00
        -11   -1    0    0    0    0  0.00000000000E+00  0.00000000000E+00  0.45593999997E+02  0.45594000000E+02  0.51100000000E-03 0.  1.
         11   -1    0    0    0    0 -0.00000000000E+00 -0.00000000000E+00 -0.45593999997E+02  0.45594000000E+02  0.51100000000E-03 0. -1.
    9900012    2    1    2    0    0 -0.39261973003E+02  0.21993295673E+02  0.19763524163E+01  0.46142317105E+02  0.99999940139E+01 0.  0.
        -12    1    1    2    0    0  0.39261973003E+02 -0.21993295673E+02 -0.19763524163E+01  0.45045682895E+02  0.00000000000E+00 0.  1.
         11    1    3    3    0    0 -0.38951999207E+01  0.30936186063E+01  0.12929365502E+01  0.51395275743E+01  0.51100000000E-03 0. -1.
        -11    1    3    3    0    0 -0.15125490783E+02  0.67806712429E+01  0.43266507342E+01  0.17131196128E+02  0.51100000000E-03 0.  1.
        -12    1    3    3    0    0 -0.20241282299E+02  0.12119005824E+02 -0.36432348681E+01  0.23871593402E+02  0.00000000000E+00 0.  1.
</event>
<event>
 7    1  0.1519238E-008  0.4614232E+02  0.7816164E-02  0.1320468E+00
        -11   -1    0    0    0    0  0.00000000000E+00  0.00000000000E+00  0.45593999997E+02  0.45594000000E+02  0.51100000000E-03 0.  1.
         11   -1    0    0    0    0 -0.00000000000E+00 -0.00000000000E+00 -0.45593999997E+02  0.45594000000E+02  0.51100000000E-03 0. -1.
    9900012    2    1    2    0    0  0.27955776169E+02  0.31151228477E+02 -0.16648992727E+02  0.46142318568E+02  0.10000007362E+02 0.  0.
        -12    1    1    2    0    0 -0.27955776169E+02 -0.31151228477E+02  0.16648992727E+02  0.45045681432E+02  0.00000000000E+00 0.  1.
         11    1    3    3    0    0  0.11695779371E+02  0.19896768568E+02 -0.72397301252E+01  0.24188558186E+02  0.51100000000E-03 0. -1.
        -11    1    3    3    0    0  0.50648606899E+01  0.28290264471E+01 -0.32339649675E+01  0.66418923598E+01  0.51100000000E-03 0.  1.
         12    1    3    3    0    0  0.11195136108E+02  0.84254334610E+01 -0.61752976340E+01  0.15311868023E+02  0.00000000000E+00 0. -1.
</event>
<event>
 7    1  0.1519238E-008  0.4614232E+02  0.7816164E-02  0.1320468E+00
        -11   -1    0    0    0    0  0.00000000000E+00  0.00000000000E+00  0.45593999997E+02  0.45594000000E+02  0.51100000000E-03 0.  1.
         11   -1    0    0    0    0 -0.00000000000E+00 -0.00000000000E+00 -0.45593999997E+02  0.45594000000E+02  0.51100000000E-03 0. -1.
    9900012    2    1    2    0    0  0.41667361445E+02  0.10293653477E+02 -0.13674238690E+02  0.46142321900E+02  0.10000037746E+02 0.  0.
        -12    1    1    2    0    0 -0.41667361445E+02 -0.10293653477E+02  0.13674238690E+02  0.45045678100E+02  0.00000000000E+00 0.  1.
         11    1    3    3    0    0  0.15767017751E+02  0.45945818934E+01 -0.19251555737E+01  0.16535273078E+02  0.51100000000E-03 0. -1.
        -11    1    3    3    0    0  0.19624675518E+01  0.20313590448E+01 -0.36644643029E+00  0.28481540879E+01  0.51100000000E-03 0.  1.
         12    1    3    3    0    0  0.23937876143E+02  0.36677125389E+01 -0.11382636686E+02  0.26758894734E+02  0.00000000000E+00 0. -1.
</event>
<event>
 7    1  0.1519238E-008  0.4614232E+02  0.7816164E-02  0.1320468E+00
        -11   -1    0    0    0    0  0.00000000000E+00  0.00000000000E+00  0.45593999997E+02  0.45594000000E+02  0.51100000000E-03 0.  1.
         11   -1    0    0    0    0 -0.00000000000E+00 -0.00000000000E+00 -0.45593999997E+02  0.45594000000E+02  0.51100000000E-03 0. -1.
    9900012    2    1    2    0    0  0.21137486854E+02 -0.10421112565E+02 -0.38389067231E+02  0.46142318514E+02  0.10000006868E+02 0.  0.
        -12    1    1    2    0    0 -0.21137486854E+02  0.10421112565E+02  0.38389067231E+02  0.45045681486E+02  0.00000000000E+00 0.  1.
         11    1    3    3    0    0  0.12655223409E+02 -0.49051837502E+01 -0.20511020486E+02  0.24595070010E+02  0.51100000000E-03 0. -1.
        -11    1    3    3    0    0  0.54161839782E+01 -0.62038837689E+01 -0.93556650217E+01  0.12464015844E+02  0.51100000000E-03 0.  1.
        -12    1    3    3    0    0  0.30660794675E+01  0.68795495375E+00 -0.85223817236E+01  0.90832326603E+01  0.00000000000E+00 0.  1.
</event>
<event>
 7    1  0.1519238E-008  0.4614231E+02  0.7816164E-02  0.1320468E+00
        -11   -1    0    0    0    0  0.00000000000E+00  0.00000000000E+00  0.45593999997E+02  0.45594000000E+02  0.51100000000E-03 0.  1.
         11   -1    0    0    0    0 -0.00000000000E+00 -0.00000000000E+00 -0.45593999997E+02  0.45594000000E+02  0.51100000000E-03 0. -1.
    9900012    2    1    2    0    0 -0.14996177688E+02 -0.18588849267E+02 -0.38192711692E+02  0.46142313317E+02  0.99999594783E+01 0.  0.
        -12    1    1    2    0    0  0.14996177688E+02  0.18588849267E+02  0.38192711692E+02  0.45045686683E+02  0.00000000000E+00 0.  1.
         11    1    3    3    0    0 -0.62592221948E+01 -0.77860871246E+01 -0.11259733553E+02  0.15052661397E+02  0.51100000000E-03 0. -1.
        -11    1    3    3    0    0 -0.22463754568E+01 -0.54248305970E+01 -0.54454983026E+01  0.80080235841E+01  0.51100000000E-03 0.  1.
        -12    1    3    3    0    0 -0.64905800365E+01 -0.53779315450E+01 -0.21487479836E+02  0.23081628336E+02  0.00000000000E+00 0.  1.
</event>
<event>
 7    1  0.1519238E-008  0.4614232E+02  0.7816164E-02  0.1320468E+00
        -11   -1    0    0    0    0  0.00000000000E+00  0.00000000000E+00  0.45593999997E+02  0.45594000000E+02  0.51100000000E-03 0.  1.
         11   -1    0    0    0    0 -0.00000000000E+00 -0.00000000000E+00 -0.45593999997E+02  0.45594000000E+02  0.51100000000E-03 0. -1.
    9900012    2    1    2    0    0  0.13654279946E+02  0.33100177788E+02 -0.27332259696E+02  0.46142317071E+02  0.99999937062E+01 0.  0.
        -12    1    1    2    0    0 -0.13654279946E+02 -0.33100177788E+02  0.27332259696E+02  0.45045682929E+02  0.00000000000E+00 0.  1.
         11    1    3    3    0    0  0.48723639625E+01  0.93229294940E+01 -0.12166469963E+02  0.16083529978E+02  0.51100000000E-03 0. -1.
        -11    1    3    3    0    0  0.40879566609E+01  0.12683917724E+02 -0.47916372757E+01  0.14161671742E+02  0.51100000000E-03 0.  1.
        -12    1    3    3    0    0  0.46939593229E+01  0.11093330570E+02 -0.10374152458E+02  0.15897115351E+02  0.00000000000E+00 0.  1.
</event>
<event>
 7    1  0.1519238E-008  0.4614232E+02  0.7816164E-02  0.1320468E+00
        -11   -1    0    0    0    0  0.00000000000E+00  0.00000000000E+00  0.45593999997E+02  0.45594000000E+02  0.51100000000E-03 0.  1.
         11   -1    0    0    0    0 -0.00000000000E+00 -0.00000000000E+00 -0.45593999997E+02  0.45594000000E+02  0.51100000000E-03 0. -1.
    9900012    2    1    2    0    0 -0.14519042493E+02  0.14552067983E+01 -0.42616818859E+02  0.46142317950E+02  0.10000001721E+02 0.  0.
        -12    1    1    2    0    0  0.14519042493E+02 -0.14552067983E+01  0.42616818859E+02  0.45045682050E+02  0.00000000000E+00 0.  1.
         11    1    3    3    0    0 -0.30998208733E+01 -0.18654530388E+01 -0.14882817543E+02  0.15316235267E+02  0.51100000000E-03 0. -1.
        -11    1    3    3    0    0 -0.11090322373E+02  0.22410409988E+01 -0.19739098170E+02  0.22751912270E+02  0.51100000000E-03 0.  1.
        -12    1    3    3    0    0 -0.32889924643E+00  0.10796188383E+01 -0.79949031460E+01  0.80741704134E+01  0.00000000000E+00 0.  1.
</event>
<event>
 7    1  0.1519238E-008  0.4614232E+02  0.7816164E-02  0.1320468E+00
        -11   -1    0    0    0    0  0.00000000000E+00  0.00000000000E+00  0.45593999997E+02  0.45594000000E+02  0.51100000000E-03 0.  1.
         11   -1    0    0    0    0 -0.00000000000E+00 -0.00000000000E+00 -0.45593999997E+02  0.45594000000E+02  0.51100000000E-03 0. -1.
    9900012    2    1    2    0    0 -0.42706397128E+02  0.73656817769E+01 -0.12289178126E+02  0.46142317380E+02  0.99999965224E+01 0.  0.
        -12    1    1    2    0    0  0.42706397128E+02 -0.73656817769E+01  0.12289178126E+02  0.45045682620E+02  0.00000000000E+00 0.  1.
         11    1    3    3    0    0 -0.35001874676E+02  0.90265815013E+01 -0.99251740498E+01  0.37484923431E+02  0.51100000000E-03 0. -1.
        -11    1    3    3    0    0 -0.69950226206E+01 -0.71744230018E+00 -0.14880902293E+01  0.71874527969E+01  0.51100000000E-03 0.  1.
         12    1    3    3    0    0 -0.70949983131E+00 -0.94345742416E+00 -0.87591384730E+00  0.14699411518E+01  0.00000000000E+00 0. -1.
</event>
<event>
 7    1  0.1519238E-008  0.4614232E+02  0.7816164E-02  0.1320468E+00
        -11   -1    0    0    0    0  0.00000000000E+00  0.00000000000E+00  0.45593999997E+02  0.45594000000E+02  0.51100000000E-03 0.  1.
         11   -1    0    0    0    0 -0.00000000000E+00 -0.00000000000E+00 -0.45593999997E+02  0.45594000000E+02  0.51100000000E-03 0. -1.
    9900012    2    1    2    0    0 -0.26259179607E+01 -0.15953210292E+02 -0.42044180835E+02  0.46142317568E+02  0.99999982354E+01 0.  0.
        -12    1    1    2    0    0  0.26259179607E+01  0.15953210292E+02  0.42044180835E+02  0.45045682432E+02  0.00000000000E+00 0.  1.
         11    1    3    3    0    0 -0.34858191180E+01 -0.14114985443E+02 -0.34128330790E+02  0.37096181903E+02  0.51100000000E-03 0. -1.
        -11    1    3    3    0    0 -0.25104668226E+00 -0.12896512708E+01 -0.32316169444E+00  0.13530183217E+01  0.51100000000E-03 0.  1.
        -12    1    3    3    0    0  0.11109478395E+01 -0.54857357736E+00 -0.75926883499E+01  0.76931173429E+01  0.00000000000E+00 0.  1.
</event>
<event>
 7    1  0.1635456E-008  0.4614232E+02  0.7816164E-02  0.1320468E+00
        -11   -1    0    0    0    0  0.00000000000E+00  0.00000000000E+00  0.45593999997E+02  0.45594000000E+02  0.51100000000E-03 0. -1.
         11   -1    0    0    0    0 -0.00000000000E+00 -0.00000000000E+00 -0.45593999997E+02  0.45594000000E+02  0.51100000000E-03 0.  1.
    9900012    2    1    2    0    0 -0.18768565643E+02  0.12989610300E+02  0.38834578019E+02  0.46142317832E+02  0.10000000648E+02 0.  0.
        -12    1    1    2    0    0  0.18768565643E+02 -0.12989610300E+02 -0.38834578019E+02  0.45045682168E+02  0.00000000000E+00 0.  1.
         11    1    3    3    0    0 -0.14571304857E+02  0.84531306457E+01  0.25625169199E+02  0.30666392675E+02  0.51100000000E-03 0. -1.
        -11    1    3    3    0    0  0.74649290472E+00  0.24316855447E+01  0.57035582563E+01  0.62450719203E+01  0.51100000000E-03 0.  1.
        -12    1    3    3    0    0 -0.49437536914E+01  0.21047941098E+01  0.75058505630E+01  0.92308532368E+01  0.00000000000E+00 0.  1.
</event>
<event>
 7    1  0.1519238E-008  0.4614232E+02  0.7816164E-02  0.1320468E+00
        -11   -1    0    0    0    0  0.00000000000E+00  0.00000000000E+00  0.45593999997E+02  0.45594000000E+02  0.51100000000E-03 0.  1.
         11   -1    0    0    0    0 -0.00000000000E+00 -0.00000000000E+00 -0.45593999997E+02  0.45594000000E+02  0.51100000000E-03 0. -1.
    9900012    2    1    2    0    0  0.20699490773E+02 -0.52187786555E+01 -0.39666218520E+02  0.46142318069E+02  0.10000002811E+02 0.  0.
        -12    1    1    2    0    0 -0.20699490773E+02  0.52187786555E+01  0.39666218520E+02  0.45045681931E+02  0.00000000000E+00 0.  1.
         11    1    3    3    0    0  0.30706774607E+01 -0.28756423200E+01 -0.46591886098E+01  0.62774531128E+01  0.51100000000E-03 0. -1.
        -11    1    3    3    0    0  0.75455536942E+00 -0.20563855398E+01 -0.42936567086E+01  0.48201206920E+01  0.51100000000E-03 0.  1.
         12    1    3    3    0    0  0.16874257943E+02 -0.28675079571E+00 -0.30713373201E+02  0.35044744265E+02  0.00000000000E+00 0. -1.
</event>
<event>
 7    1  0.1519238E-008  0.4614232E+02  0.7816164E-02  0.1320468E+00
        -11   -1    0    0    0    0  0.00000000000E+00  0.00000000000E+00  0.45593999997E+02  0.45594000000E+02  0.51100000000E-03 0. -1.
         11   -1    0    0    0    0 -0.00000000000E+00 -0.00000000000E+00 -0.45593999997E+02  0.45594000000E+02  0.51100000000E-03 0.  1.
    9900012    2    1    2    0    0 -0.30970237930E+02  0.24002037902E+02  0.22222962049E+02  0.46142317598E+02  0.99999985088E+01 0.  0.
        -12    1    1    2    0    0  0.30970237930E+02 -0.24002037902E+02 -0.22222962049E+02  0.45045682402E+02  0.00000000000E+00 0.  1.
         11    1    3    3    0    0 -0.24960699967E+02  0.18156824093E+02  0.19407242880E+02  0.36460223264E+02  0.51100000000E-03 0. -1.
        -11    1    3    3    0    0 -0.14467722998E+01  0.36879584126E+01  0.23676963028E+01  0.46152110877E+01  0.51100000000E-03 0.  1.
         12    1    3    3    0    0 -0.45627656630E+01  0.21572553967E+01  0.44802286606E+00  0.50668832462E+01  0.00000000000E+00 0. -1.
</event>
<event>
 7    1  0.1519238E-008  0.4614232E+02  0.7816164E-02  0.1320468E+00
        -11   -1    0    0    0    0  0.00000000000E+00  0.00000000000E+00  0.45593999997E+02  0.45594000000E+02  0.51100000000E-03 0.  1.
         11   -1    0    0    0    0 -0.00000000000E+00 -0.00000000000E+00 -0.45593999997E+02  0.45594000000E+02  0.51100000000E-03 0. -1.
    9900012    2    1    2    0    0  0.11712238207E+02  0.16433316685E+02 -0.40272605411E+02  0.46142321321E+02  0.10000032458E+02 0.  0.
        -12    1    1    2    0    0 -0.11712238207E+02 -0.16433316685E+02  0.40272605411E+02  0.45045678679E+02  0.00000000000E+00 0.  1.
         11    1    3    3    0    0  0.10057995184E+02  0.88214918648E+01 -0.29680580912E+02  0.32556395215E+02  0.51100000000E-03 0. -1.
        -11    1    3    3    0    0  0.64672939660E-01  0.32301443372E+01 -0.19683073876E+01  0.37831533489E+01  0.51100000000E-03 0.  1.
         12    1    3    3    0    0  0.15895700837E+01  0.43816804833E+01 -0.86237171113E+01  0.98027727570E+01  0.00000000000E+00 0. -1.
</event>
<event>
 7    1  0.1519238E-008  0.4614233E+02  0.7816164E-02  0.1320468E+00
        -11   -1    0    0    0    0  0.00000000000E+00  0.00000000000E+00  0.45593999997E+02  0.45594000000E+02  0.51100000000E-03 0.  1.
         11   -1    0    0    0    0 -0.00000000000E+00 -0.00000000000E+00 -0.45593999997E+02  0.45594000000E+02  0.51100000000E-03 0. -1.
    9900012    2    1    2    0    0 -0.17181582328E+02  0.40540286562E+02 -0.95074210161E+01  0.46142326953E+02  0.10000083821E+02 0.  0.
        -12    1    1    2    0    0  0.17181582328E+02 -0.40540286562E+02  0.95074210161E+01  0.45045673047E+02  0.00000000000E+00 0.  1.
         11    1    3    3    0    0 -0.10874948299E+02  0.19906331188E+02 -0.80967378633E+01  0.24084926534E+02  0.51100000000E-03 0. -1.
        -11    1    3    3    0    0 -0.16243168251E+00 -0.21908542076E+00 -0.89546009540E-02  0.27287894582E+00  0.51100000000E-03 0.  1.
         12    1    3    3    0    0 -0.61442023459E+01  0.20853040796E+02 -0.14017285519E+01  0.21784521473E+02  0.00000000000E+00 0. -1.
</event>
<event>
 7    1  0.1519238E-008  0.4614232E+02  0.7816164E-02  0.1320468E+00
        -11   -1    0    0    0    0  0.00000000000E+00  0.00000000000E+00  0.45593999997E+02  0.45594000000E+02  0.51100000000E-03 0.  1.
         11   -1    0    0    0    0 -0.00000000000E+00 -0.00000000000E+00 -0.45593999997E+02  0.45594000000E+02  0.51100000000E-03 0. -1.
    9900012    2    1    2    0    0 -0.18379351611E+02  0.17086102052E+02 -0.37408261938E+02  0.46142317519E+02  0.99999977925E+01 0.  0.
        -12    1    1    2    0    0  0.18379351611E+02 -0.17086102052E+02  0.37408261938E+02  0.45045682481E+02  0.00000000000E+00 0.  1.
         11    1    3    3    0    0 -0.13542427922E+02  0.71182123101E+01 -0.24658251582E+02  0.29018884745E+02  0.51100000000E-03 0.  1.
        -11    1    3    3    0    0 -0.46126007962E+01  0.10128072674E+02 -0.12594282790E+02  0.16806840913E+02  0.51100000000E-03 0. -1.
        -12    1    3    3    0    0 -0.22432289299E+00 -0.16018293211E+00 -0.15572756560E+00  0.31659186146E+00  0.00000000000E+00 0.  1.
</event>
<event>
 7    1  0.1519238E-008  0.4614232E+02  0.7816164E-02  0.1320468E+00
        -11   -1    0    0    0    0  0.00000000000E+00  0.00000000000E+00  0.45593999997E+02  0.45594000000E+02  0.51100000000E-03 0.  1.
         11   -1    0    0    0    0 -0.00000000000E+00 -0.00000000000E+00 -0.45593999997E+02  0.45594000000E+02  0.51100000000E-03 0. -1.
    9900012    2    1    2    0    0  0.22720724946E+02  0.67429208412E+01 -0.38306855211E+02  0.46142317857E+02  0.10000000875E+02 0.  0.
        -12    1    1    2    0    0 -0.22720724946E+02 -0.67429208412E+01  0.38306855211E+02  0.45045682143E+02  0.00000000000E+00 0.  1.
         11    1    3    3    0    0  0.11211179512E+02  0.47383745695E+01 -0.18973868498E+02  0.22542192121E+02  0.51100000000E-03 0. -1.
        -11    1    3    3    0    0  0.31764212885E+01  0.38511965361E+01 -0.67513762987E+01  0.83965736553E+01  0.51100000000E-03 0.  1.
        -12    1    3    3    0    0  0.83331241464E+01 -0.18466502645E+01 -0.12581610415E+02  0.15203552080E+02  0.00000000000E+00 0.  1.
</event>
<event>
 7    1  0.1519238E-008  0.4614232E+02  0.7816164E-02  0.1320468E+00
        -11   -1    0    0    0    0  0.00000000000E+00  0.00000000000E+00  0.45593999997E+02  0.45594000000E+02  0.51100000000E-03 0.  1.
         11   -1    0    0    0    0 -0.00000000000E+00 -0.00000000000E+00 -0.45593999997E+02  0.45594000000E+02  0.51100000000E-03 0. -1.
    9900012    2    1    2    0    0  0.23133603978E+02  0.35082756885E+01 -0.38492102201E+02  0.46142316931E+02  0.99999924288E+01 0.  0.
        -12    1    1    2    0    0 -0.23133603978E+02 -0.35082756885E+01  0.38492102201E+02  0.45045683069E+02  0.00000000000E+00 0.  1.
         11    1    3    3    0    0  0.10380732621E+02  0.12832471607E+01 -0.11737420291E+02  0.15721748261E+02  0.51100000000E-03 0. -1.
        -11    1    3    3    0    0  0.45681164238E+01  0.37222349374E+01 -0.14027138112E+02  0.15214576053E+02  0.51100000000E-03 0.  1.
        -12    1    3    3    0    0  0.81847549326E+01 -0.14972064096E+01 -0.12727543798E+02  0.15205992617E+02  0.00000000000E+00 0.  1.
</event>
<event>
 7    1  0.1519238E-008  0.4614232E+02  0.7816164E-02  0.1320468E+00
        -11   -1    0    0    0    0  0.00000000000E+00  0.00000000000E+00  0.45593999997E+02  0.45594000000E+02  0.51100000000E-03 0. -1.
         11   -1    0    0    0    0 -0.00000000000E+00 -0.00000000000E+00 -0.45593999997E+02  0.45594000000E+02  0.51100000000E-03 0.  1.
    9900012    2    1    2    0    0  0.39088887123E+02 -0.89287095280E+01  0.20529258819E+02  0.46142318542E+02  0.10000007122E+02 0.  0.
        -12    1    1    2    0    0 -0.39088887123E+02  0.89287095280E+01 -0.20529258819E+02  0.45045681458E+02  0.00000000000E+00 0.  1.
         11    1    3    3    0    0  0.24528598124E+02 -0.58285552627E+01  0.10403355079E+02  0.27273686578E+02  0.51100000000E-03 0. -1.
        -11    1    3    3    0    0  0.14423785736E+02 -0.17995249180E+01  0.97679379757E+01  0.17512752424E+02  0.51100000000E-03 0.  1.
        -12    1    3    3    0    0  0.13650326209E+00 -0.13006293473E+01  0.35796576516E+00  0.13558795406E+01  0.00000000000E+00 0.  1.
</event>
<event>
 7    1  0.1519238E-008  0.4614232E+02  0.7816164E-02  0.1320468E+00
        -11   -1    0    0    0    0  0.00000000000E+00  0.00000000000E+00  0.45593999997E+02  0.45594000000E+02  0.51100000000E-03 0.  1.
         11   -1    0    0    0    0 -0.00000000000E+00 -0.00000000000E+00 -0.45593999997E+02  0.45594000000E+02  0.51100000000E-03 0. -1.
    9900012    2    1    2    0    0  0.33459709539E+02  0.21783816165E+02 -0.20857294540E+02  0.46142317136E+02  0.99999943041E+01 0.  0.
        -12    1    1    2    0    0 -0.33459709539E+02 -0.21783816165E+02  0.20857294540E+02  0.45045682864E+02  0.00000000000E+00 0.  1.
         11    1    3    3    0    0  0.94483691910E+01  0.30272140736E+01 -0.69687753784E+01  0.12124336516E+02  0.51100000000E-03 0. -1.
        -11    1    3    3    0    0  0.13806104645E+02  0.96562664379E+01 -0.10761464958E+02  0.19991526587E+02  0.51100000000E-03 0.  1.
        -12    1    3    3    0    0  0.10205235703E+02  0.91003356534E+01 -0.31270542033E+01  0.14026454033E+02  0.00000000000E+00 0.  1.
</event>
<event>
 7    1  0.1519238E-008  0.4614232E+02  0.7816164E-02  0.1320468E+00
        -11   -1    0    0    0    0  0.00000000000E+00  0.00000000000E+00  0.45593999997E+02  0.45594000000E+02  0.51100000000E-03 0. -1.
         11   -1    0    0    0    0 -0.00000000000E+00 -0.00000000000E+00 -0.45593999997E+02  0.45594000000E+02  0.51100000000E-03 0.  1.
    9900012    2    1    2    0    0 -0.41432088138E+02  0.47154865213E+01  0.17037011935E+02  0.46142317451E+02  0.99999971712E+01 0.  0.
        -12    1    1    2    0    0  0.41432088138E+02 -0.47154865213E+01 -0.17037011935E+02  0.45045682549E+02  0.00000000000E+00 0.  1.
         11    1    3    3    0    0 -0.18706994922E+02  0.55540080272E+01  0.42794244613E+01  0.19977791123E+02  0.51100000000E-03 0. -1.
        -11    1    3    3    0    0 -0.14504955660E+02 -0.14318045849E+01  0.75396077822E+01  0.16410042317E+02  0.51100000000E-03 0.  1.
         12    1    3    3    0    0 -0.82201375560E+01  0.59328307901E+00  0.52179796918E+01  0.97544840107E+01  0.00000000000E+00 0. -1.
</event>
<event>
 7    1  0.1519238E-008  0.4614232E+02  0.7816164E-02  0.1320468E+00
        -11   -1    0    0    0    0  0.00000000000E+00  0.00000000000E+00  0.45593999997E+02  0.45594000000E+02  0.51100000000E-03 0. -1.
         11   -1    0    0    0    0 -0.00000000000E+00 -0.00000000000E+00 -0.45593999997E+02  0.45594000000E+02  0.51100000000E-03 0.  1.
    9900012    2    1    2    0    0  0.21710166814E+02 -0.18994962939E+02  0.34597304886E+02  0.46142318015E+02  0.10000002313E+02 0.  0.
        -12    1    1    2    0    0 -0.21710166814E+02  0.18994962939E+02 -0.34597304886E+02  0.45045681985E+02  0.00000000000E+00 0.  1.
         11    1    3    3    0    0  0.10491450940E+02 -0.77660949448E+01  0.19973095046E+02  0.23860161347E+02  0.51100000000E-03 0. -1.
        -11    1    3    3    0    0  0.38758929248E+01 -0.52495495208E+01  0.27164080484E+01  0.70681814551E+01  0.51100000000E-03 0.  1.
        -12    1    3    3    0    0  0.73428229499E+01 -0.59793184734E+01  0.11907801791E+02  0.15213975213E+02  0.00000000000E+00 0.  1.
</event>
<event>
 7    1  0.1519238E-008  0.4614232E+02  0.7816164E-02  0.1320468E+00
        -11   -1    0    0    0    0  0.00000000000E+00  0.00000000000E+00  0.45593999997E+02  0.45594000000E+02  0.51100000000E-03 0.  1.
         11   -1    0    0    0    0 -0.00000000000E+00 -0.00000000000E+00 -0.45593999997E+02  0.45594000000E+02  0.51100000000E-03 0. -1.
    9900012    2    1    2    0    0  0.10073777806E+02  0.34378778338E+02 -0.27308096191E+02  0.46142317444E+02  0.99999971123E+01 0.  0.
        -12    1    1    2    0    0 -0.10073777806E+02 -0.34378778338E+02  0.27308096191E+02  0.45045682556E+02  0.00000000000E+00 0.  1.
         11    1    3    3    0    0  0.72390010404E+01  0.25577039570E+02 -0.21956564101E+02  0.34477221417E+02  0.51100000000E-03 0. -1.
        -11    1    3    3    0    0 -0.22229259058E+00  0.24305690484E+00  0.68131215078E+00  0.75675436091E+00  0.51100000000E-03 0.  1.
        -12    1    3    3    0    0  0.30570693559E+01  0.85586818632E+01 -0.60328442405E+01  0.10908341666E+02  0.00000000000E+00 0.  1.
</event>
<event>
 7    1  0.1519238E-008  0.4614231E+02  0.7816164E-02  0.1320468E+00
        -11   -1    0    0    0    0  0.00000000000E+00  0.00000000000E+00  0.45593999997E+02  0.45594000000E+02  0.51100000000E-03 0.  1.
         11   -1    0    0    0    0 -0.00000000000E+00 -0.00000000000E+00 -0.45593999997E+02  0.45594000000E+02  0.51100000000E-03 0. -1.
    9900012    2    1    2    0    0 -0.11326428818E+02 -0.33780710053E+02  0.27562473703E+02  0.46142308551E+02  0.99999160171E+01 0.  0.
        -12    1    1    2    0    0  0.11326428818E+02  0.33780710053E+02 -0.27562473703E+02  0.45045691449E+02  0.00000000000E+00 0.  1.
         11    1    3    3    0    0 -0.77195693908E+01 -0.98974610011E+01  0.72131485899E+01  0.14476912609E+02  0.51100000000E-03 0. -1.
        -11    1    3    3    0    0 -0.38395025163E+01 -0.23277168808E+02  0.19998504363E+02  0.30927472323E+02  0.51100000000E-03 0.  1.
         12    1    3    3    0    0  0.23264308870E+00 -0.60608024407E+00  0.35082075024E+00  0.73792361920E+00  0.00000000000E+00 0. -1.
</event>
<event>
 7    1  0.1519238E-008  0.4614232E+02  0.7816164E-02  0.1320468E+00
        -11   -1    0    0    0    0  0.00000000000E+00  0.00000000000E+00  0.45593999997E+02  0.45594000000E+02  0.51100000000E-03 0.  1.
         11   -1    0    0    0    0 -0.00000000000E+00 -0.00000000000E+00 -0.45593999997E+02  0.45594000000E+02  0.51100000000E-03 0. -1.
    9900012    2    1    2    0    0  0.13289318897E+02 -0.11001119424E+02 -0.41611091191E+02  0.46142317239E+02  0.99999952387E+01 0.  0.
        -12    1    1    2    0    0 -0.13289318897E+02  0.11001119424E+02  0.41611091191E+02  0.45045682761E+02  0.00000000000E+00 0.  1.
         11    1    3    3    0    0  0.38902446696E+01 -0.54060643429E+01 -0.96896588714E+01  0.11757934537E+02  0.51100000000E-03 0. -1.
        -11    1    3    3    0    0  0.12491671956E+00  0.11847965139E+01 -0.44705491914E+01  0.46265707927E+01  0.51100000000E-03 0.  1.
         12    1    3    3    0    0  0.92741575076E+01 -0.67798515946E+01 -0.27450883128E+02  0.29757811909E+02  0.00000000000E+00 0. -1.
</event>
<event>
 7    1  0.1519238E-008  0.4614232E+02  0.7816164E-02  0.1320468E+00
        -11   -1    0    0    0    0  0.00000000000E+00  0.00000000000E+00  0.45593999997E+02  0.45594000000E+02  0.51100000000E-03 0.  1.
         11   -1    0    0    0    0 -0.00000000000E+00 -0.00000000000E+00 -0.45593999997E+02  0.45594000000E+02  0.51100000000E-03 0. -1.
    9900012    2    1    2    0    0  0.72918576218E+01  0.19842676584E+02 -0.39777009421E+02  0.46142317853E+02  0.10000000841E+02 0.  0.
        -12    1    1    2    0    0 -0.72918576218E+01 -0.19842676584E+02  0.39777009421E+02  0.45045682147E+02  0.00000000000E+00 0.  1.
         11    1    3    3    0    0  0.19477786312E+01  0.11533664824E+02 -0.13912414028E+02  0.18176207806E+02  0.51100000000E-03 0. -1.
        -11    1    3    3    0    0  0.14648277771E+01  0.18550763101E+01 -0.11575088649E+02  0.11813962334E+02  0.51100000000E-03 0.  1.
         12    1    3    3    0    0  0.38792512135E+01  0.64539354503E+01 -0.14289506743E+02  0.16152147713E+02  0.00000000000E+00 0. -1.
</event>
<event>
 7    1  0.1519238E-008  0.4614232E+02  0.7816164E-02  0.1320468E+00
        -11   -1    0    0    0    0  0.00000000000E+00  0.00000000000E+00  0.45593999997E+02  0.45594000000E+02  0.51100000000E-03 0.  1.
         11   -1    0    0    0    0 -0.00000000000E+00 -0.00000000000E+00 -0.45593999997E+02  0.45594000000E+02  0.51100000000E-03 0. -1.
    9900012    2    1    2    0    0 -0.51410669394E+01 -0.14485170783E+02 -0.42342211775E+02  0.46142316079E+02  0.99999846656E+01 0.  0.
        -12    1    1    2    0    0  0.51410669394E+01  0.14485170783E+02  0.42342211775E+02  0.45045683921E+02  0.00000000000E+00 0.  1.
         11    1    3    3    0    0 -0.41423427003E+01 -0.63160392516E+01 -0.13389861880E+02  0.15373345645E+02  0.51100000000E-03 0. -1.
        -11    1    3    3    0    0  0.24969003079E+01 -0.18836034322E+01 -0.10798505745E+02  0.11242339597E+02  0.51100000000E-03 0.  1.
         12    1    3    3    0    0 -0.34956245470E+01 -0.62855280990E+01 -0.18153844150E+02  0.19526630837E+02  0.00000000000E+00 0. -1.
</event>
<event>
 7    1  0.1519238E-008  0.4614232E+02  0.7816164E-02  0.1320468E+00
        -11   -1    0    0    0    0  0.00000000000E+00  0.00000000000E+00  0.45593999997E+02  0.45594000000E+02  0.51100000000E-03 0.  1.
         11   -1    0    0    0    0 -0.00000000000E+00 -0.00000000000E+00 -0.45593999997E+02  0.45594000000E+02  0.51100000000E-03 0. -1.
    9900012    2    1    2    0    0  0.27430432091E+02 -0.32810250393E+02 -0.14148214146E+02  0.46142322082E+02  0.10000039404E+02 0.  0.
        -12    1    1    2    0    0 -0.27430432091E+02  0.32810250393E+02  0.14148214146E+02  0.45045677918E+02  0.00000000000E+00 0.  1.
         11    1    3    3    0    0 -0.29403702962E+00 -0.10244420044E+01  0.40038645570E+00  0.11385292136E+01  0.51100000000E-03 0.  1.
        -11    1    3    3    0    0  0.91486623602E+01 -0.75372338710E+01 -0.59921453622E+01  0.13282082808E+02  0.51100000000E-03 0. -1.
        -12    1    3    3    0    0  0.18575806760E+02 -0.24248574517E+02 -0.85564552399E+01  0.31721710061E+02  0.00000000000E+00 0.  1.
</event>
<event>
 7    1  0.1519238E-008  0.4614232E+02  0.7816164E-02  0.1320468E+00
        -11   -1    0    0    0    0  0.00000000000E+00  0.00000000000E+00  0.45593999997E+02  0.45594000000E+02  0.51100000000E-03 0.  1.
         11   -1    0    0    0    0 -0.00000000000E+00 -0.00000000000E+00 -0.45593999997E+02  0.45594000000E+02  0.51100000000E-03 0. -1.
    9900012    2    1    2    0    0  0.11618986413E+02 -0.40203516414E+02 -0.16667032770E+02  0.46142316980E+02  0.99999928817E+01 0.  0.
        -12    1    1    2    0    0 -0.11618986413E+02  0.40203516414E+02  0.16667032770E+02  0.45045683020E+02  0.00000000000E+00 0.  1.
         11    1    3    3    0    0  0.22546478137E+01 -0.15244178377E+02 -0.60888013419E+01  0.16569306358E+02  0.51100000000E-03 0.  1.
        -11    1    3    3    0    0  0.79688338347E+01 -0.20215651423E+02 -0.11434879087E+02  0.24554660151E+02  0.51100000000E-03 0. -1.
        -12    1    3    3    0    0  0.13955047644E+01 -0.47436866143E+01  0.85664765831E+00  0.50183504713E+01  0.00000000000E+00 0.  1.
</event>
<event>
 7    1  0.1519238E-008  0.4614231E+02  0.7816164E-02  0.1320468E+00
        -11   -1    0    0    0    0  0.00000000000E+00  0.00000000000E+00  0.45593999997E+02  0.45594000000E+02  0.51100000000E-03 0. -1.
         11   -1    0    0    0    0 -0.00000000000E+00 -0.00000000000E+00 -0.45593999997E+02  0.45594000000E+02  0.51100000000E-03 0.  1.
    9900012    2    1    2    0    0  0.43176486775E+02 -0.10441098040E+02  0.74758817715E+01  0.46142308233E+02  0.99999131128E+01 0.  0.
        -12    1    1    2    0    0 -0.43176486775E+02  0.10441098040E+02 -0.74758817715E+01  0.45045691767E+02  0.00000000000E+00 0.  1.
         11    1    3    3    0    0  0.22508336079E+02 -0.70107571056E+01  0.81392706564E+01  0.24940401667E+02  0.51100000000E-03 0. -1.
        -11    1    3    3    0    0  0.75710009619E+01 -0.27104578443E+01 -0.82697856985E+00  0.80839675350E+01  0.51100000000E-03 0.  1.
         12    1    3    3    0    0  0.13097149734E+02 -0.71988308965E+00  0.16358968493E+00  0.13117939031E+02  0.00000000000E+00 0. -1.
</event>
<event>
 7    1  0.1519238E-008  0.4614232E+02  0.7816164E-02  0.1320468E+00
        -11   -1    0    0    0    0  0.00000000000E+00  0.00000000000E+00  0.45593999997E+02  0.45594000000E+02  0.51100000000E-03 0.  1.
         11   -1    0    0    0    0 -0.00000000000E+00 -0.00000000000E+00 -0.45593999997E+02  0.45594000000E+02  0.51100000000E-03 0. -1.
    9900012    2    1    2    0    0 -0.11745523241E+02 -0.23169934832E+02 -0.36800955675E+02  0.46142317244E+02  0.99999952854E+01 0.  0.
        -12    1    1    2    0    0  0.11745523241E+02  0.23169934832E+02  0.36800955675E+02  0.45045682756E+02  0.00000000000E+00 0.  1.
         11    1    3    3    0    0 -0.21945752408E+01 -0.42679134792E+01 -0.10712794417E+02  0.11738620466E+02  0.51100000000E-03 0. -1.
        -11    1    3    3    0    0 -0.21832382235E+00  0.68541039400E+00 -0.65345849180E+00  0.97183381359E+00  0.51100000000E-03 0.  1.
        -12    1    3    3    0    0 -0.93326241782E+01 -0.19587431747E+02 -0.25434702767E+02  0.33431862965E+02  0.00000000000E+00 0.  1.
</event>
<event>
 7    1  0.1519238E-008  0.4614232E+02  0.7816164E-02  0.1320468E+00
        -11   -1    0    0    0    0  0.00000000000E+00  0.00000000000E+00  0.45593999997E+02  0.45594000000E+02  0.51100000000E-03 0. -1.
         11   -1    0    0    0    0 -0.00000000000E+00 -0.00000000000E+00 -0.45593999997E+02  0.45594000000E+02  0.51100000000E-03 0.  1.
    9900012    2    1    2    0    0 -0.11426367687E+01  0.43195416001E+02 -0.12726502478E+02  0.46142318213E+02  0.10000004123E+02 0.  0.
        -12    1    1    2    0    0  0.11426367687E+01 -0.43195416001E+02  0.12726502478E+02  0.45045681787E+02  0.00000000000E+00 0.  1.
         11    1    3    3    0    0  0.31622998188E+00  0.29200364361E+02 -0.40371901814E+01  0.29479826748E+02  0.51100000000E-03 0. -1.
        -11    1    3    3    0    0 -0.16139594346E+01  0.11910129179E+02 -0.66229014925E+01  0.13722932142E+02  0.51100000000E-03 0.  1.
         12    1    3    3    0    0  0.15509268402E+00  0.20849224603E+01 -0.20664108046E+01  0.29395593240E+01  0.00000000000E+00 0. -1.
</event>
<event>
 7    1  0.1519238E-008  0.4614232E+02  0.7816164E-02  0.1320468E+00
        -11   -1    0    0    0    0  0.00000000000E+00  0.00000000000E+00  0.45593999997E+02  0.45594000000E+02  0.51100000000E-03 0. -1.
         11   -1    0    0    0    0 -0.00000000000E+00 -0.00000000000E+00 -0.45593999997E+02  0.45594000000E+02  0.51100000000E-03 0.  1.
    9900012    2    1    2    0    0 -0.23599142623E+02 -0.37457715935E+02 -0.83134487849E+01  0.46142318228E+02  0.10000004256E+02 0.  0.
        -12    1    1    2    0    0  0.23599142623E+02  0.37457715935E+02  0.83134487849E+01  0.45045681772E+02  0.00000000000E+00 0.  1.
         11    1    3    3    0    0 -0.12252098296E+02 -0.26141143848E+02 -0.54357107114E+01  0.29377206565E+02  0.51100000000E-03 0. -1.
        -11    1    3    3    0    0 -0.92679048374E+01 -0.76758686031E+01 -0.73379408761E+00  0.12056179864E+02  0.51100000000E-03 0.  1.
        -12    1    3    3    0    0 -0.20791394898E+01 -0.36407034836E+01 -0.21439439859E+01  0.47089317991E+01  0.00000000000E+00 0.  1.
</event>
<event>
 7    1  0.1519238E-008  0.4614232E+02  0.7816164E-02  0.1320468E+00
        -11   -1    0    0    0    0  0.00000000000E+00  0.00000000000E+00  0.45593999997E+02  0.45594000000E+02  0.51100000000E-03 0.  1.
         11   -1    0    0    0    0 -0.00000000000E+00 -0.00000000000E+00 -0.45593999997E+02  0.45594000000E+02  0.51100000000E-03 0. -1.
    9900012    2    1    2    0    0  0.40617503999E+02 -0.71398371304E+01 -0.18120555246E+02  0.46142318433E+02  0.10000006130E+02 0.  0.
        -12    1    1    2    0    0 -0.40617503999E+02  0.71398371304E+01  0.18120555246E+02  0.45045681567E+02  0.00000000000E+00 0.  1.
         11    1    3    3    0    0  0.27914593834E+02 -0.66352785004E+01 -0.13677918941E+02  0.31785797717E+02  0.51100000000E-03 0. -1.
        -11    1    3    3    0    0  0.74551334944E+01 -0.21642871260E+00  0.25364179581E-01  0.74583175321E+01  0.51100000000E-03 0.  1.
        -12    1    3    3    0    0  0.52477766705E+01 -0.28812991744E+00 -0.44680004850E+01  0.68982031839E+01  0.00000000000E+00 0.  1.
</event>
<event>
 7    1  0.1519238E-008  0.4614232E+02  0.7816164E-02  0.1320468E+00
        -11   -1    0    0    0    0  0.00000000000E+00  0.00000000000E+00  0.45593999997E+02  0.45594000000E+02  0.51100000000E-03 0.  1.
         11   -1    0    0    0    0 -0.00000000000E+00 -0.00000000000E+00 -0.45593999997E+02  0.45594000000E+02  0.51100000000E-03 0. -1.
    9900012    2    1    2    0    0  0.11135180223E+00  0.44920403320E+02  0.33553440066E+01  0.46142319108E+02  0.10000012279E+02 0.  0.
        -12    1    1    2    0    0 -0.11135180223E+00 -0.44920403320E+02 -0.33553440066E+01  0.45045680892E+02  0.00000000000E+00 0.  1.
         11    1    3    3    0    0  0.28159660617E+01  0.84469175785E+01  0.24747248997E+01  0.92414471285E+01  0.51100000000E-03 0. -1.
        -11    1    3    3    0    0 -0.34435972290E+01  0.15995232775E+02  0.12127071926E+01  0.16406599051E+02  0.51100000000E-03 0.  1.
         12    1    3    3    0    0  0.73898296954E+00  0.20478252966E+02 -0.33208808567E+00  0.20494272928E+02  0.00000000000E+00 0. -1.
</event>
<event>
 7    1  0.1519238E-008  0.4614232E+02  0.7816164E-02  0.1320468E+00
        -11   -1    0    0    0    0  0.00000000000E+00  0.00000000000E+00  0.45593999997E+02  0.45594000000E+02  0.51100000000E-03 0. -1.
         11   -1    0    0    0    0 -0.00000000000E+00 -0.00000000000E+00 -0.45593999997E+02  0.45594000000E+02  0.51100000000E-03 0.  1.
    9900012    2    1    2    0    0 -0.44281529513E+02  0.82586024395E+01 -0.23421263563E+00  0.46142320675E+02  0.10000026573E+02 0.  0.
        -12    1    1    2    0    0  0.44281529513E+02 -0.82586024395E+01  0.23421263563E+00  0.45045679325E+02  0.00000000000E+00 0.  1.
         11    1    3    3    0    0 -0.34009540993E+02  0.66023604257E+01  0.11886373573E+00  0.34644684594E+02  0.51100000000E-03 0. -1.
        -11    1    3    3    0    0 -0.29488526534E+01 -0.30617434627E+00 -0.22031044248E+01  0.36936626903E+01  0.51100000000E-03 0.  1.
        -12    1    3    3    0    0 -0.73231358669E+01  0.19624163601E+01  0.18500280534E+01  0.78039733914E+01  0.00000000000E+00 0.  1.
</event>
<event>
 7    1  0.1519238E-008  0.4614232E+02  0.7816164E-02  0.1320468E+00
        -11   -1    0    0    0    0  0.00000000000E+00  0.00000000000E+00  0.45593999997E+02  0.45594000000E+02  0.51100000000E-03 0.  1.
         11   -1    0    0    0    0 -0.00000000000E+00 -0.00000000000E+00 -0.45593999997E+02  0.45594000000E+02  0.51100000000E-03 0. -1.
    9900012    2    1    2    0    0  0.32569416904E+02  0.30508003897E+02 -0.61325534421E+01  0.46142318399E+02  0.10000005813E+02 0.  0.
        -12    1    1    2    0    0 -0.32569416904E+02 -0.30508003897E+02  0.61325534421E+01  0.45045681601E+02  0.00000000000E+00 0.  1.
         11    1    3    3    0    0  0.80417592183E+01  0.68393683486E+01 -0.13934788472E+01  0.10648409942E+02  0.51100000000E-03 0. -1.
        -11    1    3    3    0    0  0.20756681588E+02  0.20304495614E+02 -0.71365639794E+01  0.29900550470E+02  0.51100000000E-03 0.  1.
        -12    1    3    3    0    0  0.37709760971E+01  0.33641399343E+01  0.23974893845E+01  0.55933579870E+01  0.00000000000E+00 0.  1.
</event>
<event>
 7    1  0.1519238E-008  0.4614231E+02  0.7816164E-02  0.1320468E+00
        -11   -1    0    0    0    0  0.00000000000E+00  0.00000000000E+00  0.45593999997E+02  0.45594000000E+02  0.51100000000E-03 0.  1.
         11   -1    0    0    0    0 -0.00000000000E+00 -0.00000000000E+00 -0.45593999997E+02  0.45594000000E+02  0.51100000000E-03 0. -1.
    9900012    2    1    2    0    0  0.76834326096E+01 -0.34135162507E+02 -0.28370220730E+02  0.46142313411E+02  0.99999603304E+01 0.  0.
        -12    1    1    2    0    0 -0.76834326096E+01  0.34135162507E+02  0.28370220730E+02  0.45045686589E+02  0.00000000000E+00 0.  1.
         11    1    3    3    0    0  0.57279992433E+01 -0.30322444691E+02 -0.23932403057E+02  0.39051511414E+02  0.51100000000E-03 0. -1.
        -11    1    3    3    0    0  0.63059545964E-01  0.55264544055E+00 -0.12374309361E+01  0.13566978558E+01  0.51100000000E-03 0.  1.
        -12    1    3    3    0    0  0.18923738203E+01 -0.43653632565E+01 -0.32003867370E+01  0.57341041413E+01  0.00000000000E+00 0.  1.
</event>
<event>
 7    1  0.1519238E-008  0.4614232E+02  0.7816164E-02  0.1320468E+00
        -11   -1    0    0    0    0  0.00000000000E+00  0.00000000000E+00  0.45593999997E+02  0.45594000000E+02  0.51100000000E-03 0.  1.
         11   -1    0    0    0    0 -0.00000000000E+00 -0.00000000000E+00 -0.45593999997E+02  0.45594000000E+02  0.51100000000E-03 0. -1.
    9900012    2    1    2    0    0  0.27350494052E+02  0.25947670748E+01 -0.35697775210E+02  0.46142317676E+02  0.99999992283E+01 0.  0.
        -12    1    1    2    0    0 -0.27350494052E+02 -0.25947670748E+01  0.35697775210E+02  0.45045682324E+02  0.00000000000E+00 0.  1.
         11    1    3    3    0    0  0.22768009840E+02  0.15374881390E+01 -0.23222006225E+02  0.32557759677E+02  0.51100000000E-03 0. -1.
        -11    1    3    3    0    0  0.47014084793E+01  0.41762892832E+00 -0.11145445971E+02  0.12103661503E+02  0.51100000000E-03 0.  1.
         12    1    3    3    0    0 -0.11892426662E+00  0.63965000746E+00 -0.13303230138E+01  0.14808964968E+01  0.00000000000E+00 0. -1.
</event>
<event>
 7    1  0.1519238E-008  0.4614232E+02  0.7816164E-02  0.1320468E+00
        -11   -1    0    0    0    0  0.00000000000E+00  0.00000000000E+00  0.45593999997E+02  0.45594000000E+02  0.51100000000E-03 0. -1.
         11   -1    0    0    0    0 -0.00000000000E+00 -0.00000000000E+00 -0.45593999997E+02  0.45594000000E+02  0.51100000000E-03 0.  1.
    9900012    2    1    2    0    0 -0.26465911198E+02  0.35925264955E+02  0.61680161069E+01  0.46142317184E+02  0.99999947411E+01 0.  0.
        -12    1    1    2    0    0  0.26465911198E+02 -0.35925264955E+02 -0.61680161069E+01  0.45045682816E+02  0.00000000000E+00 0.  1.
         11    1    3    3    0    0 -0.22813804199E+02  0.29157243104E+02  0.72112021106E+01  0.37717581094E+02  0.51100000000E-03 0. -1.
        -11    1    3    3    0    0  0.39714616664E+00  0.14795072503E+01  0.45420790092E+00  0.15978021966E+01  0.51100000000E-03 0.  1.
         12    1    3    3    0    0 -0.40492531656E+01  0.52885146011E+01 -0.14973939046E+01  0.68269338939E+01  0.00000000000E+00 0. -1.
</event>
<event>
 7    1  0.1519238E-008  0.4614232E+02  0.7816164E-02  0.1320468E+00
        -11   -1    0    0    0    0  0.00000000000E+00  0.00000000000E+00  0.45593999997E+02  0.45594000000E+02  0.51100000000E-03 0.  1.
         11   -1    0    0    0    0 -0.00000000000E+00 -0.00000000000E+00 -0.45593999997E+02  0.45594000000E+02  0.51100000000E-03 0. -1.
    9900012    2    1    2    0    0  0.41345423585E+01  0.31499870085E+02 -0.31933951359E+02  0.46142317573E+02  0.99999982851E+01 0.  0.
        -12    1    1    2    0    0 -0.41345423585E+01 -0.31499870085E+02  0.31933951359E+02  0.45045682427E+02  0.00000000000E+00 0.  1.
         11    1    3    3    0    0  0.62851519592E+01  0.15489378860E+02 -0.18145358453E+02  0.24671400979E+02  0.51100000000E-03 0. -1.
        -11    1    3    3    0    0 -0.27977766433E+01  0.14766432372E+02 -0.12249678352E+02  0.19388906599E+02  0.51100000000E-03 0.  1.
        -12    1    3    3    0    0  0.64716704263E+00  0.12440588532E+01 -0.15389145548E+01  0.20820099948E+01  0.00000000000E+00 0.  1.
</event>
<event>
 7    1  0.1519238E-008  0.4614232E+02  0.7816164E-02  0.1320468E+00
        -11   -1    0    0    0    0  0.00000000000E+00  0.00000000000E+00  0.45593999997E+02  0.45594000000E+02  0.51100000000E-03 0.  1.
         11   -1    0    0    0    0 -0.00000000000E+00 -0.00000000000E+00 -0.45593999997E+02  0.45594000000E+02  0.51100000000E-03 0. -1.
    9900012    2    1    2    0    0 -0.41211453286E+02  0.17659000217E+02  0.43461857478E+01  0.46142317619E+02  0.99999987031E+01 0.  0.
        -12    1    1    2    0    0  0.41211453286E+02 -0.17659000217E+02 -0.43461857478E+01  0.45045682381E+02  0.00000000000E+00 0.  1.
         11    1    3    3    0    0 -0.28448913449E+02  0.13100668164E+02 -0.10116694693E+01  0.31336746132E+02  0.51100000000E-03 0. -1.
        -11    1    3    3    0    0 -0.80142172780E+01  0.22042132084E+01  0.44514550396E+01  0.94287690967E+01  0.51100000000E-03 0.  1.
         12    1    3    3    0    0 -0.47483225589E+01  0.23541188444E+01  0.90640017750E+00  0.53768023898E+01  0.00000000000E+00 0. -1.
</event>
<event>
 7    1  0.1519238E-008  0.4614232E+02  0.7816164E-02  0.1320468E+00
        -11   -1    0    0    0    0  0.00000000000E+00  0.00000000000E+00  0.45593999997E+02  0.45594000000E+02  0.51100000000E-03 0. -1.
         11   -1    0    0    0    0 -0.00000000000E+00 -0.00000000000E+00 -0.45593999997E+02  0.45594000000E+02  0.51100000000E-03 0.  1.
    9900012    2    1    2    0    0 -0.21742671378E+02 -0.16521618592E+02  0.35824648310E+02  0.46142322448E+02  0.10000042742E+02 0.  0.
        -12    1    1    2    0    0  0.21742671378E+02  0.16521618592E+02 -0.35824648310E+02  0.45045677552E+02  0.00000000000E+00 0.  1.
         11    1    3    3    0    0 -0.77281092181E+01 -0.51603156302E+01  0.96436786499E+01  0.13392276418E+02  0.51100000000E-03 0. -1.
        -11    1    3    3    0    0 -0.12241201707E+02 -0.66607268217E+01  0.14903223094E+02  0.20403881000E+02  0.51100000000E-03 0.  1.
        -12    1    3    3    0    0 -0.17733604536E+01 -0.47005761402E+01  0.11277746566E+02  0.12346165031E+02  0.00000000000E+00 0.  1.
</event>
<event>
 7    1  0.1519238E-008  0.4614232E+02  0.7816164E-02  0.1320468E+00
        -11   -1    0    0    0    0  0.00000000000E+00  0.00000000000E+00  0.45593999997E+02  0.45594000000E+02  0.51100000000E-03 0.  1.
         11   -1    0    0    0    0 -0.00000000000E+00 -0.00000000000E+00 -0.45593999997E+02  0.45594000000E+02  0.51100000000E-03 0. -1.
    9900012    2    1    2    0    0  0.30852690534E+02  0.32787400919E+01 -0.32656925967E+02  0.46142318039E+02  0.10000002531E+02 0.  0.
        -12    1    1    2    0    0 -0.30852690534E+02 -0.32787400919E+01  0.32656925967E+02  0.45045681961E+02  0.00000000000E+00 0.  1.
         11    1    3    3    0    0 -0.29709200772E+00  0.15844656144E+00 -0.64219873844E+00  0.72511271859E+00  0.51100000000E-03 0. -1.
        -11    1    3    3    0    0  0.14708564787E+02  0.52754778344E+01 -0.15069699851E+02  0.21708717105E+02  0.51100000000E-03 0.  1.
         12    1    3    3    0    0  0.16441217754E+02 -0.21551843040E+01 -0.16945027378E+02  0.23708488215E+02  0.00000000000E+00 0. -1.
</event>
<event>
 7    1  0.1519238E-008  0.4614232E+02  0.7816164E-02  0.1320468E+00
        -11   -1    0    0    0    0  0.00000000000E+00  0.00000000000E+00  0.45593999997E+02  0.45594000000E+02  0.51100000000E-03 0.  1.
         11   -1    0    0    0    0 -0.00000000000E+00 -0.00000000000E+00 -0.45593999997E+02  0.45594000000E+02  0.51100000000E-03 0. -1.
    9900012    2    1    2    0    0 -0.49044315046E+01  0.26698294585E+02 -0.35948028301E+02  0.46142321841E+02  0.10000037201E+02 0.  0.
        -12    1    1    2    0    0  0.49044315046E+01 -0.26698294585E+02  0.35948028301E+02  0.45045678159E+02  0.00000000000E+00 0.  1.
         11    1    3    3    0    0 -0.49206812805E+01  0.12914677793E+02 -0.15607650032E+02  0.20847080048E+02  0.51100000000E-03 0. -1.
        -11    1    3    3    0    0  0.49693182511E+00 -0.26480227652E+00  0.87546455687E-02  0.56315041454E+00  0.51100000000E-03 0.  1.
         12    1    3    3    0    0 -0.48068204922E+00  0.14048419068E+02 -0.20349132915E+02  0.24732091378E+02  0.00000000000E+00 0. -1.
</event>
<event>
 7    1  0.1519238E-008  0.4614232E+02  0.7816164E-02  0.1320468E+00
        -11   -1    0    0    0    0  0.00000000000E+00  0.00000000000E+00  0.45593999997E+02  0.45594000000E+02  0.51100000000E-03 0.  1.
         11   -1    0    0    0    0 -0.00000000000E+00 -0.00000000000E+00 -0.45593999997E+02  0.45594000000E+02  0.51100000000E-03 0. -1.
    9900012    2    1    2    0    0  0.41721068888E+02 -0.97783030005E+01 -0.13887068999E+02  0.46142317808E+02  0.10000000427E+02 0.  0.
        -12    1    1    2    0    0 -0.41721068888E+02  0.97783030005E+01  0.13887068999E+02  0.45045682192E+02  0.00000000000E+00 0.  1.
         11    1    3    3    0    0  0.34973860740E+02 -0.99323314277E+01 -0.96015214385E+01  0.37603342363E+02  0.51100000000E-03 0. -1.
        -11    1    3    3    0    0  0.46162580819E+01 -0.29399120879E-03 -0.44293955771E+01  0.63976076939E+01  0.51100000000E-03 0.  1.
         12    1    3    3    0    0  0.21309500664E+01  0.15432241840E+00  0.14384801648E+00  0.21413677513E+01  0.00000000000E+00 0. -1.
</event>
<event>
 7    1  0.1519238E-008  0.4614232E+02  0.7816164E-02  0.1320468E+00
        -11   -1    0    0    0    0  0.00000000000E+00  0.00000000000E+00  0.45593999997E+02  0.45594000000E+02  0.51100000000E-03 0.  1.
         11   -1    0    0    0    0 -0.00000000000E+00 -0.00000000000E+00 -0.45593999997E+02  0.45594000000E+02  0.51100000000E-03 0. -1.
    9900012    2    1    2    0    0  0.30387067127E+02 -0.33232433680E+02  0.11597652163E+01  0.46142317052E+02  0.99999935350E+01 0.  0.
        -12    1    1    2    0    0 -0.30387067127E+02  0.33232433680E+02 -0.11597652163E+01  0.45045682948E+02  0.00000000000E+00 0.  1.
         11    1    3    3    0    0  0.20730440338E+01 -0.19675762522E+01  0.22341975410E+01  0.36277412790E+01  0.51100000000E-03 0.  1.
        -11    1    3    3    0    0  0.28059087393E+02 -0.29592427910E+02 -0.13395045626E+01  0.40802186800E+02  0.51100000000E-03 0. -1.
         12    1    3    3    0    0  0.25493570033E+00 -0.16724295180E+01  0.26507223784E+00  0.17123889731E+01  0.00000000000E+00 0. -1.
</event>
<event>
 7    1  0.1519238E-008  0.4614232E+02  0.7816164E-02  0.1320468E+00
        -11   -1    0    0    0    0  0.00000000000E+00  0.00000000000E+00  0.45593999997E+02  0.45594000000E+02  0.51100000000E-03 0.  1.
         11   -1    0    0    0    0 -0.00000000000E+00 -0.00000000000E+00 -0.45593999997E+02  0.45594000000E+02  0.51100000000E-03 0. -1.
    9900012    2    1    2    0    0 -0.19097437013E+02 -0.33896385423E+02  0.22703227196E+02  0.46142316851E+02  0.99999917039E+01 0.  0.
        -12    1    1    2    0    0  0.19097437013E+02  0.33896385423E+02 -0.22703227196E+02  0.45045683149E+02  0.00000000000E+00 0.  1.
         11    1    3    3    0    0 -0.90551416272E+00 -0.74910315959E+00  0.41537181039E+00  0.12464531458E+01  0.51100000000E-03 0. -1.
        -11    1    3    3    0    0 -0.12388185953E+02 -0.29016614123E+02  0.15912865778E+02  0.35336246885E+02  0.51100000000E-03 0.  1.
        -12    1    3    3    0    0 -0.58037368973E+01 -0.41306681401E+01  0.63749896082E+01  0.95596168208E+01  0.00000000000E+00 0.  1.
</event>
<event>
 7    1  0.1519238E-008  0.4614232E+02  0.7816164E-02  0.1320468E+00
        -11   -1    0    0    0    0  0.00000000000E+00  0.00000000000E+00  0.45593999997E+02  0.45594000000E+02  0.51100000000E-03 0.  1.
         11   -1    0    0    0    0 -0.00000000000E+00 -0.00000000000E+00 -0.45593999997E+02  0.45594000000E+02  0.51100000000E-03 0. -1.
    9900012    2    1    2    0    0 -0.23730189323E+02 -0.38225441764E+02 -0.21925335379E+01  0.46142317780E+02  0.10000000169E+02 0.  0.
        -12    1    1    2    0    0  0.23730189323E+02  0.38225441764E+02  0.21925335379E+01  0.45045682220E+02  0.00000000000E+00 0.  1.
         11    1    3    3    0    0 -0.69702174657E+01 -0.11449266994E+02 -0.20365487962E+01  0.13557919364E+02  0.51100000000E-03 0. -1.
        -11    1    3    3    0    0 -0.30707781722E+01 -0.27136352662E+01  0.24558793510E+01  0.47775347815E+01  0.51100000000E-03 0.  1.
        -12    1    3    3    0    0 -0.13689193685E+02 -0.24062539504E+02 -0.26118640926E+01  0.27806863634E+02  0.00000000000E+00 0.  1.
</event>
<event>
 7    1  0.1519238E-008  0.4614232E+02  0.7816164E-02  0.1320468E+00
        -11   -1    0    0    0    0  0.00000000000E+00  0.00000000000E+00  0.45593999997E+02  0.45594000000E+02  0.51100000000E-03 0.  1.
         11   -1    0    0    0    0 -0.00000000000E+00 -0.00000000000E+00 -0.45593999997E+02  0.45594000000E+02  0.51100000000E-03 0. -1.
    9900012    2    1    2    0    0 -0.17201770009E+02 -0.27752048634E+02 -0.31032823230E+02  0.46142320824E+02  0.10000027929E+02 0.  0.
        -12    1    1    2    0    0  0.17201770009E+02  0.27752048634E+02  0.31032823230E+02  0.45045679176E+02  0.00000000000E+00 0.  1.
         11    1    3    3    0    0 -0.70139442509E+01 -0.16474108803E+02 -0.19714648718E+02  0.26631917865E+02  0.51100000000E-03 0. -1.
        -11    1    3    3    0    0 -0.48411585309E+01 -0.21542581444E+01 -0.33416878721E+01  0.62645448493E+01  0.51100000000E-03 0.  1.
         12    1    3    3    0    0 -0.53466672275E+01 -0.91236816862E+01 -0.79764866397E+01  0.13245858110E+02  0.00000000000E+00 0. -1.
</event>
<event>
 7    1  0.1519238E-008  0.4614232E+02  0.7816164E-02  0.1320468E+00
        -11   -1    0    0    0    0  0.00000000000E+00  0.00000000000E+00  0.45593999997E+02  0.45594000000E+02  0.51100000000E-03 0.  1.
         11   -1    0    0    0    0 -0.00000000000E+00 -0.00000000000E+00 -0.45593999997E+02  0.45594000000E+02  0.51100000000E-03 0. -1.
    9900012    2    1    2    0    0 -0.24606589191E+02  0.13009864845E+02 -0.35417126261E+02  0.46142315995E+02  0.99999838980E+01 0.  0.
        -12    1    1    2    0    0  0.24606589191E+02 -0.13009864845E+02  0.35417126261E+02  0.45045684005E+02  0.00000000000E+00 0.  1.
         11    1    3    3    0    0 -0.68807743271E+01  0.44827715160E+01 -0.15119078518E+02  0.17205430285E+02  0.51100000000E-03 0.  1.
        -11    1    3    3    0    0 -0.18264317537E+01 -0.35965118575E+00 -0.43335441426E+01  0.47164400795E+01  0.51100000000E-03 0. -1.
         12    1    3    3    0    0 -0.15899383110E+02  0.88867445151E+01 -0.15964503600E+02  0.24220445631E+02  0.00000000000E+00 0. -1.
</event>
<event>
 7    1  0.1519238E-008  0.4614232E+02  0.7816164E-02  0.1320468E+00
        -11   -1    0    0    0    0  0.00000000000E+00  0.00000000000E+00  0.45593999997E+02  0.45594000000E+02  0.51100000000E-03 0.  1.
         11   -1    0    0    0    0 -0.00000000000E+00 -0.00000000000E+00 -0.45593999997E+02  0.45594000000E+02  0.51100000000E-03 0. -1.
    9900012    2    1    2    0    0  0.70989258956E+01 -0.43206996033E+02 -0.10577063572E+02  0.46142317311E+02  0.99999958999E+01 0.  0.
        -12    1    1    2    0    0 -0.70989258956E+01  0.43206996033E+02  0.10577063572E+02  0.45045682689E+02  0.00000000000E+00 0.  1.
         11    1    3    3    0    0  0.24655517852E+01 -0.15601559792E+02 -0.47478111775E+01  0.16493311517E+02  0.51100000000E-03 0. -1.
        -11    1    3    3    0    0 -0.73206803537E+00 -0.73546196541E+01  0.13305155848E+01  0.75097686947E+01  0.51100000000E-03 0.  1.
        -12    1    3    3    0    0  0.53654421458E+01 -0.20250816587E+02 -0.71597679791E+01  0.22139237100E+02  0.00000000000E+00 0.  1.
</event>
<event>
 7    1  0.1519238E-008  0.4614231E+02  0.7816164E-02  0.1320468E+00
        -11   -1    0    0    0    0  0.00000000000E+00  0.00000000000E+00  0.45593999997E+02  0.45594000000E+02  0.51100000000E-03 0.  1.
         11   -1    0    0    0    0 -0.00000000000E+00 -0.00000000000E+00 -0.45593999997E+02  0.45594000000E+02  0.51100000000E-03 0. -1.
    9900012    2    1    2    0    0  0.41420313801E+02 -0.91797307250E+01 -0.15139486808E+02  0.46142313055E+02  0.99999570826E+01 0.  0.
        -12    1    1    2    0    0 -0.41420313801E+02  0.91797307250E+01  0.15139486808E+02  0.45045686945E+02  0.00000000000E+00 0.  1.
         11    1    3    3    0    0  0.30438693043E+02 -0.95837825434E+01 -0.90711999336E+01  0.33176039403E+02  0.51100000000E-03 0. -1.
        -11    1    3    3    0    0  0.10379775591E+02  0.11559602888E+00 -0.64265901422E+01  0.12208774094E+02  0.51100000000E-03 0.  1.
         12    1    3    3    0    0  0.60184516750E+00  0.28845578949E+00  0.35830326760E+00  0.75749955756E+00  0.00000000000E+00 0. -1.
</event>
<event>
 7    1  0.1519238E-008  0.4614232E+02  0.7816164E-02  0.1320468E+00
        -11   -1    0    0    0    0  0.00000000000E+00  0.00000000000E+00  0.45593999997E+02  0.45594000000E+02  0.51100000000E-03 0.  1.
         11   -1    0    0    0    0 -0.00000000000E+00 -0.00000000000E+00 -0.45593999997E+02  0.45594000000E+02  0.51100000000E-03 0. -1.
    9900012    2    1    2    0    0  0.22460594042E+02  0.38525202426E+02  0.63595583709E+01  0.46142317750E+02  0.99999998995E+01 0.  0.
        -12    1    1    2    0    0 -0.22460594042E+02 -0.38525202426E+02 -0.63595583709E+01  0.45045682250E+02  0.00000000000E+00 0.  1.
         11    1    3    3    0    0  0.16883727284E+02  0.25653021000E+02  0.45306458036E+01  0.31042945818E+02  0.51100000000E-03 0. -1.
        -11    1    3    3    0    0  0.71553422053E+00  0.10105739480E+00 -0.91050658740E+00  0.11624217499E+01  0.51100000000E-03 0.  1.
         12    1    3    3    0    0  0.48613325371E+01  0.12771124032E+02  0.27394191547E+01  0.13936950182E+02  0.00000000000E+00 0. -1.
</event>
<event>
 7    1  0.1519238E-008  0.4614232E+02  0.7816164E-02  0.1320468E+00
        -11   -1    0    0    0    0  0.00000000000E+00  0.00000000000E+00  0.45593999997E+02  0.45594000000E+02  0.51100000000E-03 0.  1.
         11   -1    0    0    0    0 -0.00000000000E+00 -0.00000000000E+00 -0.45593999997E+02  0.45594000000E+02  0.51100000000E-03 0. -1.
    9900012    2    1    2    0    0  0.15284846822E+02  0.32200025509E+01 -0.42250663168E+02  0.46142317666E+02  0.99999991289E+01 0.  0.
        -12    1    1    2    0    0 -0.15284846822E+02 -0.32200025509E+01  0.42250663168E+02  0.45045682334E+02  0.00000000000E+00 0.  1.
         11    1    3    3    0    0  0.10335230292E+01  0.26707001148E+01 -0.27345452040E+01  0.39596144622E+01  0.51100000000E-03 0.  1.
        -11    1    3    3    0    0  0.97741903567E+01  0.21293356279E+01 -0.27468657689E+02  0.29233474354E+02  0.51100000000E-03 0. -1.
        -12    1    3    3    0    0  0.44771334361E+01 -0.15800331917E+01 -0.12047460276E+02  0.12949228849E+02  0.00000000000E+00 0.  1.
</event>
<event>
 7    1  0.1519238E-008  0.4614232E+02  0.7816164E-02  0.1320468E+00
        -11   -1    0    0    0    0  0.00000000000E+00  0.00000000000E+00  0.45593999997E+02  0.45594000000E+02  0.51100000000E-03 0.  1.
         11   -1    0    0    0    0 -0.00000000000E+00 -0.00000000000E+00 -0.45593999997E+02  0.45594000000E+02  0.51100000000E-03 0. -1.
    9900012    2    1    2    0    0  0.18455455860E+02  0.20096499636E+02 -0.35841877506E+02  0.46142319499E+02  0.10000015852E+02 0.  0.
        -12    1    1    2    0    0 -0.18455455860E+02 -0.20096499636E+02  0.35841877506E+02  0.45045680501E+02  0.00000000000E+00 0.  1.
         11    1    3    3    0    0  0.12727179631E+01  0.49228562614E+01 -0.27703925455E+01  0.57904576590E+01  0.51100000000E-03 0. -1.
        -11    1    3    3    0    0  0.75126478475E+01  0.58782878409E+01 -0.16178804196E+02  0.18781582763E+02  0.51100000000E-03 0.  1.
         12    1    3    3    0    0  0.96700900491E+01  0.92953555340E+01 -0.16892680764E+02  0.21570279077E+02  0.00000000000E+00 0. -1.
</event>
<event>
 7    1  0.1519238E-008  0.4614232E+02  0.7816164E-02  0.1320468E+00
        -11   -1    0    0    0    0  0.00000000000E+00  0.00000000000E+00  0.45593999997E+02  0.45594000000E+02  0.51100000000E-03 0. -1.
         11   -1    0    0    0    0 -0.00000000000E+00 -0.00000000000E+00 -0.45593999997E+02  0.45594000000E+02  0.51100000000E-03 0.  1.
    9900012    2    1    2    0    0 -0.93581457875E+01  0.33583310350E+02  0.28525424897E+02  0.46142317719E+02  0.99999996137E+01 0.  0.
        -12    1    1    2    0    0  0.93581457875E+01 -0.33583310350E+02 -0.28525424897E+02  0.45045682281E+02  0.00000000000E+00 0.  1.
         11    1    3    3    0    0 -0.42639196130E+01  0.85649879574E+01  0.61231578446E+01  0.11359273367E+02  0.51100000000E-03 0. -1.
        -11    1    3    3    0    0  0.56163935542E-01  0.16909557210E+02  0.15657593391E+02  0.23045531248E+02  0.51100000000E-03 0.  1.
        -12    1    3    3    0    0 -0.51503901101E+01  0.81087651822E+01  0.67446736612E+01  0.11737513104E+02  0.00000000000E+00 0.  1.
</event>
<event>
 7    1  0.1519238E-008  0.4614232E+02  0.7816164E-02  0.1320468E+00
        -11   -1    0    0    0    0  0.00000000000E+00  0.00000000000E+00  0.45593999997E+02  0.45594000000E+02  0.51100000000E-03 0. -1.
         11   -1    0    0    0    0 -0.00000000000E+00 -0.00000000000E+00 -0.45593999997E+02  0.45594000000E+02  0.51100000000E-03 0.  1.
    9900012    2    1    2    0    0  0.18288787149E+02  0.34742720045E+02  0.22081148327E+02  0.46142318266E+02  0.10000004601E+02 0.  0.
        -12    1    1    2    0    0 -0.18288787149E+02 -0.34742720045E+02 -0.22081148327E+02  0.45045681734E+02  0.00000000000E+00 0.  1.
         11    1    3    3    0    0  0.11843344782E+02  0.14432517772E+02  0.80817532554E+01  0.20343970133E+02  0.51100000000E-03 0. -1.
        -11    1    3    3    0    0  0.58859616505E+01  0.20132319457E+02  0.13118152549E+02  0.24739457509E+02  0.51100000000E-03 0.  1.
        -12    1    3    3    0    0  0.55948071680E+00  0.17788281542E+00  0.88124252209E+00  0.10588906229E+01  0.00000000000E+00 0.  1.
</event>
<event>
 7    1  0.1519238E-008  0.4614232E+02  0.7816164E-02  0.1320468E+00
        -11   -1    0    0    0    0  0.00000000000E+00  0.00000000000E+00  0.45593999997E+02  0.45594000000E+02  0.51100000000E-03 0.  1.
         11   -1    0    0    0    0 -0.00000000000E+00 -0.00000000000E+00 -0.45593999997E+02  0.45594000000E+02  0.51100000000E-03 0. -1.
    9900012    2    1    2    0    0 -0.23611111940E+02  0.22487322211E+02 -0.31079725845E+02  0.46142316235E+02  0.99999860821E+01 0.  0.
        -12    1    1    2    0    0  0.23611111940E+02 -0.22487322211E+02  0.31079725845E+02  0.45045683765E+02  0.00000000000E+00 0.  1.
         11    1    3    3    0    0 -0.10429055898E+02  0.11388948659E+02 -0.14302261689E+02  0.21048231473E+02  0.51100000000E-03 0. -1.
        -11    1    3    3    0    0 -0.11882692805E+02  0.96141948374E+01 -0.10577872472E+02  0.18588235983E+02  0.51100000000E-03 0.  1.
        -12    1    3    3    0    0 -0.12993632370E+01  0.14841787155E+01 -0.61995916840E+01  0.65058487785E+01  0.00000000000E+00 0.  1.
</event>
<event>
 7    1  0.1519238E-008  0.4614232E+02  0.7816164E-02  0.1320468E+00
        -11   -1    0    0    0    0  0.00000000000E+00  0.00000000000E+00  0.45593999997E+02  0.45594000000E+02  0.51100000000E-03 0. -1.
         11   -1    0    0    0    0 -0.00000000000E+00 -0.00000000000E+00 -0.45593999997E+02  0.45594000000E+02  0.51100000000E-03 0.  1.
    9900012    2    1    2    0    0 -0.37374254068E+02 -0.25062947231E+02  0.20315804717E+01  0.46142317518E+02  0.99999977865E+01 0.  0.
        -12    1    1    2    0    0  0.37374254068E+02  0.25062947231E+02 -0.20315804717E+01  0.45045682482E+02  0.00000000000E+00 0.  1.
         11    1    3    3    0    0 -0.69362895624E+01 -0.46362612671E+01  0.29105920187E+01  0.88362083265E+01  0.51100000000E-03 0. -1.
        -11    1    3    3    0    0 -0.27950984135E+02 -0.19584166294E+02  0.88874030994E+00  0.34140693360E+02  0.51100000000E-03 0.  1.
        -12    1    3    3    0    0 -0.24869803708E+01 -0.84251966986E+00 -0.17677518569E+01  0.31654158315E+01  0.00000000000E+00 0.  1.
</event>
<event>
 7    1  0.1519238E-008  0.4614232E+02  0.7816164E-02  0.1320468E+00
        -11   -1    0    0    0    0  0.00000000000E+00  0.00000000000E+00  0.45593999997E+02  0.45594000000E+02  0.51100000000E-03 0. -1.
         11   -1    0    0    0    0 -0.00000000000E+00 -0.00000000000E+00 -0.45593999997E+02  0.45594000000E+02  0.51100000000E-03 0.  1.
    9900012    2    1    2    0    0 -0.12433412770E+02  0.29658700480E+02  0.31541801924E+02  0.46142317234E+02  0.99999951904E+01 0.  0.
        -12    1    1    2    0    0  0.12433412770E+02 -0.29658700480E+02 -0.31541801924E+02  0.45045682766E+02  0.00000000000E+00 0.  1.
         11    1    3    3    0    0 -0.68100000489E+00 -0.42367699876E+00  0.26038124559E+01  0.27245371667E+01  0.51100000000E-03 0. -1.
        -11    1    3    3    0    0 -0.57571186036E+01  0.11875738574E+02  0.12046859949E+02  0.17869091085E+02  0.51100000000E-03 0.  1.
         12    1    3    3    0    0 -0.59952941614E+01  0.18206638905E+02  0.16891129519E+02  0.25548688982E+02  0.00000000000E+00 0. -1.
</event>
<event>
 7    1  0.1519238E-008  0.4614232E+02  0.7816164E-02  0.1320468E+00
        -11   -1    0    0    0    0  0.00000000000E+00  0.00000000000E+00  0.45593999997E+02  0.45594000000E+02  0.51100000000E-03 0.  1.
         11   -1    0    0    0    0 -0.00000000000E+00 -0.00000000000E+00 -0.45593999997E+02  0.45594000000E+02  0.51100000000E-03 0. -1.
    9900012    2    1    2    0    0  0.25560465327E+02  0.24313156144E+02  0.28011542768E+02  0.46142317880E+02  0.10000001085E+02 0.  0.
        -12    1    1    2    0    0 -0.25560465327E+02 -0.24313156144E+02 -0.28011542768E+02  0.45045682120E+02  0.00000000000E+00 0.  1.
         11    1    3    3    0    0  0.19292835762E+02  0.16563761545E+02  0.22095701517E+02  0.33686669975E+02  0.51100000000E-03 0. -1.
        -11    1    3    3    0    0  0.45285146608E+01  0.46151170653E+01  0.12726632264E+01  0.65898727232E+01  0.51100000000E-03 0.  1.
         12    1    3    3    0    0  0.17391149042E+01  0.31342775342E+01  0.46431780246E+01  0.58657751815E+01  0.00000000000E+00 0. -1.
</event>
<event>
 7    1  0.1519238E-008  0.4614231E+02  0.7816164E-02  0.1320468E+00
        -11   -1    0    0    0    0  0.00000000000E+00  0.00000000000E+00  0.45593999997E+02  0.45594000000E+02  0.51100000000E-03 0.  1.
         11   -1    0    0    0    0 -0.00000000000E+00 -0.00000000000E+00 -0.45593999997E+02  0.45594000000E+02  0.51100000000E-03 0. -1.
    9900012    2    1    2    0    0 -0.32716142047E+02 -0.77176962839E+01 -0.29986755907E+02  0.46142308572E+02  0.99999162096E+01 0.  0.
        -12    1    1    2    0    0  0.32716142047E+02  0.77176962839E+01  0.29986755907E+02  0.45045691428E+02  0.00000000000E+00 0.  1.
         11    1    3    3    0    0 -0.15278017399E+02 -0.52540537497E+01 -0.17087403253E+02  0.23515999801E+02  0.51100000000E-03 0. -1.
        -11    1    3    3    0    0 -0.92857880424E+01 -0.23318635731E+01 -0.35253017202E+01  0.10202509484E+02  0.51100000000E-03 0.  1.
        -12    1    3    3    0    0 -0.81523366056E+01 -0.13177896115E+00 -0.93740509332E+01  0.12423799287E+02  0.00000000000E+00 0.  1.
</event>
<event>
 7    1  0.1519238E-008  0.4614232E+02  0.7816164E-02  0.1320468E+00
        -11   -1    0    0    0    0  0.00000000000E+00  0.00000000000E+00  0.45593999997E+02  0.45594000000E+02  0.51100000000E-03 0. -1.
         11   -1    0    0    0    0 -0.00000000000E+00 -0.00000000000E+00 -0.45593999997E+02  0.45594000000E+02  0.51100000000E-03 0.  1.
    9900012    2    1    2    0    0  0.25827811254E+02  0.68756865203E+01  0.36259655325E+02  0.46142317592E+02  0.99999984604E+01 0.  0.
        -12    1    1    2    0    0 -0.25827811254E+02 -0.68756865203E+01 -0.36259655325E+02  0.45045682408E+02  0.00000000000E+00 0.  1.
         11    1    3    3    0    0  0.12376682539E+02  0.57077057046E+01  0.16331208431E+02  0.21271308003E+02  0.51100000000E-03 0. -1.
        -11    1    3    3    0    0  0.11622988950E+02 -0.14219409778E+01  0.15595414756E+02  0.19502121678E+02  0.51100000000E-03 0.  1.
        -12    1    3    3    0    0  0.18281397660E+01  0.25899217935E+01  0.43330321368E+01  0.53688879109E+01  0.00000000000E+00 0.  1.
</event>
<event>
 7    1  0.1519238E-008  0.4614232E+02  0.7816164E-02  0.1320468E+00
        -11   -1    0    0    0    0  0.00000000000E+00  0.00000000000E+00  0.45593999997E+02  0.45594000000E+02  0.51100000000E-03 0.  1.
         11   -1    0    0    0    0 -0.00000000000E+00 -0.00000000000E+00 -0.45593999997E+02  0.45594000000E+02  0.51100000000E-03 0. -1.
    9900012    2    1    2    0    0  0.80654670189E+01  0.44145324396E+02 -0.39053873984E+01  0.46142317909E+02  0.10000001353E+02 0.  0.
        -12    1    1    2    0    0 -0.80654670189E+01 -0.44145324396E+02  0.39053873984E+01  0.45045682091E+02  0.00000000000E+00 0.  1.
         11    1    3    3    0    0  0.21790659924E+01  0.21042606104E+02 -0.15622266533E+01  0.21212735624E+02  0.51100000000E-03 0. -1.
        -11    1    3    3    0    0 -0.47346920955E+00  0.11949488504E+02 -0.16454966684E+01  0.12071541250E+02  0.51100000000E-03 0.  1.
         12    1    3    3    0    0  0.63598702360E+01  0.11153229787E+02 -0.69766407670E+00  0.12858041036E+02  0.00000000000E+00 0. -1.
</event>
<event>
 7    1  0.1519238E-008  0.4614232E+02  0.7816164E-02  0.1320468E+00
        -11   -1    0    0    0    0  0.00000000000E+00  0.00000000000E+00  0.45593999997E+02  0.45594000000E+02  0.51100000000E-03 0.  1.
         11   -1    0    0    0    0 -0.00000000000E+00 -0.00000000000E+00 -0.45593999997E+02  0.45594000000E+02  0.51100000000E-03 0. -1.
    9900012    2    1    2    0    0  0.60804385712E+01 -0.39405711811E+02 -0.20960236459E+02  0.46142319086E+02  0.10000012086E+02 0.  0.
        -12    1    1    2    0    0 -0.60804385712E+01  0.39405711811E+02  0.20960236459E+02  0.45045680914E+02  0.00000000000E+00 0.  1.
         11    1    3    3    0    0  0.30206304677E+01 -0.47553757893E+01 -0.30644545680E+01  0.64131653168E+01  0.51100000000E-03 0. -1.
        -11    1    3    3    0    0 -0.53718143819E-01 -0.95482930952E+01 -0.17126354365E+01  0.97008199175E+01  0.51100000000E-03 0.  1.
         12    1    3    3    0    0  0.31135262474E+01 -0.25102042926E+02 -0.16183146455E+02  0.30028333852E+02  0.00000000000E+00 0. -1.
</event>
<event>
 7    1  0.1519238E-008  0.4614232E+02  0.7816164E-02  0.1320468E+00
        -11   -1    0    0    0    0  0.00000000000E+00  0.00000000000E+00  0.45593999997E+02  0.45594000000E+02  0.51100000000E-03 0.  1.
         11   -1    0    0    0    0 -0.00000000000E+00 -0.00000000000E+00 -0.45593999997E+02  0.45594000000E+02  0.51100000000E-03 0. -1.
    9900012    2    1    2    0    0  0.37776571177E+02  0.89737068888E+01 -0.22836740852E+02  0.46142317877E+02  0.10000001053E+02 0.  0.
        -12    1    1    2    0    0 -0.37776571177E+02 -0.89737068888E+01  0.22836740852E+02  0.45045682123E+02  0.00000000000E+00 0.  1.
         11    1    3    3    0    0  0.25347126566E+02  0.56467577407E+01 -0.16983382286E+02  0.31028986002E+02  0.51100000000E-03 0. -1.
        -11    1    3    3    0    0  0.95118040655E+01  0.44185832394E+01 -0.30499870215E+01  0.10922486691E+02  0.51100000000E-03 0.  1.
        -12    1    3    3    0    0  0.29176405456E+01 -0.10916340913E+01 -0.28033715440E+01  0.41908451840E+01  0.00000000000E+00 0.  1.
</event>
<event>
 7    1  0.1519238E-008  0.4614232E+02  0.7816164E-02  0.1320468E+00
        -11   -1    0    0    0    0  0.00000000000E+00  0.00000000000E+00  0.45593999997E+02  0.45594000000E+02  0.51100000000E-03 0. -1.
         11   -1    0    0    0    0 -0.00000000000E+00 -0.00000000000E+00 -0.45593999997E+02  0.45594000000E+02  0.51100000000E-03 0.  1.
    9900012    2    1    2    0    0 -0.34370462477E+02 -0.24304392363E+02  0.16033758955E+02  0.46142316463E+02  0.99999881644E+01 0.  0.
        -12    1    1    2    0    0  0.34370462477E+02  0.24304392363E+02 -0.16033758955E+02  0.45045683537E+02  0.00000000000E+00 0.  1.
         11    1    3    3    0    0 -0.13682254802E+02 -0.14348717057E+02  0.97745630082E+01  0.22105018885E+02  0.51100000000E-03 0. -1.
        -11    1    3    3    0    0 -0.18152721713E+02 -0.98271145407E+01  0.59325213705E+01  0.21477623143E+02  0.51100000000E-03 0.  1.
         12    1    3    3    0    0 -0.25354859627E+01 -0.12856076588E+00  0.32667457638E+00  0.25596744356E+01  0.00000000000E+00 0. -1.
</event>
<event>
 7    1  0.1519238E-008  0.4614232E+02  0.7816164E-02  0.1320468E+00
        -11   -1    0    0    0    0  0.00000000000E+00  0.00000000000E+00  0.45593999997E+02  0.45594000000E+02  0.51100000000E-03 0.  1.
         11   -1    0    0    0    0 -0.00000000000E+00 -0.00000000000E+00 -0.45593999997E+02  0.45594000000E+02  0.51100000000E-03 0. -1.
    9900012    2    1    2    0    0  0.43684563679E+01  0.12190809506E+02 -0.43144109806E+02  0.46142318094E+02  0.10000003035E+02 0.  0.
        -12    1    1    2    0    0 -0.43684563679E+01 -0.12190809506E+02  0.43144109806E+02  0.45045681906E+02  0.00000000000E+00 0.  1.
         11    1    3    3    0    0  0.26257747722E+00  0.58849287294E+01 -0.16644390227E+02  0.17656077123E+02  0.51100000000E-03 0. -1.
        -11    1    3    3    0    0  0.18189760921E+01 -0.10597400691E+01 -0.24504031719E+01  0.32305106413E+01  0.51100000000E-03 0.  1.
        -12    1    3    3    0    0  0.22869027985E+01  0.73656208461E+01 -0.24049316407E+02  0.25255730330E+02  0.00000000000E+00 0.  1.
</event>
<event>
 7    1  0.1519238E-008  0.4614232E+02  0.7816164E-02  0.1320468E+00
        -11   -1    0    0    0    0  0.00000000000E+00  0.00000000000E+00  0.45593999997E+02  0.45594000000E+02  0.51100000000E-03 0.  1.
         11   -1    0    0    0    0 -0.00000000000E+00 -0.00000000000E+00 -0.45593999997E+02  0.45594000000E+02  0.51100000000E-03 0. -1.
    9900012    2    1    2    0    0  0.19964842374E+01  0.36643481415E+02 -0.26122457638E+02  0.46142317936E+02  0.10000001593E+02 0.  0.
        -12    1    1    2    0    0 -0.19964842374E+01 -0.36643481415E+02  0.26122457638E+02  0.45045682064E+02  0.00000000000E+00 0.  1.
         11    1    3    3    0    0  0.27722623467E+01  0.36701632193E+02 -0.24605327438E+02  0.44273212925E+02  0.51100000000E-03 0. -1.
        -11    1    3    3    0    0 -0.28119965444E+00  0.17754377253E+00 -0.11796627016E+01  0.12256424386E+01  0.51100000000E-03 0.  1.
         12    1    3    3    0    0 -0.49457845485E+00 -0.23569454973E+00 -0.33746749853E+00  0.64346257183E+00  0.00000000000E+00 0. -1.
</event>
<event>
 7    1  0.1519238E-008  0.4614232E+02  0.7816164E-02  0.1320468E+00
        -11   -1    0    0    0    0  0.00000000000E+00  0.00000000000E+00  0.45593999997E+02  0.45594000000E+02  0.51100000000E-03 0. -1.
         11   -1    0    0    0    0 -0.00000000000E+00 -0.00000000000E+00 -0.45593999997E+02  0.45594000000E+02  0.51100000000E-03 0.  1.
    9900012    2    1    2    0    0  0.22925935368E+02  0.16369378714E+02  0.35150510325E+02  0.46142318208E+02  0.10000004076E+02 0.  0.
        -12    1    1    2    0    0 -0.22925935368E+02 -0.16369378714E+02 -0.35150510325E+02  0.45045681792E+02  0.00000000000E+00 0.  1.
         11    1    3    3    0    0  0.10067859167E+01  0.55758408009E+00  0.56678484490E+01  0.57835131356E+01  0.51100000000E-03 0. -1.
        -11    1    3    3    0    0  0.11508045981E+02  0.67491904149E+01  0.11002327626E+02  0.17292712541E+02  0.51100000000E-03 0.  1.
        -12    1    3    3    0    0  0.10411103471E+02  0.90626042186E+01  0.18480334250E+02  0.23066092532E+02  0.00000000000E+00 0.  1.
</event>
<event>
 7    1  0.1519238E-008  0.4614232E+02  0.7816164E-02  0.1320468E+00
        -11   -1    0    0    0    0  0.00000000000E+00  0.00000000000E+00  0.45593999997E+02  0.45594000000E+02  0.51100000000E-03 0.  1.
         11   -1    0    0    0    0 -0.00000000000E+00 -0.00000000000E+00 -0.45593999997E+02  0.45594000000E+02  0.51100000000E-03 0. -1.
    9900012    2    1    2    0    0 -0.20415589777E+02  0.39787466593E+02  0.54106279209E+01  0.46142315431E+02  0.99999787493E+01 0.  0.
        -12    1    1    2    0    0  0.20415589777E+02 -0.39787466593E+02 -0.54106279209E+01  0.45045684569E+02  0.00000000000E+00 0.  1.
         11    1    3    3    0    0 -0.51725800706E+01  0.94694472091E+01  0.40843151265E+00  0.10797816057E+02  0.51100000000E-03 0. -1.
        -11    1    3    3    0    0 -0.60443668517E+01  0.75180173278E+01  0.47615258807E+01  0.10757652353E+02  0.51100000000E-03 0.  1.
        -12    1    3    3    0    0 -0.91986428546E+01  0.22800002056E+02  0.24067052756E+00  0.24586847021E+02  0.00000000000E+00 0.  1.
</event>
<event>
 7    1  0.1519238E-008  0.4614232E+02  0.7816164E-02  0.1320468E+00
        -11   -1    0    0    0    0  0.00000000000E+00  0.00000000000E+00  0.45593999997E+02  0.45594000000E+02  0.51100000000E-03 0.  1.
         11   -1    0    0    0    0 -0.00000000000E+00 -0.00000000000E+00 -0.45593999997E+02  0.45594000000E+02  0.51100000000E-03 0. -1.
    9900012    2    1    2    0    0 -0.50610160240E+01  0.37144207407E+02 -0.24976139291E+02  0.46142316955E+02  0.99999926467E+01 0.  0.
        -12    1    1    2    0    0  0.50610160240E+01 -0.37144207407E+02  0.24976139291E+02  0.45045683045E+02  0.00000000000E+00 0.  1.
         11    1    3    3    0    0 -0.59221396309E+00  0.15550735552E+02 -0.12933464426E+02  0.20234885616E+02  0.51100000000E-03 0. -1.
        -11    1    3    3    0    0 -0.13504254591E+01  0.18075875394E+02 -0.84950032414E+01  0.20018141785E+02  0.51100000000E-03 0.  1.
         12    1    3    3    0    0 -0.31183766018E+01  0.35175964614E+01 -0.35476716241E+01  0.58892895538E+01  0.00000000000E+00 0. -1.
</event>
<event>
 7    1  0.1519238E-008  0.4614232E+02  0.7816164E-02  0.1320468E+00
        -11   -1    0    0    0    0  0.00000000000E+00  0.00000000000E+00  0.45593999997E+02  0.45594000000E+02  0.51100000000E-03 0.  1.
         11   -1    0    0    0    0 -0.00000000000E+00 -0.00000000000E+00 -0.45593999997E+02  0.45594000000E+02  0.51100000000E-03 0. -1.
    9900012    2    1    2    0    0 -0.41933408346E+02  0.15982841862E+02 -0.39053383198E+01  0.46142316113E+02  0.99999849678E+01 0.  0.
        -12    1    1    2    0    0  0.41933408346E+02 -0.15982841862E+02  0.39053383198E+01  0.45045683887E+02  0.00000000000E+00 0.  1.
         11    1    3    3    0    0 -0.28436472486E+02  0.69863095055E+01 -0.45052802599E+01  0.29626660940E+02  0.51100000000E-03 0. -1.
        -11    1    3    3    0    0 -0.51437775357E+01  0.26814087219E+01  0.15405783649E+01  0.60018148947E+01  0.51100000000E-03 0.  1.
         12    1    3    3    0    0 -0.83531583237E+01  0.63151236349E+01 -0.94063642478E+00  0.10513840278E+02  0.00000000000E+00 0. -1.
</event>
<event>
 7    1  0.1519238E-008  0.4614232E+02  0.7816164E-02  0.1320468E+00
        -11   -1    0    0    0    0  0.00000000000E+00  0.00000000000E+00  0.45593999997E+02  0.45594000000E+02  0.51100000000E-03 0.  1.
         11   -1    0    0    0    0 -0.00000000000E+00 -0.00000000000E+00 -0.45593999997E+02  0.45594000000E+02  0.51100000000E-03 0. -1.
    9900012    2    1    2    0    0 -0.35082038192E+02 -0.23410109781E+02 -0.15821852047E+02  0.46142316013E+02  0.99999840592E+01 0.  0.
        -12    1    1    2    0    0  0.35082038192E+02  0.23410109781E+02  0.15821852047E+02  0.45045683987E+02  0.00000000000E+00 0.  1.
         11    1    3    3    0    0 -0.12348845386E+02 -0.83525497768E+01 -0.72759157430E+01  0.16589093414E+02  0.51100000000E-03 0. -1.
        -11    1    3    3    0    0 -0.90240881024E+01 -0.10460402507E+02 -0.46765457155E+01  0.14585069996E+02  0.51100000000E-03 0.  1.
        -12    1    3    3    0    0 -0.13709104703E+02 -0.45971574971E+01 -0.38693905886E+01  0.14968152603E+02  0.00000000000E+00 0.  1.
</event>
<event>
 7    1  0.1519238E-008  0.4614232E+02  0.7816164E-02  0.1320468E+00
        -11   -1    0    0    0    0  0.00000000000E+00  0.00000000000E+00  0.45593999997E+02  0.45594000000E+02  0.51100000000E-03 0.  1.
         11   -1    0    0    0    0 -0.00000000000E+00 -0.00000000000E+00 -0.45593999997E+02  0.45594000000E+02  0.51100000000E-03 0. -1.
    9900012    2    1    2    0    0 -0.37695408973E+02  0.12041341578E+02 -0.21521517340E+02  0.46142317929E+02  0.10000001530E+02 0.  0.
        -12    1    1    2    0    0  0.37695408973E+02 -0.12041341578E+02  0.21521517340E+02  0.45045682071E+02  0.00000000000E+00 0.  1.
         11    1    3    3    0    0 -0.36604006548E+01  0.38496345079E+01 -0.23690927287E+01  0.58164266880E+01  0.51100000000E-03 0. -1.
        -11    1    3    3    0    0 -0.18850377901E+01  0.15961732186E+00  0.27685667981E+00  0.19119348948E+01  0.51100000000E-03 0.  1.
         12    1    3    3    0    0 -0.32149970528E+02  0.80320897480E+01 -0.19429281291E+02  0.38413956346E+02  0.00000000000E+00 0. -1.
</event>
<event>
 7    1  0.1519238E-008  0.4614232E+02  0.7816164E-02  0.1320468E+00
        -11   -1    0    0    0    0  0.00000000000E+00  0.00000000000E+00  0.45593999997E+02  0.45594000000E+02  0.51100000000E-03 0. -1.
         11   -1    0    0    0    0 -0.00000000000E+00 -0.00000000000E+00 -0.45593999997E+02  0.45594000000E+02  0.51100000000E-03 0.  1.
    9900012    2    1    2    0    0  0.29010078422E+01  0.21736030613E+02  0.39347714837E+02  0.46142317230E+02  0.99999951570E+01 0.  0.
        -12    1    1    2    0    0 -0.29010078422E+01 -0.21736030613E+02 -0.39347714837E+02  0.45045682770E+02  0.00000000000E+00 0.  1.
         11    1    3    3    0    0 -0.12907850556E+01  0.15652683591E+02  0.27640863076E+02  0.31791350105E+02  0.51100000000E-03 0. -1.
        -11    1    3    3    0    0  0.18030241131E+01  0.23280237703E+01  0.81117214487E+01  0.86296358990E+01  0.51100000000E-03 0.  1.
        -12    1    3    3    0    0  0.23887687846E+01  0.37553232519E+01  0.35951303121E+01  0.57213312257E+01  0.00000000000E+00 0.  1.
</event>
<event>
 7    1  0.1519238E-008  0.4614232E+02  0.7816164E-02  0.1320468E+00
        -11   -1    0    0    0    0  0.00000000000E+00  0.00000000000E+00  0.45593999997E+02  0.45594000000E+02  0.51100000000E-03 0.  1.
         11   -1    0    0    0    0 -0.00000000000E+00 -0.00000000000E+00 -0.45593999997E+02  0.45594000000E+02  0.51100000000E-03 0. -1.
    9900012    2    1    2    0    0  0.36383310612E+01 -0.43395595353E+02 -0.11519468837E+02  0.46142319727E+02  0.10000017929E+02 0.  0.
        -12    1    1    2    0    0 -0.36383310612E+01  0.43395595353E+02  0.11519468837E+02  0.45045680273E+02  0.00000000000E+00 0.  1.
         11    1    3    3    0    0  0.49686852162E+00 -0.20868815917E+02 -0.51807252914E+01  0.21508004810E+02  0.51100000000E-03 0.  1.
        -11    1    3    3    0    0  0.36843562876E+01 -0.22115190474E+02 -0.47668684578E+01  0.22921151064E+02  0.51100000000E-03 0. -1.
        -12    1    3    3    0    0 -0.54289374804E+00 -0.41158896188E+00 -0.15718750879E+01  0.17131638529E+01  0.00000000000E+00 0.  1.
</event>
<event>
 7    1  0.1519238E-008  0.4614232E+02  0.7816164E-02  0.1320468E+00
        -11   -1    0    0    0    0  0.00000000000E+00  0.00000000000E+00  0.45593999997E+02  0.45594000000E+02  0.51100000000E-03 0.  1.
         11   -1    0    0    0    0 -0.00000000000E+00 -0.00000000000E+00 -0.45593999997E+02  0.45594000000E+02  0.51100000000E-03 0. -1.
    9900012    2    1    2    0    0  0.21781382931E+02 -0.24821695243E+02 -0.30636062682E+02  0.46142317256E+02  0.99999953970E+01 0.  0.
        -12    1    1    2    0    0 -0.21781382931E+02  0.24821695243E+02  0.30636062682E+02  0.45045682744E+02  0.00000000000E+00 0.  1.
         11    1    3    3    0    0  0.79846440185E+01 -0.89558374624E+01 -0.81227287105E+01  0.14489316296E+02  0.51100000000E-03 0. -1.
        -11    1    3    3    0    0  0.13573620592E+02 -0.11571923870E+02 -0.19337099741E+02  0.26307337849E+02  0.51100000000E-03 0.  1.
        -12    1    3    3    0    0  0.22311832114E+00 -0.42939339108E+01 -0.31762342308E+01  0.53456631118E+01  0.00000000000E+00 0.  1.
</event>
<event>
 7    1  0.1519238E-008  0.4614232E+02  0.7816164E-02  0.1320468E+00
        -11   -1    0    0    0    0  0.00000000000E+00  0.00000000000E+00  0.45593999997E+02  0.45594000000E+02  0.51100000000E-03 0.  1.
         11   -1    0    0    0    0 -0.00000000000E+00 -0.00000000000E+00 -0.45593999997E+02  0.45594000000E+02  0.51100000000E-03 0. -1.
    9900012    2    1    2    0    0  0.23792680264E+01 -0.44975342120E+02 -0.81926203877E+00  0.46142317572E+02  0.99999982752E+01 0.  0.
        -12    1    1    2    0    0 -0.23792680264E+01  0.44975342120E+02  0.81926203877E+00  0.45045682428E+02  0.00000000000E+00 0.  1.
         11    1    3    3    0    0  0.27200060535E+01 -0.23359822589E+02 -0.19561034573E+01  0.23598857712E+02  0.51100000000E-03 0. -1.
        -11    1    3    3    0    0  0.51207382141E+00 -0.15032577474E+02 -0.20496383533E+01  0.15180303777E+02  0.51100000000E-03 0.  1.
        -12    1    3    3    0    0 -0.85281184844E+00 -0.65829420571E+01  0.31864797718E+01  0.73631560837E+01  0.00000000000E+00 0.  1.
</event>
<event>
 7    1  0.1519238E-008  0.4614232E+02  0.7816164E-02  0.1320468E+00
        -11   -1    0    0    0    0  0.00000000000E+00  0.00000000000E+00  0.45593999997E+02  0.45594000000E+02  0.51100000000E-03 0.  1.
         11   -1    0    0    0    0 -0.00000000000E+00 -0.00000000000E+00 -0.45593999997E+02  0.45594000000E+02  0.51100000000E-03 0. -1.
    9900012    2    1    2    0    0  0.43584059890E+01 -0.45363012082E+00 -0.44832041373E+02  0.46142318557E+02  0.10000007256E+02 0.  0.
        -12    1    1    2    0    0 -0.43584059890E+01  0.45363012082E+00  0.44832041373E+02  0.45045681443E+02  0.00000000000E+00 0.  1.
         11    1    3    3    0    0 -0.20525457617E+00 -0.96906728327E+00 -0.32497330056E+02  0.32512423501E+02  0.51100000000E-03 0. -1.
        -11    1    3    3    0    0  0.16248428668E+01 -0.71300197448E+00 -0.83096125672E+01  0.84969493017E+01  0.51100000000E-03 0.  1.
         12    1    3    3    0    0  0.29388176984E+01  0.12284391369E+01 -0.40250987491E+01  0.51329457544E+01  0.00000000000E+00 0. -1.
</event>
<event>
 7    1  0.1519238E-008  0.4614232E+02  0.7816164E-02  0.1320468E+00
        -11   -1    0    0    0    0  0.00000000000E+00  0.00000000000E+00  0.45593999997E+02  0.45594000000E+02  0.51100000000E-03 0.  1.
         11   -1    0    0    0    0 -0.00000000000E+00 -0.00000000000E+00 -0.45593999997E+02  0.45594000000E+02  0.51100000000E-03 0. -1.
    9900012    2    1    2    0    0  0.14882670385E+02 -0.11878726095E+02 -0.40822978053E+02  0.46142317094E+02  0.99999939144E+01 0.  0.
        -12    1    1    2    0    0 -0.14882670385E+02  0.11878726095E+02  0.40822978053E+02  0.45045682906E+02  0.00000000000E+00 0.  1.
         11    1    3    3    0    0  0.10780444411E+02 -0.59005992714E+01 -0.16965038858E+02  0.20948689629E+02  0.51100000000E-03 0. -1.
        -11    1    3    3    0    0  0.61840167835E+00 -0.36702576532E+01 -0.85388929290E+01  0.93148217691E+01  0.51100000000E-03 0.  1.
         12    1    3    3    0    0  0.34838242948E+01 -0.23078691702E+01 -0.15319046266E+02  0.15878805695E+02  0.00000000000E+00 0. -1.
</event>
<event>
 7    1  0.1519238E-008  0.4614232E+02  0.7816164E-02  0.1320468E+00
        -11   -1    0    0    0    0  0.00000000000E+00  0.00000000000E+00  0.45593999997E+02  0.45594000000E+02  0.51100000000E-03 0.  1.
         11   -1    0    0    0    0 -0.00000000000E+00 -0.00000000000E+00 -0.45593999997E+02  0.45594000000E+02  0.51100000000E-03 0. -1.
    9900012    2    1    2    0    0 -0.82938498261E+01  0.32873568894E+01 -0.44153356338E+02  0.46142317230E+02  0.99999951582E+01 0.  0.
        -12    1    1    2    0    0  0.82938498261E+01 -0.32873568894E+01  0.44153356338E+02  0.45045682770E+02  0.00000000000E+00 0.  1.
         11    1    3    3    0    0 -0.18068662959E+00 -0.10706657453E+01 -0.19489054319E+02  0.19519277940E+02  0.51100000000E-03 0. -1.
        -11    1    3    3    0    0 -0.39883493032E+01  0.37459457296E+01 -0.10267091812E+02  0.11634097048E+02  0.51100000000E-03 0.  1.
        -12    1    3    3    0    0 -0.41248138933E+01  0.61207690509E+00 -0.14397210208E+02  0.14988942243E+02  0.00000000000E+00 0.  1.
</event>
<event>
 7    1  0.1519238E-008  0.4614232E+02  0.7816164E-02  0.1320468E+00
        -11   -1    0    0    0    0  0.00000000000E+00  0.00000000000E+00  0.45593999997E+02  0.45594000000E+02  0.51100000000E-03 0.  1.
         11   -1    0    0    0    0 -0.00000000000E+00 -0.00000000000E+00 -0.45593999997E+02  0.45594000000E+02  0.51100000000E-03 0. -1.
    9900012    2    1    2    0    0 -0.32110010459E+02 -0.70387295972E+01 -0.30798003488E+02  0.46142317578E+02  0.99999983308E+01 0.  0.
        -12    1    1    2    0    0  0.32110010459E+02  0.70387295972E+01  0.30798003488E+02  0.45045682422E+02  0.00000000000E+00 0.  1.
         11    1    3    3    0    0 -0.83517602467E+01 -0.17279346317E+01 -0.67918075828E+01  0.10902582621E+02  0.51100000000E-03 0. -1.
        -11    1    3    3    0    0 -0.33961646874E+01 -0.34444374439E+01 -0.20997110202E+01  0.52732220244E+01  0.51100000000E-03 0.  1.
        -12    1    3    3    0    0 -0.20362085525E+02 -0.18663575216E+01 -0.21906484885E+02  0.29966512932E+02  0.00000000000E+00 0.  1.
</event>
<event>
 7    1  0.1519238E-008  0.4614232E+02  0.7816164E-02  0.1320468E+00
        -11   -1    0    0    0    0  0.00000000000E+00  0.00000000000E+00  0.45593999997E+02  0.45594000000E+02  0.51100000000E-03 0.  1.
         11   -1    0    0    0    0 -0.00000000000E+00 -0.00000000000E+00 -0.45593999997E+02  0.45594000000E+02  0.51100000000E-03 0. -1.
    9900012    2    1    2    0    0  0.38063384934E+02 -0.24084961635E+02 -0.45489315928E+00  0.46142316773E+02  0.99999909877E+01 0.  0.
        -12    1    1    2    0    0 -0.38063384934E+02  0.24084961635E+02  0.45489315928E+00  0.45045683227E+02  0.00000000000E+00 0.  1.
         11    1    3    3    0    0  0.22162491748E+02 -0.14173276277E+02  0.34522832347E+01  0.26532547196E+02  0.51100000000E-03 0. -1.
        -11    1    3    3    0    0  0.12894034404E+02 -0.98198203671E+01 -0.32319913045E+01  0.16526668245E+02  0.51100000000E-03 0.  1.
        -12    1    3    3    0    0  0.30068587829E+01 -0.91864991178E-01 -0.67518508945E+00  0.30831013317E+01  0.00000000000E+00 0.  1.
</event>
<event>
 7    1  0.1519238E-008  0.4614232E+02  0.7816164E-02  0.1320468E+00
        -11   -1    0    0    0    0  0.00000000000E+00  0.00000000000E+00  0.45593999997E+02  0.45594000000E+02  0.51100000000E-03 0.  1.
         11   -1    0    0    0    0 -0.00000000000E+00 -0.00000000000E+00 -0.45593999997E+02  0.45594000000E+02  0.51100000000E-03 0. -1.
    9900012    2    1    2    0    0  0.17857581106E+02 -0.13770962502E+02 -0.38994626531E+02  0.46142317527E+02  0.99999978624E+01 0.  0.
        -12    1    1    2    0    0 -0.17857581106E+02  0.13770962502E+02  0.38994626531E+02  0.45045682473E+02  0.00000000000E+00 0.  1.
         11    1    3    3    0    0  0.11347190170E+01 -0.33136289551E+01 -0.48183057012E+01  0.59568275273E+01  0.51100000000E-03 0. -1.
        -11    1    3    3    0    0 -0.75965088440E+00 -0.98486278151E+00 -0.17184595639E+01  0.21213504422E+01  0.51100000000E-03 0.  1.
         12    1    3    3    0    0  0.17482512973E+02 -0.94724707658E+01 -0.32457861266E+02  0.38064139557E+02  0.00000000000E+00 0. -1.
</event>
<event>
 7    1  0.1519238E-008  0.4614232E+02  0.7816164E-02  0.1320468E+00
        -11   -1    0    0    0    0  0.00000000000E+00  0.00000000000E+00  0.45593999997E+02  0.45594000000E+02  0.51100000000E-03 0. -1.
         11   -1    0    0    0    0 -0.00000000000E+00 -0.00000000000E+00 -0.45593999997E+02  0.45594000000E+02  0.51100000000E-03 0.  1.
    9900012    2    1    2    0    0  0.23424433740E+01 -0.75515585833E+01  0.44346367843E+02  0.46142318532E+02  0.10000007033E+02 0.  0.
        -12    1    1    2    0    0 -0.23424433740E+01  0.75515585833E+01 -0.44346367843E+02  0.45045681468E+02  0.00000000000E+00 0.  1.
         11    1    3    3    0    0  0.35105821875E+01 -0.53015397005E+01  0.24452425868E+02  0.25265621733E+02  0.51100000000E-03 0. -1.
        -11    1    3    3    0    0 -0.22650541146E+01 -0.36109979651E+01  0.10695157208E+02  0.11513303801E+02  0.51100000000E-03 0.  1.
         12    1    3    3    0    0  0.10969153011E+01  0.13609790823E+01  0.91987847676E+01  0.93633929983E+01  0.00000000000E+00 0. -1.
</event>
<event>
 7    1  0.1519238E-008  0.4614232E+02  0.7816164E-02  0.1320468E+00
        -11   -1    0    0    0    0  0.00000000000E+00  0.00000000000E+00  0.45593999997E+02  0.45594000000E+02  0.51100000000E-03 0.  1.
         11   -1    0    0    0    0 -0.00000000000E+00 -0.00000000000E+00 -0.45593999997E+02  0.45594000000E+02  0.51100000000E-03 0. -1.
    9900012    2    1    2    0    0 -0.25973609568E+02 -0.22531101907E+02 -0.29100421694E+02  0.46142317744E+02  0.99999998442E+01 0.  0.
        -12    1    1    2    0    0  0.25973609568E+02  0.22531101907E+02  0.29100421694E+02  0.45045682256E+02  0.00000000000E+00 0.  1.
         11    1    3    3    0    0 -0.99816311233E+01 -0.12970568113E+02 -0.12712902740E+02  0.20724055910E+02  0.51100000000E-03 0. -1.
        -11    1    3    3    0    0 -0.12783686775E+02 -0.94347992665E+01 -0.15219596710E+02  0.22001686504E+02  0.51100000000E-03 0.  1.
        -12    1    3    3    0    0 -0.32082916703E+01 -0.12573452766E+00 -0.11679222442E+01  0.34165753294E+01  0.00000000000E+00 0.  1.
</event>
<event>
 7    1  0.1519238E-008  0.4614232E+02  0.7816164E-02  0.1320468E+00
        -11   -1    0    0    0    0  0.00000000000E+00  0.00000000000E+00  0.45593999997E+02  0.45594000000E+02  0.51100000000E-03 0.  1.
         11   -1    0    0    0    0 -0.00000000000E+00 -0.00000000000E+00 -0.45593999997E+02  0.45594000000E+02  0.51100000000E-03 0. -1.
    9900012    2    1    2    0    0 -0.95815502387E+01 -0.25168716917E+01 -0.43942835091E+02  0.46142317588E+02  0.99999984212E+01 0.  0.
        -12    1    1    2    0    0  0.95815502387E+01  0.25168716917E+01  0.43942835091E+02  0.45045682412E+02  0.00000000000E+00 0.  1.
         11    1    3    3    0    0 -0.33468422153E+01  0.23946954724E+01 -0.12111997618E+02  0.12792044628E+02  0.51100000000E-03 0. -1.
        -11    1    3    3    0    0 -0.56488191050E+01 -0.14317451320E+01 -0.13843145853E+02  0.15019711674E+02  0.51100000000E-03 0.  1.
         12    1    3    3    0    0 -0.58588891829E+00 -0.34798220321E+01 -0.17987691621E+02  0.18330561286E+02  0.00000000000E+00 0. -1.
</event>
<event>
 7    1  0.1519238E-008  0.4614232E+02  0.7816164E-02  0.1320468E+00
        -11   -1    0    0    0    0  0.00000000000E+00  0.00000000000E+00  0.45593999997E+02  0.45594000000E+02  0.51100000000E-03 0.  1.
         11   -1    0    0    0    0 -0.00000000000E+00 -0.00000000000E+00 -0.45593999997E+02  0.45594000000E+02  0.51100000000E-03 0. -1.
    9900012    2    1    2    0    0 -0.21899895014E+02  0.23210821102E+02 -0.31792543647E+02  0.46142318194E+02  0.10000003943E+02 0.  0.
        -12    1    1    2    0    0  0.21899895014E+02 -0.23210821102E+02  0.31792543647E+02  0.45045681806E+02  0.00000000000E+00 0.  1.
         11    1    3    3    0    0  0.94076057147E-01  0.23900417523E+01 -0.38945618744E+01  0.45704225556E+01  0.51100000000E-03 0. -1.
        -11    1    3    3    0    0 -0.17609397152E+02  0.19215821403E+02 -0.22476961190E+02  0.34417327683E+02  0.51100000000E-03 0.  1.
         12    1    3    3    0    0 -0.43845739188E+01  0.16049579469E+01 -0.54210205827E+01  0.71545679548E+01  0.00000000000E+00 0. -1.
</event>
<event>
 7    1  0.1519238E-008  0.4614231E+02  0.7816164E-02  0.1320468E+00
        -11   -1    0    0    0    0  0.00000000000E+00  0.00000000000E+00  0.45593999997E+02  0.45594000000E+02  0.51100000000E-03 0.  1.
         11   -1    0    0    0    0 -0.00000000000E+00 -0.00000000000E+00 -0.45593999997E+02  0.45594000000E+02  0.51100000000E-03 0. -1.
    9900012    2    1    2    0    0  0.31198948905E+02 -0.32184009230E+02 -0.44641866806E+01  0.46142314018E+02  0.99999658683E+01 0.  0.
        -12    1    1    2    0    0 -0.31198948905E+02  0.32184009230E+02  0.44641866806E+01  0.45045685982E+02  0.00000000000E+00 0.  1.
         11    1    3    3    0    0  0.26933271095E+02 -0.27142732442E+02 -0.42097057683E+01  0.38468826850E+02  0.51100000000E-03 0. -1.
        -11    1    3    3    0    0  0.13824043730E+01 -0.45134182857E+01  0.96415115361E-01  0.47213644858E+01  0.51100000000E-03 0.  1.
         12    1    3    3    0    0  0.28832734365E+01 -0.52785850184E+00 -0.35089602763E+00  0.29521226821E+01  0.00000000000E+00 0. -1.
</event>
<event>
 7    1  0.1519238E-008  0.4614232E+02  0.7816164E-02  0.1320468E+00
        -11   -1    0    0    0    0  0.00000000000E+00  0.00000000000E+00  0.45593999997E+02  0.45594000000E+02  0.51100000000E-03 0. -1.
         11   -1    0    0    0    0 -0.00000000000E+00 -0.00000000000E+00 -0.45593999997E+02  0.45594000000E+02  0.51100000000E-03 0.  1.
    9900012    2    1    2    0    0 -0.43819461771E+02  0.53564761835E+01  0.89597058130E+01  0.46142318794E+02  0.10000009423E+02 0.  0.
        -12    1    1    2    0    0  0.43819461771E+02 -0.53564761835E+01 -0.89597058130E+01  0.45045681206E+02  0.00000000000E+00 0.  1.
         11    1    3    3    0    0 -0.13862760694E+02  0.36258287626E+01  0.61955413736E+01  0.15611133893E+02  0.51100000000E-03 0. -1.
        -11    1    3    3    0    0 -0.26856618154E+02  0.17955997179E+01  0.93860864704E+00  0.26932937149E+02  0.51100000000E-03 0.  1.
        -12    1    3    3    0    0 -0.31000829229E+01 -0.64952297001E-01  0.18255557924E+01  0.35982477515E+01  0.00000000000E+00 0.  1.
</event>
<event>
 7    1  0.1519238E-008  0.4614232E+02  0.7816164E-02  0.1320468E+00
        -11   -1    0    0    0    0  0.00000000000E+00  0.00000000000E+00  0.45593999997E+02  0.45594000000E+02  0.51100000000E-03 0.  1.
         11   -1    0    0    0    0 -0.00000000000E+00 -0.00000000000E+00 -0.45593999997E+02  0.45594000000E+02  0.51100000000E-03 0. -1.
    9900012    2    1    2    0    0 -0.25902889350E+01 -0.74193880213E+01 -0.44354894271E+02  0.46142316953E+02  0.99999926281E+01 0.  0.
        -12    1    1    2    0    0  0.25902889350E+01  0.74193880213E+01  0.44354894271E+02  0.45045683047E+02  0.00000000000E+00 0.  1.
         11    1    3    3    0    0 -0.14713915379E+01  0.11787521772E+01 -0.22785796830E+02  0.22863660844E+02  0.51100000000E-03 0. -1.
        -11    1    3    3    0    0 -0.63618891552E+00 -0.32660497849E+01 -0.68330211949E+01  0.76001313439E+01  0.51100000000E-03 0.  1.
         12    1    3    3    0    0 -0.48270848156E+00 -0.53320904136E+01 -0.14736076247E+02  0.15678524765E+02  0.00000000000E+00 0. -1.
</event>
<event>
 7    1  0.1519238E-008  0.4614232E+02  0.7816164E-02  0.1320468E+00
        -11   -1    0    0    0    0  0.00000000000E+00  0.00000000000E+00  0.45593999997E+02  0.45594000000E+02  0.51100000000E-03 0.  1.
         11   -1    0    0    0    0 -0.00000000000E+00 -0.00000000000E+00 -0.45593999997E+02  0.45594000000E+02  0.51100000000E-03 0. -1.
    9900012    2    1    2    0    0  0.45027053187E+01 -0.37000326844E+02  0.25294564053E+02  0.46142317495E+02  0.99999975723E+01 0.  0.
        -12    1    1    2    0    0 -0.45027053187E+01  0.37000326844E+02 -0.25294564053E+02  0.45045682505E+02  0.00000000000E+00 0.  1.
         11    1    3    3    0    0 -0.19117424923E+01 -0.52460508058E+01  0.26513939260E+01  0.61810758308E+01  0.51100000000E-03 0. -1.
        -11    1    3    3    0    0  0.66191411525E+01 -0.20016843476E+02  0.16052375443E+02  0.26498411461E+02  0.51100000000E-03 0.  1.
         12    1    3    3    0    0 -0.20469334149E+00 -0.11737432562E+02  0.65907946839E+01  0.13462830203E+02  0.00000000000E+00 0. -1.
</event>
<event>
 7    1  0.1519238E-008  0.4614232E+02  0.7816164E-02  0.1320468E+00
        -11   -1    0    0    0    0  0.00000000000E+00  0.00000000000E+00  0.45593999997E+02  0.45594000000E+02  0.51100000000E-03 0.  1.
         11   -1    0    0    0    0 -0.00000000000E+00 -0.00000000000E+00 -0.45593999997E+02  0.45594000000E+02  0.51100000000E-03 0. -1.
    9900012    2    1    2    0    0  0.39926072070E+02  0.19732982959E+02 -0.67551115729E+01  0.46142318967E+02  0.10000010997E+02 0.  0.
        -12    1    1    2    0    0 -0.39926072070E+02 -0.19732982959E+02  0.67551115729E+01  0.45045681033E+02  0.00000000000E+00 0.  1.
         11    1    3    3    0    0  0.22428160560E+02  0.12289821054E+02 -0.21877936540E+01  0.25668044900E+02  0.51100000000E-03 0. -1.
        -11    1    3    3    0    0  0.82708186677E+01  0.27311191307E+01  0.90548043189E+00  0.87570170842E+01  0.51100000000E-03 0.  1.
         12    1    3    3    0    0  0.92270928415E+01  0.47120427740E+01 -0.54727983508E+01  0.11717256983E+02  0.00000000000E+00 0. -1.
</event>
<event>
 7    1  0.1519238E-008  0.4614232E+02  0.7816164E-02  0.1320468E+00
        -11   -1    0    0    0    0  0.00000000000E+00  0.00000000000E+00  0.45593999997E+02  0.45594000000E+02  0.51100000000E-03 0. -1.
         11   -1    0    0    0    0 -0.00000000000E+00 -0.00000000000E+00 -0.45593999997E+02  0.45594000000E+02  0.51100000000E-03 0.  1.
    9900012    2    1    2    0    0 -0.22849966005E+02 -0.38806630110E+02  0.10188936717E+01  0.46142316175E+02  0.99999855356E+01 0.  0.
        -12    1    1    2    0    0  0.22849966005E+02  0.38806630110E+02 -0.10188936717E+01  0.45045683825E+02  0.00000000000E+00 0.  1.
         11    1    3    3    0    0 -0.16661185965E+02 -0.25290669140E+02  0.26736951084E+01  0.30403317403E+02  0.51100000000E-03 0. -1.
        -11    1    3    3    0    0  0.54704655591E+00 -0.33310389813E+01 -0.95499629161E+00  0.35081474894E+01  0.51100000000E-03 0.  1.
        -12    1    3    3    0    0 -0.67358265956E+01 -0.10184921989E+02 -0.69980514512E+00  0.12230851282E+02  0.00000000000E+00 0.  1.
</event>
<event>
 7    1  0.1519238E-008  0.4614232E+02  0.7816164E-02  0.1320468E+00
        -11   -1    0    0    0    0  0.00000000000E+00  0.00000000000E+00  0.45593999997E+02  0.45594000000E+02  0.51100000000E-03 0. -1.
         11   -1    0    0    0    0 -0.00000000000E+00 -0.00000000000E+00 -0.45593999997E+02  0.45594000000E+02  0.51100000000E-03 0.  1.
    9900012    2    1    2    0    0  0.30906081499E+02  0.19856108498E+02  0.26070339203E+02  0.46142317583E+02  0.99999983717E+01 0.  0.
        -12    1    1    2    0    0 -0.30906081499E+02 -0.19856108498E+02 -0.26070339203E+02  0.45045682417E+02  0.00000000000E+00 0.  1.
         11    1    3    3    0    0  0.21634502614E+02  0.12675661672E+02  0.21895307423E+02  0.33288565448E+02  0.51100000000E-03 0. -1.
        -11    1    3    3    0    0  0.37298378925E+01  0.39133912434E+01  0.33699972905E+01  0.63704947789E+01  0.51100000000E-03 0.  1.
         12    1    3    3    0    0  0.55417409933E+01  0.32670555823E+01  0.80503448902E+00  0.64832573559E+01  0.00000000000E+00 0. -1.
</event>
<event>
 7    1  0.1519238E-008  0.4614232E+02  0.7816164E-02  0.1320468E+00
        -11   -1    0    0    0    0  0.00000000000E+00  0.00000000000E+00  0.45593999997E+02  0.45594000000E+02  0.51100000000E-03 0.  1.
         11   -1    0    0    0    0 -0.00000000000E+00 -0.00000000000E+00 -0.45593999997E+02  0.45594000000E+02  0.51100000000E-03 0. -1.
    9900012    2    1    2    0    0 -0.22987872628E+02  0.24670369997E+02 -0.29867106756E+02  0.46142317524E+02  0.99999978366E+01 0.  0.
        -12    1    1    2    0    0  0.22987872628E+02 -0.24670369997E+02  0.29867106756E+02  0.45045682476E+02  0.00000000000E+00 0.  1.
         11    1    3    3    0    0 -0.19236308222E+02  0.15414694353E+02 -0.18640064311E+02  0.30904697925E+02  0.51100000000E-03 0. -1.
        -11    1    3    3    0    0 -0.18764906502E+01  0.52579728931E+01 -0.80559589517E+01  0.98013249613E+01  0.51100000000E-03 0.  1.
         12    1    3    3    0    0 -0.18750737563E+01  0.39977027501E+01 -0.31710834932E+01  0.54362946380E+01  0.00000000000E+00 0. -1.
</event>
<event>
 7    1  0.1519238E-008  0.4614232E+02  0.7816164E-02  0.1320468E+00
        -11   -1    0    0    0    0  0.00000000000E+00  0.00000000000E+00  0.45593999997E+02  0.45594000000E+02  0.51100000000E-03 0.  1.
         11   -1    0    0    0    0 -0.00000000000E+00 -0.00000000000E+00 -0.45593999997E+02  0.45594000000E+02  0.51100000000E-03 0. -1.
    9900012    2    1    2    0    0 -0.42637556380E+02 -0.10306349824E+02 -0.10243605883E+02  0.46142317386E+02  0.99999965752E+01 0.  0.
        -12    1    1    2    0    0  0.42637556380E+02  0.10306349824E+02  0.10243605883E+02  0.45045682614E+02  0.00000000000E+00 0.  1.
         11    1    3    3    0    0 -0.22648192816E+02 -0.22596820866E+01 -0.61680413743E+01  0.23581593153E+02  0.51100000000E-03 0. -1.
        -11    1    3    3    0    0 -0.55311488010E+01 -0.47250827210E+01 -0.22461895092E+01  0.76134999410E+01  0.51100000000E-03 0.  1.
         12    1    3    3    0    0 -0.14458214762E+02 -0.33215850166E+01 -0.18293749996E+01  0.14947224292E+02  0.00000000000E+00 0. -1.
</event>
<event>
 7    1  0.1519238E-008  0.4614232E+02  0.7816164E-02  0.1320468E+00
        -11   -1    0    0    0    0  0.00000000000E+00  0.00000000000E+00  0.45593999997E+02  0.45594000000E+02  0.51100000000E-03 0. -1.
         11   -1    0    0    0    0 -0.00000000000E+00 -0.00000000000E+00 -0.45593999997E+02  0.45594000000E+02  0.51100000000E-03 0.  1.
    9900012    2    1    2    0    0  0.28459439466E+02 -0.32815741655E+02  0.11928994007E+02  0.46142317708E+02  0.99999995197E+01 0.  0.
        -12    1    1    2    0    0 -0.28459439466E+02  0.32815741655E+02 -0.11928994007E+02  0.45045682292E+02  0.00000000000E+00 0.  1.
         11    1    3    3    0    0  0.13756891791E+02 -0.16701082219E+02  0.55658481463E+01  0.22341819193E+02  0.51100000000E-03 0. -1.
        -11    1    3    3    0    0  0.62785431640E+01 -0.34554439841E+01 -0.35772751274E+00  0.71755255295E+01  0.51100000000E-03 0.  1.
        -12    1    3    3    0    0  0.84240045115E+01 -0.12659215452E+02  0.67208733734E+01  0.16624972986E+02  0.00000000000E+00 0.  1.
</event>
<event>
 7    1  0.1519238E-008  0.4614232E+02  0.7816164E-02  0.1320468E+00
        -11   -1    0    0    0    0  0.00000000000E+00  0.00000000000E+00  0.45593999997E+02  0.45594000000E+02  0.51100000000E-03 0.  1.
         11   -1    0    0    0    0 -0.00000000000E+00 -0.00000000000E+00 -0.45593999997E+02  0.45594000000E+02  0.51100000000E-03 0. -1.
    9900012    2    1    2    0    0 -0.42719513180E+02 -0.57180077294E+00 -0.14276887610E+02  0.46142320048E+02  0.10000020857E+02 0.  0.
        -12    1    1    2    0    0  0.42719513180E+02  0.57180077294E+00  0.14276887610E+02  0.45045679952E+02  0.00000000000E+00 0.  1.
         11    1    3    3    0    0 -0.32332473404E+02 -0.27361418626E+01 -0.12045237786E+02  0.34611603001E+02  0.51100000000E-03 0. -1.
        -11    1    3    3    0    0 -0.13798194912E+01 -0.88358660653E+00 -0.10561935791E+01  0.19494030515E+01  0.51100000000E-03 0.  1.
         12    1    3    3    0    0 -0.90072202847E+01  0.30479276962E+01 -0.11754562449E+01  0.95813139956E+01  0.00000000000E+00 0. -1.
</event>
<event>
 7    1  0.1519238E-008  0.4614232E+02  0.7816164E-02  0.1320468E+00
        -11   -1    0    0    0    0  0.00000000000E+00  0.00000000000E+00  0.45593999997E+02  0.45594000000E+02  0.51100000000E-03 0.  1.
         11   -1    0    0    0    0 -0.00000000000E+00 -0.00000000000E+00 -0.45593999997E+02  0.45594000000E+02  0.51100000000E-03 0. -1.
    9900012    2    1    2    0    0  0.20178375903E+02 -0.22445960709E+02 -0.33438383775E+02  0.46142317458E+02  0.99999972366E+01 0.  0.
        -12    1    1    2    0    0 -0.20178375903E+02  0.22445960709E+02  0.33438383775E+02  0.45045682542E+02  0.00000000000E+00 0.  1.
         11    1    3    3    0    0  0.11144215144E+02 -0.16376165044E+02 -0.18777348537E+02  0.27293976095E+02  0.51100000000E-03 0. -1.
        -11    1    3    3    0    0  0.78904469514E+01 -0.57701745021E+01 -0.14713708086E+02  0.17664859829E+02  0.51100000000E-03 0.  1.
        -12    1    3    3    0    0  0.11437138071E+01 -0.29962116229E+00  0.52672847679E-01  0.11834815344E+01  0.00000000000E+00 0.  1.
</event>
<event>
 7    1  0.1519238E-008  0.4614232E+02  0.7816164E-02  0.1320468E+00
        -11   -1    0    0    0    0  0.00000000000E+00  0.00000000000E+00  0.45593999997E+02  0.45594000000E+02  0.51100000000E-03 0. -1.
         11   -1    0    0    0    0 -0.00000000000E+00 -0.00000000000E+00 -0.45593999997E+02  0.45594000000E+02  0.51100000000E-03 0.  1.
    9900012    2    1    2    0    0  0.27555076024E+02 -0.14942618006E+02  0.32350417396E+02  0.46142317041E+02  0.99999934311E+01 0.  0.
        -12    1    1    2    0    0 -0.27555076024E+02  0.14942618006E+02 -0.32350417396E+02  0.45045682959E+02  0.00000000000E+00 0.  1.
         11    1    3    3    0    0  0.11653796349E+02 -0.62429568978E+01  0.14246073128E+02  0.19435433620E+02  0.51100000000E-03 0. -1.
        -11    1    3    3    0    0  0.99866305444E+01 -0.78558354746E+01  0.81440717278E+01  0.15092145149E+02  0.51100000000E-03 0.  1.
         12    1    3    3    0    0  0.59146491305E+01 -0.84382563391E+00  0.99602725406E+01  0.11614738272E+02  0.00000000000E+00 0. -1.
</event>
<event>
 7    1  0.1519238E-008  0.4614232E+02  0.7816164E-02  0.1320468E+00
        -11   -1    0    0    0    0  0.00000000000E+00  0.00000000000E+00  0.45593999997E+02  0.45594000000E+02  0.51100000000E-03 0.  1.
         11   -1    0    0    0    0 -0.00000000000E+00 -0.00000000000E+00 -0.45593999997E+02  0.45594000000E+02  0.51100000000E-03 0. -1.
    9900012    2    1    2    0    0 -0.19871397311E+02 -0.40280910000E+02 -0.34189802853E+01  0.46142316880E+02  0.99999919686E+01 0.  0.
        -12    1    1    2    0    0  0.19871397311E+02  0.40280910000E+02  0.34189802853E+01  0.45045683120E+02  0.00000000000E+00 0.  1.
         11    1    3    3    0    0 -0.60938202301E+01 -0.15206956259E+02 -0.33574202994E+01  0.16722991209E+02  0.51100000000E-03 0. -1.
        -11    1    3    3    0    0  0.72130246614E+00 -0.11794313257E+01  0.48364529481E+00  0.14646666966E+01  0.51100000000E-03 0.  1.
        -12    1    3    3    0    0 -0.14498879547E+02 -0.23894522415E+02 -0.54520528065E+00  0.27954658975E+02  0.00000000000E+00 0.  1.
</event>
<event>
 7    1  0.1519238E-008  0.4614232E+02  0.7816164E-02  0.1320468E+00
        -11   -1    0    0    0    0  0.00000000000E+00  0.00000000000E+00  0.45593999997E+02  0.45594000000E+02  0.51100000000E-03 0.  1.
         11   -1    0    0    0    0 -0.00000000000E+00 -0.00000000000E+00 -0.45593999997E+02  0.45594000000E+02  0.51100000000E-03 0. -1.
    9900012    2    1    2    0    0  0.11591431607E+02  0.23062547900E+02 -0.36917084773E+02  0.46142317072E+02  0.99999937154E+01 0.  0.
        -12    1    1    2    0    0 -0.11591431607E+02 -0.23062547900E+02  0.36917084773E+02  0.45045682928E+02  0.00000000000E+00 0.  1.
         11    1    3    3    0    0  0.12674923641E+02  0.20926044900E+02 -0.34679940969E+02  0.42441151614E+02  0.51100000000E-03 0. -1.
        -11    1    3    3    0    0 -0.11831686529E+01  0.10971473095E+01 -0.52696657658E+00  0.16974434641E+01  0.51100000000E-03 0.  1.
         12    1    3    3    0    0  0.99676618959E-01  0.10393556905E+01 -0.17101772273E+01  0.20037219938E+01  0.00000000000E+00 0. -1.
</event>
<event>
 7    1  0.1519238E-008  0.4614232E+02  0.7816164E-02  0.1320468E+00
        -11   -1    0    0    0    0  0.00000000000E+00  0.00000000000E+00  0.45593999997E+02  0.45594000000E+02  0.51100000000E-03 0.  1.
         11   -1    0    0    0    0 -0.00000000000E+00 -0.00000000000E+00 -0.45593999997E+02  0.45594000000E+02  0.51100000000E-03 0. -1.
    9900012    2    1    2    0    0  0.21617733981E+02 -0.27793394253E+02 -0.28094737037E+02  0.46142318345E+02  0.10000005328E+02 0.  0.
        -12    1    1    2    0    0 -0.21617733981E+02  0.27793394253E+02  0.28094737037E+02  0.45045681655E+02  0.00000000000E+00 0.  1.
         11    1    3    3    0    0  0.68073741585E+01 -0.16257287551E+02 -0.14499261654E+02  0.22822539960E+02  0.51100000000E-03 0.  1.
        -11    1    3    3    0    0  0.12027059424E+02 -0.10526114234E+02 -0.11619078525E+02  0.19759863999E+02  0.51100000000E-03 0. -1.
        -12    1    3    3    0    0  0.27833003988E+01 -0.10099924679E+01 -0.19763968573E+01  0.35599143856E+01  0.00000000000E+00 0.  1.
</event>
<event>
 7    1  0.1519238E-008  0.4614232E+02  0.7816164E-02  0.1320468E+00
        -11   -1    0    0    0    0  0.00000000000E+00  0.00000000000E+00  0.45593999997E+02  0.45594000000E+02  0.51100000000E-03 0. -1.
         11   -1    0    0    0    0 -0.00000000000E+00 -0.00000000000E+00 -0.45593999997E+02  0.45594000000E+02  0.51100000000E-03 0.  1.
    9900012    2    1    2    0    0  0.37820743223E+02 -0.16564735281E+02  0.18008728012E+02  0.46142319214E+02  0.10000013244E+02 0.  0.
        -12    1    1    2    0    0 -0.37820743223E+02  0.16564735281E+02 -0.18008728012E+02  0.45045680786E+02  0.00000000000E+00 0.  1.
         11    1    3    3    0    0  0.25571881713E+02 -0.93023216977E+01  0.89117680495E+01  0.28633440823E+02  0.51100000000E-03 0. -1.
        -11    1    3    3    0    0  0.68348625154E+00 -0.23706118008E+00  0.22096377802E+01  0.23250485672E+01  0.51100000000E-03 0.  1.
         12    1    3    3    0    0  0.11565375258E+02 -0.70253524035E+01  0.68873221823E+01  0.15183829823E+02  0.00000000000E+00 0. -1.
</event>
<event>
 7    1  0.1519238E-008  0.4614232E+02  0.7816164E-02  0.1320468E+00
        -11   -1    0    0    0    0  0.00000000000E+00  0.00000000000E+00  0.45593999997E+02  0.45594000000E+02  0.51100000000E-03 0.  1.
         11   -1    0    0    0    0 -0.00000000000E+00 -0.00000000000E+00 -0.45593999997E+02  0.45594000000E+02  0.51100000000E-03 0. -1.
    9900012    2    1    2    0    0 -0.17058246650E+02 -0.97675320958E+01 -0.40530543034E+02  0.46142318957E+02  0.10000010904E+02 0.  0.
        -12    1    1    2    0    0  0.17058246650E+02  0.97675320958E+01  0.40530543034E+02  0.45045681043E+02  0.00000000000E+00 0.  1.
         11    1    3    3    0    0 -0.84976704330E+01 -0.57486011774E+01 -0.23569179835E+02  0.25705311837E+02  0.51100000000E-03 0. -1.
        -11    1    3    3    0    0 -0.75932120324E+01 -0.34903806101E+01 -0.17358394961E+02  0.19265344577E+02  0.51100000000E-03 0.  1.
        -12    1    3    3    0    0 -0.96736418501E+00 -0.52855030830E+00  0.39703176232E+00  0.11716625432E+01  0.00000000000E+00 0.  1.
</event>
<event>
 7    1  0.1519238E-008  0.4614232E+02  0.7816164E-02  0.1320468E+00
        -11   -1    0    0    0    0  0.00000000000E+00  0.00000000000E+00  0.45593999997E+02  0.45594000000E+02  0.51100000000E-03 0.  1.
         11   -1    0    0    0    0 -0.00000000000E+00 -0.00000000000E+00 -0.45593999997E+02  0.45594000000E+02  0.51100000000E-03 0. -1.
    9900012    2    1    2    0    0 -0.39735150740E+02 -0.99267919224E+01  0.18753401075E+02  0.46142318142E+02  0.10000003473E+02 0.  0.
        -12    1    1    2    0    0  0.39735150740E+02  0.99267919224E+01 -0.18753401075E+02  0.45045681858E+02  0.00000000000E+00 0.  1.
         11    1    3    3    0    0 -0.27358265614E+01  0.51694414486E+00  0.35546173567E+01  0.45152279053E+01  0.51100000000E-03 0. -1.
        -11    1    3    3    0    0 -0.21387891347E+01 -0.18731417168E+01  0.85453700192E+00  0.29687223856E+01  0.51100000000E-03 0.  1.
         12    1    3    3    0    0 -0.34860535044E+02 -0.85705943505E+01  0.14344246716E+02  0.38658367851E+02  0.00000000000E+00 0. -1.
</event>
<event>
 7    1  0.1519238E-008  0.4614232E+02  0.7816164E-02  0.1320468E+00
        -11   -1    0    0    0    0  0.00000000000E+00  0.00000000000E+00  0.45593999997E+02  0.45594000000E+02  0.51100000000E-03 0. -1.
         11   -1    0    0    0    0 -0.00000000000E+00 -0.00000000000E+00 -0.45593999997E+02  0.45594000000E+02  0.51100000000E-03 0.  1.
    9900012    2    1    2    0    0  0.32036574896E+02  0.12724113961E+01  0.31640990894E+02  0.46142318003E+02  0.10000002202E+02 0.  0.
        -12    1    1    2    0    0 -0.32036574896E+02 -0.12724113961E+01 -0.31640990894E+02  0.45045681997E+02  0.00000000000E+00 0.  1.
         11    1    3    3    0    0  0.15891079883E+02 -0.14738207525E+01  0.14206745521E+02  0.21366567015E+02  0.51100000000E-03 0. -1.
        -11    1    3    3    0    0 -0.24360067482E+00  0.90869926690E+00  0.28406888522E+00  0.98273650543E+00  0.51100000000E-03 0.  1.
        -12    1    3    3    0    0  0.16389095688E+02  0.18375328816E+01  0.17150176488E+02  0.23793014482E+02  0.00000000000E+00 0.  1.
</event>
<event>
 7    1  0.1519238E-008  0.4614232E+02  0.7816164E-02  0.1320468E+00
        -11   -1    0    0    0    0  0.00000000000E+00  0.00000000000E+00  0.45593999997E+02  0.45594000000E+02  0.51100000000E-03 0.  1.
         11   -1    0    0    0    0 -0.00000000000E+00 -0.00000000000E+00 -0.45593999997E+02  0.45594000000E+02  0.51100000000E-03 0. -1.
    9900012    2    1    2    0    0 -0.10233437126E+01 -0.31902301099E+02 -0.31785365059E+02  0.46142317858E+02  0.10000000880E+02 0.  0.
        -12    1    1    2    0    0  0.10233437126E+01  0.31902301099E+02  0.31785365059E+02  0.45045682142E+02  0.00000000000E+00 0.  1.
         11    1    3    3    0    0  0.39958064394E-01 -0.26838011518E+02 -0.22607885268E+02  0.35091265800E+02  0.51100000000E-03 0. -1.
        -11    1    3    3    0    0 -0.11852783456E+01 -0.89044076204E+00 -0.47017755745E+01  0.49299557119E+01  0.51100000000E-03 0.  1.
         12    1    3    3    0    0  0.12197656856E+00 -0.41738488191E+01 -0.44757042161E+01  0.61210963461E+01  0.00000000000E+00 0. -1.
</event>
<event>
 7    1  0.1519238E-008  0.4614232E+02  0.7816164E-02  0.1320468E+00
        -11   -1    0    0    0    0  0.00000000000E+00  0.00000000000E+00  0.45593999997E+02  0.45594000000E+02  0.51100000000E-03 0.  1.
         11   -1    0    0    0    0 -0.00000000000E+00 -0.00000000000E+00 -0.45593999997E+02  0.45594000000E+02  0.51100000000E-03 0. -1.
    9900012    2    1    2    0    0 -0.35710530928E+02  0.36735248535E+01 -0.27209863130E+02  0.46142318125E+02  0.10000003322E+02 0.  0.
        -12    1    1    2    0    0  0.35710530928E+02 -0.36735248535E+01  0.27209863130E+02  0.45045681875E+02  0.00000000000E+00 0.  1.
         11    1    3    3    0    0 -0.15255780730E+02 -0.62404494781E+00 -0.69896434317E+01  0.16792361160E+02  0.51100000000E-03 0. -1.
        -11    1    3    3    0    0 -0.82089011106E+01  0.36352740083E+01 -0.93452209003E+01  0.12958951674E+02  0.51100000000E-03 0.  1.
         12    1    3    3    0    0 -0.12245849087E+02  0.66229579304E+00 -0.10874998798E+02  0.16391005291E+02  0.00000000000E+00 0. -1.
</event>
<event>
 7    1  0.1519238E-008  0.4614232E+02  0.7816164E-02  0.1320468E+00
        -11   -1    0    0    0    0  0.00000000000E+00  0.00000000000E+00  0.45593999997E+02  0.45594000000E+02  0.51100000000E-03 0. -1.
         11   -1    0    0    0    0 -0.00000000000E+00 -0.00000000000E+00 -0.45593999997E+02  0.45594000000E+02  0.51100000000E-03 0.  1.
    9900012    2    1    2    0    0  0.29180409732E+02 -0.28117770249E+02 -0.19672524711E+02  0.46142317139E+02  0.99999943280E+01 0.  0.
        -12    1    1    2    0    0 -0.29180409732E+02  0.28117770249E+02  0.19672524711E+02  0.45045682861E+02  0.00000000000E+00 0.  1.
         11    1    3    3    0    0  0.17887558539E+02 -0.19190835277E+02 -0.10894949833E+02  0.28406915377E+02  0.51100000000E-03 0. -1.
        -11    1    3    3    0    0  0.73199790823E+01 -0.23323707603E+01 -0.38350044107E+01  0.85865770957E+01  0.51100000000E-03 0.  1.
        -12    1    3    3    0    0  0.39728721102E+01 -0.65945642117E+01 -0.49425704673E+01  0.91488246661E+01  0.00000000000E+00 0.  1.
</event>
<event>
 7    1  0.1519238E-008  0.4614232E+02  0.7816164E-02  0.1320468E+00
        -11   -1    0    0    0    0  0.00000000000E+00  0.00000000000E+00  0.45593999997E+02  0.45594000000E+02  0.51100000000E-03 0.  1.
         11   -1    0    0    0    0 -0.00000000000E+00 -0.00000000000E+00 -0.45593999997E+02  0.45594000000E+02  0.51100000000E-03 0. -1.
    9900012    2    1    2    0    0 -0.44560925326E+02  0.56269940303E+01 -0.34313565776E+01  0.46142319456E+02  0.10000015451E+02 0.  0.
        -12    1    1    2    0    0  0.44560925326E+02 -0.56269940303E+01  0.34313565776E+01  0.45045680544E+02  0.00000000000E+00 0.  1.
         11    1    3    3    0    0 -0.70004658211E+01  0.15344082555E+01 -0.25164713902E+01  0.75956276190E+01  0.51100000000E-03 0. -1.
        -11    1    3    3    0    0 -0.52601724971E+01  0.28205400657E+01 -0.17193351652E+01  0.62113585175E+01  0.51100000000E-03 0.  1.
         12    1    3    3    0    0 -0.32300287008E+02  0.12720457091E+01  0.80444997777E+00  0.32335333319E+02  0.00000000000E+00 0. -1.
</event>
<event>
 7    1  0.1519238E-008  0.4614232E+02  0.7816164E-02  0.1320468E+00
        -11   -1    0    0    0    0  0.00000000000E+00  0.00000000000E+00  0.45593999997E+02  0.45594000000E+02  0.51100000000E-03 0.  1.
         11   -1    0    0    0    0 -0.00000000000E+00 -0.00000000000E+00 -0.45593999997E+02  0.45594000000E+02  0.51100000000E-03 0. -1.
    9900012    2    1    2    0    0  0.22034093581E-01 -0.81324198153E+01 -0.44305493200E+02  0.46142318018E+02  0.10000002342E+02 0.  0.
        -12    1    1    2    0    0 -0.22034093581E-01  0.81324198153E+01  0.44305493200E+02  0.45045681982E+02  0.00000000000E+00 0.  1.
         11    1    3    3    0    0  0.26922305834E+01 -0.26782069299E+01 -0.25579970777E+02  0.25860313283E+02  0.51100000000E-03 0. -1.
        -11    1    3    3    0    0 -0.29944172125E+01 -0.61939258423E+01 -0.17598588445E+02  0.18895543583E+02  0.51100000000E-03 0.  1.
         12    1    3    3    0    0  0.32422072276E+00  0.73971295697E+00 -0.11269339779E+01  0.13864611521E+01  0.00000000000E+00 0. -1.
</event>
<event>
 7    1  0.1519238E-008  0.4614232E+02  0.7816164E-02  0.1320468E+00
        -11   -1    0    0    0    0  0.00000000000E+00  0.00000000000E+00  0.45593999997E+02  0.45594000000E+02  0.51100000000E-03 0.  1.
         11   -1    0    0    0    0 -0.00000000000E+00 -0.00000000000E+00 -0.45593999997E+02  0.45594000000E+02  0.51100000000E-03 0. -1.
    9900012    2    1    2    0    0 -0.42535753717E+02  0.94894137022E+00  0.14796039320E+02  0.46142316371E+02  0.99999873272E+01 0.  0.
        -12    1    1    2    0    0  0.42535753717E+02 -0.94894137022E+00 -0.14796039320E+02  0.45045683629E+02  0.00000000000E+00 0.  1.
         11    1    3    3    0    0 -0.71147489870E+01 -0.13995268952E+01  0.28504009039E+01  0.77912203314E+01  0.51100000000E-03 0. -1.
        -11    1    3    3    0    0 -0.29029670478E+02  0.26123725354E+01  0.63017615231E+01  0.29820436900E+02  0.51100000000E-03 0.  1.
        -12    1    3    3    0    0 -0.63913342520E+01 -0.26390426998E+00  0.56438768928E+01  0.85306591402E+01  0.00000000000E+00 0.  1.
</event>
<event>
 7    1  0.1519238E-008  0.4614231E+02  0.7816164E-02  0.1320468E+00
        -11   -1    0    0    0    0  0.00000000000E+00  0.00000000000E+00  0.45593999997E+02  0.45594000000E+02  0.51100000000E-03 0.  1.
         11   -1    0    0    0    0 -0.00000000000E+00 -0.00000000000E+00 -0.45593999997E+02  0.45594000000E+02  0.51100000000E-03 0. -1.
    9900012    2    1    2    0    0 -0.80065356270E+01  0.27284390199E+01 -0.44244381957E+02  0.46142308453E+02  0.99999151184E+01 0.  0.
        -12    1    1    2    0    0  0.80065356270E+01 -0.27284390199E+01  0.44244381957E+02  0.45045691547E+02  0.00000000000E+00 0.  1.
         11    1    3    3    0    0 -0.66089111385E+01 -0.36907203212E+00 -0.26443568556E+02  0.27259424771E+02  0.51100000000E-03 0. -1.
        -11    1    3    3    0    0  0.18831198786E+01  0.19254389763E+01 -0.96493998438E+01  0.10018202101E+02  0.51100000000E-03 0.  1.
        -12    1    3    3    0    0 -0.32807443671E+01  0.11720720757E+01 -0.81514135565E+01  0.88646815804E+01  0.00000000000E+00 0.  1.
</event>
<event>
 7    1  0.1519238E-008  0.4614232E+02  0.7816164E-02  0.1320468E+00
        -11   -1    0    0    0    0  0.00000000000E+00  0.00000000000E+00  0.45593999997E+02  0.45594000000E+02  0.51100000000E-03 0.  1.
         11   -1    0    0    0    0 -0.00000000000E+00 -0.00000000000E+00 -0.45593999997E+02  0.45594000000E+02  0.51100000000E-03 0. -1.
    9900012    2    1    2    0    0  0.38315848415E+02 -0.12181656803E+02 -0.20312964688E+02  0.46142317225E+02  0.99999951133E+01 0.  0.
        -12    1    1    2    0    0 -0.38315848415E+02  0.12181656803E+02  0.20312964688E+02  0.45045682775E+02  0.00000000000E+00 0.  1.
         11    1    3    3    0    0  0.21758773896E+01 -0.25906829816E+01 -0.27657800646E+01  0.43698535848E+01  0.51100000000E-03 0. -1.
        -11    1    3    3    0    0  0.14066687823E+02 -0.54823241996E+01 -0.98988345496E+01  0.18053102521E+02  0.51100000000E-03 0.  1.
        -12    1    3    3    0    0  0.22073283202E+02 -0.41086496216E+01 -0.76483500735E+01  0.23719361119E+02  0.00000000000E+00 0.  1.
</event>
<event>
 7    1  0.1519238E-008  0.4614232E+02  0.7816164E-02  0.1320468E+00
        -11   -1    0    0    0    0  0.00000000000E+00  0.00000000000E+00  0.45593999997E+02  0.45594000000E+02  0.51100000000E-03 0. -1.
         11   -1    0    0    0    0 -0.00000000000E+00 -0.00000000000E+00 -0.45593999997E+02  0.45594000000E+02  0.51100000000E-03 0.  1.
    9900012    2    1    2    0    0  0.31108126098E+02 -0.21408610309E+02  0.24557471334E+02  0.46142317599E+02  0.99999985207E+01 0.  0.
        -12    1    1    2    0    0 -0.31108126098E+02  0.21408610309E+02 -0.24557471334E+02  0.45045682401E+02  0.00000000000E+00 0.  1.
         11    1    3    3    0    0  0.10216097396E+02 -0.94838953090E+01  0.93265826998E+01  0.16771942683E+02  0.51100000000E-03 0. -1.
        -11    1    3    3    0    0 -0.59152252074E+00 -0.40333394599E+00  0.63454128593E+00  0.95667134859E+00  0.51100000000E-03 0.  1.
        -12    1    3    3    0    0  0.21483551222E+02 -0.11521381054E+02  0.14596347348E+02  0.28413703568E+02  0.00000000000E+00 0.  1.
</event>
<event>
 7    1  0.1519238E-008  0.4614232E+02  0.7816164E-02  0.1320468E+00
        -11   -1    0    0    0    0  0.00000000000E+00  0.00000000000E+00  0.45593999997E+02  0.45594000000E+02  0.51100000000E-03 0.  1.
         11   -1    0    0    0    0 -0.00000000000E+00 -0.00000000000E+00 -0.45593999997E+02  0.45594000000E+02  0.51100000000E-03 0. -1.
    9900012    2    1    2    0    0  0.74988601443E+01 -0.27649154608E+02 -0.34762117607E+02  0.46142317914E+02  0.10000001396E+02 0.  0.
        -12    1    1    2    0    0 -0.74988601443E+01  0.27649154608E+02  0.34762117607E+02  0.45045682086E+02  0.00000000000E+00 0.  1.
         11    1    3    3    0    0  0.14022273480E+01 -0.31889298042E+01 -0.10097418958E+02  0.10681450497E+02  0.51100000000E-03 0. -1.
        -11    1    3    3    0    0  0.66359060507E+00 -0.67456987280E+01 -0.48644612069E+01  0.83431281253E+01  0.51100000000E-03 0.  1.
         12    1    3    3    0    0  0.54330421912E+01 -0.17714526076E+02 -0.19800237442E+02  0.27117739292E+02  0.00000000000E+00 0. -1.
</event>
<event>
 7    1  0.1519238E-008  0.4614232E+02  0.7816164E-02  0.1320468E+00
        -11   -1    0    0    0    0  0.00000000000E+00  0.00000000000E+00  0.45593999997E+02  0.45594000000E+02  0.51100000000E-03 0.  1.
         11   -1    0    0    0    0 -0.00000000000E+00 -0.00000000000E+00 -0.45593999997E+02  0.45594000000E+02  0.51100000000E-03 0. -1.
    9900012    2    1    2    0    0  0.25002535428E+02  0.41370439004E+00 -0.37467527019E+02  0.46142317521E+02  0.99999978082E+01 0.  0.
        -12    1    1    2    0    0 -0.25002535428E+02 -0.41370439004E+00  0.37467527019E+02  0.45045682479E+02  0.00000000000E+00 0.  1.
         11    1    3    3    0    0  0.18343840120E+02 -0.16554510834E+01 -0.29467509998E+02  0.34750124235E+02  0.51100000000E-03 0. -1.
        -11    1    3    3    0    0  0.53340758922E+01  0.45649172406E-01 -0.38132179926E+01  0.65570634579E+01  0.51100000000E-03 0.  1.
        -12    1    3    3    0    0  0.13246194152E+01  0.20235063011E+01 -0.41867990284E+01  0.48351298276E+01  0.00000000000E+00 0.  1.
</event>
<event>
 7    1  0.1519238E-008  0.4614232E+02  0.7816164E-02  0.1320468E+00
        -11   -1    0    0    0    0  0.00000000000E+00  0.00000000000E+00  0.45593999997E+02  0.45594000000E+02  0.51100000000E-03 0.  1.
         11   -1    0    0    0    0 -0.00000000000E+00 -0.00000000000E+00 -0.45593999997E+02  0.45594000000E+02  0.51100000000E-03 0. -1.
    9900012    2    1    2    0    0 -0.36994729406E+02  0.25377279180E+02  0.40616779554E+01  0.46142317297E+02  0.99999957672E+01 0.  0.
        -12    1    1    2    0    0  0.36994729406E+02 -0.25377279180E+02 -0.40616779554E+01  0.45045682703E+02  0.00000000000E+00 0.  1.
         11    1    3    3    0    0 -0.12287282711E+02  0.94616461019E+01  0.52189042699E+01  0.16362671707E+02  0.51100000000E-03 0. -1.
        -11    1    3    3    0    0 -0.16602155241E+02  0.10335476401E+02 -0.29487255764E+01  0.19777477440E+02  0.51100000000E-03 0.  1.
        -12    1    3    3    0    0 -0.81052914541E+01  0.55801566767E+01  0.17914992619E+01  0.10002168150E+02  0.00000000000E+00 0.  1.
</event>
<event>
 7    1  0.1519238E-008  0.4614232E+02  0.7816164E-02  0.1320468E+00
        -11   -1    0    0    0    0  0.00000000000E+00  0.00000000000E+00  0.45593999997E+02  0.45594000000E+02  0.51100000000E-03 0. -1.
         11   -1    0    0    0    0 -0.00000000000E+00 -0.00000000000E+00 -0.45593999997E+02  0.45594000000E+02  0.51100000000E-03 0.  1.
    9900012    2    1    2    0    0 -0.35864049194E+02 -0.22152655220E+02 -0.15879021220E+02  0.46142317934E+02  0.10000001578E+02 0.  0.
        -12    1    1    2    0    0  0.35864049194E+02  0.22152655220E+02  0.15879021220E+02  0.45045682066E+02  0.00000000000E+00 0.  1.
         11    1    3    3    0    0 -0.27420885354E+02 -0.20345668111E+02 -0.13375007685E+02  0.36670723954E+02  0.51100000000E-03 0. -1.
        -11    1    3    3    0    0 -0.41123084211E+01  0.46142449469E+00 -0.18723431165E+01  0.45419887848E+01  0.51100000000E-03 0.  1.
         12    1    3    3    0    0 -0.43308554193E+01 -0.22684116027E+01 -0.63167041842E+00  0.49296051951E+01  0.00000000000E+00 0. -1.
</event>
<event>
 7    1  0.1519238E-008  0.4614232E+02  0.7816164E-02  0.1320468E+00
        -11   -1    0    0    0    0  0.00000000000E+00  0.00000000000E+00  0.45593999997E+02  0.45594000000E+02  0.51100000000E-03 0.  1.
         11   -1    0    0    0    0 -0.00000000000E+00 -0.00000000000E+00 -0.45593999997E+02  0.45594000000E+02  0.51100000000E-03 0. -1.
    9900012    2    1    2    0    0  0.98076635570E+01 -0.21219871190E+02 -0.38505069261E+02  0.46142317004E+02  0.99999930984E+01 0.  0.
        -12    1    1    2    0    0 -0.98076635570E+01  0.21219871190E+02  0.38505069261E+02  0.45045682996E+02  0.00000000000E+00 0.  1.
         11    1    3    3    0    0  0.48681874957E+01 -0.75474709682E+01 -0.14486149200E+02  0.17044415109E+02  0.51100000000E-03 0. -1.
        -11    1    3    3    0    0 -0.94105343388E+00 -0.41518437010E+01 -0.11724135083E+02  0.12473120355E+02  0.51100000000E-03 0.  1.
        -12    1    3    3    0    0  0.58805294952E+01 -0.95205565204E+01 -0.12294784979E+02  0.16624781541E+02  0.00000000000E+00 0.  1.
</event>
<event>
 7    1  0.1519238E-008  0.4614232E+02  0.7816164E-02  0.1320468E+00
        -11   -1    0    0    0    0  0.00000000000E+00  0.00000000000E+00  0.45593999997E+02  0.45594000000E+02  0.51100000000E-03 0.  1.
         11   -1    0    0    0    0 -0.00000000000E+00 -0.00000000000E+00 -0.45593999997E+02  0.45594000000E+02  0.51100000000E-03 0. -1.
    9900012    2    1    2    0    0 -0.27382371630E+01  0.28359807122E+02 -0.34890355207E+02  0.46142317751E+02  0.99999999107E+01 0.  0.
        -12    1    1    2    0    0  0.27382371630E+01 -0.28359807122E+02  0.34890355207E+02  0.45045682249E+02  0.00000000000E+00 0.  1.
         11    1    3    3    0    0 -0.44262328900E+01  0.71141856901E+01 -0.71234050569E+01  0.10997548613E+02  0.51100000000E-03 0.  1.
        -11    1    3    3    0    0  0.49682360923E+00  0.18475690451E+02 -0.23025093034E+02  0.29525461568E+02  0.51100000000E-03 0. -1.
        -12    1    3    3    0    0  0.11911721177E+01  0.27699309807E+01 -0.47418571164E+01  0.56193075698E+01  0.00000000000E+00 0.  1.
</event>
<event>
 7    1  0.1519238E-008  0.4614232E+02  0.7816164E-02  0.1320468E+00
        -11   -1    0    0    0    0  0.00000000000E+00  0.00000000000E+00  0.45593999997E+02  0.45594000000E+02  0.51100000000E-03 0.  1.
         11   -1    0    0    0    0 -0.00000000000E+00 -0.00000000000E+00 -0.45593999997E+02  0.45594000000E+02  0.51100000000E-03 0. -1.
    9900012    2    1    2    0    0  0.27144483882E+02  0.27126886090E+01 -0.35845945537E+02  0.46142317675E+02  0.99999992134E+01 0.  0.
        -12    1    1    2    0    0 -0.27144483882E+02 -0.27126886090E+01  0.35845945537E+02  0.45045682325E+02  0.00000000000E+00 0.  1.
         11    1    3    3    0    0  0.10508527810E+02  0.38795176663E+01 -0.18091108386E+02  0.21278346199E+02  0.51100000000E-03 0. -1.
        -11    1    3    3    0    0  0.60150314092E+01  0.12139338954E+01 -0.40058485302E+01  0.73281007815E+01  0.51100000000E-03 0.  1.
         12    1    3    3    0    0  0.10620924662E+02 -0.23807629527E+01 -0.13748988621E+02  0.17535870695E+02  0.00000000000E+00 0. -1.
</event>
<event>
 7    1  0.1519238E-008  0.4614232E+02  0.7816164E-02  0.1320468E+00
        -11   -1    0    0    0    0  0.00000000000E+00  0.00000000000E+00  0.45593999997E+02  0.45594000000E+02  0.51100000000E-03 0. -1.
         11   -1    0    0    0    0 -0.00000000000E+00 -0.00000000000E+00 -0.45593999997E+02  0.45594000000E+02  0.51100000000E-03 0.  1.
    9900012    2    1    2    0    0  0.16490676474E+02  0.74603737056E+01  0.41249410687E+02  0.46142317982E+02  0.10000002018E+02 0.  0.
        -12    1    1    2    0    0 -0.16490676474E+02 -0.74603737056E+01 -0.41249410687E+02  0.45045682018E+02  0.00000000000E+00 0.  1.
         11    1    3    3    0    0  0.11110606914E+02  0.53014901607E+01  0.17664613200E+02  0.21531138932E+02  0.51100000000E-03 0. -1.
        -11    1    3    3    0    0 -0.39335524152E+00  0.14499792748E-01  0.53487038676E+01  0.53631680856E+01  0.51100000000E-03 0.  1.
        -12    1    3    3    0    0  0.57734248010E+01  0.21443837521E+01  0.18236093619E+02  0.19248010965E+02  0.00000000000E+00 0.  1.
</event>
<event>
 7    1  0.1519238E-008  0.4614232E+02  0.7816164E-02  0.1320468E+00
        -11   -1    0    0    0    0  0.00000000000E+00  0.00000000000E+00  0.45593999997E+02  0.45594000000E+02  0.51100000000E-03 0. -1.
         11   -1    0    0    0    0 -0.00000000000E+00 -0.00000000000E+00 -0.45593999997E+02  0.45594000000E+02  0.51100000000E-03 0.  1.
    9900012    2    1    2    0    0 -0.16461632755E+01 -0.44679164492E+02 -0.54932567114E+01  0.46142318048E+02  0.10000002616E+02 0.  0.
        -12    1    1    2    0    0  0.16461632755E+01  0.44679164492E+02  0.54932567114E+01  0.45045681952E+02  0.00000000000E+00 0.  1.
         11    1    3    3    0    0  0.17383082971E+01 -0.10139034123E+02 -0.14933157922E+01  0.10394792975E+02  0.51100000000E-03 0. -1.
        -11    1    3    3    0    0 -0.29095326437E+00 -0.58108197378E+01 -0.36147472163E+01  0.68495749887E+01  0.51100000000E-03 0.  1.
         12    1    3    3    0    0 -0.30935183082E+01 -0.28729310631E+02 -0.38519370291E+00  0.28897950084E+02  0.00000000000E+00 0. -1.
</event>
<event>
 7    1  0.1519238E-008  0.4614232E+02  0.7816164E-02  0.1320468E+00
        -11   -1    0    0    0    0  0.00000000000E+00  0.00000000000E+00  0.45593999997E+02  0.45594000000E+02  0.51100000000E-03 0.  1.
         11   -1    0    0    0    0 -0.00000000000E+00 -0.00000000000E+00 -0.45593999997E+02  0.45594000000E+02  0.51100000000E-03 0. -1.
    9900012    2    1    2    0    0  0.68080768323E+01 -0.16807622016E+02 -0.41234298501E+02  0.46142318288E+02  0.10000004809E+02 0.  0.
        -12    1    1    2    0    0 -0.68080768323E+01  0.16807622016E+02  0.41234298501E+02  0.45045681712E+02  0.00000000000E+00 0.  1.
         11    1    3    3    0    0  0.24578553931E+01 -0.11316155415E+02 -0.25126354992E+02  0.27666408186E+02  0.51100000000E-03 0. -1.
        -11    1    3    3    0    0  0.14112508887E+01  0.66214460589E+00 -0.65602956617E+01  0.67429625522E+01  0.51100000000E-03 0.  1.
         12    1    3    3    0    0  0.29389705505E+01 -0.61536112078E+01 -0.95476478474E+01  0.11732947550E+02  0.00000000000E+00 0. -1.
</event>
<event>
 7    1  0.1519238E-008  0.4614232E+02  0.7816164E-02  0.1320468E+00
        -11   -1    0    0    0    0  0.00000000000E+00  0.00000000000E+00  0.45593999997E+02  0.45594000000E+02  0.51100000000E-03 0.  1.
         11   -1    0    0    0    0 -0.00000000000E+00 -0.00000000000E+00 -0.45593999997E+02  0.45594000000E+02  0.51100000000E-03 0. -1.
    9900012    2    1    2    0    0  0.21011922981E+02 -0.92315579725E+01 -0.38760687320E+02  0.46142318170E+02  0.10000003730E+02 0.  0.
        -12    1    1    2    0    0 -0.21011922981E+02  0.92315579725E+01  0.38760687320E+02  0.45045681830E+02  0.00000000000E+00 0.  1.
         11    1    3    3    0    0  0.91573674377E+01 -0.27250010929E+01 -0.10621889034E+02  0.14286620883E+02  0.51100000000E-03 0. -1.
        -11    1    3    3    0    0  0.26665636723E+01 -0.44583341691E+01 -0.13349116944E+02  0.14324322979E+02  0.51100000000E-03 0.  1.
        -12    1    3    3    0    0  0.91879918713E+01 -0.20482227106E+01 -0.14789681343E+02  0.17531374308E+02  0.00000000000E+00 0.  1.
</event>
<event>
 7    1  0.1519238E-008  0.4614232E+02  0.7816164E-02  0.1320468E+00
        -11   -1    0    0    0    0  0.00000000000E+00  0.00000000000E+00  0.45593999997E+02  0.45594000000E+02  0.51100000000E-03 0.  1.
         11   -1    0    0    0    0 -0.00000000000E+00 -0.00000000000E+00 -0.45593999997E+02  0.45594000000E+02  0.51100000000E-03 0. -1.
    9900012    2    1    2    0    0  0.32910827369E+02 -0.16363980567E+02 -0.26042485545E+02  0.46142317949E+02  0.10000001714E+02 0.  0.
        -12    1    1    2    0    0 -0.32910827369E+02  0.16363980567E+02  0.26042485545E+02  0.45045682051E+02  0.00000000000E+00 0.  1.
         11    1    3    3    0    0  0.13313949510E+02 -0.21273900919E+01 -0.10672675369E+02  0.17195727375E+02  0.51100000000E-03 0. -1.
        -11    1    3    3    0    0  0.20078063754E+01 -0.23933672719E+01 -0.33141358087E+01  0.45544472506E+01  0.51100000000E-03 0.  1.
         12    1    3    3    0    0  0.17589071483E+02 -0.11843223203E+02 -0.12055674367E+02  0.24392143324E+02  0.00000000000E+00 0. -1.
</event>
<event>
 7    1  0.1519238E-008  0.4614232E+02  0.7816164E-02  0.1320468E+00
        -11   -1    0    0    0    0  0.00000000000E+00  0.00000000000E+00  0.45593999997E+02  0.45594000000E+02  0.51100000000E-03 0.  1.
         11   -1    0    0    0    0 -0.00000000000E+00 -0.00000000000E+00 -0.45593999997E+02  0.45594000000E+02  0.51100000000E-03 0. -1.
    9900012    2    1    2    0    0 -0.39638368158E+02  0.13386455066E+02 -0.16694791002E+02  0.46142318120E+02  0.10000003271E+02 0.  0.
        -12    1    1    2    0    0  0.39638368158E+02 -0.13386455066E+02  0.16694791002E+02  0.45045681880E+02  0.00000000000E+00 0.  1.
         11    1    3    3    0    0 -0.12669054777E+02  0.48415195425E+01 -0.61863520939E+01  0.14906918290E+02  0.51100000000E-03 0.  1.
        -11    1    3    3    0    0 -0.90247047597E+01  0.31653764401E+01 -0.77295712239E+01  0.12296795338E+02  0.51100000000E-03 0. -1.
        -12    1    3    3    0    0 -0.17944608621E+02  0.53795590833E+01 -0.27788676840E+01  0.18938604492E+02  0.00000000000E+00 0.  1.
</event>
<event>
 7    1  0.1519238E-008  0.4614232E+02  0.7816164E-02  0.1320468E+00
        -11   -1    0    0    0    0  0.00000000000E+00  0.00000000000E+00  0.45593999997E+02  0.45594000000E+02  0.51100000000E-03 0. -1.
         11   -1    0    0    0    0 -0.00000000000E+00 -0.00000000000E+00 -0.45593999997E+02  0.45594000000E+02  0.51100000000E-03 0.  1.
    9900012    2    1    2    0    0  0.17349184255E+02 -0.32913435670E+02  0.25393406375E+02  0.46142317307E+02  0.99999958579E+01 0.  0.
        -12    1    1    2    0    0 -0.17349184255E+02  0.32913435670E+02 -0.25393406375E+02  0.45045682693E+02  0.00000000000E+00 0.  1.
         11    1    3    3    0    0  0.27617265120E+01 -0.12200526095E+02  0.74142368172E+01  0.14541350631E+02  0.51100000000E-03 0. -1.
        -11    1    3    3    0    0  0.52356964746E+01 -0.97085604365E+01  0.10939725325E+02  0.15535322777E+02  0.51100000000E-03 0.  1.
        -12    1    3    3    0    0  0.93517612688E+01 -0.11004349139E+02  0.70394442325E+01  0.16065643900E+02  0.00000000000E+00 0.  1.
</event>
<event>
 7    1  0.1519238E-008  0.4614232E+02  0.7816164E-02  0.1320468E+00
        -11   -1    0    0    0    0  0.00000000000E+00  0.00000000000E+00  0.45593999997E+02  0.45594000000E+02  0.51100000000E-03 0. -1.
         11   -1    0    0    0    0 -0.00000000000E+00 -0.00000000000E+00 -0.45593999997E+02  0.45594000000E+02  0.51100000000E-03 0.  1.
    9900012    2    1    2    0    0  0.39768696616E+02  0.11507301475E+02 -0.17752362635E+02  0.46142316557E+02  0.99999890155E+01 0.  0.
        -12    1    1    2    0    0 -0.39768696616E+02 -0.11507301475E+02  0.17752362635E+02  0.45045683443E+02  0.00000000000E+00 0.  1.
         11    1    3    3    0    0  0.29640615346E+02  0.94565992381E+01 -0.11005041754E+02  0.33001580136E+02  0.51100000000E-03 0. -1.
        -11    1    3    3    0    0  0.71271991634E+01  0.51476045360E+00 -0.66604588453E+01  0.97685033925E+01  0.51100000000E-03 0.  1.
         12    1    3    3    0    0  0.30008821070E+01  0.15359417830E+01 -0.86862035992E-01  0.33722330278E+01  0.00000000000E+00 0. -1.
</event>
<event>
 7    1  0.1519238E-008  0.4614232E+02  0.7816164E-02  0.1320468E+00
        -11   -1    0    0    0    0  0.00000000000E+00  0.00000000000E+00  0.45593999997E+02  0.45594000000E+02  0.51100000000E-03 0.  1.
         11   -1    0    0    0    0 -0.00000000000E+00 -0.00000000000E+00 -0.45593999997E+02  0.45594000000E+02  0.51100000000E-03 0. -1.
    9900012    2    1    2    0    0  0.29455774452E+02  0.33865729787E+02 -0.38187912749E+01  0.46142317972E+02  0.10000001927E+02 0.  0.
        -12    1    1    2    0    0 -0.29455774452E+02 -0.33865729787E+02  0.38187912749E+01  0.45045682028E+02  0.00000000000E+00 0.  1.
         11    1    3    3    0    0  0.17739953693E+02  0.16534375635E+02 -0.47598152358E+01  0.24713303624E+02  0.51100000000E-03 0. -1.
        -11    1    3    3    0    0  0.11789044197E+02  0.17198430430E+02  0.38709546093E+00  0.20854673709E+02  0.51100000000E-03 0.  1.
        -12    1    3    3    0    0 -0.73223438102E-01  0.13292372134E+00  0.55392849998E+00  0.57434063993E+00  0.00000000000E+00 0.  1.
</event>
<event>
 7    1  0.1519238E-008  0.4614232E+02  0.7816164E-02  0.1320468E+00
        -11   -1    0    0    0    0  0.00000000000E+00  0.00000000000E+00  0.45593999997E+02  0.45594000000E+02  0.51100000000E-03 0.  1.
         11   -1    0    0    0    0 -0.00000000000E+00 -0.00000000000E+00 -0.45593999997E+02  0.45594000000E+02  0.51100000000E-03 0. -1.
    9900012    2    1    2    0    0 -0.30821126698E+02  0.21673204687E+02 -0.24686917576E+02  0.46142317058E+02  0.99999935887E+01 0.  0.
        -12    1    1    2    0    0  0.30821126698E+02 -0.21673204687E+02  0.24686917576E+02  0.45045682942E+02  0.00000000000E+00 0.  1.
         11    1    3    3    0    0 -0.73329511764E+01  0.11812708570E+01 -0.40104753666E+01  0.84410595733E+01  0.51100000000E-03 0.  1.
        -11    1    3    3    0    0 -0.22485684286E+02  0.18970716980E+02 -0.20528191184E+02  0.35873398698E+02  0.51100000000E-03 0. -1.
         12    1    3    3    0    0 -0.10024912351E+01  0.15212168492E+01 -0.14825102521E+00  0.18278587870E+01  0.00000000000E+00 0. -1.
</event>
<event>
 7    1  0.1519238E-008  0.4614232E+02  0.7816164E-02  0.1320468E+00
        -11   -1    0    0    0    0  0.00000000000E+00  0.00000000000E+00  0.45593999997E+02  0.45594000000E+02  0.51100000000E-03 0.  1.
         11   -1    0    0    0    0 -0.00000000000E+00 -0.00000000000E+00 -0.45593999997E+02  0.45594000000E+02  0.51100000000E-03 0. -1.
    9900012    2    1    2    0    0  0.45508110236E+01  0.32629671966E+02 -0.30719831635E+02  0.46142318418E+02  0.10000005987E+02 0.  0.
        -12    1    1    2    0    0 -0.45508110236E+01 -0.32629671966E+02  0.30719831635E+02  0.45045681582E+02  0.00000000000E+00 0.  1.
         11    1    3    3    0    0 -0.16628913636E+01  0.16013393053E+02 -0.12803258395E+02  0.20569817465E+02  0.51100000000E-03 0. -1.
        -11    1    3    3    0    0  0.10376087132E+01  0.58796095998E+01 -0.84749644305E+01  0.10366844421E+02  0.51100000000E-03 0.  1.
         12    1    3    3    0    0  0.51760936740E+01  0.10736669313E+02 -0.94416088090E+01  0.15205656532E+02  0.00000000000E+00 0. -1.
</event>
<event>
 7    1  0.1519238E-008  0.4614232E+02  0.7816164E-02  0.1320468E+00
        -11   -1    0    0    0    0  0.00000000000E+00  0.00000000000E+00  0.45593999997E+02  0.45594000000E+02  0.51100000000E-03 0.  1.
         11   -1    0    0    0    0 -0.00000000000E+00 -0.00000000000E+00 -0.45593999997E+02  0.45594000000E+02  0.51100000000E-03 0. -1.
    9900012    2    1    2    0    0 -0.12287934889E+01 -0.33298902735E+02 -0.30311491902E+02  0.46142318763E+02  0.10000009134E+02 0.  0.
        -12    1    1    2    0    0  0.12287934889E+01  0.33298902735E+02  0.30311491902E+02  0.45045681237E+02  0.00000000000E+00 0.  1.
         11    1    3    3    0    0  0.11168527025E+01 -0.57156235014E+01 -0.54965272204E+01  0.80079662659E+01  0.51100000000E-03 0. -1.
        -11    1    3    3    0    0 -0.13978575603E+00 -0.38586433319E+01 -0.82683700472E+01  0.91254924206E+01  0.51100000000E-03 0.  1.
        -12    1    3    3    0    0 -0.22058604354E+01 -0.23724635902E+02 -0.16546594634E+02  0.29008860076E+02  0.00000000000E+00 0.  1.
</event>
<event>
 7    1  0.1519238E-008  0.4614231E+02  0.7816164E-02  0.1320468E+00
        -11   -1    0    0    0    0  0.00000000000E+00  0.00000000000E+00  0.45593999997E+02  0.45594000000E+02  0.51100000000E-03 0.  1.
         11   -1    0    0    0    0 -0.00000000000E+00 -0.00000000000E+00 -0.45593999997E+02  0.45594000000E+02  0.51100000000E-03 0. -1.
    9900012    2    1    2    0    0 -0.12889543432E+02  0.13560936421E+02 -0.40976511488E+02  0.46142314077E+02  0.99999664087E+01 0.  0.
        -12    1    1    2    0    0  0.12889543432E+02 -0.13560936421E+02  0.40976511488E+02  0.45045685923E+02  0.00000000000E+00 0.  1.
         11    1    3    3    0    0 -0.40082288731E+01  0.17802052193E+01 -0.94508476311E+01  0.10418903519E+02  0.51100000000E-03 0. -1.
        -11    1    3    3    0    0 -0.28790405132E+01  0.68651591892E+01 -0.23100073907E+02  0.24269995874E+02  0.51100000000E-03 0.  1.
        -12    1    3    3    0    0 -0.60022740456E+01  0.49155720120E+01 -0.84255899501E+01  0.11453414684E+02  0.00000000000E+00 0.  1.
</event>
<event>
 7    1  0.1519238E-008  0.4614232E+02  0.7816164E-02  0.1320468E+00
        -11   -1    0    0    0    0  0.00000000000E+00  0.00000000000E+00  0.45593999997E+02  0.45594000000E+02  0.51100000000E-03 0.  1.
         11   -1    0    0    0    0 -0.00000000000E+00 -0.00000000000E+00 -0.45593999997E+02  0.45594000000E+02  0.51100000000E-03 0. -1.
    9900012    2    1    2    0    0 -0.23330764762E+02 -0.33025576187E+02 -0.19851953623E+02  0.46142319524E+02  0.10000016078E+02 0.  0.
        -12    1    1    2    0    0  0.23330764762E+02  0.33025576187E+02  0.19851953623E+02  0.45045680476E+02  0.00000000000E+00 0.  1.
         11    1    3    3    0    0  0.66818739180E+00 -0.19094293444E+01 -0.10850498243E+01  0.22955888557E+01  0.51100000000E-03 0. -1.
        -11    1    3    3    0    0 -0.14251435423E+01 -0.54809737690E+00 -0.13800627688E+01  0.20581589729E+01  0.51100000000E-03 0.  1.
         12    1    3    3    0    0 -0.22573808612E+02 -0.30568049466E+02 -0.17386841030E+02  0.41788571696E+02  0.00000000000E+00 0. -1.
</event>
<event>
 7    1  0.1519238E-008  0.4614232E+02  0.7816164E-02  0.1320468E+00
        -11   -1    0    0    0    0  0.00000000000E+00  0.00000000000E+00  0.45593999997E+02  0.45594000000E+02  0.51100000000E-03 0. -1.
         11   -1    0    0    0    0 -0.00000000000E+00 -0.00000000000E+00 -0.45593999997E+02  0.45594000000E+02  0.51100000000E-03 0.  1.
    9900012    2    1    2    0    0  0.41608024560E+02 -0.15425234780E+02  0.77426068100E+01  0.46142317232E+02  0.99999951778E+01 0.  0.
        -12    1    1    2    0    0 -0.41608024560E+02  0.15425234780E+02 -0.77426068100E+01  0.45045682768E+02  0.00000000000E+00 0.  1.
         11    1    3    3    0    0  0.17237430749E+02 -0.10283417927E+02  0.44100353284E+01  0.20550574565E+02  0.51100000000E-03 0. -1.
        -11    1    3    3    0    0  0.88334345736E+01 -0.29628714499E+01 -0.84658278390E+00  0.93554730648E+01  0.51100000000E-03 0.  1.
        -12    1    3    3    0    0  0.15537159237E+02 -0.21789454030E+01  0.41791542654E+01  0.16236269603E+02  0.00000000000E+00 0.  1.
</event>
<event>
 7    1  0.1519238E-008  0.4614232E+02  0.7816164E-02  0.1320468E+00
        -11   -1    0    0    0    0  0.00000000000E+00  0.00000000000E+00  0.45593999997E+02  0.45594000000E+02  0.51100000000E-03 0.  1.
         11   -1    0    0    0    0 -0.00000000000E+00 -0.00000000000E+00 -0.45593999997E+02  0.45594000000E+02  0.51100000000E-03 0. -1.
    9900012    2    1    2    0    0  0.37463829916E+02 -0.24484356743E+02 -0.51079409103E+01  0.46142319436E+02  0.10000015276E+02 0.  0.
        -12    1    1    2    0    0 -0.37463829916E+02  0.24484356743E+02  0.51079409103E+01  0.45045680564E+02  0.00000000000E+00 0.  1.
         11    1    3    3    0    0  0.92534670085E+01 -0.66980235883E+01  0.10978912092E+01  0.11475867594E+02  0.51100000000E-03 0. -1.
        -11    1    3    3    0    0  0.17523697427E+02 -0.12718537334E+02 -0.71467290383E+01  0.22801686333E+02  0.51100000000E-03 0.  1.
        -12    1    3    3    0    0  0.10686665481E+02 -0.50677958207E+01  0.94089691876E+00  0.11864765509E+02  0.00000000000E+00 0.  1.
</event>
<event>
 7    1  0.1519238E-008  0.4614232E+02  0.7816164E-02  0.1320468E+00
        -11   -1    0    0    0    0  0.00000000000E+00  0.00000000000E+00  0.45593999997E+02  0.45594000000E+02  0.51100000000E-03 0. -1.
         11   -1    0    0    0    0 -0.00000000000E+00 -0.00000000000E+00 -0.45593999997E+02  0.45594000000E+02  0.51100000000E-03 0.  1.
    9900012    2    1    2    0    0  0.25903056528E+02  0.16993584444E+02  0.32701116489E+02  0.46142320192E+02  0.10000022166E+02 0.  0.
        -12    1    1    2    0    0 -0.25903056528E+02 -0.16993584444E+02 -0.32701116489E+02  0.45045679808E+02  0.00000000000E+00 0.  1.
         11    1    3    3    0    0  0.13284235882E+02  0.10053593868E+02  0.14589735469E+02  0.22145113545E+02  0.51100000000E-03 0. -1.
        -11    1    3    3    0    0  0.12820133283E+01  0.35463963661E+01  0.58210998071E+01  0.69358264529E+01  0.51100000000E-03 0.  1.
         12    1    3    3    0    0  0.11336807318E+02  0.33935942107E+01  0.12290281213E+02  0.17061380194E+02  0.00000000000E+00 0. -1.
</event>
<event>
 7    1  0.1519238E-008  0.4614232E+02  0.7816164E-02  0.1320468E+00
        -11   -1    0    0    0    0  0.00000000000E+00  0.00000000000E+00  0.45593999997E+02  0.45594000000E+02  0.51100000000E-03 0.  1.
         11   -1    0    0    0    0 -0.00000000000E+00 -0.00000000000E+00 -0.45593999997E+02  0.45594000000E+02  0.51100000000E-03 0. -1.
    9900012    2    1    2    0    0  0.11399432878E+02  0.28164566203E+02 -0.33255429853E+02  0.46142317920E+02  0.10000001451E+02 0.  0.
        -12    1    1    2    0    0 -0.11399432878E+02 -0.28164566203E+02  0.33255429853E+02  0.45045682080E+02  0.00000000000E+00 0.  1.
         11    1    3    3    0    0  0.80505538476E+01  0.25979378180E+02 -0.30323389993E+02  0.40733861698E+02  0.51100000000E-03 0. -1.
        -11    1    3    3    0    0  0.35861368735E+01  0.18189502879E+01 -0.29243777087E+01  0.49720159965E+01  0.51100000000E-03 0.  1.
         12    1    3    3    0    0 -0.23725784288E+00  0.36623773484E+00 -0.76621512237E-02  0.43644022614E+00  0.00000000000E+00 0. -1.
</event>
<event>
 7    1  0.1519238E-008  0.4614232E+02  0.7816164E-02  0.1320468E+00
        -11   -1    0    0    0    0  0.00000000000E+00  0.00000000000E+00  0.45593999997E+02  0.45594000000E+02  0.51100000000E-03 0.  1.
         11   -1    0    0    0    0 -0.00000000000E+00 -0.00000000000E+00 -0.45593999997E+02  0.45594000000E+02  0.51100000000E-03 0. -1.
    9900012    2    1    2    0    0  0.10550325797E+02  0.33858788859E+02 -0.27773847477E+02  0.46142316954E+02  0.99999926379E+01 0.  0.
        -12    1    1    2    0    0 -0.10550325797E+02 -0.33858788859E+02  0.27773847477E+02  0.45045683046E+02  0.00000000000E+00 0.  1.
         11    1    3    3    0    0  0.58361926716E+01  0.11002754172E+02 -0.10460833938E+02  0.16265017406E+02  0.51100000000E-03 0. -1.
        -11    1    3    3    0    0  0.21965037996E+01  0.21214877488E+02 -0.14807174840E+02  0.25964361783E+02  0.51100000000E-03 0.  1.
         12    1    3    3    0    0  0.25176293253E+01  0.16411571998E+01 -0.25058386985E+01  0.39129377655E+01  0.00000000000E+00 0. -1.
</event>
<event>
 7    1  0.1519238E-008  0.4614232E+02  0.7816164E-02  0.1320468E+00
        -11   -1    0    0    0    0  0.00000000000E+00  0.00000000000E+00  0.45593999997E+02  0.45594000000E+02  0.51100000000E-03 0. -1.
         11   -1    0    0    0    0 -0.00000000000E+00 -0.00000000000E+00 -0.45593999997E+02  0.45594000000E+02  0.51100000000E-03 0.  1.
    9900012    2    1    2    0    0  0.16160875125E+02 -0.27907487882E+02  0.31450143838E+02  0.46142319718E+02  0.10000017840E+02 0.  0.
        -12    1    1    2    0    0 -0.16160875125E+02  0.27907487882E+02 -0.31450143838E+02  0.45045680282E+02  0.00000000000E+00 0.  1.
         11    1    3    3    0    0  0.13953706605E+02 -0.23704038945E+02  0.28146029121E+02  0.39354622929E+02  0.51100000000E-03 0. -1.
        -11    1    3    3    0    0  0.11180599611E+01  0.36932718046E+00  0.32139279051E+00  0.12205548860E+01  0.51100000000E-03 0.  1.
        -12    1    3    3    0    0  0.10891085591E+01 -0.45727761181E+01  0.29827219257E+01  0.55671419028E+01  0.00000000000E+00 0.  1.
</event>
<event>
 7    1  0.1519238E-008  0.4614232E+02  0.7816164E-02  0.1320468E+00
        -11   -1    0    0    0    0  0.00000000000E+00  0.00000000000E+00  0.45593999997E+02  0.45594000000E+02  0.51100000000E-03 0. -1.
         11   -1    0    0    0    0 -0.00000000000E+00 -0.00000000000E+00 -0.45593999997E+02  0.45594000000E+02  0.51100000000E-03 0.  1.
    9900012    2    1    2    0    0 -0.71568889749E+01  0.39793499615E+02  0.19858744336E+02  0.46142318764E+02  0.10000009149E+02 0.  0.
        -12    1    1    2    0    0  0.71568889749E+01 -0.39793499615E+02 -0.19858744336E+02  0.45045681236E+02  0.00000000000E+00 0.  1.
         11    1    3    3    0    0  0.42676756642E+00  0.42303718891E+01  0.18189727722E+01  0.46245906935E+01  0.51100000000E-03 0. -1.
        -11    1    3    3    0    0 -0.71721715778E+01  0.23295059970E+02  0.79800989123E+01  0.25647258003E+02  0.51100000000E-03 0.  1.
        -12    1    3    3    0    0 -0.41148496353E+00  0.12268067755E+02  0.10059672652E+02  0.15870470068E+02  0.00000000000E+00 0.  1.
</event>
<event>
 7    1  0.1519238E-008  0.4614232E+02  0.7816164E-02  0.1320468E+00
        -11   -1    0    0    0    0  0.00000000000E+00  0.00000000000E+00  0.45593999997E+02  0.45594000000E+02  0.51100000000E-03 0.  1.
         11   -1    0    0    0    0 -0.00000000000E+00 -0.00000000000E+00 -0.45593999997E+02  0.45594000000E+02  0.51100000000E-03 0. -1.
    9900012    2    1    2    0    0  0.24995145950E+02  0.17518494327E+02 -0.33127910551E+02  0.46142318497E+02  0.10000006713E+02 0.  0.
        -12    1    1    2    0    0 -0.24995145950E+02 -0.17518494327E+02  0.33127910551E+02  0.45045681503E+02  0.00000000000E+00 0.  1.
         11    1    3    3    0    0  0.15595071339E+02  0.93928700219E+01 -0.21065149615E+02  0.27841924967E+02  0.51100000000E-03 0. -1.
        -11    1    3    3    0    0  0.20519308143E+01  0.54888510274E+01 -0.62481000288E+01  0.85660177387E+01  0.51100000000E-03 0.  1.
        -12    1    3    3    0    0  0.73481437969E+01  0.26367732774E+01 -0.58146609074E+01  0.97343757912E+01  0.00000000000E+00 0.  1.
</event>
<event>
 7    1  0.1519238E-008  0.4614232E+02  0.7816164E-02  0.1320468E+00
        -11   -1    0    0    0    0  0.00000000000E+00  0.00000000000E+00  0.45593999997E+02  0.45594000000E+02  0.51100000000E-03 0. -1.
         11   -1    0    0    0    0 -0.00000000000E+00 -0.00000000000E+00 -0.45593999997E+02  0.45594000000E+02  0.51100000000E-03 0.  1.
    9900012    2    1    2    0    0  0.41471221458E+02  0.10856869178E+02  0.13834003503E+02  0.46142317960E+02  0.10000001810E+02 0.  0.
        -12    1    1    2    0    0 -0.41471221458E+02 -0.10856869178E+02 -0.13834003503E+02  0.45045682040E+02  0.00000000000E+00 0.  1.
         11    1    3    3    0    0  0.26986503871E+02  0.76866686239E+01  0.87808409962E+01  0.29401691016E+02  0.51100000000E-03 0. -1.
        -11    1    3    3    0    0 -0.11981105688E+00 -0.63352187906E+00 -0.32142370707E+00  0.72042912294E+00  0.51100000000E-03 0.  1.
        -12    1    3    3    0    0  0.14604528644E+02  0.38037224335E+01  0.53745862139E+01  0.16020197821E+02  0.00000000000E+00 0.  1.
</event>
<event>
 7    1  0.1519238E-008  0.4614232E+02  0.7816164E-02  0.1320468E+00
        -11   -1    0    0    0    0  0.00000000000E+00  0.00000000000E+00  0.45593999997E+02  0.45594000000E+02  0.51100000000E-03 0.  1.
         11   -1    0    0    0    0 -0.00000000000E+00 -0.00000000000E+00 -0.45593999997E+02  0.45594000000E+02  0.51100000000E-03 0. -1.
    9900012    2    1    2    0    0  0.68825434008E+01  0.44513196585E+02  0.56503420359E+00  0.46142319436E+02  0.10000015270E+02 0.  0.
        -12    1    1    2    0    0 -0.68825434008E+01 -0.44513196585E+02 -0.56503420359E+00  0.45045680564E+02  0.00000000000E+00 0.  1.
         11    1    3    3    0    0  0.52359359164E+01  0.17496189510E+02 -0.28955614161E+01  0.18490969376E+02  0.51100000000E-03 0. -1.
        -11    1    3    3    0    0  0.17150007178E+01  0.21712961341E+02  0.99888501256E+00  0.21803478832E+02  0.51100000000E-03 0.  1.
        -12    1    3    3    0    0 -0.68393233408E-01  0.53040457342E+01  0.24617106071E+01  0.58478712279E+01  0.00000000000E+00 0.  1.
</event>
<event>
 7    1  0.1519238E-008  0.4614232E+02  0.7816164E-02  0.1320468E+00
        -11   -1    0    0    0    0  0.00000000000E+00  0.00000000000E+00  0.45593999997E+02  0.45594000000E+02  0.51100000000E-03 0. -1.
         11   -1    0    0    0    0 -0.00000000000E+00 -0.00000000000E+00 -0.45593999997E+02  0.45594000000E+02  0.51100000000E-03 0.  1.
    9900012    2    1    2    0    0  0.16551005622E+02  0.36025248034E+02  0.21385962839E+02  0.46142315527E+02  0.99999796311E+01 0.  0.
        -12    1    1    2    0    0 -0.16551005622E+02 -0.36025248034E+02 -0.21385962839E+02  0.45045684473E+02  0.00000000000E+00 0.  1.
         11    1    3    3    0    0  0.29359075692E+01  0.10040153343E+02  0.80009871711E+01  0.13169663184E+02  0.51100000000E-03 0.  1.
        -11    1    3    3    0    0  0.13187153981E+02  0.24915886390E+02  0.14196952855E+02  0.31563521593E+02  0.51100000000E-03 0. -1.
        -12    1    3    3    0    0  0.42794407161E+00  0.10692083014E+01 -0.81197718668E+00  0.14091307505E+01  0.00000000000E+00 0.  1.
</event>
<event>
 7    1  0.1519238E-008  0.4614232E+02  0.7816164E-02  0.1320468E+00
        -11   -1    0    0    0    0  0.00000000000E+00  0.00000000000E+00  0.45593999997E+02  0.45594000000E+02  0.51100000000E-03 0. -1.
         11   -1    0    0    0    0 -0.00000000000E+00 -0.00000000000E+00 -0.45593999997E+02  0.45594000000E+02  0.51100000000E-03 0.  1.
    9900012    2    1    2    0    0 -0.39328466207E+02 -0.18171779841E+02 -0.12335784854E+02  0.46142318468E+02  0.10000006444E+02 0.  0.
        -12    1    1    2    0    0  0.39328466207E+02  0.18171779841E+02  0.12335784854E+02  0.45045681532E+02  0.00000000000E+00 0.  1.
         11    1    3    3    0    0 -0.18524371149E+02 -0.11111893534E+02 -0.94210380747E+01  0.23566553907E+02  0.51100000000E-03 0. -1.
        -11    1    3    3    0    0 -0.46687826206E+01 -0.35518241560E+01 -0.49433236346E+00  0.58870494087E+01  0.51100000000E-03 0.  1.
         12    1    3    3    0    0 -0.16135312437E+02 -0.35080621508E+01 -0.24204144156E+01  0.16688715152E+02  0.00000000000E+00 0. -1.
</event>
<event>
 7    1  0.1519238E-008  0.4614232E+02  0.7816164E-02  0.1320468E+00
        -11   -1    0    0    0    0  0.00000000000E+00  0.00000000000E+00  0.45593999997E+02  0.45594000000E+02  0.51100000000E-03 0.  1.
         11   -1    0    0    0    0 -0.00000000000E+00 -0.00000000000E+00 -0.45593999997E+02  0.45594000000E+02  0.51100000000E-03 0. -1.
    9900012    2    1    2    0    0 -0.19822002186E+02 -0.24481655349E+02 -0.32200159783E+02  0.46142317528E+02  0.99999978774E+01 0.  0.
        -12    1    1    2    0    0  0.19822002186E+02  0.24481655349E+02  0.32200159783E+02  0.45045682472E+02  0.00000000000E+00 0.  1.
         11    1    3    3    0    0 -0.11654838783E+02 -0.14842274561E+02 -0.12825979622E+02  0.22817408589E+02  0.51100000000E-03 0. -1.
        -11    1    3    3    0    0 -0.69301332586E+01 -0.94059256305E+01 -0.18019783832E+02  0.21475818810E+02  0.51100000000E-03 0.  1.
        -12    1    3    3    0    0 -0.12370301446E+01 -0.23345515717E+00 -0.13543963296E+01  0.18490901294E+01  0.00000000000E+00 0.  1.
</event>
<event>
 7    1  0.1519238E-008  0.4614232E+02  0.7816164E-02  0.1320468E+00
        -11   -1    0    0    0    0  0.00000000000E+00  0.00000000000E+00  0.45593999997E+02  0.45594000000E+02  0.51100000000E-03 0.  1.
         11   -1    0    0    0    0 -0.00000000000E+00 -0.00000000000E+00 -0.45593999997E+02  0.45594000000E+02  0.51100000000E-03 0. -1.
    9900012    2    1    2    0    0  0.32033087376E+02  0.13820426676E+02 -0.28495449144E+02  0.46142317607E+02  0.99999985943E+01 0.  0.
        -12    1    1    2    0    0 -0.32033087376E+02 -0.13820426676E+02  0.28495449144E+02  0.45045682393E+02  0.00000000000E+00 0.  1.
         11    1    3    3    0    0  0.22397662924E+02  0.62557139713E+01 -0.20852497043E+02  0.31234850647E+02  0.51100000000E-03 0. -1.
        -11    1    3    3    0    0  0.24478957832E+01  0.34876308437E+01 -0.41113714656E+01  0.59210757685E+01  0.51100000000E-03 0.  1.
         12    1    3    3    0    0  0.71875286689E+01  0.40770818606E+01 -0.35315806358E+01  0.89863911917E+01  0.00000000000E+00 0. -1.
</event>
<event>
 7    1  0.1519238E-008  0.4614232E+02  0.7816164E-02  0.1320468E+00
        -11   -1    0    0    0    0  0.00000000000E+00  0.00000000000E+00  0.45593999997E+02  0.45594000000E+02  0.51100000000E-03 0. -1.
         11   -1    0    0    0    0 -0.00000000000E+00 -0.00000000000E+00 -0.45593999997E+02  0.45594000000E+02  0.51100000000E-03 0.  1.
    9900012    2    1    2    0    0 -0.15460839596E+02  0.42304777742E+02 -0.61784300040E+00  0.46142317512E+02  0.99999977301E+01 0.  0.
        -12    1    1    2    0    0  0.15460839596E+02 -0.42304777742E+02  0.61784300040E+00  0.45045682488E+02  0.00000000000E+00 0.  1.
         11    1    3    3    0    0 -0.52592360599E+01  0.13797630171E+02 -0.16928668469E+01  0.14862703680E+02  0.51100000000E-03 0. -1.
        -11    1    3    3    0    0 -0.49476272286E+01  0.13971101351E+02  0.44181211026E+01  0.15465784250E+02  0.51100000000E-03 0.  1.
        -12    1    3    3    0    0 -0.52539763071E+01  0.14536046221E+02 -0.33430972561E+01  0.15813829582E+02  0.00000000000E+00 0.  1.
</event>
<event>
 7    1  0.1519238E-008  0.4614232E+02  0.7816164E-02  0.1320468E+00
        -11   -1    0    0    0    0  0.00000000000E+00  0.00000000000E+00  0.45593999997E+02  0.45594000000E+02  0.51100000000E-03 0. -1.
         11   -1    0    0    0    0 -0.00000000000E+00 -0.00000000000E+00 -0.45593999997E+02  0.45594000000E+02  0.51100000000E-03 0.  1.
    9900012    2    1    2    0    0 -0.29061672107E+01 -0.42654456122E+02  0.14186790480E+02  0.46142318087E+02  0.10000002968E+02 0.  0.
        -12    1    1    2    0    0  0.29061672107E+01  0.42654456122E+02 -0.14186790480E+02  0.45045681913E+02  0.00000000000E+00 0.  1.
         11    1    3    3    0    0  0.13409517636E+01 -0.10114854544E+01  0.10414608666E+01  0.19763338419E+01  0.51100000000E-03 0.  1.
        -11    1    3    3    0    0 -0.31237118661E+01 -0.10913049889E+02  0.46213359140E+01  0.12255977301E+02  0.51100000000E-03 0. -1.
        -12    1    3    3    0    0 -0.11234071081E+01 -0.30729920778E+02  0.85239936994E+01  0.31910006944E+02  0.00000000000E+00 0.  1.
</event>
<event>
 7    1  0.1519238E-008  0.4614232E+02  0.7816164E-02  0.1320468E+00
        -11   -1    0    0    0    0  0.00000000000E+00  0.00000000000E+00  0.45593999997E+02  0.45594000000E+02  0.51100000000E-03 0.  1.
         11   -1    0    0    0    0 -0.00000000000E+00 -0.00000000000E+00 -0.45593999997E+02  0.45594000000E+02  0.51100000000E-03 0. -1.
    9900012    2    1    2    0    0  0.12648460904E+01 -0.24960680549E+02 -0.37476367420E+02  0.46142317364E+02  0.99999963819E+01 0.  0.
        -12    1    1    2    0    0 -0.12648460904E+01  0.24960680549E+02  0.37476367420E+02  0.45045682636E+02  0.00000000000E+00 0.  1.
         11    1    3    3    0    0 -0.99169255912E+00 -0.29127418179E+00 -0.11428112551E+01  0.15408804648E+01  0.51100000000E-03 0.  1.
        -11    1    3    3    0    0  0.24460532852E+01 -0.24041269181E+02 -0.31389159216E+02  0.39613698604E+02  0.51100000000E-03 0. -1.
         12    1    3    3    0    0 -0.18951463565E+00 -0.62813718652E+00 -0.49443969484E+01  0.49877382956E+01  0.00000000000E+00 0. -1.
</event>
<event>
 7    1  0.1519238E-008  0.4614231E+02  0.7816164E-02  0.1320468E+00
        -11   -1    0    0    0    0  0.00000000000E+00  0.00000000000E+00  0.45593999997E+02  0.45594000000E+02  0.51100000000E-03 0.  1.
         11   -1    0    0    0    0 -0.00000000000E+00 -0.00000000000E+00 -0.45593999997E+02  0.45594000000E+02  0.51100000000E-03 0. -1.
    9900012    2    1    2    0    0 -0.44021548295E+02  0.65811815376E+01 -0.69213558266E+01  0.46142313955E+02  0.99999652966E+01 0.  0.
        -12    1    1    2    0    0  0.44021548295E+02 -0.65811815376E+01  0.69213558266E+01  0.45045686045E+02  0.00000000000E+00 0.  1.
         11    1    3    3    0    0 -0.20032308756E+02  0.35243652190E+01 -0.51947123105E+01  0.20992845937E+02  0.51100000000E-03 0. -1.
        -11    1    3    3    0    0 -0.21661323515E+01 -0.80899400430E+00  0.14952928190E+01  0.27536342420E+01  0.51100000000E-03 0.  1.
        -12    1    3    3    0    0 -0.21823107188E+02  0.38658103229E+01 -0.32219363351E+01  0.22395833776E+02  0.00000000000E+00 0.  1.
</event>
<event>
 7    1  0.1519238E-008  0.4614232E+02  0.7816164E-02  0.1320468E+00
        -11   -1    0    0    0    0  0.00000000000E+00  0.00000000000E+00  0.45593999997E+02  0.45594000000E+02  0.51100000000E-03 0. -1.
         11   -1    0    0    0    0 -0.00000000000E+00 -0.00000000000E+00 -0.45593999997E+02  0.45594000000E+02  0.51100000000E-03 0.  1.
    9900012    2    1    2    0    0  0.38099356990E+02  0.26593346207E+01  0.23884731729E+02  0.46142317927E+02  0.10000001514E+02 0.  0.
        -12    1    1    2    0    0 -0.38099356990E+02 -0.26593346207E+01 -0.23884731729E+02  0.45045682073E+02  0.00000000000E+00 0.  1.
         11    1    3    3    0    0  0.11643601798E+02  0.74441827667E+00  0.83052600864E+01  0.14321486192E+02  0.51100000000E-03 0. -1.
        -11    1    3    3    0    0  0.21022969986E+02  0.40785592942E+01  0.96364601275E+01  0.23483212664E+02  0.51100000000E-03 0.  1.
        -12    1    3    3    0    0  0.54327852057E+01 -0.21636429502E+01  0.59430115151E+01  0.83376190711E+01  0.00000000000E+00 0.  1.
</event>
<event>
 7    1  0.1519238E-008  0.4614232E+02  0.7816164E-02  0.1320468E+00
        -11   -1    0    0    0    0  0.00000000000E+00  0.00000000000E+00  0.45593999997E+02  0.45594000000E+02  0.51100000000E-03 0.  1.
         11   -1    0    0    0    0 -0.00000000000E+00 -0.00000000000E+00 -0.45593999997E+02  0.45594000000E+02  0.51100000000E-03 0. -1.
    9900012    2    1    2    0    0 -0.20834176870E+01  0.21756336586E+02 -0.39388257393E+02  0.46142316174E+02  0.99999855244E+01 0.  0.
        -12    1    1    2    0    0  0.20834176870E+01 -0.21756336586E+02  0.39388257393E+02  0.45045683826E+02  0.00000000000E+00 0.  1.
         11    1    3    3    0    0  0.19050081700E+01  0.70088848519E+01 -0.16692326446E+02  0.18204045853E+02  0.51100000000E-03 0. -1.
        -11    1    3    3    0    0  0.83892203846E+00  0.67439208196E+01 -0.77208145208E+01  0.10285681083E+02  0.51100000000E-03 0.  1.
         12    1    3    3    0    0 -0.48273478955E+01  0.80035309150E+01 -0.14975116427E+02  0.17652589238E+02  0.00000000000E+00 0. -1.
</event>
<event>
 7    1  0.1519238E-008  0.4614232E+02  0.7816164E-02  0.1320468E+00
        -11   -1    0    0    0    0  0.00000000000E+00  0.00000000000E+00  0.45593999997E+02  0.45594000000E+02  0.51100000000E-03 0.  1.
         11   -1    0    0    0    0 -0.00000000000E+00 -0.00000000000E+00 -0.45593999997E+02  0.45594000000E+02  0.51100000000E-03 0. -1.
    9900012    2    1    2    0    0  0.48483437764E+01  0.40413861061E+02 -0.19295774751E+02  0.46142317338E+02  0.99999961395E+01 0.  0.
        -12    1    1    2    0    0 -0.48483437764E+01 -0.40413861061E+02  0.19295774751E+02  0.45045682662E+02  0.00000000000E+00 0.  1.
         11    1    3    3    0    0 -0.10527865951E+01  0.24127998389E+02 -0.90345239226E+01  0.25785486008E+02  0.51100000000E-03 0. -1.
        -11    1    3    3    0    0  0.26865199671E+01  0.43881787560E+01 -0.40955538965E+01  0.65762500187E+01  0.51100000000E-03 0.  1.
         12    1    3    3    0    0  0.32146104043E+01  0.11897683916E+02 -0.61656969321E+01  0.13780581311E+02  0.00000000000E+00 0. -1.
</event>
<event>
 7    1  0.1519238E-008  0.4614232E+02  0.7816164E-02  0.1320468E+00
        -11   -1    0    0    0    0  0.00000000000E+00  0.00000000000E+00  0.45593999997E+02  0.45594000000E+02  0.51100000000E-03 0.  1.
         11   -1    0    0    0    0 -0.00000000000E+00 -0.00000000000E+00 -0.45593999997E+02  0.45594000000E+02  0.51100000000E-03 0. -1.
    9900012    2    1    2    0    0 -0.88392392955E+01 -0.23394229398E+02 -0.37465871577E+02  0.46142315928E+02  0.99999832887E+01 0.  0.
        -12    1    1    2    0    0  0.88392392955E+01  0.23394229398E+02  0.37465871577E+02  0.45045684072E+02  0.00000000000E+00 0.  1.
         11    1    3    3    0    0 -0.19649302760E+01 -0.10758334540E+02 -0.21100804852E+02  0.23766503292E+02  0.51100000000E-03 0. -1.
        -11    1    3    3    0    0 -0.24158793393E+01 -0.55562262776E+01 -0.10619856467E+02  0.12226588857E+02  0.51100000000E-03 0.  1.
         12    1    3    3    0    0 -0.44584296801E+01 -0.70796685804E+01 -0.57452102575E+01  0.10149223779E+02  0.00000000000E+00 0. -1.
</event>
<event>
 7    1  0.1519238E-008  0.4614232E+02  0.7816164E-02  0.1320468E+00
        -11   -1    0    0    0    0  0.00000000000E+00  0.00000000000E+00  0.45593999997E+02  0.45594000000E+02  0.51100000000E-03 0. -1.
         11   -1    0    0    0    0 -0.00000000000E+00 -0.00000000000E+00 -0.45593999997E+02  0.45594000000E+02  0.51100000000E-03 0.  1.
    9900012    2    1    2    0    0  0.30159771390E+02 -0.33367963986E+02  0.24659202588E+01  0.46142316593E+02  0.99999893480E+01 0.  0.
        -12    1    1    2    0    0 -0.30159771390E+02  0.33367963986E+02 -0.24659202588E+01  0.45045683407E+02  0.00000000000E+00 0.  1.
         11    1    3    3    0    0  0.11816391449E+02 -0.14603823895E+02  0.48752091358E+01  0.19407896424E+02  0.51100000000E-03 0. -1.
        -11    1    3    3    0    0  0.14478682212E+02 -0.11914282973E+02 -0.13589800141E+01  0.18799712878E+02  0.51100000000E-03 0.  1.
         12    1    3    3    0    0  0.38646977280E+01 -0.68498571192E+01 -0.10503088630E+01  0.79347072907E+01  0.00000000000E+00 0. -1.
</event>
<event>
 7    1  0.1519238E-008  0.4614232E+02  0.7816164E-02  0.1320468E+00
        -11   -1    0    0    0    0  0.00000000000E+00  0.00000000000E+00  0.45593999997E+02  0.45594000000E+02  0.51100000000E-03 0.  1.
         11   -1    0    0    0    0 -0.00000000000E+00 -0.00000000000E+00 -0.45593999997E+02  0.45594000000E+02  0.51100000000E-03 0. -1.
    9900012    2    1    2    0    0  0.25395641561E+02  0.27564198554E+02 -0.24987792854E+02  0.46142318254E+02  0.10000004496E+02 0.  0.
        -12    1    1    2    0    0 -0.25395641561E+02 -0.27564198554E+02  0.24987792854E+02  0.45045681746E+02  0.00000000000E+00 0.  1.
         11    1    3    3    0    0  0.20454287268E+02  0.17604590166E+02 -0.20794805116E+02  0.34069390699E+02  0.51100000000E-03 0. -1.
        -11    1    3    3    0    0  0.31411566509E+01  0.39632392865E+01 -0.20242759265E+01  0.54471849643E+01  0.51100000000E-03 0.  1.
         12    1    3    3    0    0  0.18001976430E+01  0.59963691019E+01 -0.21687118112E+01  0.66257425908E+01  0.00000000000E+00 0. -1.
</event>
<event>
 7    1  0.1519238E-008  0.4614232E+02  0.7816164E-02  0.1320468E+00
        -11   -1    0    0    0    0  0.00000000000E+00  0.00000000000E+00  0.45593999997E+02  0.45594000000E+02  0.51100000000E-03 0.  1.
         11   -1    0    0    0    0 -0.00000000000E+00 -0.00000000000E+00 -0.45593999997E+02  0.45594000000E+02  0.51100000000E-03 0. -1.
    9900012    2    1    2    0    0  0.29618322104E+01  0.21880479196E+02 -0.39263032176E+02  0.46142317459E+02  0.99999972463E+01 0.  0.
        -12    1    1    2    0    0 -0.29618322104E+01 -0.21880479196E+02  0.39263032176E+02  0.45045682541E+02  0.00000000000E+00 0.  1.
         11    1    3    3    0    0  0.15737521217E+01  0.13872695405E+02 -0.32830632673E+02  0.35676025781E+02  0.51100000000E-03 0. -1.
        -11    1    3    3    0    0  0.10399307313E+01  0.55367018082E+01 -0.52666423051E+01  0.77119416666E+01  0.51100000000E-03 0.  1.
        -12    1    3    3    0    0  0.34814935741E+00  0.24710819831E+01 -0.11657571983E+01  0.27543500118E+01  0.00000000000E+00 0.  1.
</event>
<event>
 7    1  0.1519238E-008  0.4614232E+02  0.7816164E-02  0.1320468E+00
        -11   -1    0    0    0    0  0.00000000000E+00  0.00000000000E+00  0.45593999997E+02  0.45594000000E+02  0.51100000000E-03 0.  1.
         11   -1    0    0    0    0 -0.00000000000E+00 -0.00000000000E+00 -0.45593999997E+02  0.45594000000E+02  0.51100000000E-03 0. -1.
    9900012    2    1    2    0    0  0.44099869379E+02  0.84371541495E+01 -0.36234726805E+01  0.46142316481E+02  0.99999883282E+01 0.  0.
        -12    1    1    2    0    0 -0.44099869379E+02 -0.84371541495E+01  0.36234726805E+01  0.45045683519E+02  0.00000000000E+00 0.  1.
         11    1    3    3    0    0  0.42769722386E+01  0.46515083155E+00  0.13284885925E+01  0.45026368972E+01  0.51100000000E-03 0. -1.
        -11    1    3    3    0    0  0.25986999167E+02  0.33883188515E+01  0.11934665052E+00  0.26207233242E+02  0.51100000000E-03 0.  1.
        -12    1    3    3    0    0  0.13835897974E+02  0.45836844664E+01 -0.50713079236E+01  0.15432446342E+02  0.00000000000E+00 0.  1.
</event>
<event>
 7    1  0.1519238E-008  0.4614232E+02  0.7816164E-02  0.1320468E+00
        -11   -1    0    0    0    0  0.00000000000E+00  0.00000000000E+00  0.45593999997E+02  0.45594000000E+02  0.51100000000E-03 0. -1.
         11   -1    0    0    0    0 -0.00000000000E+00 -0.00000000000E+00 -0.45593999997E+02  0.45594000000E+02  0.51100000000E-03 0.  1.
    9900012    2    1    2    0    0  0.80932112046E+01  0.39576107233E+02 -0.19933517086E+02  0.46142318357E+02  0.10000005430E+02 0.  0.
        -12    1    1    2    0    0 -0.80932112046E+01 -0.39576107233E+02  0.19933517086E+02  0.45045681643E+02  0.00000000000E+00 0.  1.
         11    1    3    3    0    0  0.76569483362E+01  0.14155429063E+02 -0.85385477921E+01  0.18218447476E+02  0.51100000000E-03 0. -1.
        -11    1    3    3    0    0  0.94817873434E+00  0.19467766110E+02 -0.92632235756E+01  0.21580089701E+02  0.51100000000E-03 0.  1.
         12    1    3    3    0    0 -0.51191586592E+00  0.59529120607E+01 -0.21317457180E+01  0.63437811802E+01  0.00000000000E+00 0. -1.
</event>
<event>
 7    1  0.1519238E-008  0.4614231E+02  0.7816164E-02  0.1320468E+00
        -11   -1    0    0    0    0  0.00000000000E+00  0.00000000000E+00  0.45593999997E+02  0.45594000000E+02  0.51100000000E-03 0.  1.
         11   -1    0    0    0    0 -0.00000000000E+00 -0.00000000000E+00 -0.45593999997E+02  0.45594000000E+02  0.51100000000E-03 0. -1.
    9900012    2    1    2    0    0  0.16231854941E+02  0.33904366326E+01 -0.41882521614E+02  0.46142314390E+02  0.99999692576E+01 0.  0.
        -12    1    1    2    0    0 -0.16231854941E+02 -0.33904366326E+01  0.41882521614E+02  0.45045685610E+02  0.00000000000E+00 0.  1.
         11    1    3    3    0    0  0.70355657660E+01 -0.72593934928E+00 -0.15557990081E+02  0.17090267090E+02  0.51100000000E-03 0. -1.
        -11    1    3    3    0    0  0.40325699009E+01  0.17917460167E+00 -0.35687715167E+01  0.53879359632E+01  0.51100000000E-03 0.  1.
         12    1    3    3    0    0  0.51637192737E+01  0.39372013802E+01 -0.22755760016E+02  0.23664111337E+02  0.00000000000E+00 0. -1.
</event>
<event>
 7    1  0.1519238E-008  0.4614232E+02  0.7816164E-02  0.1320468E+00
        -11   -1    0    0    0    0  0.00000000000E+00  0.00000000000E+00  0.45593999997E+02  0.45594000000E+02  0.51100000000E-03 0.  1.
         11   -1    0    0    0    0 -0.00000000000E+00 -0.00000000000E+00 -0.45593999997E+02  0.45594000000E+02  0.51100000000E-03 0. -1.
    9900012    2    1    2    0    0  0.31153330477E+02  0.21458006699E+02 -0.24456848007E+02  0.46142318012E+02  0.10000002289E+02 0.  0.
        -12    1    1    2    0    0 -0.31153330477E+02 -0.21458006699E+02  0.24456848007E+02  0.45045681988E+02  0.00000000000E+00 0.  1.
         11    1    3    3    0    0  0.18158433705E+02  0.12420435155E+02 -0.14228920878E+02  0.26200345678E+02  0.51100000000E-03 0. -1.
        -11    1    3    3    0    0  0.60590237214E+00 -0.81874157359E+00 -0.16418204139E+01  0.19321050648E+01  0.51100000000E-03 0.  1.
        -12    1    3    3    0    0  0.12388994401E+02  0.98563131172E+01 -0.85861067148E+01  0.18009867269E+02  0.00000000000E+00 0.  1.
</event>
<event>
 7    1  0.1519238E-008  0.4614232E+02  0.7816164E-02  0.1320468E+00
        -11   -1    0    0    0    0  0.00000000000E+00  0.00000000000E+00  0.45593999997E+02  0.45594000000E+02  0.51100000000E-03 0.  1.
         11   -1    0    0    0    0 -0.00000000000E+00 -0.00000000000E+00 -0.45593999997E+02  0.45594000000E+02  0.51100000000E-03 0. -1.
    9900012    2    1    2    0    0  0.23523020338E+02 -0.15556492423E+02 -0.35125155822E+02  0.46142317478E+02  0.99999974210E+01 0.  0.
        -12    1    1    2    0    0 -0.23523020338E+02  0.15556492423E+02  0.35125155822E+02  0.45045682522E+02  0.00000000000E+00 0.  1.
         11    1    3    3    0    0  0.73824652539E+01 -0.33431345694E+01 -0.64601771441E+01  0.10363938970E+02  0.51100000000E-03 0. -1.
        -11    1    3    3    0    0  0.11060698396E+02 -0.11824218811E+02 -0.20068318296E+02  0.25785433854E+02  0.51100000000E-03 0.  1.
         12    1    3    3    0    0  0.50798566881E+01 -0.38913904226E+00 -0.85966603812E+01  0.99929446549E+01  0.00000000000E+00 0. -1.
</event>
<event>
 7    1  0.1519238E-008  0.4614233E+02  0.7816164E-02  0.1320468E+00
        -11   -1    0    0    0    0  0.00000000000E+00  0.00000000000E+00  0.45593999997E+02  0.45594000000E+02  0.51100000000E-03 0.  1.
         11   -1    0    0    0    0 -0.00000000000E+00 -0.00000000000E+00 -0.45593999997E+02  0.45594000000E+02  0.51100000000E-03 0. -1.
    9900012    2    1    2    0    0 -0.40586110124E+02  0.37557529685E+01 -0.19177440801E+02  0.46142331496E+02  0.10000125241E+02 0.  0.
        -12    1    1    2    0    0  0.40586110124E+02 -0.37557529685E+01  0.19177440801E+02  0.45045668504E+02  0.00000000000E+00 0.  1.
         11    1    3    3    0    0 -0.18869979701E+02  0.20121929777E+00 -0.99624025731E+01  0.21339308527E+02  0.51100000000E-03 0. -1.
        -11    1    3    3    0    0 -0.49289616889E+01  0.21675679347E+01  0.41446632688E+00  0.54004441187E+01  0.51100000000E-03 0.  1.
        -12    1    3    3    0    0 -0.16787168734E+02  0.13869657360E+01 -0.96295045543E+01  0.19402578850E+02  0.00000000000E+00 0.  1.
</event>
<event>
 7    1  0.1519238E-008  0.4614232E+02  0.7816164E-02  0.1320468E+00
        -11   -1    0    0    0    0  0.00000000000E+00  0.00000000000E+00  0.45593999997E+02  0.45594000000E+02  0.51100000000E-03 0. -1.
         11   -1    0    0    0    0 -0.00000000000E+00 -0.00000000000E+00 -0.45593999997E+02  0.45594000000E+02  0.51100000000E-03 0.  1.
    9900012    2    1    2    0    0  0.25590077784E+02 -0.29805981240E+02  0.22042341966E+02  0.46142318320E+02  0.10000005096E+02 0.  0.
        -12    1    1    2    0    0 -0.25590077784E+02  0.29805981240E+02 -0.22042341966E+02  0.45045681680E+02  0.00000000000E+00 0.  1.
         11    1    3    3    0    0  0.16203898757E+02 -0.19540797495E+02  0.17946822815E+02  0.31088543727E+02  0.51100000000E-03 0. -1.
        -11    1    3    3    0    0  0.32685459100E+01 -0.16845861449E+01 -0.17957734712E+00  0.36815039223E+01  0.51100000000E-03 0.  1.
         12    1    3    3    0    0  0.61176331172E+01 -0.85805976009E+01  0.42750964980E+01  0.11372270671E+02  0.00000000000E+00 0. -1.
</event>
<event>
 7    1  0.1519238E-008  0.4614232E+02  0.7816164E-02  0.1320468E+00
        -11   -1    0    0    0    0  0.00000000000E+00  0.00000000000E+00  0.45593999997E+02  0.45594000000E+02  0.51100000000E-03 0. -1.
         11   -1    0    0    0    0 -0.00000000000E+00 -0.00000000000E+00 -0.45593999997E+02  0.45594000000E+02  0.51100000000E-03 0.  1.
    9900012    2    1    2    0    0  0.86494214633E+01  0.99202872141E+01  0.43080029043E+02  0.46142317716E+02  0.99999995916E+01 0.  0.
        -12    1    1    2    0    0 -0.86494214633E+01 -0.99202872141E+01 -0.43080029043E+02  0.45045682284E+02  0.00000000000E+00 0.  1.
         11    1    3    3    0    0  0.69301803372E+01  0.62324085765E+01  0.18156828608E+02  0.20409329767E+02  0.51100000000E-03 0. -1.
        -11    1    3    3    0    0 -0.11152920994E+01  0.25040372072E+01  0.64833422133E+01  0.70390201959E+01  0.51100000000E-03 0.  1.
        -12    1    3    3    0    0  0.28345332256E+01  0.11838414304E+01  0.18439858221E+02  0.18693967753E+02  0.00000000000E+00 0.  1.
</event>
<event>
 7    1  0.1519238E-008  0.4614232E+02  0.7816164E-02  0.1320468E+00
        -11   -1    0    0    0    0  0.00000000000E+00  0.00000000000E+00  0.45593999997E+02  0.45594000000E+02  0.51100000000E-03 0.  1.
         11   -1    0    0    0    0 -0.00000000000E+00 -0.00000000000E+00 -0.45593999997E+02  0.45594000000E+02  0.51100000000E-03 0. -1.
    9900012    2    1    2    0    0  0.19037716759E+02  0.10032024158E+02 -0.39573189104E+02  0.46142318032E+02  0.10000002468E+02 0.  0.
        -12    1    1    2    0    0 -0.19037716759E+02 -0.10032024158E+02  0.39573189104E+02  0.45045681968E+02  0.00000000000E+00 0.  1.
         11    1    3    3    0    0  0.91267918236E+01  0.39265803431E+01 -0.11931955060E+02  0.15527005957E+02  0.51100000000E-03 0.  1.
        -11    1    3    3    0    0  0.50839328136E+01  0.49608459448E+01 -0.21923243191E+02  0.23045280594E+02  0.51100000000E-03 0. -1.
         12    1    3    3    0    0  0.48269921221E+01  0.11445978697E+01 -0.57179908527E+01  0.75700314809E+01  0.00000000000E+00 0. -1.
</event>
<event>
 7    1  0.1519238E-008  0.4614232E+02  0.7816164E-02  0.1320468E+00
        -11   -1    0    0    0    0  0.00000000000E+00  0.00000000000E+00  0.45593999997E+02  0.45594000000E+02  0.51100000000E-03 0. -1.
         11   -1    0    0    0    0 -0.00000000000E+00 -0.00000000000E+00 -0.45593999997E+02  0.45594000000E+02  0.51100000000E-03 0.  1.
    9900012    2    1    2    0    0  0.81515225068E+01  0.44297225928E+02 -0.64954819095E+00  0.46142318110E+02  0.10000003180E+02 0.  0.
        -12    1    1    2    0    0 -0.81515225068E+01 -0.44297225928E+02  0.64954819095E+00  0.45045681890E+02  0.00000000000E+00 0.  1.
         11    1    3    3    0    0  0.15672961118E+01  0.31172465277E+02 -0.53462993275E-02  0.31211841301E+02  0.51100000000E-03 0. -1.
        -11    1    3    3    0    0  0.61141004672E+01  0.99599792870E+01 -0.11473139950E+00  0.11687453764E+02  0.51100000000E-03 0.  1.
        -12    1    3    3    0    0  0.47012592778E+00  0.31647813637E+01 -0.52947049212E+00  0.32430230449E+01  0.00000000000E+00 0.  1.
</event>
<event>
 7    1  0.1519238E-008  0.4614232E+02  0.7816164E-02  0.1320468E+00
        -11   -1    0    0    0    0  0.00000000000E+00  0.00000000000E+00  0.45593999997E+02  0.45594000000E+02  0.51100000000E-03 0.  1.
         11   -1    0    0    0    0 -0.00000000000E+00 -0.00000000000E+00 -0.45593999997E+02  0.45594000000E+02  0.51100000000E-03 0. -1.
    9900012    2    1    2    0    0  0.40769991621E+02 -0.13657606545E+02 -0.13430970267E+02  0.46142318791E+02  0.10000009388E+02 0.  0.
        -12    1    1    2    0    0 -0.40769991621E+02  0.13657606545E+02  0.13430970267E+02  0.45045681209E+02  0.00000000000E+00 0.  1.
         11    1    3    3    0    0  0.14202437107E+02 -0.43410625386E+00 -0.37352956079E+01  0.14691837923E+02  0.51100000000E-03 0. -1.
        -11    1    3    3    0    0  0.22239569216E+01 -0.12006518751E+01 -0.20207035423E+01  0.32358603772E+01  0.51100000000E-03 0.  1.
         12    1    3    3    0    0  0.24343597592E+02 -0.12022848417E+02 -0.76749711173E+01  0.28214620491E+02  0.00000000000E+00 0. -1.
</event>
<event>
 7    1  0.1519238E-008  0.4614232E+02  0.7816164E-02  0.1320468E+00
        -11   -1    0    0    0    0  0.00000000000E+00  0.00000000000E+00  0.45593999997E+02  0.45594000000E+02  0.51100000000E-03 0.  1.
         11   -1    0    0    0    0 -0.00000000000E+00 -0.00000000000E+00 -0.45593999997E+02  0.45594000000E+02  0.51100000000E-03 0. -1.
    9900012    2    1    2    0    0 -0.27336143023E+02  0.31963416722E+02 -0.16130367337E+02  0.46142317916E+02  0.10000001415E+02 0.  0.
        -12    1    1    2    0    0  0.27336143023E+02 -0.31963416722E+02  0.16130367337E+02  0.45045682084E+02  0.00000000000E+00 0.  1.
         11    1    3    3    0    0 -0.46147712615E+01  0.39970945630E+01 -0.33643412622E+01  0.69707726351E+01  0.51100000000E-03 0. -1.
        -11    1    3    3    0    0  0.22246869989E+00  0.18137842477E+01 -0.20979715039E+01  0.27822275809E+01  0.51100000000E-03 0.  1.
        -12    1    3    3    0    0 -0.22943840462E+02  0.26152537912E+02 -0.10668054571E+02  0.36389317700E+02  0.00000000000E+00 0.  1.
</event>
<event>
 7    1  0.1519238E-008  0.4614232E+02  0.7816164E-02  0.1320468E+00
        -11   -1    0    0    0    0  0.00000000000E+00  0.00000000000E+00  0.45593999997E+02  0.45594000000E+02  0.51100000000E-03 0.  1.
         11   -1    0    0    0    0 -0.00000000000E+00 -0.00000000000E+00 -0.45593999997E+02  0.45594000000E+02  0.51100000000E-03 0. -1.
    9900012    2    1    2    0    0  0.18256644815E+02  0.17069898168E+02 -0.37475685143E+02  0.46142317851E+02  0.10000000815E+02 0.  0.
        -12    1    1    2    0    0 -0.18256644815E+02 -0.17069898168E+02  0.37475685143E+02  0.45045682149E+02  0.00000000000E+00 0.  1.
         11    1    3    3    0    0  0.10871576605E+02  0.81998636817E+01 -0.14797442661E+02  0.20109531368E+02  0.51100000000E-03 0. -1.
        -11    1    3    3    0    0 -0.59643498652E+00  0.13521088813E+01 -0.51479932224E+01  0.53559095959E+01  0.51100000000E-03 0.  1.
        -12    1    3    3    0    0  0.79815031967E+01  0.75179256045E+01 -0.17530249260E+02  0.20676876887E+02  0.00000000000E+00 0.  1.
</event>
<event>
 7    1  0.1519238E-008  0.4614232E+02  0.7816164E-02  0.1320468E+00
        -11   -1    0    0    0    0  0.00000000000E+00  0.00000000000E+00  0.45593999997E+02  0.45594000000E+02  0.51100000000E-03 0.  1.
         11   -1    0    0    0    0 -0.00000000000E+00 -0.00000000000E+00 -0.45593999997E+02  0.45594000000E+02  0.51100000000E-03 0. -1.
    9900012    2    1    2    0    0  0.22171090002E+02 -0.38673631862E+02 -0.64735299114E+01  0.46142316269E+02  0.99999863920E+01 0.  0.
        -12    1    1    2    0    0 -0.22171090002E+02  0.38673631862E+02  0.64735299114E+01  0.45045683731E+02  0.00000000000E+00 0.  1.
         11    1    3    3    0    0  0.17058812948E+02 -0.30530352750E+02 -0.55125507282E+01  0.35404713726E+02  0.51100000000E-03 0. -1.
        -11    1    3    3    0    0 -0.40356697850E+00 -0.33876972295E+01 -0.30531258313E+00  0.34252846391E+01  0.51100000000E-03 0.  1.
         12    1    3    3    0    0  0.55158440322E+01 -0.47555818833E+01 -0.65566660009E+00  0.73123179038E+01  0.00000000000E+00 0. -1.
</event>
<event>
 7    1  0.1519238E-008  0.4614232E+02  0.7816164E-02  0.1320468E+00
        -11   -1    0    0    0    0  0.00000000000E+00  0.00000000000E+00  0.45593999997E+02  0.45594000000E+02  0.51100000000E-03 0.  1.
         11   -1    0    0    0    0 -0.00000000000E+00 -0.00000000000E+00 -0.45593999997E+02  0.45594000000E+02  0.51100000000E-03 0. -1.
    9900012    2    1    2    0    0 -0.14910808144E+02  0.42493848693E+02 -0.10266845038E+01  0.46142318106E+02  0.10000003141E+02 0.  0.
        -12    1    1    2    0    0  0.14910808144E+02 -0.42493848693E+02  0.10266845038E+01  0.45045681894E+02  0.00000000000E+00 0.  1.
         11    1    3    3    0    0 -0.24165761867E+01  0.77044717333E+01 -0.15238641596E+01  0.82171094305E+01  0.51100000000E-03 0. -1.
        -11    1    3    3    0    0 -0.40774446351E+01  0.67863006623E+01 -0.30206881109E+01  0.84737234056E+01  0.51100000000E-03 0.  1.
        -12    1    3    3    0    0 -0.84167873224E+01  0.28003076298E+02  0.35178677667E+01  0.29451485269E+02  0.00000000000E+00 0.  1.
</event>
<event>
 7    1  0.1519238E-008  0.4614232E+02  0.7816164E-02  0.1320468E+00
        -11   -1    0    0    0    0  0.00000000000E+00  0.00000000000E+00  0.45593999997E+02  0.45594000000E+02  0.51100000000E-03 0.  1.
         11   -1    0    0    0    0 -0.00000000000E+00 -0.00000000000E+00 -0.45593999997E+02  0.45594000000E+02  0.51100000000E-03 0. -1.
    9900012    2    1    2    0    0 -0.36066810942E+02 -0.20109701258E+02 -0.17997182549E+02  0.46142317455E+02  0.99999972092E+01 0.  0.
        -12    1    1    2    0    0  0.36066810942E+02  0.20109701258E+02  0.17997182549E+02  0.45045682545E+02  0.00000000000E+00 0.  1.
         11    1    3    3    0    0 -0.23944272666E+02 -0.13891739766E+02 -0.14302403092E+02  0.31158744546E+02  0.51100000000E-03 0. -1.
        -11    1    3    3    0    0 -0.53264558666E+01 -0.54746681343E+01 -0.13540626712E+01  0.77573583943E+01  0.51100000000E-03 0.  1.
         12    1    3    3    0    0 -0.67960824097E+01 -0.74329335716E+00 -0.23407167861E+01  0.72262145144E+01  0.00000000000E+00 0. -1.
</event>
<event>
 7    1  0.1519238E-008  0.4614232E+02  0.7816164E-02  0.1320468E+00
        -11   -1    0    0    0    0  0.00000000000E+00  0.00000000000E+00  0.45593999997E+02  0.45594000000E+02  0.51100000000E-03 0.  1.
         11   -1    0    0    0    0 -0.00000000000E+00 -0.00000000000E+00 -0.45593999997E+02  0.45594000000E+02  0.51100000000E-03 0. -1.
    9900012    2    1    2    0    0  0.22578272364E+02  0.29255402456E+02 -0.25757652590E+02  0.46142316269E+02  0.99999863960E+01 0.  0.
        -12    1    1    2    0    0 -0.22578272364E+02 -0.29255402456E+02  0.25757652590E+02  0.45045683731E+02  0.00000000000E+00 0.  1.
         11    1    3    3    0    0  0.23999781121E+01  0.55176209766E+01 -0.17227679700E+01  0.62587511469E+01  0.51100000000E-03 0. -1.
        -11    1    3    3    0    0  0.10746460503E+02  0.82804139965E+01 -0.83734791575E+01  0.15942610287E+02  0.51100000000E-03 0.  1.
        -12    1    3    3    0    0  0.94318337493E+01  0.15457367483E+02 -0.15661405463E+02  0.23940954836E+02  0.00000000000E+00 0.  1.
</event>
<event>
 7    1  0.1519238E-008  0.4614232E+02  0.7816164E-02  0.1320468E+00
        -11   -1    0    0    0    0  0.00000000000E+00  0.00000000000E+00  0.45593999997E+02  0.45594000000E+02  0.51100000000E-03 0.  1.
         11   -1    0    0    0    0 -0.00000000000E+00 -0.00000000000E+00 -0.45593999997E+02  0.45594000000E+02  0.51100000000E-03 0. -1.
    9900012    2    1    2    0    0 -0.43762688076E+02  0.49944790235E+01 -0.94337644054E+01  0.46142316531E+02  0.99999887786E+01 0.  0.
        -12    1    1    2    0    0  0.43762688076E+02 -0.49944790235E+01  0.94337644054E+01  0.45045683469E+02  0.00000000000E+00 0.  1.
         11    1    3    3    0    0 -0.29830084417E+02  0.71968511553E+01 -0.37476896247E+01  0.30913973874E+02  0.51100000000E-03 0. -1.
        -11    1    3    3    0    0 -0.54900272650E+01 -0.11125034410E+01 -0.25737612442E+01  0.61646014048E+01  0.51100000000E-03 0.  1.
         12    1    3    3    0    0 -0.84425763942E+01 -0.10898686907E+01 -0.31123135365E+01  0.90637412521E+01  0.00000000000E+00 0. -1.
</event>
<event>
 7    1  0.1519238E-008  0.4614232E+02  0.7816164E-02  0.1320468E+00
        -11   -1    0    0    0    0  0.00000000000E+00  0.00000000000E+00  0.45593999997E+02  0.45594000000E+02  0.51100000000E-03 0.  1.
         11   -1    0    0    0    0 -0.00000000000E+00 -0.00000000000E+00 -0.45593999997E+02  0.45594000000E+02  0.51100000000E-03 0. -1.
    9900012    2    1    2    0    0 -0.11611694034E+02 -0.51264849717E+01 -0.43220379660E+02  0.46142317582E+02  0.99999983708E+01 0.  0.
        -12    1    1    2    0    0  0.11611694034E+02  0.51264849717E+01  0.43220379660E+02  0.45045682418E+02  0.00000000000E+00 0.  1.
         11    1    3    3    0    0 -0.40941526002E+01  0.12070528459E+01 -0.49882862271E+01  0.65652160537E+01  0.51100000000E-03 0.  1.
        -11    1    3    3    0    0 -0.65483859711E+01 -0.65189014785E+01 -0.34831948116E+02  0.36036676388E+02  0.51100000000E-03 0. -1.
         12    1    3    3    0    0 -0.96915546260E+00  0.18536366088E+00 -0.34001453171E+01  0.35404251404E+01  0.00000000000E+00 0. -1.
</event>
<event>
 7    1  0.1519238E-008  0.4614232E+02  0.7816164E-02  0.1320468E+00
        -11   -1    0    0    0    0  0.00000000000E+00  0.00000000000E+00  0.45593999997E+02  0.45594000000E+02  0.51100000000E-03 0.  1.
         11   -1    0    0    0    0 -0.00000000000E+00 -0.00000000000E+00 -0.45593999997E+02  0.45594000000E+02  0.51100000000E-03 0. -1.
    9900012    2    1    2    0    0  0.38033838690E+02  0.14670470901E+02 -0.19165538863E+02  0.46142317833E+02  0.10000000657E+02 0.  0.
        -12    1    1    2    0    0 -0.38033838690E+02 -0.14670470901E+02  0.19165538863E+02  0.45045682167E+02  0.00000000000E+00 0.  1.
         11    1    3    3    0    0  0.95588313160E+01  0.66243200064E+01 -0.36976050894E+01  0.12203489474E+02  0.51100000000E-03 0. -1.
        -11    1    3    3    0    0  0.10739634873E+02  0.14073154328E-01 -0.54872486756E+01  0.12060259266E+02  0.51100000000E-03 0.  1.
        -12    1    3    3    0    0  0.17735372500E+02  0.80320777408E+01 -0.99806850984E+01  0.21878569094E+02  0.00000000000E+00 0.  1.
</event>
<event>
 7    1  0.1519238E-008  0.4614232E+02  0.7816164E-02  0.1320468E+00
        -11   -1    0    0    0    0  0.00000000000E+00  0.00000000000E+00  0.45593999997E+02  0.45594000000E+02  0.51100000000E-03 0. -1.
         11   -1    0    0    0    0 -0.00000000000E+00 -0.00000000000E+00 -0.45593999997E+02  0.45594000000E+02  0.51100000000E-03 0.  1.
    9900012    2    1    2    0    0 -0.10542404605E+01  0.47768280806E+01  0.44779280475E+02  0.46142317972E+02  0.10000001925E+02 0.  0.
        -12    1    1    2    0    0  0.10542404605E+01 -0.47768280806E+01 -0.44779280475E+02  0.45045682028E+02  0.00000000000E+00 0.  1.
         11    1    3    3    0    0 -0.37617708170E+01  0.15538326401E+01  0.36818796904E+02  0.37043071164E+02  0.51100000000E-03 0. -1.
        -11    1    3    3    0    0  0.93414941599E+00  0.32038080937E+00  0.14605359105E+01  0.17630781042E+01  0.51100000000E-03 0.  1.
         12    1    3    3    0    0  0.17733809405E+01  0.29026146312E+01  0.64999476605E+01  0.73361687036E+01  0.00000000000E+00 0. -1.
</event>
<event>
 7    1  0.1519238E-008  0.4614232E+02  0.7816164E-02  0.1320468E+00
        -11   -1    0    0    0    0  0.00000000000E+00  0.00000000000E+00  0.45593999997E+02  0.45594000000E+02  0.51100000000E-03 0.  1.
         11   -1    0    0    0    0 -0.00000000000E+00 -0.00000000000E+00 -0.45593999997E+02  0.45594000000E+02  0.51100000000E-03 0. -1.
    9900012    2    1    2    0    0  0.48897453460E+01  0.42793453998E+02  0.13188034171E+02  0.46142316967E+02  0.99999927569E+01 0.  0.
        -12    1    1    2    0    0 -0.48897453460E+01 -0.42793453998E+02 -0.13188034171E+02  0.45045683033E+02  0.00000000000E+00 0.  1.
         11    1    3    3    0    0  0.55360617791E+01  0.29041434249E+02  0.70083789113E+01  0.30383716996E+02  0.51100000000E-03 0. -1.
        -11    1    3    3    0    0 -0.21305571490E+01  0.10146369968E+02  0.31968077202E+01  0.10849316898E+02  0.51100000000E-03 0.  1.
         12    1    3    3    0    0  0.14842407160E+01  0.36056497811E+01  0.29828475394E+01  0.49092830729E+01  0.00000000000E+00 0. -1.
</event>
<event>
 7    1  0.1519238E-008  0.4614232E+02  0.7816164E-02  0.1320468E+00
        -11   -1    0    0    0    0  0.00000000000E+00  0.00000000000E+00  0.45593999997E+02  0.45594000000E+02  0.51100000000E-03 0.  1.
         11   -1    0    0    0    0 -0.00000000000E+00 -0.00000000000E+00 -0.45593999997E+02  0.45594000000E+02  0.51100000000E-03 0. -1.
    9900012    2    1    2    0    0  0.82689836010E+01 -0.35941237735E+02 -0.25864355242E+02  0.46142317279E+02  0.99999956037E+01 0.  0.
        -12    1    1    2    0    0 -0.82689836010E+01  0.35941237735E+02  0.25864355242E+02  0.45045682721E+02  0.00000000000E+00 0.  1.
         11    1    3    3    0    0  0.17428867593E+00 -0.11101566827E+02 -0.55253821228E+01  0.12401814803E+02  0.51100000000E-03 0.  1.
        -11    1    3    3    0    0  0.88957542141E+01 -0.19509015836E+02 -0.17314105870E+02  0.27559288893E+02  0.51100000000E-03 0. -1.
         12    1    3    3    0    0 -0.80105928906E+00 -0.53306550726E+01 -0.30248672487E+01  0.61812135831E+01  0.00000000000E+00 0. -1.
</event>
<event>
 7    1  0.1519238E-008  0.4614232E+02  0.7816164E-02  0.1320468E+00
        -11   -1    0    0    0    0  0.00000000000E+00  0.00000000000E+00  0.45593999997E+02  0.45594000000E+02  0.51100000000E-03 0. -1.
         11   -1    0    0    0    0 -0.00000000000E+00 -0.00000000000E+00 -0.45593999997E+02  0.45594000000E+02  0.51100000000E-03 0.  1.
    9900012    2    1    2    0    0  0.98920393574E+01  0.36954204871E+02  0.23783351602E+02  0.46142317480E+02  0.99999974356E+01 0.  0.
        -12    1    1    2    0    0 -0.98920393574E+01 -0.36954204871E+02 -0.23783351602E+02  0.45045682520E+02  0.00000000000E+00 0.  1.
         11    1    3    3    0    0  0.94597063243E+00  0.18323843471E+02  0.12021456636E+02  0.21935667756E+02  0.51100000000E-03 0. -1.
        -11    1    3    3    0    0  0.80989223587E+01  0.13742822685E+02  0.10469735976E+02  0.19080699421E+02  0.51100000000E-03 0.  1.
         12    1    3    3    0    0  0.84714636628E+00  0.48875387144E+01  0.12921589899E+01  0.51259503027E+01  0.00000000000E+00 0. -1.
</event>
<event>
 7    1  0.1519238E-008  0.4614232E+02  0.7816164E-02  0.1320468E+00
        -11   -1    0    0    0    0  0.00000000000E+00  0.00000000000E+00  0.45593999997E+02  0.45594000000E+02  0.51100000000E-03 0. -1.
         11   -1    0    0    0    0 -0.00000000000E+00 -0.00000000000E+00 -0.45593999997E+02  0.45594000000E+02  0.51100000000E-03 0.  1.
    9900012    2    1    2    0    0  0.24876555198E+02  0.35406161134E+02 -0.12516956082E+02  0.46142318361E+02  0.10000005469E+02 0.  0.
        -12    1    1    2    0    0 -0.24876555198E+02 -0.35406161134E+02  0.12516956082E+02  0.45045681639E+02  0.00000000000E+00 0.  1.
         11    1    3    3    0    0  0.76550069574E+01  0.10055294504E+02 -0.72031052040E+01  0.14546229887E+02  0.51100000000E-03 0. -1.
        -11    1    3    3    0    0  0.42722057415E+01  0.50800542704E+01  0.10362773664E+01  0.67180774281E+01  0.51100000000E-03 0.  1.
         12    1    3    3    0    0  0.12949342499E+02  0.20270812360E+02 -0.63501282445E+01  0.24878011046E+02  0.00000000000E+00 0. -1.
</event>
<event>
 7    1  0.1629179E-008  0.4614232E+02  0.7816164E-02  0.1320468E+00
        -11   -1    0    0    0    0  0.00000000000E+00  0.00000000000E+00  0.45593999997E+02  0.45594000000E+02  0.51100000000E-03 0.  1.
         11   -1    0    0    0    0 -0.00000000000E+00 -0.00000000000E+00 -0.45593999997E+02  0.45594000000E+02  0.51100000000E-03 0. -1.
    9900012    2    1    2    0    0  0.13997388259E+02 -0.37362076277E+02 -0.20910807398E+02  0.46142317767E+02  0.10000000053E+02 0.  0.
        -12    1    1    2    0    0 -0.13997388259E+02  0.37362076277E+02  0.20910807398E+02  0.45045682233E+02  0.00000000000E+00 0.  1.
         11    1    3    3    0    0  0.11078394512E+02 -0.28584735160E+02 -0.15463438736E+02  0.34335635234E+02  0.51100000000E-03 0. -1.
        -11    1    3    3    0    0 -0.83600507378E+00  0.67002486551E-01 -0.21446810048E+00  0.86567352035E+00  0.51100000000E-03 0.  1.
        -12    1    3    3    0    0  0.37549988205E+01 -0.88443436031E+01 -0.52329005625E+01  0.10941009012E+02  0.00000000000E+00 0.  1.
</event>
<event>
 7    1  0.1519238E-008  0.4614232E+02  0.7816164E-02  0.1320468E+00
        -11   -1    0    0    0    0  0.00000000000E+00  0.00000000000E+00  0.45593999997E+02  0.45594000000E+02  0.51100000000E-03 0. -1.
         11   -1    0    0    0    0 -0.00000000000E+00 -0.00000000000E+00 -0.45593999997E+02  0.45594000000E+02  0.51100000000E-03 0.  1.
    9900012    2    1    2    0    0 -0.88952879660E-01 -0.36382452734E+02  0.26559795207E+02  0.46142317621E+02  0.99999987217E+01 0.  0.
        -12    1    1    2    0    0  0.88952879660E-01  0.36382452734E+02 -0.26559795207E+02  0.45045682379E+02  0.00000000000E+00 0.  1.
         11    1    3    3    0    0  0.18466546846E+01 -0.39320452453E+01  0.42501214199E+01  0.60773880640E+01  0.51100000000E-03 0. -1.
        -11    1    3    3    0    0  0.14290948342E+01 -0.15334598469E+01  0.76348740755E+00  0.22308573307E+01  0.51100000000E-03 0.  1.
        -12    1    3    3    0    0 -0.33647023985E+01 -0.30916947642E+02  0.21546186380E+02  0.37834072226E+02  0.00000000000E+00 0.  1.
</event>
<event>
 7    1  0.1519238E-008  0.4614232E+02  0.7816164E-02  0.1320468E+00
        -11   -1    0    0    0    0  0.00000000000E+00  0.00000000000E+00  0.45593999997E+02  0.45594000000E+02  0.51100000000E-03 0.  1.
         11   -1    0    0    0    0 -0.00000000000E+00 -0.00000000000E+00 -0.45593999997E+02  0.45594000000E+02  0.51100000000E-03 0. -1.
    9900012    2    1    2    0    0 -0.19320634015E+02 -0.19702564762E+02 -0.35603867487E+02  0.46142319442E+02  0.10000015324E+02 0.  0.
        -12    1    1    2    0    0  0.19320634015E+02  0.19702564762E+02  0.35603867487E+02  0.45045680558E+02  0.00000000000E+00 0.  1.
         11    1    3    3    0    0 -0.86706895897E+01 -0.11358512536E+02 -0.19883851844E+02  0.24486000682E+02  0.51100000000E-03 0. -1.
        -11    1    3    3    0    0 -0.56259439744E+01 -0.50677370469E+01 -0.41759153047E+01  0.86470499751E+01  0.51100000000E-03 0.  1.
        -12    1    3    3    0    0 -0.50240004506E+01 -0.32763151790E+01 -0.11544100338E+02  0.13009268784E+02  0.00000000000E+00 0.  1.
</event>
<event>
 7    1  0.1519238E-008  0.4614232E+02  0.7816164E-02  0.1320468E+00
        -11   -1    0    0    0    0  0.00000000000E+00  0.00000000000E+00  0.45593999997E+02  0.45594000000E+02  0.51100000000E-03 0.  1.
         11   -1    0    0    0    0 -0.00000000000E+00 -0.00000000000E+00 -0.45593999997E+02  0.45594000000E+02  0.51100000000E-03 0. -1.
    9900012    2    1    2    0    0  0.96825362777E+01 -0.42351348882E+02 -0.11904839523E+02  0.46142318021E+02  0.10000002366E+02 0.  0.
        -12    1    1    2    0    0 -0.96825362777E+01  0.42351348882E+02  0.11904839523E+02  0.45045681979E+02  0.00000000000E+00 0.  1.
         11    1    3    3    0    0  0.64161367545E+01 -0.18367952854E+02 -0.88567548982E+01  0.21377338714E+02  0.51100000000E-03 0. -1.
        -11    1    3    3    0    0  0.16620314581E+01 -0.53854447552E+01  0.83717063992E+00  0.56979135410E+01  0.51100000000E-03 0.  1.
         12    1    3    3    0    0  0.16043680652E+01 -0.18597951273E+02 -0.38852552650E+01  0.19067065766E+02  0.00000000000E+00 0. -1.
</event>
<event>
 7    1  0.1519238E-008  0.4614232E+02  0.7816164E-02  0.1320468E+00
        -11   -1    0    0    0    0  0.00000000000E+00  0.00000000000E+00  0.45593999997E+02  0.45594000000E+02  0.51100000000E-03 0.  1.
         11   -1    0    0    0    0 -0.00000000000E+00 -0.00000000000E+00 -0.45593999997E+02  0.45594000000E+02  0.51100000000E-03 0. -1.
    9900012    2    1    2    0    0  0.31223564144E+02  0.16565306440E+02 -0.27924775027E+02  0.46142318791E+02  0.10000009392E+02 0.  0.
        -12    1    1    2    0    0 -0.31223564144E+02 -0.16565306440E+02  0.27924775027E+02  0.45045681209E+02  0.00000000000E+00 0.  1.
         11    1    3    3    0    0  0.64156255315E+01  0.36342609640E+01 -0.10445316134E+02  0.12785645588E+02  0.51100000000E-03 0. -1.
        -11    1    3    3    0    0  0.21278877392E+01 -0.24185768700E+00 -0.86848500883E+00  0.23109884992E+01  0.51100000000E-03 0.  1.
         12    1    3    3    0    0  0.22680050873E+02  0.13172903163E+02 -0.16610973884E+02  0.31045684704E+02  0.00000000000E+00 0. -1.
</event>
<event>
 7    1  0.1519238E-008  0.4614230E+02  0.7816164E-02  0.1320468E+00
        -11   -1    0    0    0    0  0.00000000000E+00  0.00000000000E+00  0.45593999997E+02  0.45594000000E+02  0.51100000000E-03 0. -1.
         11   -1    0    0    0    0 -0.00000000000E+00 -0.00000000000E+00 -0.45593999997E+02  0.45594000000E+02  0.51100000000E-03 0.  1.
    9900012    2    1    2    0    0  0.41688359140E+02 -0.15180478279E+02  0.77941353284E+01  0.46142303712E+02  0.99998718860E+01 0.  0.
        -12    1    1    2    0    0 -0.41688359140E+02  0.15180478279E+02 -0.77941353284E+01  0.45045696288E+02  0.00000000000E+00 0.  1.
         11    1    3    3    0    0  0.15676457943E+02 -0.26479527509E+01  0.57846596973E+01  0.16918193623E+02  0.51100000000E-03 0. -1.
        -11    1    3    3    0    0  0.20041151385E+02 -0.77174700087E+01  0.11635084671E+01  0.21507227725E+02  0.51100000000E-03 0.  1.
        -12    1    3    3    0    0  0.59707498120E+01 -0.48150555196E+01  0.84596716405E+00  0.77168823638E+01  0.00000000000E+00 0.  1.
</event>
<event>
 7    1  0.1519238E-008  0.4614232E+02  0.7816164E-02  0.1320468E+00
        -11   -1    0    0    0    0  0.00000000000E+00  0.00000000000E+00  0.45593999997E+02  0.45594000000E+02  0.51100000000E-03 0.  1.
         11   -1    0    0    0    0 -0.00000000000E+00 -0.00000000000E+00 -0.45593999997E+02  0.45594000000E+02  0.51100000000E-03 0. -1.
    9900012    2    1    2    0    0 -0.39470400635E+02 -0.21699912070E+02 -0.56100639168E+00  0.46142318317E+02  0.10000005070E+02 0.  0.
        -12    1    1    2    0    0  0.39470400635E+02  0.21699912070E+02  0.56100639168E+00  0.45045681683E+02  0.00000000000E+00 0.  1.
         11    1    3    3    0    0 -0.17424490582E+02 -0.15158507479E+02  0.29534356523E+00  0.23097195698E+02  0.51100000000E-03 0. -1.
        -11    1    3    3    0    0 -0.21045403604E+02 -0.64415182276E+01 -0.98660516922E+00  0.22031240545E+02  0.51100000000E-03 0.  1.
         12    1    3    3    0    0 -0.10005064493E+01 -0.99886363380E-01  0.13025521232E+00  0.10138820745E+01  0.00000000000E+00 0. -1.
</event>
<event>
 7    1  0.1519238E-008  0.4614232E+02  0.7816164E-02  0.1320468E+00
        -11   -1    0    0    0    0  0.00000000000E+00  0.00000000000E+00  0.45593999997E+02  0.45594000000E+02  0.51100000000E-03 0.  1.
         11   -1    0    0    0    0 -0.00000000000E+00 -0.00000000000E+00 -0.45593999997E+02  0.45594000000E+02  0.51100000000E-03 0. -1.
    9900012    2    1    2    0    0 -0.32484538893E+02 -0.23476502929E+02 -0.20560206182E+02  0.46142317242E+02  0.99999952680E+01 0.  0.
        -12    1    1    2    0    0  0.32484538893E+02  0.23476502929E+02  0.20560206182E+02  0.45045682758E+02  0.00000000000E+00 0.  1.
         11    1    3    3    0    0 -0.57071004636E+01 -0.33515836450E+01 -0.14620260341E+01  0.67780254512E+01  0.51100000000E-03 0. -1.
        -11    1    3    3    0    0 -0.19409854800E+02 -0.14338991191E+02 -0.17621068905E+02  0.29880615813E+02  0.51100000000E-03 0.  1.
        -12    1    3    3    0    0 -0.73675836300E+01 -0.57859280929E+01 -0.14771112429E+01  0.94836759785E+01  0.00000000000E+00 0.  1.
</event>
<event>
 7    1  0.1519238E-008  0.4614232E+02  0.7816164E-02  0.1320468E+00
        -11   -1    0    0    0    0  0.00000000000E+00  0.00000000000E+00  0.45593999997E+02  0.45594000000E+02  0.51100000000E-03 0.  1.
         11   -1    0    0    0    0 -0.00000000000E+00 -0.00000000000E+00 -0.45593999997E+02  0.45594000000E+02  0.51100000000E-03 0. -1.
    9900012    2    1    2    0    0  0.21089308168E+02  0.73890408499E+00 -0.39797092887E+02  0.46142317627E+02  0.99999987743E+01 0.  0.
        -12    1    1    2    0    0 -0.21089308168E+02 -0.73890408499E+00  0.39797092887E+02  0.45045682373E+02  0.00000000000E+00 0.  1.
         11    1    3    3    0    0  0.13913639458E+02 -0.30060011439E+01 -0.30358285620E+02  0.33529851056E+02  0.51100000000E-03 0. -1.
        -11    1    3    3    0    0  0.34123984455E+01  0.29078530407E+01 -0.55778688338E+01  0.71563044545E+01  0.51100000000E-03 0.  1.
         12    1    3    3    0    0  0.37632702642E+01  0.83705218817E+00 -0.38609384334E+01  0.54561621158E+01  0.00000000000E+00 0. -1.
</event>
<event>
 7    1  0.1519238E-008  0.4614232E+02  0.7816164E-02  0.1320468E+00
        -11   -1    0    0    0    0  0.00000000000E+00  0.00000000000E+00  0.45593999997E+02  0.45594000000E+02  0.51100000000E-03 0. -1.
         11   -1    0    0    0    0 -0.00000000000E+00 -0.00000000000E+00 -0.45593999997E+02  0.45594000000E+02  0.51100000000E-03 0.  1.
    9900012    2    1    2    0    0  0.33289130015E+02  0.28323422948E+02  0.10896377188E+02  0.46142317626E+02  0.99999987711E+01 0.  0.
        -12    1    1    2    0    0 -0.33289130015E+02 -0.28323422948E+02 -0.10896377188E+02  0.45045682374E+02  0.00000000000E+00 0.  1.
         11    1    3    3    0    0  0.11727355864E+02  0.64428529060E+01  0.63307538685E+01  0.14802691442E+02  0.51100000000E-03 0. -1.
        -11    1    3    3    0    0  0.18147596436E+00 -0.10525672592E+00 -0.21658529673E+00  0.30153267795E+00  0.51100000000E-03 0.  1.
         12    1    3    3    0    0  0.21380298187E+02  0.21985826768E+02  0.47822086160E+01  0.31038093506E+02  0.00000000000E+00 0. -1.
</event>
<event>
 7    1  0.1519238E-008  0.4614232E+02  0.7816164E-02  0.1320468E+00
        -11   -1    0    0    0    0  0.00000000000E+00  0.00000000000E+00  0.45593999997E+02  0.45594000000E+02  0.51100000000E-03 0.  1.
         11   -1    0    0    0    0 -0.00000000000E+00 -0.00000000000E+00 -0.45593999997E+02  0.45594000000E+02  0.51100000000E-03 0. -1.
    9900012    2    1    2    0    0  0.19357960646E+02  0.33398804329E+01 -0.40536742713E+02  0.46142323721E+02  0.10000054348E+02 0.  0.
        -12    1    1    2    0    0 -0.19357960646E+02 -0.33398804329E+01  0.40536742713E+02  0.45045676279E+02  0.00000000000E+00 0.  1.
         11    1    3    3    0    0  0.85632811785E+01  0.19317893140E+01 -0.11403750328E+02  0.14391216637E+02  0.51100000000E-03 0. -1.
        -11    1    3    3    0    0  0.62408308926E+01 -0.19943322918E+01 -0.11634260962E+02  0.13352204309E+02  0.51100000000E-03 0.  1.
         12    1    3    3    0    0  0.45538485745E+01  0.34024234107E+01 -0.17498731423E+02  0.18398902775E+02  0.00000000000E+00 0. -1.
</event>
<event>
 7    1  0.1519238E-008  0.4614232E+02  0.7816164E-02  0.1320468E+00
        -11   -1    0    0    0    0  0.00000000000E+00  0.00000000000E+00  0.45593999997E+02  0.45594000000E+02  0.51100000000E-03 0.  1.
         11   -1    0    0    0    0 -0.00000000000E+00 -0.00000000000E+00 -0.45593999997E+02  0.45594000000E+02  0.51100000000E-03 0. -1.
    9900012    2    1    2    0    0  0.30575361481E+02 -0.29648535525E+02 -0.14670554223E+02  0.46142317080E+02  0.99999937902E+01 0.  0.
        -12    1    1    2    0    0 -0.30575361481E+02  0.29648535525E+02  0.14670554223E+02  0.45045682920E+02  0.00000000000E+00 0.  1.
         11    1    3    3    0    0  0.13609487124E+02 -0.13428648667E+02 -0.27757177793E+01  0.19319714134E+02  0.51100000000E-03 0. -1.
        -11    1    3    3    0    0  0.42825219237E+01 -0.70405092062E+01 -0.55162788639E+01  0.99165566945E+01  0.51100000000E-03 0.  1.
        -12    1    3    3    0    0  0.12683352434E+02 -0.91793776522E+01 -0.63785575799E+01  0.16906046251E+02  0.00000000000E+00 0.  1.
</event>
<event>
 7    1  0.1519238E-008  0.4614232E+02  0.7816164E-02  0.1320468E+00
        -11   -1    0    0    0    0  0.00000000000E+00  0.00000000000E+00  0.45593999997E+02  0.45594000000E+02  0.51100000000E-03 0.  1.
         11   -1    0    0    0    0 -0.00000000000E+00 -0.00000000000E+00 -0.45593999997E+02  0.45594000000E+02  0.51100000000E-03 0. -1.
    9900012    2    1    2    0    0 -0.29691667056E+02  0.33170960980E+02 -0.68706497015E+01  0.46142316830E+02  0.99999915077E+01 0.  0.
        -12    1    1    2    0    0  0.29691667056E+02 -0.33170960980E+02  0.68706497015E+01  0.45045683170E+02  0.00000000000E+00 0.  1.
         11    1    3    3    0    0 -0.18490635291E+02  0.22685067625E+02 -0.67174803045E+01  0.30027328028E+02  0.51100000000E-03 0. -1.
        -11    1    3    3    0    0 -0.14203922065E+01  0.45750407743E+00  0.13680392344E+01  0.20244395791E+01  0.51100000000E-03 0.  1.
        -12    1    3    3    0    0 -0.97806395591E+01  0.10028389278E+02 -0.15212086315E+01  0.14090549223E+02  0.00000000000E+00 0.  1.
</event>
<event>
 7    1  0.1519238E-008  0.4614232E+02  0.7816164E-02  0.1320468E+00
        -11   -1    0    0    0    0  0.00000000000E+00  0.00000000000E+00  0.45593999997E+02  0.45594000000E+02  0.51100000000E-03 0.  1.
         11   -1    0    0    0    0 -0.00000000000E+00 -0.00000000000E+00 -0.45593999997E+02  0.45594000000E+02  0.51100000000E-03 0. -1.
    9900012    2    1    2    0    0 -0.37141436282E+02 -0.19754369413E+02 -0.16105655638E+02  0.46142317149E+02  0.99999944197E+01 0.  0.
        -12    1    1    2    0    0  0.37141436282E+02  0.19754369413E+02  0.16105655638E+02  0.45045682851E+02  0.00000000000E+00 0.  1.
         11    1    3    3    0    0 -0.17934888249E+02 -0.80244611143E+01 -0.10021851631E+02  0.22056511580E+02  0.51100000000E-03 0. -1.
        -11    1    3    3    0    0 -0.76858235806E+01 -0.20812136858E+01 -0.40118637656E+01  0.89161867215E+01  0.51100000000E-03 0.  1.
        -12    1    3    3    0    0 -0.11520724452E+02 -0.96486946127E+01 -0.20719402411E+01  0.15169618848E+02  0.00000000000E+00 0.  1.
</event>
<event>
 7    1  0.1519238E-008  0.4614232E+02  0.7816164E-02  0.1320468E+00
        -11   -1    0    0    0    0  0.00000000000E+00  0.00000000000E+00  0.45593999997E+02  0.45594000000E+02  0.51100000000E-03 0.  1.
         11   -1    0    0    0    0 -0.00000000000E+00 -0.00000000000E+00 -0.45593999997E+02  0.45594000000E+02  0.51100000000E-03 0. -1.
    9900012    2    1    2    0    0 -0.38309405427E+01 -0.74161911798E+01 -0.44265532258E+02  0.46142319373E+02  0.10000014699E+02 0.  0.
        -12    1    1    2    0    0  0.38309405427E+01  0.74161911798E+01  0.44265532258E+02  0.45045680627E+02  0.00000000000E+00 0.  1.
         11    1    3    3    0    0 -0.16115613443E+01 -0.19058434249E+01 -0.36715673064E+01  0.44395693342E+01  0.51100000000E-03 0. -1.
        -11    1    3    3    0    0  0.59749816522E-01 -0.38560166851E-01  0.33719998463E+00  0.34461720474E+00  0.51100000000E-03 0.  1.
        -12    1    3    3    0    0 -0.22791290149E+01 -0.54717875881E+01 -0.40931164936E+02  0.41358132834E+02  0.00000000000E+00 0.  1.
</event>
<event>
 7    1  0.1519238E-008  0.4614232E+02  0.7816164E-02  0.1320468E+00
        -11   -1    0    0    0    0  0.00000000000E+00  0.00000000000E+00  0.45593999997E+02  0.45594000000E+02  0.51100000000E-03 0.  1.
         11   -1    0    0    0    0 -0.00000000000E+00 -0.00000000000E+00 -0.45593999997E+02  0.45594000000E+02  0.51100000000E-03 0. -1.
    9900012    2    1    2    0    0 -0.39180019803E+02  0.22223855127E+02  0.37385036512E+00  0.46142318158E+02  0.10000003623E+02 0.  0.
        -12    1    1    2    0    0  0.39180019803E+02 -0.22223855127E+02 -0.37385036512E+00  0.45045681842E+02  0.00000000000E+00 0.  1.
         11    1    3    3    0    0 -0.52253474770E+01 -0.47131842136E+00 -0.30908862468E-01  0.52466515921E+01  0.51100000000E-03 0.  1.
        -11    1    3    3    0    0 -0.12504820631E+02  0.92619824110E+01 -0.51628024296E+00  0.15569887692E+02  0.51100000000E-03 0. -1.
        -12    1    3    3    0    0 -0.21449851695E+02  0.13433191137E+02  0.92103947054E+00  0.25325778874E+02  0.00000000000E+00 0.  1.
</event>
<event>
 7    1  0.1519238E-008  0.4614231E+02  0.7816164E-02  0.1320468E+00
        -11   -1    0    0    0    0  0.00000000000E+00  0.00000000000E+00  0.45593999997E+02  0.45594000000E+02  0.51100000000E-03 0.  1.
         11   -1    0    0    0    0 -0.00000000000E+00 -0.00000000000E+00 -0.45593999997E+02  0.45594000000E+02  0.51100000000E-03 0. -1.
    9900012    2    1    2    0    0  0.16895822044E+01  0.12726486672E+02 -0.43177493898E+02  0.46142310635E+02  0.99999350171E+01 0.  0.
        -12    1    1    2    0    0 -0.16895822044E+01 -0.12726486672E+02  0.43177493898E+02  0.45045689365E+02  0.00000000000E+00 0.  1.
         11    1    3    3    0    0 -0.29736959986E+01  0.49347374842E+01 -0.20280406596E+02  0.21082917110E+02  0.51100000000E-03 0. -1.
        -11    1    3    3    0    0  0.56037559521E+00  0.41806366884E+01 -0.62680642133E+01  0.75551554035E+01  0.51100000000E-03 0.  1.
         12    1    3    3    0    0  0.41029026078E+01  0.36111124990E+01 -0.16629023089E+02  0.17504238121E+02  0.00000000000E+00 0. -1.
</event>
<event>
 7    1  0.1519238E-008  0.4614232E+02  0.7816164E-02  0.1320468E+00
        -11   -1    0    0    0    0  0.00000000000E+00  0.00000000000E+00  0.45593999997E+02  0.45594000000E+02  0.51100000000E-03 0.  1.
         11   -1    0    0    0    0 -0.00000000000E+00 -0.00000000000E+00 -0.45593999997E+02  0.45594000000E+02  0.51100000000E-03 0. -1.
    9900012    2    1    2    0    0  0.17359278901E+02 -0.25864257843E+02 -0.32539346132E+02  0.46142318249E+02  0.10000004448E+02 0.  0.
        -12    1    1    2    0    0 -0.17359278901E+02  0.25864257843E+02  0.32539346132E+02  0.45045681751E+02  0.00000000000E+00 0.  1.
         11    1    3    3    0    0  0.48649857642E+01 -0.49325516902E+01 -0.60884549661E+01  0.92232010060E+01  0.51100000000E-03 0. -1.
        -11    1    3    3    0    0  0.67866563009E+01 -0.17734719432E+02 -0.21692803513E+02  0.28829788442E+02  0.51100000000E-03 0.  1.
        -12    1    3    3    0    0  0.57076368358E+01 -0.31969867210E+01 -0.47580876527E+01  0.80893288013E+01  0.00000000000E+00 0.  1.
</event>
<event>
 7    1  0.1519238E-008  0.4614232E+02  0.7816164E-02  0.1320468E+00
        -11   -1    0    0    0    0  0.00000000000E+00  0.00000000000E+00  0.45593999997E+02  0.45594000000E+02  0.51100000000E-03 0.  1.
         11   -1    0    0    0    0 -0.00000000000E+00 -0.00000000000E+00 -0.45593999997E+02  0.45594000000E+02  0.51100000000E-03 0. -1.
    9900012    2    1    2    0    0  0.77832851394E+01 -0.62370187822E+01 -0.43927593681E+02  0.46142318548E+02  0.10000007176E+02 0.  0.
        -12    1    1    2    0    0 -0.77832851394E+01  0.62370187822E+01  0.43927593681E+02  0.45045681452E+02  0.00000000000E+00 0.  1.
         11    1    3    3    0    0 -0.66159658888E+00 -0.39566048480E-01 -0.43862580907E+01  0.44360495734E+01  0.51100000000E-03 0. -1.
        -11    1    3    3    0    0  0.88850030654E+01 -0.76423655641E+01 -0.35883674601E+02  0.37749001762E+02  0.51100000000E-03 0.  1.
        -12    1    3    3    0    0 -0.44012133715E+00  0.14449128303E+01 -0.36576609891E+01  0.39572672123E+01  0.00000000000E+00 0.  1.
</event>
<event>
 7    1  0.1519238E-008  0.4614232E+02  0.7816164E-02  0.1320468E+00
        -11   -1    0    0    0    0  0.00000000000E+00  0.00000000000E+00  0.45593999997E+02  0.45594000000E+02  0.51100000000E-03 0.  1.
         11   -1    0    0    0    0 -0.00000000000E+00 -0.00000000000E+00 -0.45593999997E+02  0.45594000000E+02  0.51100000000E-03 0. -1.
    9900012    2    1    2    0    0 -0.10641353011E+02  0.31180443053E+02 -0.30718966456E+02  0.46142319597E+02  0.10000016742E+02 0.  0.
        -12    1    1    2    0    0  0.10641353011E+02 -0.31180443053E+02  0.30718966456E+02  0.45045680403E+02  0.00000000000E+00 0.  1.
         11    1    3    3    0    0 -0.37058001054E+01  0.81483163630E+01 -0.10392080596E+02  0.13715806697E+02  0.51100000000E-03 0. -1.
        -11    1    3    3    0    0 -0.23150410844E+01  0.10850351518E+02 -0.14224533409E+02  0.18039592408E+02  0.51100000000E-03 0.  1.
        -12    1    3    3    0    0 -0.46205118208E+01  0.12181775172E+02 -0.61023524513E+01  0.14386920493E+02  0.00000000000E+00 0.  1.
</event>
<event>
 7    1  0.1519238E-008  0.4614232E+02  0.7816164E-02  0.1320468E+00
        -11   -1    0    0    0    0  0.00000000000E+00  0.00000000000E+00  0.45593999997E+02  0.45594000000E+02  0.51100000000E-03 0. -1.
         11   -1    0    0    0    0 -0.00000000000E+00 -0.00000000000E+00 -0.45593999997E+02  0.45594000000E+02  0.51100000000E-03 0.  1.
    9900012    2    1    2    0    0 -0.19407867685E+02  0.16724142756E+02  0.37050657659E+02  0.46142317499E+02  0.99999976125E+01 0.  0.
        -12    1    1    2    0    0  0.19407867685E+02 -0.16724142756E+02 -0.37050657659E+02  0.45045682501E+02  0.00000000000E+00 0.  1.
         11    1    3    3    0    0 -0.12463022724E+02  0.12446277841E+02  0.26809819693E+02  0.32078079739E+02  0.51100000000E-03 0. -1.
        -11    1    3    3    0    0 -0.77768762210E+01  0.40799593263E+01  0.92379614276E+01  0.12746207415E+02  0.51100000000E-03 0.  1.
         12    1    3    3    0    0  0.83203126024E+00  0.19790558835E+00  0.10028765382E+01  0.13180303451E+01  0.00000000000E+00 0. -1.
</event>
<event>
 7    1  0.1519238E-008  0.4614232E+02  0.7816164E-02  0.1320468E+00
        -11   -1    0    0    0    0  0.00000000000E+00  0.00000000000E+00  0.45593999997E+02  0.45594000000E+02  0.51100000000E-03 0.  1.
         11   -1    0    0    0    0 -0.00000000000E+00 -0.00000000000E+00 -0.45593999997E+02  0.45594000000E+02  0.51100000000E-03 0. -1.
    9900012    2    1    2    0    0 -0.14017555883E+02  0.14007061780E+02 -0.40452736048E+02  0.46142317560E+02  0.99999981698E+01 0.  0.
        -12    1    1    2    0    0  0.14017555883E+02 -0.14007061780E+02  0.40452736048E+02  0.45045682440E+02  0.00000000000E+00 0.  1.
         11    1    3    3    0    0 -0.23399332990E+01  0.23201130422E+01 -0.11177996275E+02  0.11653575132E+02  0.51100000000E-03 0. -1.
        -11    1    3    3    0    0 -0.10102866465E+02  0.95113578780E+01 -0.17100746457E+02  0.22022020097E+02  0.51100000000E-03 0.  1.
        -12    1    3    3    0    0 -0.15747561186E+01  0.21755908599E+01 -0.12173993316E+02  0.12466722331E+02  0.00000000000E+00 0.  1.
</event>
<event>
 7    1  0.1519238E-008  0.4614232E+02  0.7816164E-02  0.1320468E+00
        -11   -1    0    0    0    0  0.00000000000E+00  0.00000000000E+00  0.45593999997E+02  0.45594000000E+02  0.51100000000E-03 0.  1.
         11   -1    0    0    0    0 -0.00000000000E+00 -0.00000000000E+00 -0.45593999997E+02  0.45594000000E+02  0.51100000000E-03 0. -1.
    9900012    2    1    2    0    0  0.14631319998E+02 -0.26728287089E+01 -0.42519335981E+02  0.46142317960E+02  0.10000001816E+02 0.  0.
        -12    1    1    2    0    0 -0.14631319998E+02  0.26728287089E+01  0.42519335981E+02  0.45045682040E+02  0.00000000000E+00 0.  1.
         11    1    3    3    0    0  0.60112037575E+01 -0.26497107270E+01 -0.71950559184E+01  0.97429137059E+01  0.51100000000E-03 0. -1.
        -11    1    3    3    0    0  0.57203808090E+01 -0.29506748020E+00 -0.26309865797E+02  0.26926174253E+02  0.51100000000E-03 0.  1.
        -12    1    3    3    0    0  0.28997354314E+01  0.27194949837E+00 -0.90144142656E+01  0.94732300011E+01  0.00000000000E+00 0.  1.
</event>
<event>
 7    1  0.1519238E-008  0.4614232E+02  0.7816164E-02  0.1320468E+00
        -11   -1    0    0    0    0  0.00000000000E+00  0.00000000000E+00  0.45593999997E+02  0.45594000000E+02  0.51100000000E-03 0. -1.
         11   -1    0    0    0    0 -0.00000000000E+00 -0.00000000000E+00 -0.45593999997E+02  0.45594000000E+02  0.51100000000E-03 0.  1.
    9900012    2    1    2    0    0  0.38067558654E+02 -0.56726629253E+01  0.23405026694E+02  0.46142318730E+02  0.10000008835E+02 0.  0.
        -12    1    1    2    0    0 -0.38067558654E+02  0.56726629253E+01 -0.23405026694E+02  0.45045681270E+02  0.00000000000E+00 0.  1.
         11    1    3    3    0    0  0.14250803032E+02 -0.24611593909E+01  0.84122680057E+01  0.16730479546E+02  0.51100000000E-03 0. -1.
        -11    1    3    3    0    0 -0.59595643777E+00 -0.21084102852E+00  0.54529262961E-01  0.63450115577E+00  0.51100000000E-03 0.  1.
        -12    1    3    3    0    0  0.24412712060E+02 -0.30006625058E+01  0.14938229425E+02  0.28777338028E+02  0.00000000000E+00 0.  1.
</event>
<event>
 7    1  0.1519238E-008  0.4614232E+02  0.7816164E-02  0.1320468E+00
        -11   -1    0    0    0    0  0.00000000000E+00  0.00000000000E+00  0.45593999997E+02  0.45594000000E+02  0.51100000000E-03 0.  1.
         11   -1    0    0    0    0 -0.00000000000E+00 -0.00000000000E+00 -0.45593999997E+02  0.45594000000E+02  0.51100000000E-03 0. -1.
    9900012    2    1    2    0    0  0.12659489294E+02  0.38751419734E+02 -0.19161895459E+02  0.46142318319E+02  0.10000005084E+02 0.  0.
        -12    1    1    2    0    0 -0.12659489294E+02 -0.38751419734E+02  0.19161895459E+02  0.45045681681E+02  0.00000000000E+00 0.  1.
         11    1    3    3    0    0  0.10819104772E+01  0.63562518597E+01 -0.65346370580E+01  0.91800844073E+01  0.51100000000E-03 0.  1.
        -11    1    3    3    0    0  0.79661010531E+01  0.15682132682E+02 -0.54093170856E+01  0.18402411881E+02  0.51100000000E-03 0. -1.
         12    1    3    3    0    0  0.36114777635E+01  0.16713035193E+02 -0.72179413151E+01  0.18559822031E+02  0.00000000000E+00 0. -1.
</event>
<event>
 7    1  0.1519238E-008  0.4614232E+02  0.7816164E-02  0.1320468E+00
        -11   -1    0    0    0    0  0.00000000000E+00  0.00000000000E+00  0.45593999997E+02  0.45594000000E+02  0.51100000000E-03 0.  1.
         11   -1    0    0    0    0 -0.00000000000E+00 -0.00000000000E+00 -0.45593999997E+02  0.45594000000E+02  0.51100000000E-03 0. -1.
    9900012    2    1    2    0    0  0.45156985210E+01 -0.15976989588E+02 -0.41874308468E+02  0.46142318308E+02  0.10000004985E+02 0.  0.
        -12    1    1    2    0    0 -0.45156985210E+01  0.15976989588E+02  0.41874308468E+02  0.45045681692E+02  0.00000000000E+00 0.  1.
         11    1    3    3    0    0 -0.14209239001E+00 -0.67117670361E+01 -0.68925351748E+01  0.96215928199E+01  0.51100000000E-03 0. -1.
        -11    1    3    3    0    0  0.16260859014E+01 -0.19528556224E+01 -0.97961319432E+01  0.10120375574E+02  0.51100000000E-03 0.  1.
         12    1    3    3    0    0  0.30317050096E+01 -0.73123669292E+01 -0.25185641350E+02  0.26400349914E+02  0.00000000000E+00 0. -1.
</event>
<event>
 7    1  0.1519238E-008  0.4614232E+02  0.7816164E-02  0.1320468E+00
        -11   -1    0    0    0    0  0.00000000000E+00  0.00000000000E+00  0.45593999997E+02  0.45594000000E+02  0.51100000000E-03 0. -1.
         11   -1    0    0    0    0 -0.00000000000E+00 -0.00000000000E+00 -0.45593999997E+02  0.45594000000E+02  0.51100000000E-03 0.  1.
    9900012    2    1    2    0    0  0.33558413946E+02  0.26185743185E+02  0.14739511047E+02  0.46142317870E+02  0.10000000989E+02 0.  0.
        -12    1    1    2    0    0 -0.33558413946E+02 -0.26185743185E+02 -0.14739511047E+02  0.45045682130E+02  0.00000000000E+00 0.  1.
         11    1    3    3    0    0  0.66993596640E+01  0.75107008309E+01  0.19705831961E+01  0.10255498295E+02  0.51100000000E-03 0. -1.
        -11    1    3    3    0    0  0.15891934559E+02  0.96996909756E+01  0.10948454535E+02  0.21598755659E+02  0.51100000000E-03 0.  1.
         12    1    3    3    0    0  0.10967119723E+02  0.89753513784E+01  0.18204733160E+01  0.14288063916E+02  0.00000000000E+00 0. -1.
</event>
<event>
 7    1  0.1519238E-008  0.4614232E+02  0.7816164E-02  0.1320468E+00
        -11   -1    0    0    0    0  0.00000000000E+00  0.00000000000E+00  0.45593999997E+02  0.45594000000E+02  0.51100000000E-03 0.  1.
         11   -1    0    0    0    0 -0.00000000000E+00 -0.00000000000E+00 -0.45593999997E+02  0.45594000000E+02  0.51100000000E-03 0. -1.
    9900012    2    1    2    0    0  0.31424175276E+02 -0.19386135464E+01 -0.32216089867E+02  0.46142318069E+02  0.10000002811E+02 0.  0.
        -12    1    1    2    0    0 -0.31424175276E+02  0.19386135464E+01  0.32216089867E+02  0.45045681931E+02  0.00000000000E+00 0.  1.
         11    1    3    3    0    0  0.71396306341E+01 -0.58205663068E-01 -0.49491574362E+01  0.86874549254E+01  0.51100000000E-03 0. -1.
        -11    1    3    3    0    0  0.13659324541E+02 -0.49596898719E+01 -0.13968860821E+02  0.20157002343E+02  0.51100000000E-03 0.  1.
        -12    1    3    3    0    0  0.10625220101E+02  0.30792819886E+01 -0.13298071610E+02  0.17297860801E+02  0.00000000000E+00 0.  1.
</event>
<event>
 7    1  0.1519238E-008  0.4614232E+02  0.7816164E-02  0.1320468E+00
        -11   -1    0    0    0    0  0.00000000000E+00  0.00000000000E+00  0.45593999997E+02  0.45594000000E+02  0.51100000000E-03 0.  1.
         11   -1    0    0    0    0 -0.00000000000E+00 -0.00000000000E+00 -0.45593999997E+02  0.45594000000E+02  0.51100000000E-03 0. -1.
    9900012    2    1    2    0    0  0.37301657489E+01  0.32937106564E+02 -0.30501579927E+02  0.46142317594E+02  0.99999984774E+01 0.  0.
        -12    1    1    2    0    0 -0.37301657489E+01 -0.32937106564E+02  0.30501579927E+02  0.45045682406E+02  0.00000000000E+00 0.  1.
         11    1    3    3    0    0  0.37911166790E+01  0.30542211267E+02 -0.25549505612E+02  0.39999705899E+02  0.51100000000E-03 0. -1.
        -11    1    3    3    0    0 -0.10717111854E+01  0.45629958417E-01 -0.16005462087E+01  0.19267577391E+01  0.51100000000E-03 0.  1.
        -12    1    3    3    0    0  0.10107602554E+01  0.23492653392E+01 -0.33515281067E+01  0.42158539559E+01  0.00000000000E+00 0.  1.
</event>
<event>
 7    1  0.1519238E-008  0.4614232E+02  0.7816164E-02  0.1320468E+00
        -11   -1    0    0    0    0  0.00000000000E+00  0.00000000000E+00  0.45593999997E+02  0.45594000000E+02  0.51100000000E-03 0. -1.
         11   -1    0    0    0    0 -0.00000000000E+00 -0.00000000000E+00 -0.45593999997E+02  0.45594000000E+02  0.51100000000E-03 0.  1.
    9900012    2    1    2    0    0  0.12194982867E+02  0.17329028091E+02  0.39750482293E+02  0.46142315809E+02  0.99999822025E+01 0.  0.
        -12    1    1    2    0    0 -0.12194982867E+02 -0.17329028091E+02 -0.39750482293E+02  0.45045684191E+02  0.00000000000E+00 0.  1.
         11    1    3    3    0    0  0.21102679960E+01  0.52218399841E+01  0.12751219023E+02  0.13939671110E+02  0.51100000000E-03 0. -1.
        -11    1    3    3    0    0  0.17354807095E+01  0.61066945187E+01  0.56166437393E+01  0.84764555325E+01  0.51100000000E-03 0.  1.
        -12    1    3    3    0    0  0.83492341610E+01  0.60004935881E+01  0.21382619530E+02  0.23726189166E+02  0.00000000000E+00 0.  1.
</event>
<event>
 7    1  0.1519238E-008  0.4614232E+02  0.7816164E-02  0.1320468E+00
        -11   -1    0    0    0    0  0.00000000000E+00  0.00000000000E+00  0.45593999997E+02  0.45594000000E+02  0.51100000000E-03 0. -1.
         11   -1    0    0    0    0 -0.00000000000E+00 -0.00000000000E+00 -0.45593999997E+02  0.45594000000E+02  0.51100000000E-03 0.  1.
    9900012    2    1    2    0    0  0.29479314887E+02 -0.21400231217E+02  0.26497426251E+02  0.46142317629E+02  0.99999987965E+01 0.  0.
        -12    1    1    2    0    0 -0.29479314887E+02  0.21400231217E+02 -0.26497426251E+02  0.45045682371E+02  0.00000000000E+00 0.  1.
         11    1    3    3    0    0  0.24633865559E+02 -0.17126579910E+02  0.17637974858E+02  0.34802948569E+02  0.51100000000E-03 0. -1.
        -11    1    3    3    0    0  0.44768704649E+01 -0.37749358350E+01  0.89671857214E+01  0.10709945366E+02  0.51100000000E-03 0.  1.
         12    1    3    3    0    0  0.36857886320E+00 -0.49871547264E+00 -0.10773432855E+00  0.62942369402E+00  0.00000000000E+00 0. -1.
</event>
<event>
 7    1  0.1519238E-008  0.4614232E+02  0.7816164E-02  0.1320468E+00
        -11   -1    0    0    0    0  0.00000000000E+00  0.00000000000E+00  0.45593999997E+02  0.45594000000E+02  0.51100000000E-03 0.  1.
         11   -1    0    0    0    0 -0.00000000000E+00 -0.00000000000E+00 -0.45593999997E+02  0.45594000000E+02  0.51100000000E-03 0. -1.
    9900012    2    1    2    0    0  0.31361618783E+02 -0.25966146090E+02 -0.19269707169E+02  0.46142317745E+02  0.99999998548E+01 0.  0.
        -12    1    1    2    0    0 -0.31361618783E+02  0.25966146090E+02  0.19269707169E+02  0.45045682255E+02  0.00000000000E+00 0.  1.
         11    1    3    3    0    0  0.14716757163E+02 -0.12055238070E+02 -0.66679561472E+01  0.20158703970E+02  0.51100000000E-03 0. -1.
        -11    1    3    3    0    0  0.39749488601E+00 -0.90069538528E+00 -0.28167721245E+01  0.29838665895E+01  0.51100000000E-03 0.  1.
        -12    1    3    3    0    0  0.16247366733E+02 -0.13010212635E+02 -0.97849788973E+01  0.22999747185E+02  0.00000000000E+00 0.  1.
</event>
<event>
 7    1  0.1519238E-008  0.4614232E+02  0.7816164E-02  0.1320468E+00
        -11   -1    0    0    0    0  0.00000000000E+00  0.00000000000E+00  0.45593999997E+02  0.45594000000E+02  0.51100000000E-03 0. -1.
         11   -1    0    0    0    0 -0.00000000000E+00 -0.00000000000E+00 -0.45593999997E+02  0.45594000000E+02  0.51100000000E-03 0.  1.
    9900012    2    1    2    0    0 -0.42354426412E+02  0.14627690468E+02 -0.46094046896E+01  0.46142319001E+02  0.10000011304E+02 0.  0.
        -12    1    1    2    0    0  0.42354426412E+02 -0.14627690468E+02  0.46094046896E+01  0.45045680999E+02  0.00000000000E+00 0.  1.
         11    1    3    3    0    0 -0.22094731528E+02  0.70001185729E+01  0.10880827664E+01  0.23202645231E+02  0.51100000000E-03 0. -1.
        -11    1    3    3    0    0 -0.16958047906E+02  0.76130711932E+01 -0.62100565273E+01  0.19598444941E+02  0.51100000000E-03 0.  1.
        -12    1    3    3    0    0 -0.33016469775E+01  0.14500701906E-01  0.51256907133E+00  0.33412288289E+01  0.00000000000E+00 0.  1.
</event>
<event>
 7    1  0.1519238E-008  0.4614232E+02  0.7816164E-02  0.1320468E+00
        -11   -1    0    0    0    0  0.00000000000E+00  0.00000000000E+00  0.45593999997E+02  0.45594000000E+02  0.51100000000E-03 0.  1.
         11   -1    0    0    0    0 -0.00000000000E+00 -0.00000000000E+00 -0.45593999997E+02  0.45594000000E+02  0.51100000000E-03 0. -1.
    9900012    2    1    2    0    0 -0.54039125068E+00  0.23172614500E+02 -0.38624493208E+02  0.46142316954E+02  0.99999926429E+01 0.  0.
        -12    1    1    2    0    0  0.54039125068E+00 -0.23172614500E+02  0.38624493208E+02  0.45045683046E+02  0.00000000000E+00 0.  1.
         11    1    3    3    0    0  0.25525925886E+01  0.15197230102E+02 -0.24634539159E+02  0.29057392374E+02  0.51100000000E-03 0. -1.
        -11    1    3    3    0    0 -0.17194550961E+01  0.36629729514E+00 -0.11634888037E+01  0.21081759873E+01  0.51100000000E-03 0.  1.
        -12    1    3    3    0    0 -0.13735287432E+01  0.76090871023E+01 -0.12826465245E+02  0.14976748593E+02  0.00000000000E+00 0.  1.
</event>
<event>
 7    1  0.1519238E-008  0.4614232E+02  0.7816164E-02  0.1320468E+00
        -11   -1    0    0    0    0  0.00000000000E+00  0.00000000000E+00  0.45593999997E+02  0.45594000000E+02  0.51100000000E-03 0.  1.
         11   -1    0    0    0    0 -0.00000000000E+00 -0.00000000000E+00 -0.45593999997E+02  0.45594000000E+02  0.51100000000E-03 0. -1.
    9900012    2    1    2    0    0 -0.27140406113E+02  0.29101972107E+02 -0.21108933731E+02  0.46142317545E+02  0.99999980322E+01 0.  0.
        -12    1    1    2    0    0  0.27140406113E+02 -0.29101972107E+02  0.21108933731E+02  0.45045682455E+02  0.00000000000E+00 0.  1.
         11    1    3    3    0    0 -0.90699466424E+01  0.91115846651E+01 -0.57153432217E+01  0.14069472471E+02  0.51100000000E-03 0. -1.
        -11    1    3    3    0    0 -0.14880318809E+02  0.11822739162E+02 -0.80678401172E+01  0.20646818001E+02  0.51100000000E-03 0.  1.
         12    1    3    3    0    0 -0.31901406621E+01  0.81676482803E+01 -0.73257503921E+01  0.11426027073E+02  0.00000000000E+00 0. -1.
</event>
<event>
 7    1  0.1519238E-008  0.4614232E+02  0.7816164E-02  0.1320468E+00
        -11   -1    0    0    0    0  0.00000000000E+00  0.00000000000E+00  0.45593999997E+02  0.45594000000E+02  0.51100000000E-03 0.  1.
         11   -1    0    0    0    0 -0.00000000000E+00 -0.00000000000E+00 -0.45593999997E+02  0.45594000000E+02  0.51100000000E-03 0. -1.
    9900012    2    1    2    0    0  0.57023510464E+01  0.13065913684E+02 -0.42730300249E+02  0.46142317996E+02  0.10000002139E+02 0.  0.
        -12    1    1    2    0    0 -0.57023510464E+01 -0.13065913684E+02  0.42730300249E+02  0.45045682004E+02  0.00000000000E+00 0.  1.
         11    1    3    3    0    0 -0.99616287230E+00  0.75205230913E+01 -0.24287832445E+02  0.25445027278E+02  0.51100000000E-03 0. -1.
        -11    1    3    3    0    0  0.33698974188E+01  0.13639046561E+01 -0.10606199136E+02  0.11211953661E+02  0.51100000000E-03 0.  1.
         12    1    3    3    0    0  0.33286164999E+01  0.41814859366E+01 -0.78362686678E+01  0.94853370565E+01  0.00000000000E+00 0. -1.
</event>
<event>
 7    1  0.1519238E-008  0.4614232E+02  0.7816164E-02  0.1320468E+00
        -11   -1    0    0    0    0  0.00000000000E+00  0.00000000000E+00  0.45593999997E+02  0.45594000000E+02  0.51100000000E-03 0.  1.
         11   -1    0    0    0    0 -0.00000000000E+00 -0.00000000000E+00 -0.45593999997E+02  0.45594000000E+02  0.51100000000E-03 0. -1.
    9900012    2    1    2    0    0 -0.36133143988E+02 -0.15799399808E+02 -0.21768975006E+02  0.46142318724E+02  0.10000008785E+02 0.  0.
        -12    1    1    2    0    0  0.36133143988E+02  0.15799399808E+02  0.21768975006E+02  0.45045681276E+02  0.00000000000E+00 0.  1.
         11    1    3    3    0    0 -0.18522379908E+02 -0.86409961369E+01 -0.16622646406E+02  0.26344975716E+02  0.51100000000E-03 0. -1.
        -11    1    3    3    0    0 -0.79188825085E+01 -0.27114793778E+01 -0.13503552766E+01  0.84784597796E+01  0.51100000000E-03 0.  1.
         12    1    3    3    0    0 -0.96918815719E+01 -0.44469242933E+01 -0.37959733234E+01  0.11318883229E+02  0.00000000000E+00 0. -1.
</event>
<event>
 7    1  0.1519238E-008  0.4614232E+02  0.7816164E-02  0.1320468E+00
        -11   -1    0    0    0    0  0.00000000000E+00  0.00000000000E+00  0.45593999997E+02  0.45594000000E+02  0.51100000000E-03 0. -1.
         11   -1    0    0    0    0 -0.00000000000E+00 -0.00000000000E+00 -0.45593999997E+02  0.45594000000E+02  0.51100000000E-03 0.  1.
    9900012    2    1    2    0    0 -0.13969898326E+02 -0.18842024722E+02  0.38456899307E+02  0.46142322525E+02  0.10000043444E+02 0.  0.
        -12    1    1    2    0    0  0.13969898326E+02  0.18842024722E+02 -0.38456899307E+02  0.45045677475E+02  0.00000000000E+00 0.  1.
         11    1    3    3    0    0 -0.41368812153E+01 -0.80950629667E+01  0.14200230472E+02  0.16860912679E+02  0.51100000000E-03 0. -1.
        -11    1    3    3    0    0 -0.35119524632E+01 -0.91997366363E+01  0.13509612527E+02  0.16717613322E+02  0.51100000000E-03 0.  1.
         12    1    3    3    0    0 -0.63210646478E+01 -0.15472251185E+01  0.10747056307E+02  0.12563796525E+02  0.00000000000E+00 0. -1.
</event>
<event>
 7    1  0.1519238E-008  0.4614232E+02  0.7816164E-02  0.1320468E+00
        -11   -1    0    0    0    0  0.00000000000E+00  0.00000000000E+00  0.45593999997E+02  0.45594000000E+02  0.51100000000E-03 0.  1.
         11   -1    0    0    0    0 -0.00000000000E+00 -0.00000000000E+00 -0.45593999997E+02  0.45594000000E+02  0.51100000000E-03 0. -1.
    9900012    2    1    2    0    0  0.27753517571E+02 -0.20995430967E+02 -0.28601530310E+02  0.46142318796E+02  0.10000009436E+02 0.  0.
        -12    1    1    2    0    0 -0.27753517571E+02  0.20995430967E+02  0.28601530310E+02  0.45045681204E+02  0.00000000000E+00 0.  1.
         11    1    3    3    0    0  0.49734156337E+01 -0.19476317258E+01 -0.77328485763E+01  0.93981423574E+01  0.51100000000E-03 0. -1.
        -11    1    3    3    0    0  0.52837210684E+01 -0.25344649073E+01 -0.20800454850E+01  0.62183446492E+01  0.51100000000E-03 0.  1.
         12    1    3    3    0    0  0.17496380869E+02 -0.16513334334E+02 -0.18788636249E+02  0.30525831789E+02  0.00000000000E+00 0. -1.
</event>
<event>
 7    1  0.1519238E-008  0.4614232E+02  0.7816164E-02  0.1320468E+00
        -11   -1    0    0    0    0  0.00000000000E+00  0.00000000000E+00  0.45593999997E+02  0.45594000000E+02  0.51100000000E-03 0. -1.
         11   -1    0    0    0    0 -0.00000000000E+00 -0.00000000000E+00 -0.45593999997E+02  0.45594000000E+02  0.51100000000E-03 0.  1.
    9900012    2    1    2    0    0  0.15849521617E+02  0.99034968082E+01  0.40985691004E+02  0.46142318169E+02  0.10000003720E+02 0.  0.
        -12    1    1    2    0    0 -0.15849521617E+02 -0.99034968082E+01 -0.40985691004E+02  0.45045681831E+02  0.00000000000E+00 0.  1.
         11    1    3    3    0    0  0.74951246781E+01  0.10746416072E+01  0.18480298995E+02  0.19971309414E+02  0.51100000000E-03 0. -1.
        -11    1    3    3    0    0  0.19261245568E+01  0.44004948529E+01  0.13072594823E+02  0.13927205263E+02  0.51100000000E-03 0.  1.
        -12    1    3    3    0    0  0.64282723824E+01  0.44283603481E+01  0.94327971863E+01  0.12243803492E+02  0.00000000000E+00 0.  1.
</event>
<event>
 7    1  0.1519238E-008  0.4614232E+02  0.7816164E-02  0.1320468E+00
        -11   -1    0    0    0    0  0.00000000000E+00  0.00000000000E+00  0.45593999997E+02  0.45594000000E+02  0.51100000000E-03 0.  1.
         11   -1    0    0    0    0 -0.00000000000E+00 -0.00000000000E+00 -0.45593999997E+02  0.45594000000E+02  0.51100000000E-03 0. -1.
    9900012    2    1    2    0    0  0.15119739125E+02 -0.29876742234E+02 -0.30131168078E+02  0.46142317328E+02  0.99999960470E+01 0.  0.
        -12    1    1    2    0    0 -0.15119739125E+02  0.29876742234E+02  0.30131168078E+02  0.45045682672E+02  0.00000000000E+00 0.  1.
         11    1    3    3    0    0  0.94636436998E+01 -0.15228925307E+02 -0.18877175502E+02  0.26035139202E+02  0.51100000000E-03 0. -1.
        -11    1    3    3    0    0  0.43532897777E+01 -0.13502976875E+02 -0.76755124409E+01  0.16130561300E+02  0.51100000000E-03 0.  1.
         12    1    3    3    0    0  0.13028056471E+01 -0.11448400521E+01 -0.35784801351E+01  0.39766168254E+01  0.00000000000E+00 0. -1.
</event>
<event>
 7    1  0.1519238E-008  0.4614233E+02  0.7816164E-02  0.1320468E+00
        -11   -1    0    0    0    0  0.00000000000E+00  0.00000000000E+00  0.45593999997E+02  0.45594000000E+02  0.51100000000E-03 0.  1.
         11   -1    0    0    0    0 -0.00000000000E+00 -0.00000000000E+00 -0.45593999997E+02  0.45594000000E+02  0.51100000000E-03 0. -1.
    9900012    2    1    2    0    0 -0.19323587606E+02 -0.34029421154E+02 -0.22309404903E+02  0.46142333291E+02  0.10000141617E+02 0.  0.
        -12    1    1    2    0    0  0.19323587606E+02  0.34029421154E+02  0.22309404903E+02  0.45045666709E+02  0.00000000000E+00 0.  1.
         11    1    3    3    0    0 -0.46463447705E+01 -0.69261392372E+01 -0.87342467334E+01  0.12076712745E+02  0.51100000000E-03 0.  1.
        -11    1    3    3    0    0 -0.13725117950E+02 -0.23391816198E+02 -0.10253588670E+02  0.28994689318E+02  0.51100000000E-03 0. -1.
         12    1    3    3    0    0 -0.95212488580E+00 -0.37114657193E+01 -0.33215694997E+01  0.50709312285E+01  0.00000000000E+00 0. -1.
</event>
<event>
 7    1  0.1519238E-008  0.4614232E+02  0.7816164E-02  0.1320468E+00
        -11   -1    0    0    0    0  0.00000000000E+00  0.00000000000E+00  0.45593999997E+02  0.45594000000E+02  0.51100000000E-03 0.  1.
         11   -1    0    0    0    0 -0.00000000000E+00 -0.00000000000E+00 -0.45593999997E+02  0.45594000000E+02  0.51100000000E-03 0. -1.
    9900012    2    1    2    0    0 -0.32923585862E+01 -0.41133222494E+02 -0.18064661675E+02  0.46142316308E+02  0.99999867490E+01 0.  0.
        -12    1    1    2    0    0  0.32923585862E+01  0.41133222494E+02  0.18064661675E+02  0.45045683692E+02  0.00000000000E+00 0.  1.
         11    1    3    3    0    0 -0.20928642704E+01 -0.22979225268E+02 -0.97333109217E+01  0.25043206994E+02  0.51100000000E-03 0. -1.
        -11    1    3    3    0    0 -0.40619170074E+00 -0.35827169684E+01  0.10444245795E+01  0.37538880560E+01  0.51100000000E-03 0.  1.
        -12    1    3    3    0    0 -0.79330261507E+00 -0.14571280258E+02 -0.93757753332E+01  0.17345221258E+02  0.00000000000E+00 0.  1.
</event>
<event>
 7    1  0.1519238E-008  0.4614232E+02  0.7816164E-02  0.1320468E+00
        -11   -1    0    0    0    0  0.00000000000E+00  0.00000000000E+00  0.45593999997E+02  0.45594000000E+02  0.51100000000E-03 0. -1.
         11   -1    0    0    0    0 -0.00000000000E+00 -0.00000000000E+00 -0.45593999997E+02  0.45594000000E+02  0.51100000000E-03 0.  1.
    9900012    2    1    2    0    0  0.37850831036E+02  0.22805001722E+02 -0.87384140839E+01  0.46142318804E+02  0.10000009512E+02 0.  0.
        -12    1    1    2    0    0 -0.37850831036E+02 -0.22805001722E+02  0.87384140839E+01  0.45045681196E+02  0.00000000000E+00 0.  1.
         11    1    3    3    0    0  0.20937289917E+02  0.13534490731E+02 -0.91831010197E+00  0.24947862476E+02  0.51100000000E-03 0. -1.
        -11    1    3    3    0    0  0.12380311706E+02  0.86562147917E+01 -0.56159774738E+01  0.16116493903E+02  0.51100000000E-03 0.  1.
         12    1    3    3    0    0  0.45332294131E+01  0.61429619938E+00 -0.22041265082E+01  0.50779624256E+01  0.00000000000E+00 0. -1.
</event>
<event>
 7    1  0.1519238E-008  0.4614232E+02  0.7816164E-02  0.1320468E+00
        -11   -1    0    0    0    0  0.00000000000E+00  0.00000000000E+00  0.45593999997E+02  0.45594000000E+02  0.51100000000E-03 0.  1.
         11   -1    0    0    0    0 -0.00000000000E+00 -0.00000000000E+00 -0.45593999997E+02  0.45594000000E+02  0.51100000000E-03 0. -1.
    9900012    2    1    2    0    0  0.41317706360E+02 -0.38768716666E+01 -0.17519428594E+02  0.46142319064E+02  0.10000011880E+02 0.  0.
        -12    1    1    2    0    0 -0.41317706360E+02  0.38768716666E+01  0.17519428594E+02  0.45045680936E+02  0.00000000000E+00 0.  1.
         11    1    3    3    0    0  0.36423999229E+02 -0.13229018830E+01 -0.13283325374E+02  0.38793098902E+02  0.51100000000E-03 0. -1.
        -11    1    3    3    0    0  0.25386098557E+01 -0.23097888744E+01 -0.34189128505E+01  0.48444432068E+01  0.51100000000E-03 0.  1.
        -12    1    3    3    0    0  0.23550972754E+01 -0.24418090931E+00 -0.81719036916E+00  0.25047769547E+01  0.00000000000E+00 0.  1.
</event>
<event>
 7    1  0.1519238E-008  0.4614232E+02  0.7816164E-02  0.1320468E+00
        -11   -1    0    0    0    0  0.00000000000E+00  0.00000000000E+00  0.45593999997E+02  0.45594000000E+02  0.51100000000E-03 0.  1.
         11   -1    0    0    0    0 -0.00000000000E+00 -0.00000000000E+00 -0.45593999997E+02  0.45594000000E+02  0.51100000000E-03 0. -1.
    9900012    2    1    2    0    0 -0.39052919249E+01  0.15193298409E+02 -0.42225893218E+02  0.46142315638E+02  0.99999806413E+01 0.  0.
        -12    1    1    2    0    0  0.39052919249E+01 -0.15193298409E+02  0.42225893218E+02  0.45045684362E+02  0.00000000000E+00 0.  1.
         11    1    3    3    0    0 -0.58776771213E+00 -0.51577284940E+00 -0.52310799860E+00  0.94081600481E+00  0.51100000000E-03 0. -1.
        -11    1    3    3    0    0 -0.43854644335E+01  0.61922886475E+01 -0.14555359732E+02  0.16414482452E+02  0.51100000000E-03 0.  1.
         12    1    3    3    0    0  0.10679402208E+01  0.95167826114E+01 -0.27147425487E+02  0.28787017181E+02  0.00000000000E+00 0. -1.
</event>
<event>
 7    1  0.1519238E-008  0.4614232E+02  0.7816164E-02  0.1320468E+00
        -11   -1    0    0    0    0  0.00000000000E+00  0.00000000000E+00  0.45593999997E+02  0.45594000000E+02  0.51100000000E-03 0. -1.
         11   -1    0    0    0    0 -0.00000000000E+00 -0.00000000000E+00 -0.45593999997E+02  0.45594000000E+02  0.51100000000E-03 0.  1.
    9900012    2    1    2    0    0  0.25041264471E+02 -0.12542681560E+02  0.35280725482E+02  0.46142318991E+02  0.10000011215E+02 0.  0.
        -12    1    1    2    0    0 -0.25041264471E+02  0.12542681560E+02 -0.35280725482E+02  0.45045681009E+02  0.00000000000E+00 0.  1.
         11    1    3    3    0    0  0.11611254358E+02 -0.36301934011E+01  0.19801439062E+02  0.23239976787E+02  0.51100000000E-03 0. -1.
        -11    1    3    3    0    0  0.22933879821E+00 -0.11927306968E+01  0.10716817950E+00  0.12192981913E+01  0.51100000000E-03 0.  1.
         12    1    3    3    0    0  0.13200671314E+02 -0.77197574622E+01  0.15372118241E+02  0.21683044012E+02  0.00000000000E+00 0. -1.
</event>
<event>
 7    1  0.1519238E-008  0.4614232E+02  0.7816164E-02  0.1320468E+00
        -11   -1    0    0    0    0  0.00000000000E+00  0.00000000000E+00  0.45593999997E+02  0.45594000000E+02  0.51100000000E-03 0. -1.
         11   -1    0    0    0    0 -0.00000000000E+00 -0.00000000000E+00 -0.45593999997E+02  0.45594000000E+02  0.51100000000E-03 0.  1.
    9900012    2    1    2    0    0 -0.20192142975E+02  0.29920684621E+02  0.26947048886E+02  0.46142318189E+02  0.10000003904E+02 0.  0.
        -12    1    1    2    0    0  0.20192142975E+02 -0.29920684621E+02 -0.26947048886E+02  0.45045681811E+02  0.00000000000E+00 0.  1.
         11    1    3    3    0    0 -0.93683634440E+01  0.18721630342E+02  0.18224650775E+02  0.27756144768E+02  0.51100000000E-03 0. -1.
        -11    1    3    3    0    0 -0.29078540848E+00  0.22372540262E+01  0.54919262756E+00  0.23219548950E+01  0.51100000000E-03 0.  1.
         12    1    3    3    0    0 -0.10532994123E+02  0.89618002531E+01  0.81732054838E+01  0.16064218526E+02  0.00000000000E+00 0. -1.
</event>
<event>
 7    1  0.1519238E-008  0.4614232E+02  0.7816164E-02  0.1320468E+00
        -11   -1    0    0    0    0  0.00000000000E+00  0.00000000000E+00  0.45593999997E+02  0.45594000000E+02  0.51100000000E-03 0.  1.
         11   -1    0    0    0    0 -0.00000000000E+00 -0.00000000000E+00 -0.45593999997E+02  0.45594000000E+02  0.51100000000E-03 0. -1.
    9900012    2    1    2    0    0 -0.30843608666E+02 -0.32786565088E+02 -0.16812445250E+01  0.46142316200E+02  0.99999857667E+01 0.  0.
        -12    1    1    2    0    0  0.30843608666E+02  0.32786565088E+02  0.16812445250E+01  0.45045683800E+02  0.00000000000E+00 0.  1.
         11    1    3    3    0    0 -0.76713452408E+01 -0.88238128219E+01  0.19476227931E+01  0.11853372741E+02  0.51100000000E-03 0. -1.
        -11    1    3    3    0    0 -0.11379936142E+00 -0.27353289919E+01  0.22402630785E-02  0.27376961607E+01  0.51100000000E-03 0.  1.
         12    1    3    3    0    0 -0.23058464064E+02 -0.21227423275E+02 -0.36311075811E+01  0.31551247299E+02  0.00000000000E+00 0. -1.
</event>
<event>
 7    1  0.1519238E-008  0.4614231E+02  0.7816164E-02  0.1320468E+00
        -11   -1    0    0    0    0  0.00000000000E+00  0.00000000000E+00  0.45593999997E+02  0.45594000000E+02  0.51100000000E-03 0. -1.
         11   -1    0    0    0    0 -0.00000000000E+00 -0.00000000000E+00 -0.45593999997E+02  0.45594000000E+02  0.51100000000E-03 0.  1.
    9900012    2    1    2    0    0 -0.22706326126E+02  0.38402470357E+02  0.62279556977E+01  0.46142307555E+02  0.99999069357E+01 0.  0.
        -12    1    1    2    0    0  0.22706326126E+02 -0.38402470357E+02 -0.62279556977E+01  0.45045692445E+02  0.00000000000E+00 0.  1.
         11    1    3    3    0    0 -0.96110893856E+01  0.18490261436E+02  0.12575332583E+01  0.20876881887E+02  0.51100000000E-03 0. -1.
        -11    1    3    3    0    0 -0.48537400644E+01  0.25574830442E+01  0.30447645960E+00  0.54947446083E+01  0.51100000000E-03 0.  1.
        -12    1    3    3    0    0 -0.82414966757E+01  0.17354725877E+02  0.46659459798E+01  0.19770681061E+02  0.00000000000E+00 0.  1.
</event>
<event>
 7    1  0.1519238E-008  0.4614232E+02  0.7816164E-02  0.1320468E+00
        -11   -1    0    0    0    0  0.00000000000E+00  0.00000000000E+00  0.45593999997E+02  0.45594000000E+02  0.51100000000E-03 0.  1.
         11   -1    0    0    0    0 -0.00000000000E+00 -0.00000000000E+00 -0.45593999997E+02  0.45594000000E+02  0.51100000000E-03 0. -1.
    9900012    2    1    2    0    0  0.33036674509E+02 -0.32985826826E+01 -0.30443570212E+02  0.46142317881E+02  0.10000001092E+02 0.  0.
        -12    1    1    2    0    0 -0.33036674509E+02  0.32985826826E+01  0.30443570212E+02  0.45045682119E+02  0.00000000000E+00 0.  1.
         11    1    3    3    0    0  0.35298976283E+01  0.17254055847E+01 -0.39237000747E+01  0.55527132319E+01  0.51100000000E-03 0. -1.
        -11    1    3    3    0    0  0.28532104721E+02 -0.56687060115E+01 -0.23648559638E+02  0.37489593235E+02  0.51100000000E-03 0.  1.
        -12    1    3    3    0    0  0.97467215969E+00  0.64471774417E+00 -0.28713104989E+01  0.31000114144E+01  0.00000000000E+00 0.  1.
</event>
<event>
 7    1  0.1519238E-008  0.4614232E+02  0.7816164E-02  0.1320468E+00
        -11   -1    0    0    0    0  0.00000000000E+00  0.00000000000E+00  0.45593999997E+02  0.45594000000E+02  0.51100000000E-03 0.  1.
         11   -1    0    0    0    0 -0.00000000000E+00 -0.00000000000E+00 -0.45593999997E+02  0.45594000000E+02  0.51100000000E-03 0. -1.
    9900012    2    1    2    0    0  0.35450885930E+02 -0.27048492829E+02  0.63817883048E+01  0.46142317638E+02  0.99999988742E+01 0.  0.
        -12    1    1    2    0    0 -0.35450885930E+02  0.27048492829E+02 -0.63817883048E+01  0.45045682362E+02  0.00000000000E+00 0.  1.
         11    1    3    3    0    0  0.10523134607E+02 -0.66250247627E+01  0.28754074486E+01  0.12763043654E+02  0.51100000000E-03 0. -1.
        -11    1    3    3    0    0  0.47908827549E+01 -0.56753492841E+01  0.39565233304E+01  0.84152376195E+01  0.51100000000E-03 0.  1.
         12    1    3    3    0    0  0.20136868569E+02 -0.14748118782E+02 -0.45014247413E+00  0.24964036364E+02  0.00000000000E+00 0. -1.
</event>
<event>
 7    1  0.1519238E-008  0.4614232E+02  0.7816164E-02  0.1320468E+00
        -11   -1    0    0    0    0  0.00000000000E+00  0.00000000000E+00  0.45593999997E+02  0.45594000000E+02  0.51100000000E-03 0.  1.
         11   -1    0    0    0    0 -0.00000000000E+00 -0.00000000000E+00 -0.45593999997E+02  0.45594000000E+02  0.51100000000E-03 0. -1.
    9900012    2    1    2    0    0 -0.53857774200E+00  0.31744678510E+02 -0.31954638299E+02  0.46142316650E+02  0.99999898650E+01 0.  0.
        -12    1    1    2    0    0  0.53857774200E+00 -0.31744678510E+02  0.31954638299E+02  0.45045683350E+02  0.00000000000E+00 0.  1.
         11    1    3    3    0    0 -0.13639879119E+01  0.20946587766E+02 -0.18584229418E+02  0.28035577137E+02  0.51100000000E-03 0. -1.
        -11    1    3    3    0    0 -0.21051509003E+01  0.47743784074E+01 -0.78522234220E+01  0.94278185398E+01  0.51100000000E-03 0.  1.
         12    1    3    3    0    0  0.29305610702E+01  0.60237123366E+01 -0.55181854588E+01  0.86789209732E+01  0.00000000000E+00 0. -1.
</event>
<event>
 7    1  0.1519238E-008  0.4614232E+02  0.7816164E-02  0.1320468E+00
        -11   -1    0    0    0    0  0.00000000000E+00  0.00000000000E+00  0.45593999997E+02  0.45594000000E+02  0.51100000000E-03 0. -1.
         11   -1    0    0    0    0 -0.00000000000E+00 -0.00000000000E+00 -0.45593999997E+02  0.45594000000E+02  0.51100000000E-03 0.  1.
    9900012    2    1    2    0    0 -0.99460189965E+01 -0.36122616205E+02  0.25006934983E+02  0.46142317714E+02  0.99999995727E+01 0.  0.
        -12    1    1    2    0    0  0.99460189965E+01  0.36122616205E+02 -0.25006934983E+02  0.45045682286E+02  0.00000000000E+00 0.  1.
         11    1    3    3    0    0 -0.30395854448E+01 -0.14223015147E+02  0.12788000853E+02  0.19366626077E+02  0.51100000000E-03 0. -1.
        -11    1    3    3    0    0 -0.26003538515E+01 -0.17336888960E+02  0.94826666665E+01  0.19931144632E+02  0.51100000000E-03 0.  1.
         12    1    3    3    0    0 -0.43060797002E+01 -0.45627120976E+01  0.27362674632E+01  0.68445470047E+01  0.00000000000E+00 0. -1.
</event>
<event>
 7    1  0.1519238E-008  0.4614232E+02  0.7816164E-02  0.1320468E+00
        -11   -1    0    0    0    0  0.00000000000E+00  0.00000000000E+00  0.45593999997E+02  0.45594000000E+02  0.51100000000E-03 0.  1.
         11   -1    0    0    0    0 -0.00000000000E+00 -0.00000000000E+00 -0.45593999997E+02  0.45594000000E+02  0.51100000000E-03 0. -1.
    9900012    2    1    2    0    0 -0.31870562029E+02  0.23283090985E+02 -0.21708951289E+02  0.46142316345E+02  0.99999870864E+01 0.  0.
        -12    1    1    2    0    0  0.31870562029E+02 -0.23283090985E+02  0.21708951289E+02  0.45045683655E+02  0.00000000000E+00 0.  1.
         11    1    3    3    0    0 -0.11573019149E+02  0.14194901344E+02 -0.10239030776E+02  0.20982558182E+02  0.51100000000E-03 0.  1.
        -11    1    3    3    0    0 -0.19922587637E+02  0.88478408249E+01 -0.10731210552E+02  0.24297174024E+02  0.51100000000E-03 0. -1.
         12    1    3    3    0    0 -0.37495524309E+00  0.24034881665E+00 -0.73870996202E+00  0.86258413849E+00  0.00000000000E+00 0. -1.
</event>
<event>
 7    1  0.1519238E-008  0.4614232E+02  0.7816164E-02  0.1320468E+00
        -11   -1    0    0    0    0  0.00000000000E+00  0.00000000000E+00  0.45593999997E+02  0.45594000000E+02  0.51100000000E-03 0.  1.
         11   -1    0    0    0    0 -0.00000000000E+00 -0.00000000000E+00 -0.45593999997E+02  0.45594000000E+02  0.51100000000E-03 0. -1.
    9900012    2    1    2    0    0 -0.13337893767E+02 -0.36781647681E+02 -0.22323181044E+02  0.46142318429E+02  0.10000006093E+02 0.  0.
        -12    1    1    2    0    0  0.13337893767E+02  0.36781647681E+02  0.22323181044E+02  0.45045681571E+02  0.00000000000E+00 0.  1.
         11    1    3    3    0    0 -0.19073691553E+01 -0.25792676958E+01 -0.52522332710E+01  0.61543995268E+01  0.51100000000E-03 0.  1.
        -11    1    3    3    0    0 -0.10306575995E+02 -0.31637642188E+02 -0.16456105530E+02  0.37121009165E+02  0.51100000000E-03 0. -1.
        -12    1    3    3    0    0 -0.11239486167E+01 -0.25647377968E+01 -0.61484224343E+00  0.28669097376E+01  0.00000000000E+00 0.  1.
</event>
<event>
 7    1  0.1519238E-008  0.4614232E+02  0.7816164E-02  0.1320468E+00
        -11   -1    0    0    0    0  0.00000000000E+00  0.00000000000E+00  0.45593999997E+02  0.45594000000E+02  0.51100000000E-03 0. -1.
         11   -1    0    0    0    0 -0.00000000000E+00 -0.00000000000E+00 -0.45593999997E+02  0.45594000000E+02  0.51100000000E-03 0.  1.
    9900012    2    1    2    0    0  0.30258134131E+02  0.21937407008E+01  0.33297840194E+02  0.46142319398E+02  0.10000014922E+02 0.  0.
        -12    1    1    2    0    0 -0.30258134131E+02 -0.21937407008E+01 -0.33297840194E+02  0.45045680602E+02  0.00000000000E+00 0.  1.
         11    1    3    3    0    0  0.16907289759E+02  0.31570402731E+01  0.18212564172E+02  0.25050366150E+02  0.51100000000E-03 0. -1.
        -11    1    3    3    0    0  0.53189719882E+01 -0.14104402295E+01  0.22518126896E+01  0.59457098232E+01  0.51100000000E-03 0.  1.
        -12    1    3    3    0    0  0.80318723843E+01  0.44714065722E+00  0.12833463332E+02  0.15146243424E+02  0.00000000000E+00 0.  1.
</event>
<event>
 7    1  0.1519238E-008  0.4614231E+02  0.7816164E-02  0.1320468E+00
        -11   -1    0    0    0    0  0.00000000000E+00  0.00000000000E+00  0.45593999997E+02  0.45594000000E+02  0.51100000000E-03 0.  1.
         11   -1    0    0    0    0 -0.00000000000E+00 -0.00000000000E+00 -0.45593999997E+02  0.45594000000E+02  0.51100000000E-03 0. -1.
    9900012    2    1    2    0    0 -0.37408510977E+02 -0.12736338411E+02  0.21621817903E+02  0.46142311871E+02  0.99999462850E+01 0.  0.
        -12    1    1    2    0    0  0.37408510977E+02  0.12736338411E+02 -0.21621817903E+02  0.45045688129E+02  0.00000000000E+00 0.  1.
         11    1    3    3    0    0 -0.13869860092E+02 -0.43939820192E+01  0.10543538244E+02  0.17967924085E+02  0.51100000000E-03 0. -1.
        -11    1    3    3    0    0 -0.93185085015E+01 -0.22885609595E+01  0.83232651235E+00  0.96314526237E+01  0.51100000000E-03 0.  1.
        -12    1    3    3    0    0 -0.14220142383E+02 -0.60537954325E+01  0.10245953147E+02  0.18542935162E+02  0.00000000000E+00 0.  1.
</event>
<event>
 7    1  0.1519238E-008  0.4614231E+02  0.7816164E-02  0.1320468E+00
        -11   -1    0    0    0    0  0.00000000000E+00  0.00000000000E+00  0.45593999997E+02  0.45594000000E+02  0.51100000000E-03 0. -1.
         11   -1    0    0    0    0 -0.00000000000E+00 -0.00000000000E+00 -0.45593999997E+02  0.45594000000E+02  0.51100000000E-03 0.  1.
    9900012    2    1    2    0    0  0.36517172312E+00 -0.34244902741E+02  0.29262041350E+02  0.46142314545E+02  0.99999706768E+01 0.  0.
        -12    1    1    2    0    0 -0.36517172312E+00  0.34244902741E+02 -0.29262041350E+02  0.45045685455E+02  0.00000000000E+00 0.  1.
         11    1    3    3    0    0  0.36360243614E+01 -0.21368453391E+02  0.16668983398E+02  0.27343856372E+02  0.51100000000E-03 0. -1.
        -11    1    3    3    0    0 -0.78415765338E+00 -0.20982594401E+01  0.29760951910E+00  0.22596830730E+01  0.51100000000E-03 0.  1.
         12    1    3    3    0    0 -0.24866949849E+01 -0.10778189910E+02  0.12295448433E+02  0.16538775101E+02  0.00000000000E+00 0. -1.
</event>
<event>
 7    1  0.1519238E-008  0.4614232E+02  0.7816164E-02  0.1320468E+00
        -11   -1    0    0    0    0  0.00000000000E+00  0.00000000000E+00  0.45593999997E+02  0.45594000000E+02  0.51100000000E-03 0. -1.
         11   -1    0    0    0    0 -0.00000000000E+00 -0.00000000000E+00 -0.45593999997E+02  0.45594000000E+02  0.51100000000E-03 0.  1.
    9900012    2    1    2    0    0 -0.22470223735E+02  0.38460772621E+02  0.67060860390E+01  0.46142316797E+02  0.99999912062E+01 0.  0.
        -12    1    1    2    0    0  0.22470223735E+02 -0.38460772621E+02 -0.67060860390E+01  0.45045683203E+02  0.00000000000E+00 0.  1.
         11    1    3    3    0    0 -0.13146243148E+02  0.24596980260E+02  0.73268517495E+00  0.27899318534E+02  0.51100000000E-03 0. -1.
        -11    1    3    3    0    0 -0.42256871597E+01  0.42173206764E+01  0.38060085915E+00  0.59822305985E+01  0.51100000000E-03 0.  1.
         12    1    3    3    0    0 -0.50982934277E+01  0.96464716839E+01  0.55928000049E+01  0.12260767664E+02  0.00000000000E+00 0. -1.
</event>
<event>
 7    1  0.1519238E-008  0.4614232E+02  0.7816164E-02  0.1320468E+00
        -11   -1    0    0    0    0  0.00000000000E+00  0.00000000000E+00  0.45593999997E+02  0.45594000000E+02  0.51100000000E-03 0.  1.
         11   -1    0    0    0    0 -0.00000000000E+00 -0.00000000000E+00 -0.45593999997E+02  0.45594000000E+02  0.51100000000E-03 0. -1.
    9900012    2    1    2    0    0 -0.12471579712E+02  0.19109812656E+02 -0.38837975511E+02  0.46142316721E+02  0.99999905193E+01 0.  0.
        -12    1    1    2    0    0  0.12471579712E+02 -0.19109812656E+02  0.38837975511E+02  0.45045683279E+02  0.00000000000E+00 0.  1.
         11    1    3    3    0    0  0.88495580345E+00  0.11505170506E+01 -0.38925713467E+01  0.41543890294E+01  0.51100000000E-03 0.  1.
        -11    1    3    3    0    0 -0.11880696905E+02  0.15945987623E+02 -0.33856790328E+02  0.39264586230E+02  0.51100000000E-03 0. -1.
         12    1    3    3    0    0 -0.14758386104E+01  0.20133079822E+01 -0.10886138360E+01  0.27233414621E+01  0.00000000000E+00 0. -1.
</event>
<event>
 7    1  0.1519238E-008  0.4614232E+02  0.7816164E-02  0.1320468E+00
        -11   -1    0    0    0    0  0.00000000000E+00  0.00000000000E+00  0.45593999997E+02  0.45594000000E+02  0.51100000000E-03 0. -1.
         11   -1    0    0    0    0 -0.00000000000E+00 -0.00000000000E+00 -0.45593999997E+02  0.45594000000E+02  0.51100000000E-03 0.  1.
    9900012    2    1    2    0    0 -0.31166409454E+02  0.57770025848E+01  0.32006165788E+02  0.46142317792E+02  0.10000000283E+02 0.  0.
        -12    1    1    2    0    0  0.31166409454E+02 -0.57770025848E+01 -0.32006165788E+02  0.45045682208E+02  0.00000000000E+00 0.  1.
         11    1    3    3    0    0 -0.38864915669E+01 -0.22365319085E+01  0.43586314025E+01  0.62533638660E+01  0.51100000000E-03 0. -1.
        -11    1    3    3    0    0 -0.94891194720E+01  0.17466477566E+01  0.69838363767E+01  0.11910841177E+02  0.51100000000E-03 0.  1.
         12    1    3    3    0    0 -0.17790798415E+02  0.62668867367E+01  0.20663698009E+02  0.27978112749E+02  0.00000000000E+00 0. -1.
</event>
<event>
 7    1  0.1519238E-008  0.4614232E+02  0.7816164E-02  0.1320468E+00
        -11   -1    0    0    0    0  0.00000000000E+00  0.00000000000E+00  0.45593999997E+02  0.45594000000E+02  0.51100000000E-03 0.  1.
         11   -1    0    0    0    0 -0.00000000000E+00 -0.00000000000E+00 -0.45593999997E+02  0.45594000000E+02  0.51100000000E-03 0. -1.
    9900012    2    1    2    0    0  0.12589068307E+02 -0.20613484891E+02 -0.38022535300E+02  0.46142316624E+02  0.99999896290E+01 0.  0.
        -12    1    1    2    0    0 -0.12589068307E+02  0.20613484891E+02  0.38022535300E+02  0.45045683376E+02  0.00000000000E+00 0.  1.
         11    1    3    3    0    0  0.10961047720E+02 -0.13358192601E+02 -0.19864479559E+02  0.26328376803E+02  0.51100000000E-03 0. -1.
        -11    1    3    3    0    0 -0.50594405860E+00 -0.38730203740E+01 -0.97489918546E+01  0.10502338247E+02  0.51100000000E-03 0.  1.
        -12    1    3    3    0    0  0.21339646460E+01 -0.33822719160E+01 -0.84090638867E+01  0.93116015741E+01  0.00000000000E+00 0.  1.
</event>
<event>
 7    1  0.1519238E-008  0.4614232E+02  0.7816164E-02  0.1320468E+00
        -11   -1    0    0    0    0  0.00000000000E+00  0.00000000000E+00  0.45593999997E+02  0.45594000000E+02  0.51100000000E-03 0.  1.
         11   -1    0    0    0    0 -0.00000000000E+00 -0.00000000000E+00 -0.45593999997E+02  0.45594000000E+02  0.51100000000E-03 0. -1.
    9900012    2    1    2    0    0 -0.99529050169E+01  0.22492356569E+02 -0.37737873451E+02  0.46142317467E+02  0.99999973135E+01 0.  0.
        -12    1    1    2    0    0  0.99529050169E+01 -0.22492356569E+02  0.37737873451E+02  0.45045682533E+02  0.00000000000E+00 0.  1.
         11    1    3    3    0    0  0.84488976068E+00  0.48287941167E+01 -0.67034329778E+01  0.83046435973E+01  0.51100000000E-03 0.  1.
        -11    1    3    3    0    0 -0.43194645222E+01  0.12472043703E+02 -0.21136420943E+02  0.24919027639E+02  0.51100000000E-03 0. -1.
         12    1    3    3    0    0 -0.64783302553E+01  0.51915187487E+01 -0.98980195301E+01  0.12918646231E+02  0.00000000000E+00 0. -1.
</event>
<event>
 7    1  0.1519238E-008  0.4614232E+02  0.7816164E-02  0.1320468E+00
        -11   -1    0    0    0    0  0.00000000000E+00  0.00000000000E+00  0.45593999997E+02  0.45594000000E+02  0.51100000000E-03 0. -1.
         11   -1    0    0    0    0 -0.00000000000E+00 -0.00000000000E+00 -0.45593999997E+02  0.45594000000E+02  0.51100000000E-03 0.  1.
    9900012    2    1    2    0    0  0.29296512274E+01  0.43895001661E+02 -0.96829479167E+01  0.46142317549E+02  0.99999980634E+01 0.  0.
        -12    1    1    2    0    0 -0.29296512274E+01 -0.43895001661E+02  0.96829479167E+01  0.45045682451E+02  0.00000000000E+00 0.  1.
         11    1    3    3    0    0  0.17169250831E+01  0.25749024112E+02 -0.96459605650E+01  0.27550038656E+02  0.51100000000E-03 0. -1.
        -11    1    3    3    0    0 -0.12326749106E+01  0.33010789313E+01  0.36010385807E+00  0.35420734882E+01  0.51100000000E-03 0.  1.
         12    1    3    3    0    0  0.24454010549E+01  0.14844898618E+02 -0.39709120976E+00  0.15050205405E+02  0.00000000000E+00 0. -1.
</event>
<event>
 7    1  0.1519238E-008  0.4614232E+02  0.7816164E-02  0.1320468E+00
        -11   -1    0    0    0    0  0.00000000000E+00  0.00000000000E+00  0.45593999997E+02  0.45594000000E+02  0.51100000000E-03 0. -1.
         11   -1    0    0    0    0 -0.00000000000E+00 -0.00000000000E+00 -0.45593999997E+02  0.45594000000E+02  0.51100000000E-03 0.  1.
    9900012    2    1    2    0    0 -0.20989497829E+02  0.34726204118E+02  0.19561316768E+02  0.46142318906E+02  0.10000010439E+02 0.  0.
        -12    1    1    2    0    0  0.20989497829E+02 -0.34726204118E+02 -0.19561316768E+02  0.45045681094E+02  0.00000000000E+00 0.  1.
         11    1    3    3    0    0 -0.73732982459E+01  0.87782523343E+01  0.80625345005E+01  0.14015266815E+02  0.51100000000E-03 0. -1.
        -11    1    3    3    0    0 -0.19469592754E+01  0.11867864010E+01 -0.33659893893E+00  0.23048669134E+01  0.51100000000E-03 0.  1.
        -12    1    3    3    0    0 -0.11669240307E+02  0.24761165383E+02  0.11835381206E+02  0.29822185177E+02  0.00000000000E+00 0.  1.
</event>
<event>
 7    1  0.1519238E-008  0.4614232E+02  0.7816164E-02  0.1320468E+00
        -11   -1    0    0    0    0  0.00000000000E+00  0.00000000000E+00  0.45593999997E+02  0.45594000000E+02  0.51100000000E-03 0.  1.
         11   -1    0    0    0    0 -0.00000000000E+00 -0.00000000000E+00 -0.45593999997E+02  0.45594000000E+02  0.51100000000E-03 0. -1.
    9900012    2    1    2    0    0  0.14786943295E+02  0.42473002943E+02  0.25502573910E+01  0.46142317812E+02  0.10000000461E+02 0.  0.
        -12    1    1    2    0    0 -0.14786943295E+02 -0.42473002943E+02 -0.25502573910E+01  0.45045682188E+02  0.00000000000E+00 0.  1.
         11    1    3    3    0    0  0.51611850090E+01  0.17203193342E+02  0.48265816535E+01  0.18597945655E+02  0.51100000000E-03 0. -1.
        -11    1    3    3    0    0 -0.17617205820E+00 -0.10864190248E+00  0.10989464175E+00  0.23434323218E+00  0.51100000000E-03 0.  1.
         12    1    3    3    0    0  0.98019303442E+01  0.25378451504E+02 -0.23862189042E+01  0.27310028924E+02  0.00000000000E+00 0. -1.
</event>
<event>
 7    1  0.1519238E-008  0.4614232E+02  0.7816164E-02  0.1320468E+00
        -11   -1    0    0    0    0  0.00000000000E+00  0.00000000000E+00  0.45593999997E+02  0.45594000000E+02  0.51100000000E-03 0. -1.
         11   -1    0    0    0    0 -0.00000000000E+00 -0.00000000000E+00 -0.45593999997E+02  0.45594000000E+02  0.51100000000E-03 0.  1.
    9900012    2    1    2    0    0  0.71314688761E+01  0.11425180738E+02  0.42985123209E+02  0.46142318514E+02  0.10000006870E+02 0.  0.
        -12    1    1    2    0    0 -0.71314688761E+01 -0.11425180738E+02 -0.42985123209E+02  0.45045681486E+02  0.00000000000E+00 0.  1.
         11    1    3    3    0    0  0.46094370321E+01  0.32236762372E+00  0.17361765030E+02  0.17966126902E+02  0.51100000000E-03 0. -1.
        -11    1    3    3    0    0  0.11831582527E+01  0.38777945052E+01  0.61850887037E+01  0.73954361744E+01  0.51100000000E-03 0.  1.
         12    1    3    3    0    0  0.13388735913E+01  0.72250186094E+01  0.19438269475E+02  0.20780755438E+02  0.00000000000E+00 0. -1.
</event>
<event>
 7    1  0.1519238E-008  0.4614232E+02  0.7816164E-02  0.1320468E+00
        -11   -1    0    0    0    0  0.00000000000E+00  0.00000000000E+00  0.45593999997E+02  0.45594000000E+02  0.51100000000E-03 0. -1.
         11   -1    0    0    0    0 -0.00000000000E+00 -0.00000000000E+00 -0.45593999997E+02  0.45594000000E+02  0.51100000000E-03 0.  1.
    9900012    2    1    2    0    0  0.56463996459E+01 -0.37139316198E+02  0.24857652681E+02  0.46142317261E+02  0.99999954367E+01 0.  0.
        -12    1    1    2    0    0 -0.56463996459E+01  0.37139316198E+02 -0.24857652681E+02  0.45045682739E+02  0.00000000000E+00 0.  1.
         11    1    3    3    0    0  0.13947370394E+01 -0.12229422686E+02  0.11941908724E+02  0.17149730460E+02  0.51100000000E-03 0. -1.
        -11    1    3    3    0    0 -0.12116976510E+01 -0.66791507030E+01  0.21170939565E+01  0.71106506308E+01  0.51100000000E-03 0.  1.
        -12    1    3    3    0    0  0.54633602575E+01 -0.18230742809E+02  0.10798650001E+02  0.21881936170E+02  0.00000000000E+00 0.  1.
</event>
<event>
 7    1  0.1519238E-008  0.4614232E+02  0.7816164E-02  0.1320468E+00
        -11   -1    0    0    0    0  0.00000000000E+00  0.00000000000E+00  0.45593999997E+02  0.45594000000E+02  0.51100000000E-03 0. -1.
         11   -1    0    0    0    0 -0.00000000000E+00 -0.00000000000E+00 -0.45593999997E+02  0.45594000000E+02  0.51100000000E-03 0.  1.
    9900012    2    1    2    0    0  0.16670888992E+02  0.37798929918E+02  0.17956498139E+02  0.46142317985E+02  0.10000002044E+02 0.  0.
        -12    1    1    2    0    0 -0.16670888992E+02 -0.37798929918E+02 -0.17956498139E+02  0.45045682015E+02  0.00000000000E+00 0.  1.
         11    1    3    3    0    0  0.36776778716E+01  0.44112942560E+01  0.52064765333E+01  0.77519178074E+01  0.51100000000E-03 0. -1.
        -11    1    3    3    0    0  0.95181928138E+01  0.21909100680E+02  0.10895509461E+02  0.26254843624E+02  0.51100000000E-03 0.  1.
        -12    1    3    3    0    0  0.34750183066E+01  0.11478534982E+02  0.18545121446E+01  0.12135556553E+02  0.00000000000E+00 0.  1.
</event>
<event>
 7    1  0.1519238E-008  0.4614232E+02  0.7816164E-02  0.1320468E+00
        -11   -1    0    0    0    0  0.00000000000E+00  0.00000000000E+00  0.45593999997E+02  0.45594000000E+02  0.51100000000E-03 0.  1.
         11   -1    0    0    0    0 -0.00000000000E+00 -0.00000000000E+00 -0.45593999997E+02  0.45594000000E+02  0.51100000000E-03 0. -1.
    9900012    2    1    2    0    0  0.31304006823E+01 -0.10498797686E+02 -0.43693122261E+02  0.46142322137E+02  0.10000039901E+02 0.  0.
        -12    1    1    2    0    0 -0.31304006823E+01  0.10498797686E+02  0.43693122261E+02  0.45045677863E+02  0.00000000000E+00 0.  1.
         11    1    3    3    0    0 -0.77033948266E+00 -0.18033983908E+01 -0.33278096239E+01  0.38626397487E+01  0.51100000000E-03 0. -1.
        -11    1    3    3    0    0  0.27760995874E+00  0.11372928348E+01 -0.98792355487E+00  0.15318275010E+01  0.51100000000E-03 0.  1.
        -12    1    3    3    0    0  0.36231302063E+01 -0.98326921296E+01 -0.39377389082E+02  0.40747854887E+02  0.00000000000E+00 0.  1.
</event>
<event>
 7    1  0.1519238E-008  0.4614232E+02  0.7816164E-02  0.1320468E+00
        -11   -1    0    0    0    0  0.00000000000E+00  0.00000000000E+00  0.45593999997E+02  0.45594000000E+02  0.51100000000E-03 0.  1.
         11   -1    0    0    0    0 -0.00000000000E+00 -0.00000000000E+00 -0.45593999997E+02  0.45594000000E+02  0.51100000000E-03 0. -1.
    9900012    2    1    2    0    0 -0.11409095898E+02 -0.33484530576E+02 -0.27887850935E+02  0.46142317777E+02  0.10000000146E+02 0.  0.
        -12    1    1    2    0    0  0.11409095898E+02  0.33484530576E+02  0.27887850935E+02  0.45045682223E+02  0.00000000000E+00 0.  1.
         11    1    3    3    0    0 -0.26203945660E+01 -0.79012621519E+01 -0.38869537291E+01  0.91872096323E+01  0.51100000000E-03 0. -1.
        -11    1    3    3    0    0 -0.65520671634E+00 -0.11820605175E+02 -0.76944906257E+01  0.14119532173E+02  0.51100000000E-03 0.  1.
        -12    1    3    3    0    0 -0.81334946161E+01 -0.13762663250E+02 -0.16306406580E+02  0.22835575972E+02  0.00000000000E+00 0.  1.
</event>
<event>
 7    1  0.1519238E-008  0.4614232E+02  0.7816164E-02  0.1320468E+00
        -11   -1    0    0    0    0  0.00000000000E+00  0.00000000000E+00  0.45593999997E+02  0.45594000000E+02  0.51100000000E-03 0. -1.
         11   -1    0    0    0    0 -0.00000000000E+00 -0.00000000000E+00 -0.45593999997E+02  0.45594000000E+02  0.51100000000E-03 0.  1.
    9900012    2    1    2    0    0  0.37215941662E+02  0.74885602192E+01  0.24248888798E+02  0.46142318122E+02  0.10000003288E+02 0.  0.
        -12    1    1    2    0    0 -0.37215941662E+02 -0.74885602192E+01 -0.24248888798E+02  0.45045681878E+02  0.00000000000E+00 0.  1.
         11    1    3    3    0    0  0.32556046763E+02  0.39916874754E+01  0.18722750283E+02  0.37767328846E+02  0.51100000000E-03 0. -1.
        -11    1    3    3    0    0  0.46093995054E+01  0.36529050676E+01  0.46885268212E+01  0.75214734758E+01  0.51100000000E-03 0.  1.
         12    1    3    3    0    0  0.50495393392E-01 -0.15603232377E+00  0.83761169394E+00  0.85351579987E+00  0.00000000000E+00 0. -1.
</event>
<event>
 7    1  0.1519238E-008  0.4614232E+02  0.7816164E-02  0.1320468E+00
        -11   -1    0    0    0    0  0.00000000000E+00  0.00000000000E+00  0.45593999997E+02  0.45594000000E+02  0.51100000000E-03 0. -1.
         11   -1    0    0    0    0 -0.00000000000E+00 -0.00000000000E+00 -0.45593999997E+02  0.45594000000E+02  0.51100000000E-03 0.  1.
    9900012    2    1    2    0    0  0.19576479150E+02 -0.40019085585E+02  0.66594079314E+01  0.46142318066E+02  0.10000002776E+02 0.  0.
        -12    1    1    2    0    0 -0.19576479150E+02  0.40019085585E+02 -0.66594079314E+01  0.45045681934E+02  0.00000000000E+00 0.  1.
         11    1    3    3    0    0  0.25675856634E+01 -0.10964233482E+02  0.58292342983E+00  0.11275935082E+02  0.51100000000E-03 0. -1.
        -11    1    3    3    0    0  0.10639177510E+02 -0.17810087839E+02  0.70378327285E+01  0.21907131640E+02  0.51100000000E-03 0.  1.
        -12    1    3    3    0    0  0.63697159771E+01 -0.11244764264E+02 -0.96134822696E+00  0.12959251344E+02  0.00000000000E+00 0.  1.
</event>
<event>
 7    1  0.1519238E-008  0.4614232E+02  0.7816164E-02  0.1320468E+00
        -11   -1    0    0    0    0  0.00000000000E+00  0.00000000000E+00  0.45593999997E+02  0.45594000000E+02  0.51100000000E-03 0.  1.
         11   -1    0    0    0    0 -0.00000000000E+00 -0.00000000000E+00 -0.45593999997E+02  0.45594000000E+02  0.51100000000E-03 0. -1.
    9900012    2    1    2    0    0 -0.16481383939E+02  0.31906035698E+02 -0.27193425057E+02  0.46142317667E+02  0.99999991433E+01 0.  0.
        -12    1    1    2    0    0  0.16481383939E+02 -0.31906035698E+02  0.27193425057E+02  0.45045682333E+02  0.00000000000E+00 0.  1.
         11    1    3    3    0    0 -0.53643918085E+01  0.15564960902E+02 -0.13755253121E+02  0.21453477481E+02  0.51100000000E-03 0. -1.
        -11    1    3    3    0    0 -0.96599339183E+01  0.13289639518E+02 -0.79724404968E+01  0.18261671598E+02  0.51100000000E-03 0.  1.
         12    1    3    3    0    0 -0.14570582123E+01  0.30514352779E+01 -0.54657314394E+01  0.64271685878E+01  0.00000000000E+00 0. -1.
</event>
<event>
 7    1  0.1519238E-008  0.4614232E+02  0.7816164E-02  0.1320468E+00
        -11   -1    0    0    0    0  0.00000000000E+00  0.00000000000E+00  0.45593999997E+02  0.45594000000E+02  0.51100000000E-03 0.  1.
         11   -1    0    0    0    0 -0.00000000000E+00 -0.00000000000E+00 -0.45593999997E+02  0.45594000000E+02  0.51100000000E-03 0. -1.
    9900012    2    1    2    0    0  0.14305804382E+02 -0.23678665917E+02 -0.35549658969E+02  0.46142317505E+02  0.99999976632E+01 0.  0.
        -12    1    1    2    0    0 -0.14305804382E+02  0.23678665917E+02  0.35549658969E+02  0.45045682495E+02  0.00000000000E+00 0.  1.
         11    1    3    3    0    0  0.32067105770E+01 -0.82351478504E+01 -0.10677417979E+02  0.13860299701E+02  0.51100000000E-03 0. -1.
        -11    1    3    3    0    0  0.50422268833E+01 -0.41986341023E+01 -0.14181790801E+02  0.15626124627E+02  0.51100000000E-03 0.  1.
        -12    1    3    3    0    0  0.60568669216E+01 -0.11244883964E+02 -0.10690450189E+02  0.16655893177E+02  0.00000000000E+00 0.  1.
</event>
<event>
 7    1  0.1519238E-008  0.4614232E+02  0.7816164E-02  0.1320468E+00
        -11   -1    0    0    0    0  0.00000000000E+00  0.00000000000E+00  0.45593999997E+02  0.45594000000E+02  0.51100000000E-03 0. -1.
         11   -1    0    0    0    0 -0.00000000000E+00 -0.00000000000E+00 -0.45593999997E+02  0.45594000000E+02  0.51100000000E-03 0.  1.
    9900012    2    1    2    0    0 -0.40957297368E+02 -0.18446729609E+02 -0.33662310040E+01  0.46142317054E+02  0.99999935503E+01 0.  0.
        -12    1    1    2    0    0  0.40957297368E+02  0.18446729609E+02  0.33662310040E+01  0.45045682946E+02  0.00000000000E+00 0.  1.
         11    1    3    3    0    0 -0.21946970404E+02 -0.11311626114E+02 -0.31924206146E+01  0.24896062840E+02  0.51100000000E-03 0. -1.
        -11    1    3    3    0    0 -0.85253699756E+00 -0.43019639618E+00 -0.15723701685E+01  0.18396294407E+01  0.51100000000E-03 0.  1.
        -12    1    3    3    0    0 -0.18157789966E+02 -0.67049070980E+01  0.13985597791E+01  0.19406624774E+02  0.00000000000E+00 0.  1.
</event>
<event>
 7    1  0.1519238E-008  0.4614232E+02  0.7816164E-02  0.1320468E+00
        -11   -1    0    0    0    0  0.00000000000E+00  0.00000000000E+00  0.45593999997E+02  0.45594000000E+02  0.51100000000E-03 0.  1.
         11   -1    0    0    0    0 -0.00000000000E+00 -0.00000000000E+00 -0.45593999997E+02  0.45594000000E+02  0.51100000000E-03 0. -1.
    9900012    2    1    2    0    0 -0.12233352269E+02  0.28222343863E+02 -0.32908325490E+02  0.46142317772E+02  0.10000000097E+02 0.  0.
        -12    1    1    2    0    0  0.12233352269E+02 -0.28222343863E+02  0.32908325490E+02  0.45045682228E+02  0.00000000000E+00 0.  1.
         11    1    3    3    0    0 -0.13541112731E+01  0.30441943266E+00 -0.40058728795E+01  0.42394936395E+01  0.51100000000E-03 0. -1.
        -11    1    3    3    0    0  0.23778003440E+00 -0.50245574706E-01 -0.22937288638E+00  0.33417980888E+00  0.51100000000E-03 0.  1.
         12    1    3    3    0    0 -0.11117021030E+02  0.27968170005E+02 -0.28673079724E+02  0.41568644323E+02  0.00000000000E+00 0. -1.
</event>
<event>
 7    1  0.1519238E-008  0.4614232E+02  0.7816164E-02  0.1320468E+00
        -11   -1    0    0    0    0  0.00000000000E+00  0.00000000000E+00  0.45593999997E+02  0.45594000000E+02  0.51100000000E-03 0.  1.
         11   -1    0    0    0    0 -0.00000000000E+00 -0.00000000000E+00 -0.45593999997E+02  0.45594000000E+02  0.51100000000E-03 0. -1.
    9900012    2    1    2    0    0 -0.38742199396E+02 -0.22169246851E+02  0.60564055506E+01  0.46142316875E+02  0.99999919217E+01 0.  0.
        -12    1    1    2    0    0  0.38742199396E+02  0.22169246851E+02 -0.60564055506E+01  0.45045683125E+02  0.00000000000E+00 0.  1.
         11    1    3    3    0    0 -0.32768551258E+02 -0.17980910476E+02  0.78458438291E+01  0.38192255219E+02  0.51100000000E-03 0. -1.
        -11    1    3    3    0    0 -0.19862545209E+00 -0.22942729914E-01 -0.72301807146E+00  0.75015587170E+00  0.51100000000E-03 0.  1.
         12    1    3    3    0    0 -0.57750226862E+01 -0.41653936449E+01 -0.10664202070E+01  0.71999057841E+01  0.00000000000E+00 0. -1.
</event>
<event>
 7    1  0.1519238E-008  0.4614232E+02  0.7816164E-02  0.1320468E+00
        -11   -1    0    0    0    0  0.00000000000E+00  0.00000000000E+00  0.45593999997E+02  0.45594000000E+02  0.51100000000E-03 0.  1.
         11   -1    0    0    0    0 -0.00000000000E+00 -0.00000000000E+00 -0.45593999997E+02  0.45594000000E+02  0.51100000000E-03 0. -1.
    9900012    2    1    2    0    0 -0.15413462384E+02  0.41436433772E+02 -0.86348451193E+01  0.46142318557E+02  0.10000007262E+02 0.  0.
        -12    1    1    2    0    0  0.15413462384E+02 -0.41436433772E+02  0.86348451193E+01  0.45045681443E+02  0.00000000000E+00 0.  1.
         11    1    3    3    0    0 -0.68789026016E+01  0.93248793057E+01 -0.28514471411E+00  0.11591116548E+02  0.51100000000E-03 0. -1.
        -11    1    3    3    0    0 -0.10976178951E+01  0.10577627700E+01 -0.86940021902E+00  0.17548458973E+01  0.51100000000E-03 0.  1.
         12    1    3    3    0    0 -0.74369418875E+01  0.31053791696E+02 -0.74803001862E+01  0.32796356112E+02  0.00000000000E+00 0. -1.
</event>
<event>
 7    1  0.1519238E-008  0.4614232E+02  0.7816164E-02  0.1320468E+00
        -11   -1    0    0    0    0  0.00000000000E+00  0.00000000000E+00  0.45593999997E+02  0.45594000000E+02  0.51100000000E-03 0. -1.
         11   -1    0    0    0    0 -0.00000000000E+00 -0.00000000000E+00 -0.45593999997E+02  0.45594000000E+02  0.51100000000E-03 0.  1.
    9900012    2    1    2    0    0 -0.18108540550E+02 -0.41192015626E+02  0.21004979253E+01  0.46142317813E+02  0.10000000475E+02 0.  0.
        -12    1    1    2    0    0  0.18108540550E+02  0.41192015626E+02 -0.21004979253E+01  0.45045682187E+02  0.00000000000E+00 0.  1.
         11    1    3    3    0    0 -0.19327447991E+01 -0.81239633319E+01  0.24924289461E+01  0.87147280502E+01  0.51100000000E-03 0. -1.
        -11    1    3    3    0    0 -0.25817012246E+01 -0.79991582667E+01 -0.26697242896E+01  0.88192483939E+01  0.51100000000E-03 0.  1.
         12    1    3    3    0    0 -0.13594094526E+02 -0.25068894027E+02  0.22777932688E+01  0.28608341369E+02  0.00000000000E+00 0. -1.
</event>
<event>
 7    1  0.1519238E-008  0.4614232E+02  0.7816164E-02  0.1320468E+00
        -11   -1    0    0    0    0  0.00000000000E+00  0.00000000000E+00  0.45593999997E+02  0.45594000000E+02  0.51100000000E-03 0.  1.
         11   -1    0    0    0    0 -0.00000000000E+00 -0.00000000000E+00 -0.45593999997E+02  0.45594000000E+02  0.51100000000E-03 0. -1.
    9900012    2    1    2    0    0 -0.19157311531E+01  0.17066070744E+02 -0.41643640347E+02  0.46142316768E+02  0.99999909422E+01 0.  0.
        -12    1    1    2    0    0  0.19157311531E+01 -0.17066070744E+02  0.41643640347E+02  0.45045683232E+02  0.00000000000E+00 0.  1.
         11    1    3    3    0    0 -0.70906580277E+00  0.15790744871E+02 -0.36704089289E+02  0.39962989987E+02  0.51100000000E-03 0. -1.
        -11    1    3    3    0    0 -0.21849681591E+01  0.80453064784E+00 -0.20857115492E+01  0.31259475919E+01  0.51100000000E-03 0.  1.
         12    1    3    3    0    0  0.97830280879E+00  0.47079522562E+00 -0.28538395086E+01  0.30533791888E+01  0.00000000000E+00 0. -1.
</event>
<event>
 7    1  0.1519238E-008  0.4614232E+02  0.7816164E-02  0.1320468E+00
        -11   -1    0    0    0    0  0.00000000000E+00  0.00000000000E+00  0.45593999997E+02  0.45594000000E+02  0.51100000000E-03 0.  1.
         11   -1    0    0    0    0 -0.00000000000E+00 -0.00000000000E+00 -0.45593999997E+02  0.45594000000E+02  0.51100000000E-03 0. -1.
    9900012    2    1    2    0    0  0.83322051067E+01 -0.16951130727E+02 -0.40894338024E+02  0.46142319216E+02  0.10000013265E+02 0.  0.
        -12    1    1    2    0    0 -0.83322051067E+01  0.16951130727E+02  0.40894338024E+02  0.45045680784E+02  0.00000000000E+00 0.  1.
         11    1    3    3    0    0  0.65535846705E+01 -0.97867846474E+01 -0.18700830826E+02  0.22100943410E+02  0.51100000000E-03 0. -1.
        -11    1    3    3    0    0  0.21878756759E+01 -0.16737959032E+01 -0.13294263823E+02  0.13576665406E+02  0.51100000000E-03 0.  1.
        -12    1    3    3    0    0 -0.40925523972E+00 -0.54905501764E+01 -0.88992433756E+01  0.10464710400E+02  0.00000000000E+00 0.  1.
</event>
<event>
 7    1  0.1519238E-008  0.4614232E+02  0.7816164E-02  0.1320468E+00
        -11   -1    0    0    0    0  0.00000000000E+00  0.00000000000E+00  0.45593999997E+02  0.45594000000E+02  0.51100000000E-03 0.  1.
         11   -1    0    0    0    0 -0.00000000000E+00 -0.00000000000E+00 -0.45593999997E+02  0.45594000000E+02  0.51100000000E-03 0. -1.
    9900012    2    1    2    0    0  0.15523016266E+02 -0.38262337666E+02 -0.18003969780E+02  0.46142318237E+02  0.10000004336E+02 0.  0.
        -12    1    1    2    0    0 -0.15523016266E+02  0.38262337666E+02  0.18003969780E+02  0.45045681763E+02  0.00000000000E+00 0.  1.
         11    1    3    3    0    0  0.12522441995E+02 -0.30185827577E+02 -0.16985007597E+02  0.36830506694E+02  0.51100000000E-03 0. -1.
        -11    1    3    3    0    0  0.29946075525E+01 -0.76013336297E+01  0.19299047242E-01  0.81699645078E+01  0.51100000000E-03 0.  1.
         12    1    3    3    0    0  0.59667188357E-02 -0.47517645999E+00 -0.10382612297E+01  0.11418470348E+01  0.00000000000E+00 0. -1.
</event>
<event>
 7    1  0.1519238E-008  0.4614232E+02  0.7816164E-02  0.1320468E+00
        -11   -1    0    0    0    0  0.00000000000E+00  0.00000000000E+00  0.45593999997E+02  0.45594000000E+02  0.51100000000E-03 0. -1.
         11   -1    0    0    0    0 -0.00000000000E+00 -0.00000000000E+00 -0.45593999997E+02  0.45594000000E+02  0.51100000000E-03 0.  1.
    9900012    2    1    2    0    0 -0.14520338128E+02  0.34665202249E+02  0.24831371708E+02  0.46142317774E+02  0.10000000117E+02 0.  0.
        -12    1    1    2    0    0  0.14520338128E+02 -0.34665202249E+02 -0.24831371708E+02  0.45045682226E+02  0.00000000000E+00 0.  1.
         11    1    3    3    0    0 -0.10779877114E+01  0.28044122331E+01  0.96060679943E-01  0.30059962399E+01  0.51100000000E-03 0. -1.
        -11    1    3    3    0    0  0.85426481133E+00  0.21662096591E+01  0.10688686471E+01  0.25621696082E+01  0.51100000000E-03 0.  1.
         12    1    3    3    0    0 -0.14296615228E+02  0.29694580357E+02  0.23666442381E+02  0.40574151926E+02  0.00000000000E+00 0. -1.
</event>
<event>
 7    1  0.1519238E-008  0.4614232E+02  0.7816164E-02  0.1320468E+00
        -11   -1    0    0    0    0  0.00000000000E+00  0.00000000000E+00  0.45593999997E+02  0.45594000000E+02  0.51100000000E-03 0. -1.
         11   -1    0    0    0    0 -0.00000000000E+00 -0.00000000000E+00 -0.45593999997E+02  0.45594000000E+02  0.51100000000E-03 0.  1.
    9900012    2    1    2    0    0  0.26797548573E+02 -0.10614740964E+02  0.34616935035E+02  0.46142317338E+02  0.99999961443E+01 0.  0.
        -12    1    1    2    0    0 -0.26797548573E+02  0.10614740964E+02 -0.34616935035E+02  0.45045682662E+02  0.00000000000E+00 0.  1.
         11    1    3    3    0    0  0.15228553911E+02 -0.44965087818E+01  0.15247130337E+02  0.22013687315E+02  0.51100000000E-03 0. -1.
        -11    1    3    3    0    0  0.36709152737E+01 -0.32612541847E+01  0.30668779400E+01  0.57893987912E+01  0.51100000000E-03 0.  1.
         12    1    3    3    0    0  0.78980793887E+01 -0.28569779974E+01  0.16302926758E+02  0.18339231232E+02  0.00000000000E+00 0. -1.
</event>
<event>
 7    1  0.1519238E-008  0.4614232E+02  0.7816164E-02  0.1320468E+00
        -11   -1    0    0    0    0  0.00000000000E+00  0.00000000000E+00  0.45593999997E+02  0.45594000000E+02  0.51100000000E-03 0.  1.
         11   -1    0    0    0    0 -0.00000000000E+00 -0.00000000000E+00 -0.45593999997E+02  0.45594000000E+02  0.51100000000E-03 0. -1.
    9900012    2    1    2    0    0 -0.18638751695E+02  0.25562977110E+02 -0.32066253783E+02  0.46142317686E+02  0.99999993131E+01 0.  0.
        -12    1    1    2    0    0  0.18638751695E+02 -0.25562977110E+02  0.32066253783E+02  0.45045682314E+02  0.00000000000E+00 0.  1.
         11    1    3    3    0    0  0.71960412317E+00  0.37040573562E+00 -0.37893772095E+00  0.89365796620E+00  0.51100000000E-03 0. -1.
        -11    1    3    3    0    0 -0.40540399951E+00 -0.31307120033E+00 -0.67047218103E+00  0.84374118422E+00  0.51100000000E-03 0.  1.
         12    1    3    3    0    0 -0.18952951819E+02  0.25505642575E+02 -0.31016843881E+02  0.44404918535E+02  0.00000000000E+00 0. -1.
</event>
<event>
 7    1  0.1519238E-008  0.4614232E+02  0.7816164E-02  0.1320468E+00
        -11   -1    0    0    0    0  0.00000000000E+00  0.00000000000E+00  0.45593999997E+02  0.45594000000E+02  0.51100000000E-03 0.  1.
         11   -1    0    0    0    0 -0.00000000000E+00 -0.00000000000E+00 -0.45593999997E+02  0.45594000000E+02  0.51100000000E-03 0. -1.
    9900012    2    1    2    0    0  0.25575996432E+02  0.20913740873E+02 -0.30620207126E+02  0.46142320571E+02  0.10000025619E+02 0.  0.
        -12    1    1    2    0    0 -0.25575996432E+02 -0.20913740873E+02  0.30620207126E+02  0.45045679429E+02  0.00000000000E+00 0.  1.
         11    1    3    3    0    0  0.10453514711E+02  0.14443013302E+02 -0.18435302963E+02  0.25646383735E+02  0.51100000000E-03 0. -1.
        -11    1    3    3    0    0  0.17942341745E+01  0.52423524403E+00 -0.10993130481E+01  0.21685452042E+01  0.51100000000E-03 0.  1.
         12    1    3    3    0    0  0.13328247547E+02  0.59464923269E+01 -0.11085591115E+02  0.18327391631E+02  0.00000000000E+00 0. -1.
</event>
<event>
 7    1  0.1643874E-008  0.4614232E+02  0.7816164E-02  0.1320468E+00
        -11   -1    0    0    0    0  0.00000000000E+00  0.00000000000E+00  0.45593999997E+02  0.45594000000E+02  0.51100000000E-03 0. -1.
         11   -1    0    0    0    0 -0.00000000000E+00 -0.00000000000E+00 -0.45593999997E+02  0.45594000000E+02  0.51100000000E-03 0.  1.
    9900012    2    1    2    0    0  0.22474564872E+02 -0.54102719114E+01  0.38661819227E+02  0.46142319028E+02  0.10000011549E+02 0.  0.
        -12    1    1    2    0    0 -0.22474564872E+02  0.54102719114E+01 -0.38661819227E+02  0.45045680972E+02  0.00000000000E+00 0.  1.
         11    1    3    3    0    0  0.91511288591E+01 -0.20961124346E+01  0.21457051708E+02  0.23420971692E+02  0.51100000000E-03 0. -1.
        -11    1    3    3    0    0  0.98764088132E+01 -0.22557840545E+01  0.82404244196E+01  0.13058966560E+02  0.51100000000E-03 0.  1.
        -12    1    3    3    0    0  0.34470272001E+01 -0.10583754223E+01  0.89643430992E+01  0.96623807756E+01  0.00000000000E+00 0.  1.
</event>
<event>
 7    1  0.1519238E-008  0.4614232E+02  0.7816164E-02  0.1320468E+00
        -11   -1    0    0    0    0  0.00000000000E+00  0.00000000000E+00  0.45593999997E+02  0.45594000000E+02  0.51100000000E-03 0.  1.
         11   -1    0    0    0    0 -0.00000000000E+00 -0.00000000000E+00 -0.45593999997E+02  0.45594000000E+02  0.51100000000E-03 0. -1.
    9900012    2    1    2    0    0  0.11460124276E+02 -0.25307552303E+02 -0.35458524257E+02  0.46142316583E+02  0.99999892589E+01 0.  0.
        -12    1    1    2    0    0 -0.11460124276E+02  0.25307552303E+02  0.35458524257E+02  0.45045683417E+02  0.00000000000E+00 0.  1.
         11    1    3    3    0    0  0.77129981079E+01 -0.90883424812E+01 -0.17528394908E+02  0.21197474783E+02  0.51100000000E-03 0. -1.
        -11    1    3    3    0    0  0.28586168420E+01 -0.14587261970E+02 -0.17633841119E+02  0.23063222994E+02  0.51100000000E-03 0.  1.
         12    1    3    3    0    0  0.88850932646E+00 -0.16319478518E+01 -0.29628823023E+00  0.18816188056E+01  0.00000000000E+00 0. -1.
</event>
<event>
 7    1  0.1519238E-008  0.4614232E+02  0.7816164E-02  0.1320468E+00
        -11   -1    0    0    0    0  0.00000000000E+00  0.00000000000E+00  0.45593999997E+02  0.45594000000E+02  0.51100000000E-03 0.  1.
         11   -1    0    0    0    0 -0.00000000000E+00 -0.00000000000E+00 -0.45593999997E+02  0.45594000000E+02  0.51100000000E-03 0. -1.
    9900012    2    1    2    0    0 -0.28629582763E+02 -0.26903250128E+02 -0.22038045842E+02  0.46142319395E+02  0.10000014902E+02 0.  0.
        -12    1    1    2    0    0  0.28629582763E+02  0.26903250128E+02  0.22038045842E+02  0.45045680605E+02  0.00000000000E+00 0.  1.
         11    1    3    3    0    0 -0.20035626502E+02 -0.14042116699E+02 -0.14829094560E+02  0.28609603570E+02  0.51100000000E-03 0. -1.
        -11    1    3    3    0    0 -0.74539056977E+01 -0.12079499006E+02 -0.52474510631E+01  0.15133101113E+02  0.51100000000E-03 0.  1.
        -12    1    3    3    0    0 -0.11400505634E+01 -0.78163442291E+00 -0.19615002187E+01  0.23996147120E+01  0.00000000000E+00 0.  1.
</event>
<event>
 7    1  0.1519238E-008  0.4614232E+02  0.7816164E-02  0.1320468E+00
        -11   -1    0    0    0    0  0.00000000000E+00  0.00000000000E+00  0.45593999997E+02  0.45594000000E+02  0.51100000000E-03 0.  1.
         11   -1    0    0    0    0 -0.00000000000E+00 -0.00000000000E+00 -0.45593999997E+02  0.45594000000E+02  0.51100000000E-03 0. -1.
    9900012    2    1    2    0    0  0.48725737000E+01 -0.10587136287E+02 -0.43511883978E+02  0.46142317893E+02  0.10000001199E+02 0.  0.
        -12    1    1    2    0    0 -0.48725737000E+01  0.10587136287E+02  0.43511883978E+02  0.45045682107E+02  0.00000000000E+00 0.  1.
         11    1    3    3    0    0  0.19558680162E+01 -0.11016271923E+02 -0.29459069847E+02  0.31512227202E+02  0.51100000000E-03 0. -1.
        -11    1    3    3    0    0  0.18770835154E+01  0.31814367013E+00 -0.13026919571E+02  0.13165306366E+02  0.51100000000E-03 0.  1.
         12    1    3    3    0    0  0.10396221684E+01  0.11099196559E+00 -0.10258945598E+01  0.14647843245E+01  0.00000000000E+00 0. -1.
</event>
<event>
 7    1  0.1519238E-008  0.4614232E+02  0.7816164E-02  0.1320468E+00
        -11   -1    0    0    0    0  0.00000000000E+00  0.00000000000E+00  0.45593999997E+02  0.45594000000E+02  0.51100000000E-03 0.  1.
         11   -1    0    0    0    0 -0.00000000000E+00 -0.00000000000E+00 -0.45593999997E+02  0.45594000000E+02  0.51100000000E-03 0. -1.
    9900012    2    1    2    0    0 -0.20517617220E+02  0.17230703295E+02 -0.36211096679E+02  0.46142320128E+02  0.10000021582E+02 0.  0.
        -12    1    1    2    0    0  0.20517617220E+02 -0.17230703295E+02  0.36211096679E+02  0.45045679872E+02  0.00000000000E+00 0.  1.
         11    1    3    3    0    0 -0.72556208408E+01  0.12310801834E+02 -0.19700446497E+02  0.24337367730E+02  0.51100000000E-03 0. -1.
        -11    1    3    3    0    0 -0.86084028787E+01  0.32725603468E+01 -0.95055078210E+01  0.13235139990E+02  0.51100000000E-03 0.  1.
         12    1    3    3    0    0 -0.46535935002E+01  0.16473411142E+01 -0.70051423611E+01  0.85698124081E+01  0.00000000000E+00 0. -1.
</event>
<event>
 7    1  0.1519238E-008  0.4614232E+02  0.7816164E-02  0.1320468E+00
        -11   -1    0    0    0    0  0.00000000000E+00  0.00000000000E+00  0.45593999997E+02  0.45594000000E+02  0.51100000000E-03 0.  1.
         11   -1    0    0    0    0 -0.00000000000E+00 -0.00000000000E+00 -0.45593999997E+02  0.45594000000E+02  0.51100000000E-03 0. -1.
    9900012    2    1    2    0    0  0.29482875039E+02  0.34037380872E+02  0.11533950000E+01  0.46142317219E+02  0.99999950593E+01 0.  0.
        -12    1    1    2    0    0 -0.29482875039E+02 -0.34037380872E+02 -0.11533950000E+01  0.45045682781E+02  0.00000000000E+00 0.  1.
         11    1    3    3    0    0  0.14258851548E+02  0.14035444873E+02  0.25205488830E+01  0.20165855479E+02  0.51100000000E-03 0. -1.
        -11    1    3    3    0    0  0.48015318535E+01  0.75253191055E+01 -0.34832699289E+01  0.95821868819E+01  0.51100000000E-03 0.  1.
        -12    1    3    3    0    0  0.10422491637E+02  0.12476616893E+02  0.21161160460E+01  0.16394274858E+02  0.00000000000E+00 0.  1.
</event>
<event>
 7    1  0.1519238E-008  0.4614232E+02  0.7816164E-02  0.1320468E+00
        -11   -1    0    0    0    0  0.00000000000E+00  0.00000000000E+00  0.45593999997E+02  0.45594000000E+02  0.51100000000E-03 0.  1.
         11   -1    0    0    0    0 -0.00000000000E+00 -0.00000000000E+00 -0.45593999997E+02  0.45594000000E+02  0.51100000000E-03 0. -1.
    9900012    2    1    2    0    0 -0.30726449698E+02  0.30164161441E+02 -0.13233372576E+02  0.46142317674E+02  0.99999992046E+01 0.  0.
        -12    1    1    2    0    0  0.30726449698E+02 -0.30164161441E+02  0.13233372576E+02  0.45045682326E+02  0.00000000000E+00 0.  1.
         11    1    3    3    0    0 -0.15170838517E+02  0.11856329569E+02 -0.19169852918E+01  0.19349463171E+02  0.51100000000E-03 0. -1.
        -11    1    3    3    0    0 -0.67101635514E+01  0.10494465248E+02 -0.51762087786E+01  0.13489004163E+02  0.51100000000E-03 0.  1.
         12    1    3    3    0    0 -0.88454476299E+01  0.78133666244E+01 -0.61401785057E+01  0.13303850340E+02  0.00000000000E+00 0. -1.
</event>
<event>
 7    1  0.1519238E-008  0.4614232E+02  0.7816164E-02  0.1320468E+00
        -11   -1    0    0    0    0  0.00000000000E+00  0.00000000000E+00  0.45593999997E+02  0.45594000000E+02  0.51100000000E-03 0. -1.
         11   -1    0    0    0    0 -0.00000000000E+00 -0.00000000000E+00 -0.45593999997E+02  0.45594000000E+02  0.51100000000E-03 0.  1.
    9900012    2    1    2    0    0 -0.43989411321E+02 -0.44097776918E+01  0.86370790432E+01  0.46142316721E+02  0.99999905179E+01 0.  0.
        -12    1    1    2    0    0  0.43989411321E+02  0.44097776918E+01 -0.86370790432E+01  0.45045683279E+02  0.00000000000E+00 0.  1.
         11    1    3    3    0    0 -0.27945599631E+02 -0.54850136372E+01  0.37757372293E+01  0.28728002110E+02  0.51100000000E-03 0. -1.
        -11    1    3    3    0    0 -0.85189856871E+01 -0.75837209206E+00  0.44918857504E+01  0.96605011890E+01  0.51100000000E-03 0.  1.
         12    1    3    3    0    0 -0.75248260029E+01  0.18336080374E+01  0.36945606355E+00  0.77538134226E+01  0.00000000000E+00 0. -1.
</event>
<event>
 7    1  0.1519238E-008  0.4614232E+02  0.7816164E-02  0.1320468E+00
        -11   -1    0    0    0    0  0.00000000000E+00  0.00000000000E+00  0.45593999997E+02  0.45594000000E+02  0.51100000000E-03 0. -1.
         11   -1    0    0    0    0 -0.00000000000E+00 -0.00000000000E+00 -0.45593999997E+02  0.45594000000E+02  0.51100000000E-03 0.  1.
    9900012    2    1    2    0    0  0.20887692376E+02  0.38394685003E+02  0.10893372900E+02  0.46142322046E+02  0.10000039069E+02 0.  0.
        -12    1    1    2    0    0 -0.20887692376E+02 -0.38394685003E+02 -0.10893372900E+02  0.45045677954E+02  0.00000000000E+00 0.  1.
         11    1    3    3    0    0  0.62507792755E+01  0.90270478603E+01  0.56296005654E+01  0.12339053343E+02  0.51100000000E-03 0.  1.
        -11    1    3    3    0    0  0.10429552519E+02  0.22835153560E+02  0.65082491027E+01  0.25934091666E+02  0.51100000000E-03 0. -1.
        -12    1    3    3    0    0  0.42073605811E+01  0.65324835819E+01 -0.12444767678E+01  0.78691770366E+01  0.00000000000E+00 0.  1.
</event>
<event>
 7    1  0.1519238E-008  0.4614232E+02  0.7816164E-02  0.1320468E+00
        -11   -1    0    0    0    0  0.00000000000E+00  0.00000000000E+00  0.45593999997E+02  0.45594000000E+02  0.51100000000E-03 0.  1.
         11   -1    0    0    0    0 -0.00000000000E+00 -0.00000000000E+00 -0.45593999997E+02  0.45594000000E+02  0.51100000000E-03 0. -1.
    9900012    2    1    2    0    0  0.12893503700E+02  0.70676414051E+01 -0.42578392362E+02  0.46142317756E+02  0.99999999537E+01 0.  0.
        -12    1    1    2    0    0 -0.12893503700E+02 -0.70676414051E+01  0.42578392362E+02  0.45045682244E+02  0.00000000000E+00 0.  1.
         11    1    3    3    0    0  0.46666794201E+01  0.46535954614E+01 -0.11122835035E+02  0.12928700902E+02  0.51100000000E-03 0. -1.
        -11    1    3    3    0    0  0.19005246615E+00  0.29990261286E+00  0.25183780041E+00  0.43529766359E+00  0.51100000000E-03 0.  1.
         12    1    3    3    0    0  0.80367718142E+01  0.21141433309E+01 -0.31707395127E+02  0.32778319191E+02  0.00000000000E+00 0. -1.
</event>
<event>
 7    1  0.1519238E-008  0.4614232E+02  0.7816164E-02  0.1320468E+00
        -11   -1    0    0    0    0  0.00000000000E+00  0.00000000000E+00  0.45593999997E+02  0.45594000000E+02  0.51100000000E-03 0.  1.
         11   -1    0    0    0    0 -0.00000000000E+00 -0.00000000000E+00 -0.45593999997E+02  0.45594000000E+02  0.51100000000E-03 0. -1.
    9900012    2    1    2    0    0  0.16423062666E+02  0.60962551496E+00 -0.41940729678E+02  0.46142318336E+02  0.10000005243E+02 0.  0.
        -12    1    1    2    0    0 -0.16423062666E+02 -0.60962551496E+00  0.41940729678E+02  0.45045681664E+02  0.00000000000E+00 0.  1.
         11    1    3    3    0    0  0.87003014071E+01 -0.35017612722E+01 -0.27164900974E+02  0.28738291907E+02  0.51100000000E-03 0. -1.
        -11    1    3    3    0    0  0.12141695056E+01 -0.39576959889E+00 -0.19124499697E+01  0.22996317774E+01  0.51100000000E-03 0.  1.
         12    1    3    3    0    0  0.65085917534E+01  0.45071563861E+01 -0.12863378735E+02  0.15104394651E+02  0.00000000000E+00 0. -1.
</event>
<event>
 7    1  0.1519238E-008  0.4614232E+02  0.7816164E-02  0.1320468E+00
        -11   -1    0    0    0    0  0.00000000000E+00  0.00000000000E+00  0.45593999997E+02  0.45594000000E+02  0.51100000000E-03 0.  1.
         11   -1    0    0    0    0 -0.00000000000E+00 -0.00000000000E+00 -0.45593999997E+02  0.45594000000E+02  0.51100000000E-03 0. -1.
    9900012    2    1    2    0    0  0.19571456762E+02  0.19156204649E+02 -0.35764665024E+02  0.46142319179E+02  0.10000012932E+02 0.  0.
        -12    1    1    2    0    0 -0.19571456762E+02 -0.19156204649E+02  0.35764665024E+02  0.45045680821E+02  0.00000000000E+00 0.  1.
         11    1    3    3    0    0  0.52580960252E+01  0.50092393555E+01 -0.11964869149E+02  0.13996361911E+02  0.51100000000E-03 0. -1.
        -11    1    3    3    0    0  0.38225888953E+01  0.33693988528E+01 -0.16188119476E+01  0.53465490622E+01  0.51100000000E-03 0.  1.
        -12    1    3    3    0    0  0.10490771841E+02  0.10777566441E+02 -0.22180983927E+02  0.26799408206E+02  0.00000000000E+00 0.  1.
</event>
<event>
 7    1  0.1519238E-008  0.4614232E+02  0.7816164E-02  0.1320468E+00
        -11   -1    0    0    0    0  0.00000000000E+00  0.00000000000E+00  0.45593999997E+02  0.45594000000E+02  0.51100000000E-03 0.  1.
         11   -1    0    0    0    0 -0.00000000000E+00 -0.00000000000E+00 -0.45593999997E+02  0.45594000000E+02  0.51100000000E-03 0. -1.
    9900012    2    1    2    0    0  0.16959175633E+02  0.30229598595E+02 -0.28769275876E+02  0.46142317590E+02  0.99999984378E+01 0.  0.
        -12    1    1    2    0    0 -0.16959175633E+02 -0.30229598595E+02  0.28769275876E+02  0.45045682410E+02  0.00000000000E+00 0.  1.
         11    1    3    3    0    0  0.15876278143E+02  0.27475861236E+02 -0.25074784513E+02  0.40444084573E+02  0.51100000000E-03 0. -1.
        -11    1    3    3    0    0  0.16707193201E+01  0.50599612915E+00 -0.25958832989E+01  0.31282495891E+01  0.51100000000E-03 0.  1.
         12    1    3    3    0    0 -0.58782182974E+00  0.22477412294E+01 -0.10986080645E+01  0.25699834274E+01  0.00000000000E+00 0. -1.
</event>
<event>
 7    1  0.1519238E-008  0.4614232E+02  0.7816164E-02  0.1320468E+00
        -11   -1    0    0    0    0  0.00000000000E+00  0.00000000000E+00  0.45593999997E+02  0.45594000000E+02  0.51100000000E-03 0.  1.
         11   -1    0    0    0    0 -0.00000000000E+00 -0.00000000000E+00 -0.45593999997E+02  0.45594000000E+02  0.51100000000E-03 0. -1.
    9900012    2    1    2    0    0  0.34553195318E+02  0.26292477202E+02  0.11995657084E+02  0.46142318154E+02  0.10000003583E+02 0.  0.
        -12    1    1    2    0    0 -0.34553195318E+02 -0.26292477202E+02 -0.11995657084E+02  0.45045681846E+02  0.00000000000E+00 0.  1.
         11    1    3    3    0    0  0.13041383425E+02  0.11600655821E+02  0.10175403834E+01  0.17483943657E+02  0.51100000000E-03 0. -1.
        -11    1    3    3    0    0  0.46567872597E+01  0.19737457647E+01  0.39062440471E+01  0.63906245972E+01  0.51100000000E-03 0.  1.
        -12    1    3    3    0    0  0.16855024633E+02  0.12718075616E+02  0.70718726537E+01  0.22267749900E+02  0.00000000000E+00 0.  1.
</event>
<event>
 7    1  0.1519238E-008  0.4614232E+02  0.7816164E-02  0.1320468E+00
        -11   -1    0    0    0    0  0.00000000000E+00  0.00000000000E+00  0.45593999997E+02  0.45594000000E+02  0.51100000000E-03 0. -1.
         11   -1    0    0    0    0 -0.00000000000E+00 -0.00000000000E+00 -0.45593999997E+02  0.45594000000E+02  0.51100000000E-03 0.  1.
    9900012    2    1    2    0    0 -0.20740893077E+02  0.39970512386E+02 -0.11344261971E+01  0.46142318422E+02  0.10000006028E+02 0.  0.
        -12    1    1    2    0    0  0.20740893077E+02 -0.39970512386E+02  0.11344261971E+01  0.45045681578E+02  0.00000000000E+00 0.  1.
         11    1    3    3    0    0 -0.46658918619E+00  0.10523144782E+01 -0.12791199178E+01  0.17208193557E+01  0.51100000000E-03 0. -1.
        -11    1    3    3    0    0 -0.45876458981E+01  0.57757443049E+01 -0.21483901098E+01  0.76825319711E+01  0.51100000000E-03 0.  1.
         12    1    3    3    0    0 -0.15686657992E+02  0.33142453603E+02  0.22930838305E+01  0.36738967095E+02  0.00000000000E+00 0. -1.
</event>
<event>
 7    1  0.1519238E-008  0.4614232E+02  0.7816164E-02  0.1320468E+00
        -11   -1    0    0    0    0  0.00000000000E+00  0.00000000000E+00  0.45593999997E+02  0.45594000000E+02  0.51100000000E-03 0. -1.
         11   -1    0    0    0    0 -0.00000000000E+00 -0.00000000000E+00 -0.45593999997E+02  0.45594000000E+02  0.51100000000E-03 0.  1.
    9900012    2    1    2    0    0  0.28779364938E+02  0.41718992707E+01  0.34401409482E+02  0.46142316920E+02  0.99999923316E+01 0.  0.
        -12    1    1    2    0    0 -0.28779364938E+02 -0.41718992707E+01 -0.34401409482E+02  0.45045683080E+02  0.00000000000E+00 0.  1.
         11    1    3    3    0    0  0.96717957157E+01  0.18357400407E+01  0.79942565208E+01  0.12681550041E+02  0.51100000000E-03 0. -1.
        -11    1    3    3    0    0  0.41035795563E+01 -0.82654398161E-01  0.11340648556E+02  0.12060535099E+02  0.51100000000E-03 0.  1.
        -12    1    3    3    0    0  0.15003989666E+02  0.24188136281E+01  0.15066504405E+02  0.21400231780E+02  0.00000000000E+00 0.  1.
</event>
<event>
 7    1  0.1519238E-008  0.4614232E+02  0.7816164E-02  0.1320468E+00
        -11   -1    0    0    0    0  0.00000000000E+00  0.00000000000E+00  0.45593999997E+02  0.45594000000E+02  0.51100000000E-03 0.  1.
         11   -1    0    0    0    0 -0.00000000000E+00 -0.00000000000E+00 -0.45593999997E+02  0.45594000000E+02  0.51100000000E-03 0. -1.
    9900012    2    1    2    0    0 -0.35581208956E+02 -0.25215143479E+02 -0.11282178718E+02  0.46142318209E+02  0.10000004084E+02 0.  0.
        -12    1    1    2    0    0  0.35581208956E+02  0.25215143479E+02  0.11282178718E+02  0.45045681791E+02  0.00000000000E+00 0.  1.
         11    1    3    3    0    0 -0.24678407326E+02 -0.17937675802E+02 -0.48699439527E+01  0.30894989168E+02  0.51100000000E-03 0. -1.
        -11    1    3    3    0    0 -0.29397515671E+01 -0.18932748152E+01 -0.40465872470E+01  0.53480367810E+01  0.51100000000E-03 0.  1.
        -12    1    3    3    0    0 -0.79630500623E+01 -0.53841928620E+01 -0.23656475181E+01  0.98992922601E+01  0.00000000000E+00 0.  1.
</event>
<event>
 7    1  0.1519238E-008  0.4614231E+02  0.7816164E-02  0.1320468E+00
        -11   -1    0    0    0    0  0.00000000000E+00  0.00000000000E+00  0.45593999997E+02  0.45594000000E+02  0.51100000000E-03 0.  1.
         11   -1    0    0    0    0 -0.00000000000E+00 -0.00000000000E+00 -0.45593999997E+02  0.45594000000E+02  0.51100000000E-03 0. -1.
    9900012    2    1    2    0    0 -0.43609826539E+02 -0.67384314976E+01 -0.90493363040E+01  0.46142312999E+02  0.99999565776E+01 0.  0.
        -12    1    1    2    0    0  0.43609826539E+02  0.67384314976E+01  0.90493363040E+01  0.45045687001E+02  0.00000000000E+00 0.  1.
         11    1    3    3    0    0 -0.39985812244E+02 -0.45668100503E+01 -0.81658547204E+01  0.41065826650E+02  0.51100000000E-03 0. -1.
        -11    1    3    3    0    0 -0.26697580024E+01 -0.23298155596E+01 -0.15848613032E+01  0.38816792687E+01  0.51100000000E-03 0.  1.
        -12    1    3    3    0    0 -0.95425629293E+00  0.15819411237E+00  0.70137971964E+00  0.11948070810E+01  0.00000000000E+00 0.  1.
</event>
<event>
 7    1  0.1519238E-008  0.4614232E+02  0.7816164E-02  0.1320468E+00
        -11   -1    0    0    0    0  0.00000000000E+00  0.00000000000E+00  0.45593999997E+02  0.45594000000E+02  0.51100000000E-03 0. -1.
         11   -1    0    0    0    0 -0.00000000000E+00 -0.00000000000E+00 -0.45593999997E+02  0.45594000000E+02  0.51100000000E-03 0.  1.
    9900012    2    1    2    0    0 -0.38924539001E+02 -0.15382822876E+02  0.16654205550E+02  0.46142317203E+02  0.99999949136E+01 0.  0.
        -12    1    1    2    0    0  0.38924539001E+02  0.15382822876E+02 -0.16654205550E+02  0.45045682797E+02  0.00000000000E+00 0.  1.
         11    1    3    3    0    0 -0.94941687012E+01 -0.13977094293E+01  0.12233650721E+00  0.95972807325E+01  0.51100000000E-03 0. -1.
        -11    1    3    3    0    0 -0.23636217682E+02 -0.11429470316E+02  0.13073432232E+02  0.29329476787E+02  0.51100000000E-03 0.  1.
         12    1    3    3    0    0 -0.57941526184E+01 -0.25556431306E+01  0.34584368110E+01  0.72155596839E+01  0.00000000000E+00 0. -1.
</event>
<event>
 7    1  0.1519238E-008  0.4614232E+02  0.7816164E-02  0.1320468E+00
        -11   -1    0    0    0    0  0.00000000000E+00  0.00000000000E+00  0.45593999997E+02  0.45594000000E+02  0.51100000000E-03 0.  1.
         11   -1    0    0    0    0 -0.00000000000E+00 -0.00000000000E+00 -0.45593999997E+02  0.45594000000E+02  0.51100000000E-03 0. -1.
    9900012    2    1    2    0    0  0.39931659952E+01  0.38088955597E+01 -0.44706381154E+02  0.46142316790E+02  0.99999911407E+01 0.  0.
        -12    1    1    2    0    0 -0.39931659952E+01 -0.38088955597E+01  0.44706381154E+02  0.45045683210E+02  0.00000000000E+00 0.  1.
         11    1    3    3    0    0  0.29926977542E+00  0.22007662701E+01 -0.25722424939E+02  0.25818134704E+02  0.51100000000E-03 0. -1.
        -11    1    3    3    0    0  0.28129479096E+01  0.23427772259E+01 -0.18811293404E+02  0.19164186413E+02  0.51100000000E-03 0.  1.
        -12    1    3    3    0    0  0.88094831020E+00 -0.73464793626E+00 -0.17266281056E+00  0.11599956731E+01  0.00000000000E+00 0.  1.
</event>
<event>
 7    1  0.1519238E-008  0.4614232E+02  0.7816164E-02  0.1320468E+00
        -11   -1    0    0    0    0  0.00000000000E+00  0.00000000000E+00  0.45593999997E+02  0.45594000000E+02  0.51100000000E-03 0.  1.
         11   -1    0    0    0    0 -0.00000000000E+00 -0.00000000000E+00 -0.45593999997E+02  0.45594000000E+02  0.51100000000E-03 0. -1.
    9900012    2    1    2    0    0 -0.86046630105E+01  0.43970036298E+02  0.46593089101E+01  0.46142317886E+02  0.10000001143E+02 0.  0.
        -12    1    1    2    0    0  0.86046630105E+01 -0.43970036298E+02 -0.46593089101E+01  0.45045682114E+02  0.00000000000E+00 0.  1.
         11    1    3    3    0    0 -0.11311833883E+01  0.13500430999E+02 -0.43283448913E+00  0.13554650824E+02  0.51100000000E-03 0. -1.
        -11    1    3    3    0    0 -0.75600213186E+01  0.30575629984E+02  0.43056244337E+01  0.31789329551E+02  0.51100000000E-03 0.  1.
        -12    1    3    3    0    0  0.86541696490E-01 -0.10602468498E+00  0.78651896552E+00  0.79833751145E+00  0.00000000000E+00 0.  1.
</event>
<event>
 7    1  0.1519238E-008  0.4614232E+02  0.7816164E-02  0.1320468E+00
        -11   -1    0    0    0    0  0.00000000000E+00  0.00000000000E+00  0.45593999997E+02  0.45594000000E+02  0.51100000000E-03 0. -1.
         11   -1    0    0    0    0 -0.00000000000E+00 -0.00000000000E+00 -0.45593999997E+02  0.45594000000E+02  0.51100000000E-03 0.  1.
    9900012    2    1    2    0    0  0.44835762795E+02  0.38782444902E+01  0.19562846485E+01  0.46142318127E+02  0.10000003340E+02 0.  0.
        -12    1    1    2    0    0 -0.44835762795E+02 -0.38782444902E+01 -0.19562846485E+01  0.45045681873E+02  0.00000000000E+00 0.  1.
         11    1    3    3    0    0  0.33000400553E+02  0.52232855092E+01  0.68449033683E+00  0.33418223703E+02  0.51100000000E-03 0. -1.
        -11    1    3    3    0    0  0.63709755869E+00  0.88928097041E+00 -0.43691651562E+00  0.11779686950E+01  0.51100000000E-03 0.  1.
         12    1    3    3    0    0  0.11198264683E+02 -0.22343219894E+01  0.17087108273E+01  0.11546125729E+02  0.00000000000E+00 0. -1.
</event>
<event>
 7    1  0.1519238E-008  0.4614232E+02  0.7816164E-02  0.1320468E+00
        -11   -1    0    0    0    0  0.00000000000E+00  0.00000000000E+00  0.45593999997E+02  0.45594000000E+02  0.51100000000E-03 0.  1.
         11   -1    0    0    0    0 -0.00000000000E+00 -0.00000000000E+00 -0.45593999997E+02  0.45594000000E+02  0.51100000000E-03 0. -1.
    9900012    2    1    2    0    0  0.41648252199E+02 -0.41943855934E+01 -0.16641626532E+02  0.46142317461E+02  0.99999972635E+01 0.  0.
        -12    1    1    2    0    0 -0.41648252199E+02  0.41943855934E+01  0.16641626532E+02  0.45045682539E+02  0.00000000000E+00 0.  1.
         11    1    3    3    0    0  0.33563532306E+02  0.68370271031E+00 -0.12484892928E+02  0.35816905253E+02  0.51100000000E-03 0. -1.
        -11    1    3    3    0    0  0.62457685753E+01 -0.36672892001E+01 -0.33559301187E+01  0.79825373407E+01  0.51100000000E-03 0.  1.
         12    1    3    3    0    0  0.18389513184E+01 -0.12107991036E+01 -0.80080348577E+00  0.23428748672E+01  0.00000000000E+00 0. -1.
</event>
<event>
 7    1  0.1519238E-008  0.4614232E+02  0.7816164E-02  0.1320468E+00
        -11   -1    0    0    0    0  0.00000000000E+00  0.00000000000E+00  0.45593999997E+02  0.45594000000E+02  0.51100000000E-03 0.  1.
         11   -1    0    0    0    0 -0.00000000000E+00 -0.00000000000E+00 -0.45593999997E+02  0.45594000000E+02  0.51100000000E-03 0. -1.
    9900012    2    1    2    0    0  0.18907554951E+02 -0.29607654883E+02 -0.28195827963E+02  0.46142316784E+02  0.99999910860E+01 0.  0.
        -12    1    1    2    0    0 -0.18907554951E+02  0.29607654883E+02  0.28195827963E+02  0.45045683216E+02  0.00000000000E+00 0.  1.
         11    1    3    3    0    0  0.37158502670E+01 -0.61186898767E+01 -0.79306956178E+01  0.10683718559E+02  0.51100000000E-03 0. -1.
        -11    1    3    3    0    0  0.50082937598E+01 -0.10261894960E+02 -0.38595129168E+01  0.12053436638E+02  0.51100000000E-03 0.  1.
        -12    1    3    3    0    0  0.10183410924E+02 -0.13227070046E+02 -0.16405619429E+02  0.23405161587E+02  0.00000000000E+00 0.  1.
</event>
<event>
 7    1  0.1519238E-008  0.4614232E+02  0.7816164E-02  0.1320468E+00
        -11   -1    0    0    0    0  0.00000000000E+00  0.00000000000E+00  0.45593999997E+02  0.45594000000E+02  0.51100000000E-03 0.  1.
         11   -1    0    0    0    0 -0.00000000000E+00 -0.00000000000E+00 -0.45593999997E+02  0.45594000000E+02  0.51100000000E-03 0. -1.
    9900012    2    1    2    0    0  0.82047583326E+01  0.37949234097E+02  0.22839681765E+02  0.46142317733E+02  0.99999997403E+01 0.  0.
        -12    1    1    2    0    0 -0.82047583326E+01 -0.37949234097E+02 -0.22839681765E+02  0.45045682267E+02  0.00000000000E+00 0.  1.
         11    1    3    3    0    0  0.37961172847E+00  0.79115955376E+01  0.65613273165E+01  0.10285351984E+02  0.51100000000E-03 0. -1.
        -11    1    3    3    0    0  0.34571870551E+01  0.71793983046E+01  0.10305753247E+01  0.80347985732E+01  0.51100000000E-03 0.  1.
         12    1    3    3    0    0  0.43679595490E+01  0.22858240254E+02  0.15247779123E+02  0.27822167176E+02  0.00000000000E+00 0. -1.
</event>
<event>
 7    1  0.1519238E-008  0.4614232E+02  0.7816164E-02  0.1320468E+00
        -11   -1    0    0    0    0  0.00000000000E+00  0.00000000000E+00  0.45593999997E+02  0.45594000000E+02  0.51100000000E-03 0.  1.
         11   -1    0    0    0    0 -0.00000000000E+00 -0.00000000000E+00 -0.45593999997E+02  0.45594000000E+02  0.51100000000E-03 0. -1.
    9900012    2    1    2    0    0  0.29383315376E+02  0.25194681838E+02 -0.23042620003E+02  0.46142317055E+02  0.99999935605E+01 0.  0.
        -12    1    1    2    0    0 -0.29383315376E+02 -0.25194681838E+02  0.23042620003E+02  0.45045682945E+02  0.00000000000E+00 0.  1.
         11    1    3    3    0    0  0.25227423053E+02  0.17381556348E+02 -0.20407089061E+02  0.36810197761E+02  0.51100000000E-03 0. -1.
        -11    1    3    3    0    0  0.30831469274E+01  0.52829632441E+01 -0.24108187852E+01  0.65747656300E+01  0.51100000000E-03 0.  1.
         12    1    3    3    0    0  0.10727453953E+01  0.25301622460E+01 -0.22471215596E+00  0.27573536638E+01  0.00000000000E+00 0. -1.
</event>
<event>
 7    1  0.1519238E-008  0.4614232E+02  0.7816164E-02  0.1320468E+00
        -11   -1    0    0    0    0  0.00000000000E+00  0.00000000000E+00  0.45593999997E+02  0.45594000000E+02  0.51100000000E-03 0.  1.
         11   -1    0    0    0    0 -0.00000000000E+00 -0.00000000000E+00 -0.45593999997E+02  0.45594000000E+02  0.51100000000E-03 0. -1.
    9900012    2    1    2    0    0 -0.28743656889E+02  0.34481068125E+02 -0.37378606435E+01  0.46142317936E+02  0.10000001597E+02 0.  0.
        -12    1    1    2    0    0  0.28743656889E+02 -0.34481068125E+02  0.37378606435E+01  0.45045682064E+02  0.00000000000E+00 0.  1.
         11    1    3    3    0    0 -0.15386216086E+02  0.14837800392E+02 -0.14724392725E+01  0.21425779883E+02  0.51100000000E-03 0. -1.
        -11    1    3    3    0    0 -0.13118365970E+02  0.19334415804E+02 -0.33130581202E+01  0.23598464242E+02  0.51100000000E-03 0.  1.
        -12    1    3    3    0    0 -0.23907483277E+00  0.30885192918E+00  0.10476367492E+01  0.11180738116E+01  0.00000000000E+00 0.  1.
</event>
<event>
 7    1  0.1519238E-008  0.4614232E+02  0.7816164E-02  0.1320468E+00
        -11   -1    0    0    0    0  0.00000000000E+00  0.00000000000E+00  0.45593999997E+02  0.45594000000E+02  0.51100000000E-03 0.  1.
         11   -1    0    0    0    0 -0.00000000000E+00 -0.00000000000E+00 -0.45593999997E+02  0.45594000000E+02  0.51100000000E-03 0. -1.
    9900012    2    1    2    0    0  0.18065356321E+02  0.27939277947E+01 -0.41169774012E+02  0.46142318479E+02  0.10000006545E+02 0.  0.
        -12    1    1    2    0    0 -0.18065356321E+02 -0.27939277947E+01  0.41169774012E+02  0.45045681521E+02  0.00000000000E+00 0.  1.
         11    1    3    3    0    0  0.51533979727E+01  0.20345165068E+01 -0.23657746251E+02  0.24297854351E+02  0.51100000000E-03 0. -1.
        -11    1    3    3    0    0  0.41484681080E+01 -0.57305755385E+00 -0.53163030754E+01  0.67676629093E+01  0.51100000000E-03 0.  1.
         12    1    3    3    0    0  0.87634902402E+01  0.13324688418E+01 -0.12195724685E+02  0.15076801219E+02  0.00000000000E+00 0. -1.
</event>
<event>
 7    1  0.1519238E-008  0.4614232E+02  0.7816164E-02  0.1320468E+00
        -11   -1    0    0    0    0  0.00000000000E+00  0.00000000000E+00  0.45593999997E+02  0.45594000000E+02  0.51100000000E-03 0.  1.
         11   -1    0    0    0    0 -0.00000000000E+00 -0.00000000000E+00 -0.45593999997E+02  0.45594000000E+02  0.51100000000E-03 0. -1.
    9900012    2    1    2    0    0 -0.42121319486E+02  0.13842500830E+02 -0.79556998019E+01  0.46142317145E+02  0.99999943846E+01 0.  0.
        -12    1    1    2    0    0  0.42121319486E+02 -0.13842500830E+02  0.79556998019E+01  0.45045682855E+02  0.00000000000E+00 0.  1.
         11    1    3    3    0    0 -0.31586040172E+02  0.85241899082E+01 -0.26602296670E+01  0.32824024273E+02  0.51100000000E-03 0. -1.
        -11    1    3    3    0    0 -0.10410401135E+02  0.48944941958E+01 -0.55874006831E+01  0.12788728313E+02  0.51100000000E-03 0.  1.
         12    1    3    3    0    0 -0.12487817991E+00  0.42381672619E+00  0.29193054822E+00  0.52956455905E+00  0.00000000000E+00 0. -1.
</event>
<event>
 7    1  0.1519238E-008  0.4614232E+02  0.7816164E-02  0.1320468E+00
        -11   -1    0    0    0    0  0.00000000000E+00  0.00000000000E+00  0.45593999997E+02  0.45594000000E+02  0.51100000000E-03 0. -1.
         11   -1    0    0    0    0 -0.00000000000E+00 -0.00000000000E+00 -0.45593999997E+02  0.45594000000E+02  0.51100000000E-03 0.  1.
    9900012    2    1    2    0    0  0.22013576148E+02 -0.73091344203E+01  0.38614668255E+02  0.46142316686E+02  0.99999901955E+01 0.  0.
        -12    1    1    2    0    0 -0.22013576148E+02  0.73091344203E+01 -0.38614668255E+02  0.45045683314E+02  0.00000000000E+00 0.  1.
         11    1    3    3    0    0  0.15971161711E+02 -0.32056067352E+01  0.28535469526E+02  0.32857677068E+02  0.51100000000E-03 0. -1.
        -11    1    3    3    0    0  0.19607916765E+01 -0.41304295009E+01  0.53489384644E+01  0.70367815667E+01  0.51100000000E-03 0.  1.
        -12    1    3    3    0    0  0.40816227599E+01  0.26901815725E-01  0.47302602647E+01  0.62478580516E+01  0.00000000000E+00 0.  1.
</event>
<event>
 7    1  0.1519238E-008  0.4614232E+02  0.7816164E-02  0.1320468E+00
        -11   -1    0    0    0    0  0.00000000000E+00  0.00000000000E+00  0.45593999997E+02  0.45594000000E+02  0.51100000000E-03 0.  1.
         11   -1    0    0    0    0 -0.00000000000E+00 -0.00000000000E+00 -0.45593999997E+02  0.45594000000E+02  0.51100000000E-03 0. -1.
    9900012    2    1    2    0    0  0.22971443421E+02  0.32623447913E+02 -0.20907818365E+02  0.46142318350E+02  0.10000005366E+02 0.  0.
        -12    1    1    2    0    0 -0.22971443421E+02 -0.32623447913E+02  0.20907818365E+02  0.45045681650E+02  0.00000000000E+00 0.  1.
         11    1    3    3    0    0  0.15950312416E+02  0.16962247342E+02 -0.12262147713E+02  0.26315215520E+02  0.51100000000E-03 0. -1.
        -11    1    3    3    0    0  0.51922352434E+01  0.15018884209E+02 -0.74617398743E+01  0.17555732737E+02  0.51100000000E-03 0.  1.
        -12    1    3    3    0    0  0.18288957609E+01  0.64231636263E+00 -0.11839307771E+01  0.22713700929E+01  0.00000000000E+00 0.  1.
</event>
<event>
 7    1  0.1519238E-008  0.4614232E+02  0.7816164E-02  0.1320468E+00
        -11   -1    0    0    0    0  0.00000000000E+00  0.00000000000E+00  0.45593999997E+02  0.45594000000E+02  0.51100000000E-03 0.  1.
         11   -1    0    0    0    0 -0.00000000000E+00 -0.00000000000E+00 -0.45593999997E+02  0.45594000000E+02  0.51100000000E-03 0. -1.
    9900012    2    1    2    0    0  0.38892870871E+02 -0.22423971612E+02  0.36910134257E+01  0.46142317771E+02  0.10000000086E+02 0.  0.
        -12    1    1    2    0    0 -0.38892870871E+02  0.22423971612E+02 -0.36910134257E+01  0.45045682229E+02  0.00000000000E+00 0.  1.
         11    1    3    3    0    0  0.11406515106E+02 -0.99595175541E+01  0.22173171686E+01  0.15304152131E+02  0.51100000000E-03 0. -1.
        -11    1    3    3    0    0  0.21551844864E+00 -0.12738577951E+01  0.35285522175E+00  0.13392792661E+01  0.51100000000E-03 0.  1.
         12    1    3    3    0    0  0.27270837316E+02 -0.11190596263E+02  0.11208410354E+01  0.29498886373E+02  0.00000000000E+00 0. -1.
</event>
<event>
 7    1  0.1519238E-008  0.4614231E+02  0.7816164E-02  0.1320468E+00
        -11   -1    0    0    0    0  0.00000000000E+00  0.00000000000E+00  0.45593999997E+02  0.45594000000E+02  0.51100000000E-03 0.  1.
         11   -1    0    0    0    0 -0.00000000000E+00 -0.00000000000E+00 -0.45593999997E+02  0.45594000000E+02  0.51100000000E-03 0. -1.
    9900012    2    1    2    0    0 -0.26529158050E+02  0.36002964089E+02 -0.53948206556E+01  0.46142314969E+02  0.99999745369E+01 0.  0.
        -12    1    1    2    0    0  0.26529158050E+02 -0.36002964089E+02  0.53948206556E+01  0.45045685031E+02  0.00000000000E+00 0.  1.
         11    1    3    3    0    0 -0.14958348902E+02  0.18001631432E+02 -0.53780032861E+01  0.24015283794E+02  0.51100000000E-03 0. -1.
        -11    1    3    3    0    0 -0.36814407433E+01  0.98768320638E+01  0.16872235601E+01  0.10674808718E+02  0.51100000000E-03 0.  1.
        -12    1    3    3    0    0 -0.78893684053E+01  0.81245005926E+01 -0.17040409296E+01  0.11452222457E+02  0.00000000000E+00 0.  1.
</event>
<event>
 7    1  0.1519238E-008  0.4614232E+02  0.7816164E-02  0.1320468E+00
        -11   -1    0    0    0    0  0.00000000000E+00  0.00000000000E+00  0.45593999997E+02  0.45594000000E+02  0.51100000000E-03 0.  1.
         11   -1    0    0    0    0 -0.00000000000E+00 -0.00000000000E+00 -0.45593999997E+02  0.45594000000E+02  0.51100000000E-03 0. -1.
    9900012    2    1    2    0    0 -0.13917407501E+02 -0.10693395249E+02 -0.41485787776E+02  0.46142317400E+02  0.99999967117E+01 0.  0.
        -12    1    1    2    0    0  0.13917407501E+02  0.10693395249E+02  0.41485787776E+02  0.45045682600E+02  0.00000000000E+00 0.  1.
         11    1    3    3    0    0 -0.98736918640E+01 -0.25472611654E+01 -0.23874173966E+02  0.25960633916E+02  0.51100000000E-03 0. -1.
        -11    1    3    3    0    0 -0.31871961754E+01 -0.64934863391E+01 -0.99763149306E+01  0.12322761223E+02  0.51100000000E-03 0.  1.
         12    1    3    3    0    0 -0.85651946147E+00 -0.16526477445E+01 -0.76352988786E+01  0.78589222621E+01  0.00000000000E+00 0. -1.
</event>
<event>
 7    1  0.1519238E-008  0.4614232E+02  0.7816164E-02  0.1320468E+00
        -11   -1    0    0    0    0  0.00000000000E+00  0.00000000000E+00  0.45593999997E+02  0.45594000000E+02  0.51100000000E-03 0. -1.
         11   -1    0    0    0    0 -0.00000000000E+00 -0.00000000000E+00 -0.45593999997E+02  0.45594000000E+02  0.51100000000E-03 0.  1.
    9900012    2    1    2    0    0  0.39963691298E+02  0.13183263789E+02 -0.16069174858E+02  0.46142318221E+02  0.10000004193E+02 0.  0.
        -12    1    1    2    0    0 -0.39963691298E+02 -0.13183263789E+02  0.16069174858E+02  0.45045681779E+02  0.00000000000E+00 0.  1.
         11    1    3    3    0    0  0.20147566088E+02  0.91681857559E+01 -0.81736126286E+01  0.23596355502E+02  0.51100000000E-03 0. -1.
        -11    1    3    3    0    0  0.32462815414E+01  0.14746206221E+01 -0.39562601842E+01  0.53258656321E+01  0.51100000000E-03 0.  1.
        -12    1    3    3    0    0  0.16569843669E+02  0.25404574112E+01 -0.39393020457E+01  0.17220097087E+02  0.00000000000E+00 0.  1.
</event>
<event>
 7    1  0.1519238E-008  0.4614232E+02  0.7816164E-02  0.1320468E+00
        -11   -1    0    0    0    0  0.00000000000E+00  0.00000000000E+00  0.45593999997E+02  0.45594000000E+02  0.51100000000E-03 0.  1.
         11   -1    0    0    0    0 -0.00000000000E+00 -0.00000000000E+00 -0.45593999997E+02  0.45594000000E+02  0.51100000000E-03 0. -1.
    9900012    2    1    2    0    0 -0.18111645262E+02 -0.18462702429E+01 -0.41202827816E+02  0.46142318432E+02  0.10000006120E+02 0.  0.
        -12    1    1    2    0    0  0.18111645262E+02  0.18462702429E+01  0.41202827816E+02  0.45045681568E+02  0.00000000000E+00 0.  1.
         11    1    3    3    0    0 -0.97412978771E+01  0.80674353333E+00 -0.15610551970E+02  0.18418280390E+02  0.51100000000E-03 0. -1.
        -11    1    3    3    0    0 -0.90871440923E+01 -0.27859509940E+01 -0.20700581254E+02  0.22778318094E+02  0.51100000000E-03 0.  1.
        -12    1    3    3    0    0  0.71679670772E+00  0.13293721782E+00 -0.48916945921E+01  0.49457199483E+01  0.00000000000E+00 0.  1.
</event>
<event>
 7    1  0.1519238E-008  0.4614232E+02  0.7816164E-02  0.1320468E+00
        -11   -1    0    0    0    0  0.00000000000E+00  0.00000000000E+00  0.45593999997E+02  0.45594000000E+02  0.51100000000E-03 0.  1.
         11   -1    0    0    0    0 -0.00000000000E+00 -0.00000000000E+00 -0.45593999997E+02  0.45594000000E+02  0.51100000000E-03 0. -1.
    9900012    2    1    2    0    0  0.15804401109E+02  0.14613886015E+02 -0.39569795557E+02  0.46142317862E+02  0.10000000918E+02 0.  0.
        -12    1    1    2    0    0 -0.15804401109E+02 -0.14613886015E+02  0.39569795557E+02  0.45045682138E+02  0.00000000000E+00 0.  1.
         11    1    3    3    0    0  0.68015538570E+01  0.10916874773E+02 -0.19657589071E+02  0.23491702749E+02  0.51100000000E-03 0. -1.
        -11    1    3    3    0    0  0.70772717347E+00  0.22441740081E+01 -0.49623129273E+01  0.54919709195E+01  0.51100000000E-03 0.  1.
         12    1    3    3    0    0  0.82951200784E+01  0.14528372331E+01 -0.14949893559E+02  0.17158644194E+02  0.00000000000E+00 0. -1.
</event>
<event>
 7    1  0.1519238E-008  0.4614232E+02  0.7816164E-02  0.1320468E+00
        -11   -1    0    0    0    0  0.00000000000E+00  0.00000000000E+00  0.45593999997E+02  0.45594000000E+02  0.51100000000E-03 0. -1.
         11   -1    0    0    0    0 -0.00000000000E+00 -0.00000000000E+00 -0.45593999997E+02  0.45594000000E+02  0.51100000000E-03 0.  1.
    9900012    2    1    2    0    0  0.37713503072E+02 -0.16621925885E+02  0.18180121010E+02  0.46142317255E+02  0.99999953842E+01 0.  0.
        -12    1    1    2    0    0 -0.37713503072E+02  0.16621925885E+02 -0.18180121010E+02  0.45045682745E+02  0.00000000000E+00 0.  1.
         11    1    3    3    0    0  0.29665974163E+01 -0.25515209729E+01  0.15760428416E+01  0.42183967103E+01  0.51100000000E-03 0. -1.
        -11    1    3    3    0    0  0.31254185476E+02 -0.11697823572E+02  0.11494969397E+02  0.35295856808E+02  0.51100000000E-03 0.  1.
        -12    1    3    3    0    0  0.34927201790E+01 -0.23725813397E+01  0.51091087713E+01  0.66280637368E+01  0.00000000000E+00 0.  1.
</event>
<event>
 7    1  0.1519238E-008  0.4614232E+02  0.7816164E-02  0.1320468E+00
        -11   -1    0    0    0    0  0.00000000000E+00  0.00000000000E+00  0.45593999997E+02  0.45594000000E+02  0.51100000000E-03 0.  1.
         11   -1    0    0    0    0 -0.00000000000E+00 -0.00000000000E+00 -0.45593999997E+02  0.45594000000E+02  0.51100000000E-03 0. -1.
    9900012    2    1    2    0    0  0.32790450292E+02 -0.29849228935E+02 -0.79323902824E+01  0.46142324137E+02  0.10000058138E+02 0.  0.
        -12    1    1    2    0    0 -0.32790450292E+02  0.29849228935E+02  0.79323902824E+01  0.45045675863E+02  0.00000000000E+00 0.  1.
         11    1    3    3    0    0  0.19578563007E+02 -0.12975994151E+02 -0.55051667580E+01  0.24124746940E+02  0.51100000000E-03 0. -1.
        -11    1    3    3    0    0  0.73695322336E+01 -0.10531408171E+02  0.62907131234E+00  0.12869199446E+02  0.51100000000E-03 0.  1.
        -12    1    3    3    0    0  0.58423550510E+01 -0.63418266138E+01 -0.30562948368E+01  0.91483777508E+01  0.00000000000E+00 0.  1.
</event>
<event>
 7    1  0.1519238E-008  0.4614232E+02  0.7816164E-02  0.1320468E+00
        -11   -1    0    0    0    0  0.00000000000E+00  0.00000000000E+00  0.45593999997E+02  0.45594000000E+02  0.51100000000E-03 0.  1.
         11   -1    0    0    0    0 -0.00000000000E+00 -0.00000000000E+00 -0.45593999997E+02  0.45594000000E+02  0.51100000000E-03 0. -1.
    9900012    2    1    2    0    0  0.21245475849E+02 -0.93065396474E+01 -0.38615172830E+02  0.46142317666E+02  0.99999991283E+01 0.  0.
        -12    1    1    2    0    0 -0.21245475849E+02  0.93065396474E+01  0.38615172830E+02  0.45045682334E+02  0.00000000000E+00 0.  1.
         11    1    3    3    0    0  0.10179781816E+02 -0.35458108960E+01 -0.18309862444E+02  0.21247395033E+02  0.51100000000E-03 0. -1.
        -11    1    3    3    0    0  0.39864656230E+01 -0.56925360237E+01 -0.72452895639E+01  0.10039476862E+02  0.51100000000E-03 0.  1.
        -12    1    3    3    0    0  0.70792284102E+01 -0.68192727632E-01 -0.13060020823E+02  0.14855445770E+02  0.00000000000E+00 0.  1.
</event>
<event>
 7    1  0.1519238E-008  0.4614232E+02  0.7816164E-02  0.1320468E+00
        -11   -1    0    0    0    0  0.00000000000E+00  0.00000000000E+00  0.45593999997E+02  0.45594000000E+02  0.51100000000E-03 0.  1.
         11   -1    0    0    0    0 -0.00000000000E+00 -0.00000000000E+00 -0.45593999997E+02  0.45594000000E+02  0.51100000000E-03 0. -1.
    9900012    2    1    2    0    0  0.41610754609E+02  0.64800669426E+01  0.15989600636E+02  0.46142317685E+02  0.99999993069E+01 0.  0.
        -12    1    1    2    0    0 -0.41610754609E+02 -0.64800669426E+01 -0.15989600636E+02  0.45045682315E+02  0.00000000000E+00 0.  1.
         11    1    3    3    0    0  0.31766922794E+02  0.24646263327E+01  0.13862213716E+02  0.34747269477E+02  0.51100000000E-03 0. -1.
        -11    1    3    3    0    0  0.15975499209E+01  0.12830957458E+01 -0.84076198811E+00  0.22148095684E+01  0.51100000000E-03 0.  1.
        -12    1    3    3    0    0  0.82462818943E+01  0.27323448640E+01  0.29681489078E+01  0.91802386393E+01  0.00000000000E+00 0.  1.
</event>
<event>
 7    1  0.1519238E-008  0.4614232E+02  0.7816164E-02  0.1320468E+00
        -11   -1    0    0    0    0  0.00000000000E+00  0.00000000000E+00  0.45593999997E+02  0.45594000000E+02  0.51100000000E-03 0.  1.
         11   -1    0    0    0    0 -0.00000000000E+00 -0.00000000000E+00 -0.45593999997E+02  0.45594000000E+02  0.51100000000E-03 0. -1.
    9900012    2    1    2    0    0  0.33354523361E+02  0.28522309477E+02 -0.10152198454E+02  0.46142317632E+02  0.99999988203E+01 0.  0.
        -12    1    1    2    0    0 -0.33354523361E+02 -0.28522309477E+02  0.10152198454E+02  0.45045682368E+02  0.00000000000E+00 0.  1.
         11    1    3    3    0    0 -0.63726637800E+00  0.73143140273E+00 -0.48602668542E+00  0.10850449454E+01  0.51100000000E-03 0.  1.
        -11    1    3    3    0    0  0.80401572509E+01  0.60478243826E+01 -0.10064143724E+01  0.10111042406E+02  0.51100000000E-03 0. -1.
        -12    1    3    3    0    0  0.25951632488E+02  0.21743053692E+02 -0.86597573960E+01  0.34946230281E+02  0.00000000000E+00 0.  1.
</event>
<event>
 7    1  0.1519238E-008  0.4614232E+02  0.7816164E-02  0.1320468E+00
        -11   -1    0    0    0    0  0.00000000000E+00  0.00000000000E+00  0.45593999997E+02  0.45594000000E+02  0.51100000000E-03 0.  1.
         11   -1    0    0    0    0 -0.00000000000E+00 -0.00000000000E+00 -0.45593999997E+02  0.45594000000E+02  0.51100000000E-03 0. -1.
    9900012    2    1    2    0    0  0.30997373292E+02  0.32267779667E+02 -0.52025673161E+01  0.46142318050E+02  0.10000002639E+02 0.  0.
        -12    1    1    2    0    0 -0.30997373292E+02 -0.32267779667E+02  0.52025673161E+01  0.45045681950E+02  0.00000000000E+00 0.  1.
         11    1    3    3    0    0  0.50263679257E+01  0.38474064110E+01  0.22387869699E+01  0.67140954695E+01  0.51100000000E-03 0. -1.
        -11    1    3    3    0    0  0.90966979002E+01  0.74835591434E+01 -0.31916685464E+01  0.12204110722E+02  0.51100000000E-03 0.  1.
         12    1    3    3    0    0  0.16874307466E+02  0.20936814113E+02 -0.42496857396E+01  0.27224111859E+02  0.00000000000E+00 0. -1.
</event>
<event>
 7    1  0.1519238E-008  0.4614232E+02  0.7816164E-02  0.1320468E+00
        -11   -1    0    0    0    0  0.00000000000E+00  0.00000000000E+00  0.45593999997E+02  0.45594000000E+02  0.51100000000E-03 0.  1.
         11   -1    0    0    0    0 -0.00000000000E+00 -0.00000000000E+00 -0.45593999997E+02  0.45594000000E+02  0.51100000000E-03 0. -1.
    9900012    2    1    2    0    0  0.73735410321E+01 -0.71276805851E+01 -0.43862746789E+02  0.46142317701E+02  0.99999994543E+01 0.  0.
        -12    1    1    2    0    0 -0.73735410321E+01  0.71276805851E+01  0.43862746789E+02  0.45045682299E+02  0.00000000000E+00 0.  1.
         11    1    3    3    0    0 -0.16486952726E+01 -0.48510476577E+00 -0.24388831172E+01  0.29835673037E+01  0.51100000000E-03 0. -1.
        -11    1    3    3    0    0  0.27730216935E+01 -0.14106090994E+01 -0.54718224264E+01  0.62944664803E+01  0.51100000000E-03 0.  1.
         12    1    3    3    0    0  0.62492146112E+01 -0.52319667200E+01 -0.35952041245E+02  0.36864283917E+02  0.00000000000E+00 0. -1.
</event>
<event>
 7    1  0.1519238E-008  0.4614232E+02  0.7816164E-02  0.1320468E+00
        -11   -1    0    0    0    0  0.00000000000E+00  0.00000000000E+00  0.45593999997E+02  0.45594000000E+02  0.51100000000E-03 0. -1.
         11   -1    0    0    0    0 -0.00000000000E+00 -0.00000000000E+00 -0.45593999997E+02  0.45594000000E+02  0.51100000000E-03 0.  1.
    9900012    2    1    2    0    0  0.27166370225E+02  0.33688295842E+02  0.12498019617E+02  0.46142318273E+02  0.10000004668E+02 0.  0.
        -12    1    1    2    0    0 -0.27166370225E+02 -0.33688295842E+02 -0.12498019617E+02  0.45045681727E+02  0.00000000000E+00 0.  1.
         11    1    3    3    0    0  0.24929182827E+02  0.32567116953E+02  0.94056586711E+01  0.42077876352E+02  0.51100000000E-03 0. -1.
        -11    1    3    3    0    0  0.18745249775E+01  0.72082425615E+00  0.19426926340E+01  0.27941879734E+01  0.51100000000E-03 0.  1.
         12    1    3    3    0    0  0.36266242071E+00  0.40035463284E+00  0.11496683122E+01  0.12702539476E+01  0.00000000000E+00 0. -1.
</event>
<event>
 7    1  0.1519238E-008  0.4614232E+02  0.7816164E-02  0.1320468E+00
        -11   -1    0    0    0    0  0.00000000000E+00  0.00000000000E+00  0.45593999997E+02  0.45594000000E+02  0.51100000000E-03 0.  1.
         11   -1    0    0    0    0 -0.00000000000E+00 -0.00000000000E+00 -0.45593999997E+02  0.45594000000E+02  0.51100000000E-03 0. -1.
    9900012    2    1    2    0    0  0.79545077135E+01  0.22473556329E+02 -0.38220132219E+02  0.46142318366E+02  0.10000005519E+02 0.  0.
        -12    1    1    2    0    0 -0.79545077135E+01 -0.22473556329E+02  0.38220132219E+02  0.45045681634E+02  0.00000000000E+00 0.  1.
         11    1    3    3    0    0  0.48822261925E+01  0.67508637214E+01 -0.10127072312E+02  0.13113652712E+02  0.51100000000E-03 0. -1.
        -11    1    3    3    0    0  0.10887562667E+00 -0.49208072964E+00 -0.27562369235E+01  0.28019349718E+01  0.51100000000E-03 0.  1.
        -12    1    3    3    0    0  0.29634058943E+01  0.16214773337E+02 -0.25336822984E+02  0.30226730683E+02  0.00000000000E+00 0.  1.
</event>
<event>
 7    1  0.1519238E-008  0.4614232E+02  0.7816164E-02  0.1320468E+00
        -11   -1    0    0    0    0  0.00000000000E+00  0.00000000000E+00  0.45593999997E+02  0.45594000000E+02  0.51100000000E-03 0.  1.
         11   -1    0    0    0    0 -0.00000000000E+00 -0.00000000000E+00 -0.45593999997E+02  0.45594000000E+02  0.51100000000E-03 0. -1.
    9900012    2    1    2    0    0  0.19356526033E+02 -0.34028596091E+02 -0.22282122690E+02  0.46142318258E+02  0.10000004532E+02 0.  0.
        -12    1    1    2    0    0 -0.19356526033E+02  0.34028596091E+02  0.22282122690E+02  0.45045681742E+02  0.00000000000E+00 0.  1.
         11    1    3    3    0    0  0.47005240415E+01 -0.39859392894E+01 -0.71295006885E+01  0.94240340944E+01  0.51100000000E-03 0. -1.
        -11    1    3    3    0    0  0.69221885551E+01 -0.13971272148E+02 -0.76768353507E+01  0.17379497723E+02  0.51100000000E-03 0.  1.
         12    1    3    3    0    0  0.77338134368E+01 -0.16071384654E+02 -0.74757866508E+01  0.19338786441E+02  0.00000000000E+00 0. -1.
</event>
<event>
 7    1  0.1519238E-008  0.4614232E+02  0.7816164E-02  0.1320468E+00
        -11   -1    0    0    0    0  0.00000000000E+00  0.00000000000E+00  0.45593999997E+02  0.45594000000E+02  0.51100000000E-03 0. -1.
         11   -1    0    0    0    0 -0.00000000000E+00 -0.00000000000E+00 -0.45593999997E+02  0.45594000000E+02  0.51100000000E-03 0.  1.
    9900012    2    1    2    0    0  0.18663715211E+02 -0.57249306216E+01  0.40595621299E+02  0.46142316913E+02  0.99999922704E+01 0.  0.
        -12    1    1    2    0    0 -0.18663715211E+02  0.57249306216E+01 -0.40595621299E+02  0.45045683087E+02  0.00000000000E+00 0.  1.
         11    1    3    3    0    0  0.38715617763E+01 -0.45161710895E+01  0.88854108807E+01  0.10692769458E+02  0.51100000000E-03 0. -1.
        -11    1    3    3    0    0  0.40703024675E+01  0.97031893806E+00  0.46193885545E+01  0.62327868484E+01  0.51100000000E-03 0.  1.
         12    1    3    3    0    0  0.10721850968E+02 -0.21790784702E+01  0.27090821863E+02  0.29216760607E+02  0.00000000000E+00 0. -1.
</event>
<event>
 7    1  0.1519238E-008  0.4614232E+02  0.7816164E-02  0.1320468E+00
        -11   -1    0    0    0    0  0.00000000000E+00  0.00000000000E+00  0.45593999997E+02  0.45594000000E+02  0.51100000000E-03 0. -1.
         11   -1    0    0    0    0 -0.00000000000E+00 -0.00000000000E+00 -0.45593999997E+02  0.45594000000E+02  0.51100000000E-03 0.  1.
    9900012    2    1    2    0    0 -0.15727674230E+02 -0.12242583104E+02  0.40396446475E+02  0.46142318014E+02  0.10000002310E+02 0.  0.
        -12    1    1    2    0    0  0.15727674230E+02  0.12242583104E+02 -0.40396446475E+02  0.45045681986E+02  0.00000000000E+00 0.  1.
         11    1    3    3    0    0 -0.25636580343E+00  0.11749057377E+01  0.23343857629E+01  0.26259253737E+01  0.51100000000E-03 0. -1.
        -11    1    3    3    0    0 -0.89578259852E+00 -0.29588580661E+01  0.68676532522E+01  0.75313962167E+01  0.51100000000E-03 0.  1.
         12    1    3    3    0    0 -0.14575525828E+02 -0.10458630776E+02  0.31194407460E+02  0.35984996424E+02  0.00000000000E+00 0. -1.
</event>
<event>
 7    1  0.1519238E-008  0.4614232E+02  0.7816164E-02  0.1320468E+00
        -11   -1    0    0    0    0  0.00000000000E+00  0.00000000000E+00  0.45593999997E+02  0.45594000000E+02  0.51100000000E-03 0.  1.
         11   -1    0    0    0    0 -0.00000000000E+00 -0.00000000000E+00 -0.45593999997E+02  0.45594000000E+02  0.51100000000E-03 0. -1.
    9900012    2    1    2    0    0  0.41003263578E+02  0.10250624973E+02 -0.15581098184E+02  0.46142316999E+02  0.99999930536E+01 0.  0.
        -12    1    1    2    0    0 -0.41003263578E+02 -0.10250624973E+02  0.15581098184E+02  0.45045683001E+02  0.00000000000E+00 0.  1.
         11    1    3    3    0    0  0.34339529907E+02  0.88257835524E+01 -0.10554047688E+02  0.36993049244E+02  0.51100000000E-03 0. -1.
        -11    1    3    3    0    0  0.69213211199E+01  0.16148439925E+01 -0.51799319073E+01  0.87945495615E+01  0.51100000000E-03 0.  1.
         12    1    3    3    0    0 -0.25758744845E+00 -0.19000257236E+00  0.15288141106E+00  0.35471819372E+00  0.00000000000E+00 0. -1.
</event>
<event>
 7    1  0.1519238E-008  0.4614232E+02  0.7816164E-02  0.1320468E+00
        -11   -1    0    0    0    0  0.00000000000E+00  0.00000000000E+00  0.45593999997E+02  0.45594000000E+02  0.51100000000E-03 0.  1.
         11   -1    0    0    0    0 -0.00000000000E+00 -0.00000000000E+00 -0.45593999997E+02  0.45594000000E+02  0.51100000000E-03 0. -1.
    9900012    2    1    2    0    0  0.35256403057E+02 -0.20683498563E+02 -0.18928614508E+02  0.46142317448E+02  0.99999971493E+01 0.  0.
        -12    1    1    2    0    0 -0.35256403057E+02  0.20683498563E+02  0.18928614508E+02  0.45045682552E+02  0.00000000000E+00 0.  1.
         11    1    3    3    0    0  0.13023008526E+02 -0.66047204810E+01 -0.77875045240E+01  0.16548906631E+02  0.51100000000E-03 0. -1.
        -11    1    3    3    0    0  0.13571310683E+02 -0.41584412301E+01 -0.48663447453E+01  0.15005146402E+02  0.51100000000E-03 0.  1.
        -12    1    3    3    0    0  0.86620838482E+01 -0.99203368520E+01 -0.62747652391E+01  0.14588264416E+02  0.00000000000E+00 0.  1.
</event>
<event>
 7    1  0.1519238E-008  0.4614232E+02  0.7816164E-02  0.1320468E+00
        -11   -1    0    0    0    0  0.00000000000E+00  0.00000000000E+00  0.45593999997E+02  0.45594000000E+02  0.51100000000E-03 0.  1.
         11   -1    0    0    0    0 -0.00000000000E+00 -0.00000000000E+00 -0.45593999997E+02  0.45594000000E+02  0.51100000000E-03 0. -1.
    9900012    2    1    2    0    0 -0.35016345010E+02  0.89333950808E+01 -0.26891699560E+02  0.46142317957E+02  0.10000001784E+02 0.  0.
        -12    1    1    2    0    0  0.35016345010E+02 -0.89333950808E+01  0.26891699560E+02  0.45045682043E+02  0.00000000000E+00 0.  1.
         11    1    3    3    0    0 -0.26070931511E+02  0.33163526613E+01 -0.18356531562E+02  0.32057041599E+02  0.51100000000E-03 0. -1.
        -11    1    3    3    0    0 -0.20145877104E+01 -0.35650590216E+00 -0.13458534533E+01  0.24488735941E+01  0.51100000000E-03 0.  1.
         12    1    3    3    0    0 -0.69308257890E+01  0.59735483216E+01 -0.71893145442E+01  0.11636402764E+02  0.00000000000E+00 0. -1.
</event>
<event>
 7    1  0.1519238E-008  0.4614232E+02  0.7816164E-02  0.1320468E+00
        -11   -1    0    0    0    0  0.00000000000E+00  0.00000000000E+00  0.45593999997E+02  0.45594000000E+02  0.51100000000E-03 0.  1.
         11   -1    0    0    0    0 -0.00000000000E+00 -0.00000000000E+00 -0.45593999997E+02  0.45594000000E+02  0.51100000000E-03 0. -1.
    9900012    2    1    2    0    0  0.10763544158E+01  0.24302269204E+01 -0.44967198721E+02  0.46142317604E+02  0.99999985689E+01 0.  0.
        -12    1    1    2    0    0 -0.10763544158E+01 -0.24302269204E+01  0.44967198721E+02  0.45045682396E+02  0.00000000000E+00 0.  1.
         11    1    3    3    0    0  0.31438586233E+00 -0.21524065981E+01 -0.77169650589E+01  0.80176831202E+01  0.51100000000E-03 0. -1.
        -11    1    3    3    0    0  0.35980500484E+01  0.24914358833E+01 -0.24894655085E+02  0.25276413294E+02  0.51100000000E-03 0.  1.
         12    1    3    3    0    0 -0.28360814949E+01  0.20911976353E+01 -0.12355578576E+02  0.12848221190E+02  0.00000000000E+00 0. -1.
</event>
<event>
 7    1  0.1519238E-008  0.4614232E+02  0.7816164E-02  0.1320468E+00
        -11   -1    0    0    0    0  0.00000000000E+00  0.00000000000E+00  0.45593999997E+02  0.45594000000E+02  0.51100000000E-03 0.  1.
         11   -1    0    0    0    0 -0.00000000000E+00 -0.00000000000E+00 -0.45593999997E+02  0.45594000000E+02  0.51100000000E-03 0. -1.
    9900012    2    1    2    0    0  0.14013312769E+02 -0.21685442553E+02 -0.36911815541E+02  0.46142317854E+02  0.10000000844E+02 0.  0.
        -12    1    1    2    0    0 -0.14013312769E+02  0.21685442553E+02  0.36911815541E+02  0.45045682146E+02  0.00000000000E+00 0.  1.
         11    1    3    3    0    0  0.82052424421E+00 -0.19350368873E+01 -0.60579746077E+00  0.21873771086E+01  0.51100000000E-03 0. -1.
        -11    1    3    3    0    0  0.46155312662E+01 -0.10329633774E+02 -0.11877356622E+02  0.16403538136E+02  0.51100000000E-03 0.  1.
         12    1    3    3    0    0  0.85772572587E+01 -0.94207718925E+01 -0.24428661458E+02  0.27551402609E+02  0.00000000000E+00 0. -1.
</event>
<event>
 7    1  0.1519238E-008  0.4614232E+02  0.7816164E-02  0.1320468E+00
        -11   -1    0    0    0    0  0.00000000000E+00  0.00000000000E+00  0.45593999997E+02  0.45594000000E+02  0.51100000000E-03 0.  1.
         11   -1    0    0    0    0 -0.00000000000E+00 -0.00000000000E+00 -0.45593999997E+02  0.45594000000E+02  0.51100000000E-03 0. -1.
    9900012    2    1    2    0    0 -0.56071428404E+01 -0.32054725787E+02 -0.31147519681E+02  0.46142317872E+02  0.10000001008E+02 0.  0.
        -12    1    1    2    0    0  0.56071428404E+01  0.32054725787E+02  0.31147519681E+02  0.45045682128E+02  0.00000000000E+00 0.  1.
         11    1    3    3    0    0 -0.33770856684E+00 -0.24805276819E+02 -0.21702100975E+02  0.32960536891E+02  0.51100000000E-03 0. -1.
        -11    1    3    3    0    0 -0.54426028529E+01 -0.68968720051E+01 -0.91858171403E+01  0.12710940408E+02  0.51100000000E-03 0.  1.
         12    1    3    3    0    0  0.17316857930E+00 -0.35257696260E+00 -0.25960156645E+00  0.47084057250E+00  0.00000000000E+00 0. -1.
</event>
<event>
 7    1  0.1519238E-008  0.4614232E+02  0.7816164E-02  0.1320468E+00
        -11   -1    0    0    0    0  0.00000000000E+00  0.00000000000E+00  0.45593999997E+02  0.45594000000E+02  0.51100000000E-03 0. -1.
         11   -1    0    0    0    0 -0.00000000000E+00 -0.00000000000E+00 -0.45593999997E+02  0.45594000000E+02  0.51100000000E-03 0.  1.
    9900012    2    1    2    0    0  0.29183984072E+02  0.29714963279E+02  0.17158940068E+02  0.46142321037E+02  0.10000029868E+02 0.  0.
        -12    1    1    2    0    0 -0.29183984072E+02 -0.29714963279E+02 -0.17158940068E+02  0.45045678963E+02  0.00000000000E+00 0.  1.
         11    1    3    3    0    0  0.16122179395E+02  0.16640620193E+02  0.13178806107E+02  0.26655502988E+02  0.51100000000E-03 0. -1.
        -11    1    3    3    0    0  0.27003932732E+01  0.79883439916E+00 -0.38043507077E+00  0.28416529224E+01  0.51100000000E-03 0.  1.
        -12    1    3    3    0    0  0.10361411404E+02  0.12275508687E+02  0.43605690319E+01  0.16645165127E+02  0.00000000000E+00 0.  1.
</event>
<event>
 7    1  0.1519238E-008  0.4614232E+02  0.7816164E-02  0.1320468E+00
        -11   -1    0    0    0    0  0.00000000000E+00  0.00000000000E+00  0.45593999997E+02  0.45594000000E+02  0.51100000000E-03 0.  1.
         11   -1    0    0    0    0 -0.00000000000E+00 -0.00000000000E+00 -0.45593999997E+02  0.45594000000E+02  0.51100000000E-03 0. -1.
    9900012    2    1    2    0    0  0.17526996292E+02 -0.11277473392E+02 -0.39934153387E+02  0.46142316390E+02  0.99999875009E+01 0.  0.
        -12    1    1    2    0    0 -0.17526996292E+02  0.11277473392E+02  0.39934153387E+02  0.45045683610E+02  0.00000000000E+00 0.  1.
         11    1    3    3    0    0  0.15715622949E+02 -0.11617761150E+02 -0.38764003834E+02  0.43411993416E+02  0.51100000000E-03 0. -1.
        -11    1    3    3    0    0 -0.21054378949E-01  0.60116919924E+00 -0.41757967852E+00  0.73227094850E+00  0.51100000000E-03 0.  1.
         12    1    3    3    0    0  0.18324277224E+01 -0.26088144177E+00 -0.75256987402E+00  0.19980520263E+01  0.00000000000E+00 0. -1.
</event>
<event>
 7    1  0.1519238E-008  0.4614232E+02  0.7816164E-02  0.1320468E+00
        -11   -1    0    0    0    0  0.00000000000E+00  0.00000000000E+00  0.45593999997E+02  0.45594000000E+02  0.51100000000E-03 0.  1.
         11   -1    0    0    0    0 -0.00000000000E+00 -0.00000000000E+00 -0.45593999997E+02  0.45594000000E+02  0.51100000000E-03 0. -1.
    9900012    2    1    2    0    0 -0.36818639086E+02 -0.18061256560E+02 -0.18635781045E+02  0.46142317545E+02  0.99999980317E+01 0.  0.
        -12    1    1    2    0    0  0.36818639086E+02  0.18061256560E+02  0.18635781045E+02  0.45045682455E+02  0.00000000000E+00 0.  1.
         11    1    3    3    0    0 -0.10045542246E+02 -0.75170158218E+01 -0.39174012752E+01  0.13143990220E+02  0.51100000000E-03 0.  1.
        -11    1    3    3    0    0 -0.14564667529E+02 -0.90481956125E+01 -0.98177927625E+01  0.19758249899E+02  0.51100000000E-03 0. -1.
        -12    1    3    3    0    0 -0.12208429310E+02 -0.14960451255E+01 -0.49005870078E+01  0.13240077427E+02  0.00000000000E+00 0.  1.
</event>
<event>
 7    1  0.1519238E-008  0.4614232E+02  0.7816164E-02  0.1320468E+00
        -11   -1    0    0    0    0  0.00000000000E+00  0.00000000000E+00  0.45593999997E+02  0.45594000000E+02  0.51100000000E-03 0.  1.
         11   -1    0    0    0    0 -0.00000000000E+00 -0.00000000000E+00 -0.45593999997E+02  0.45594000000E+02  0.51100000000E-03 0. -1.
    9900012    2    1    2    0    0  0.64328911380E+01 -0.10463913636E+02 -0.43338641200E+02  0.46142318764E+02  0.10000009142E+02 0.  0.
        -12    1    1    2    0    0 -0.64328911380E+01  0.10463913636E+02  0.43338641200E+02  0.45045681236E+02  0.00000000000E+00 0.  1.
         11    1    3    3    0    0  0.19584691599E+01 -0.28011393797E+01 -0.20191433813E+02  0.20478671416E+02  0.51100000000E-03 0. -1.
        -11    1    3    3    0    0 -0.76460707983E+00 -0.51356812371E+01 -0.12402895712E+02  0.13445879222E+02  0.51100000000E-03 0.  1.
        -12    1    3    3    0    0  0.52390290579E+01 -0.25270930188E+01 -0.10744311676E+02  0.12217768126E+02  0.00000000000E+00 0.  1.
</event>
<event>
 7    1  0.1519238E-008  0.4614231E+02  0.7816164E-02  0.1320468E+00
        -11   -1    0    0    0    0  0.00000000000E+00  0.00000000000E+00  0.45593999997E+02  0.45594000000E+02  0.51100000000E-03 0.  1.
         11   -1    0    0    0    0 -0.00000000000E+00 -0.00000000000E+00 -0.45593999997E+02  0.45594000000E+02  0.51100000000E-03 0. -1.
    9900012    2    1    2    0    0 -0.13822312598E+02 -0.34608876867E+02 -0.25303815402E+02  0.46142314774E+02  0.99999727637E+01 0.  0.
        -12    1    1    2    0    0  0.13822312598E+02  0.34608876867E+02  0.25303815402E+02  0.45045685226E+02  0.00000000000E+00 0.  1.
         11    1    3    3    0    0 -0.11078431828E+02 -0.21565607083E+02 -0.13753828228E+02  0.27874268633E+02  0.51100000000E-03 0. -1.
        -11    1    3    3    0    0 -0.24443115916E+01 -0.26562101241E+01 -0.42107014330E+01  0.55461805054E+01  0.51100000000E-03 0.  1.
         12    1    3    3    0    0 -0.29956917813E+00 -0.10387059659E+02 -0.73392857410E+01  0.12721865635E+02  0.00000000000E+00 0. -1.
</event>
<event>
 7    1  0.1519238E-008  0.4614232E+02  0.7816164E-02  0.1320468E+00
        -11   -1    0    0    0    0  0.00000000000E+00  0.00000000000E+00  0.45593999997E+02  0.45594000000E+02  0.51100000000E-03 0. -1.
         11   -1    0    0    0    0 -0.00000000000E+00 -0.00000000000E+00 -0.45593999997E+02  0.45594000000E+02  0.51100000000E-03 0.  1.
    9900012    2    1    2    0    0 -0.22745158349E+02  0.32291549190E+02  0.21657034259E+02  0.46142317518E+02  0.99999977790E+01 0.  0.
        -12    1    1    2    0    0  0.22745158349E+02 -0.32291549190E+02 -0.21657034259E+02  0.45045682482E+02  0.00000000000E+00 0.  1.
         11    1    3    3    0    0 -0.12532879055E+02  0.19063738046E+02  0.16870652527E+02  0.28374602775E+02  0.51100000000E-03 0. -1.
        -11    1    3    3    0    0 -0.38013482549E+01  0.27956436854E+01  0.30394660514E+00  0.47284517520E+01  0.51100000000E-03 0.  1.
         12    1    3    3    0    0 -0.64109310396E+01  0.10432167458E+02  0.44824351273E+01  0.13039262991E+02  0.00000000000E+00 0. -1.
</event>
<event>
 7    1  0.1519238E-008  0.4614232E+02  0.7816164E-02  0.1320468E+00
        -11   -1    0    0    0    0  0.00000000000E+00  0.00000000000E+00  0.45593999997E+02  0.45594000000E+02  0.51100000000E-03 0. -1.
         11   -1    0    0    0    0 -0.00000000000E+00 -0.00000000000E+00 -0.45593999997E+02  0.45594000000E+02  0.51100000000E-03 0.  1.
    9900012    2    1    2    0    0 -0.42235658957E+02  0.31075991881E+01  0.15349444686E+02  0.46142317494E+02  0.99999975681E+01 0.  0.
        -12    1    1    2    0    0  0.42235658957E+02 -0.31075991881E+01 -0.15349444686E+02  0.45045682506E+02  0.00000000000E+00 0.  1.
         11    1    3    3    0    0 -0.11219688343E+02  0.11485178479E+01  0.58853574791E+01  0.12721553863E+02  0.51100000000E-03 0. -1.
        -11    1    3    3    0    0 -0.16280553675E+02  0.21212164597E+01  0.88963136684E+01  0.18673520942E+02  0.51100000000E-03 0.  1.
        -12    1    3    3    0    0 -0.14735416938E+02 -0.16213511953E+00  0.56777353862E+00  0.14747242689E+02  0.00000000000E+00 0.  1.
</event>
<event>
 7    1  0.1519238E-008  0.4614232E+02  0.7816164E-02  0.1320468E+00
        -11   -1    0    0    0    0  0.00000000000E+00  0.00000000000E+00  0.45593999997E+02  0.45594000000E+02  0.51100000000E-03 0. -1.
         11   -1    0    0    0    0 -0.00000000000E+00 -0.00000000000E+00 -0.45593999997E+02  0.45594000000E+02  0.51100000000E-03 0.  1.
    9900012    2    1    2    0    0  0.37952337212E+02 -0.15756584474E+02  0.18451659347E+02  0.46142316669E+02  0.99999900379E+01 0.  0.
        -12    1    1    2    0    0 -0.37952337212E+02  0.15756584474E+02 -0.18451659347E+02  0.45045683331E+02  0.00000000000E+00 0.  1.
         11    1    3    3    0    0  0.18549112679E+02 -0.10833437471E+02  0.11497245744E+02  0.24364310140E+02  0.51100000000E-03 0. -1.
        -11    1    3    3    0    0  0.13856547733E+02 -0.13043677185E+01  0.56879313424E+01  0.15035220432E+02  0.51100000000E-03 0.  1.
        -12    1    3    3    0    0  0.55466767995E+01 -0.36187792848E+01  0.12664822603E+01  0.67427860968E+01  0.00000000000E+00 0.  1.
</event>
<event>
 7    1  0.1519238E-008  0.4614232E+02  0.7816164E-02  0.1320468E+00
        -11   -1    0    0    0    0  0.00000000000E+00  0.00000000000E+00  0.45593999997E+02  0.45594000000E+02  0.51100000000E-03 0.  1.
         11   -1    0    0    0    0 -0.00000000000E+00 -0.00000000000E+00 -0.45593999997E+02  0.45594000000E+02  0.51100000000E-03 0. -1.
    9900012    2    1    2    0    0 -0.43251093726E+01  0.44691715512E+02 -0.36135167384E+01  0.46142317524E+02  0.99999978368E+01 0.  0.
        -12    1    1    2    0    0  0.43251093726E+01 -0.44691715512E+02  0.36135167384E+01  0.45045682476E+02  0.00000000000E+00 0.  1.
         11    1    3    3    0    0 -0.47809347766E+01  0.42059032490E+02 -0.48665196438E+01  0.42608714660E+02  0.51100000000E-03 0. -1.
        -11    1    3    3    0    0  0.12020241022E+01  0.13033287664E+01  0.56289046732E+00  0.18602079870E+01  0.51100000000E-03 0.  1.
         12    1    3    3    0    0 -0.74619869810E+00  0.13293542564E+01  0.69011243804E+00  0.16733948766E+01  0.00000000000E+00 0. -1.
</event>
<event>
 7    1  0.1519238E-008  0.4614232E+02  0.7816164E-02  0.1320468E+00
        -11   -1    0    0    0    0  0.00000000000E+00  0.00000000000E+00  0.45593999997E+02  0.45594000000E+02  0.51100000000E-03 0.  1.
         11   -1    0    0    0    0 -0.00000000000E+00 -0.00000000000E+00 -0.45593999997E+02  0.45594000000E+02  0.51100000000E-03 0. -1.
    9900012    2    1    2    0    0 -0.11307906036E+02 -0.41607529509E+00 -0.43601280452E+02  0.46142317469E+02  0.99999973390E+01 0.  0.
        -12    1    1    2    0    0  0.11307906036E+02  0.41607529509E+00  0.43601280452E+02  0.45045682531E+02  0.00000000000E+00 0.  1.
         11    1    3    3    0    0  0.75241978296E+00  0.44168980636E-01 -0.20742317627E+00  0.78173592972E+00  0.51100000000E-03 0. -1.
        -11    1    3    3    0    0 -0.60676623010E+01 -0.22362009384E+01 -0.15889404365E+02  0.17154891191E+02  0.51100000000E-03 0.  1.
         12    1    3    3    0    0 -0.59926635178E+01  0.17759566626E+01 -0.27504452911E+02  0.28205690348E+02  0.00000000000E+00 0. -1.
</event>
<event>
 7    1  0.1519238E-008  0.4614232E+02  0.7816164E-02  0.1320468E+00
        -11   -1    0    0    0    0  0.00000000000E+00  0.00000000000E+00  0.45593999997E+02  0.45594000000E+02  0.51100000000E-03 0.  1.
         11   -1    0    0    0    0 -0.00000000000E+00 -0.00000000000E+00 -0.45593999997E+02  0.45594000000E+02  0.51100000000E-03 0. -1.
    9900012    2    1    2    0    0  0.13130041184E+02 -0.40318834292E+02 -0.15202192355E+02  0.46142322820E+02  0.10000046132E+02 0.  0.
        -12    1    1    2    0    0 -0.13130041184E+02  0.40318834292E+02  0.15202192355E+02  0.45045677180E+02  0.00000000000E+00 0.  1.
         11    1    3    3    0    0  0.12245084711E+01 -0.79561072427E+01 -0.57969851448E+01  0.99198840963E+01  0.51100000000E-03 0. -1.
        -11    1    3    3    0    0  0.94465533336E+01 -0.24091705465E+02 -0.44057215857E+01  0.26249914763E+02  0.51100000000E-03 0.  1.
        -12    1    3    3    0    0  0.24589793798E+01 -0.82710215844E+01 -0.49994856248E+01  0.99725239610E+01  0.00000000000E+00 0.  1.
</event>
<event>
 7    1  0.1519238E-008  0.4614232E+02  0.7816164E-02  0.1320468E+00
        -11   -1    0    0    0    0  0.00000000000E+00  0.00000000000E+00  0.45593999997E+02  0.45594000000E+02  0.51100000000E-03 0. -1.
         11   -1    0    0    0    0 -0.00000000000E+00 -0.00000000000E+00 -0.45593999997E+02  0.45594000000E+02  0.51100000000E-03 0.  1.
    9900012    2    1    2    0    0  0.30010360327E+02  0.28711070318E+02 -0.17440359296E+02  0.46142318540E+02  0.10000007105E+02 0.  0.
        -12    1    1    2    0    0 -0.30010360327E+02 -0.28711070318E+02  0.17440359296E+02  0.45045681460E+02  0.00000000000E+00 0.  1.
         11    1    3    3    0    0  0.14992120705E+02  0.93160845447E+01 -0.53198746057E+01  0.18435134405E+02  0.51100000000E-03 0. -1.
        -11    1    3    3    0    0  0.10677899527E+00  0.65931873880E+00 -0.12343770827E+01  0.14034920721E+01  0.51100000000E-03 0.  1.
         12    1    3    3    0    0  0.14911460627E+02  0.18735667035E+02 -0.10886107608E+02  0.26303692063E+02  0.00000000000E+00 0. -1.
</event>
<event>
 7    1  0.1519238E-008  0.4614232E+02  0.7816164E-02  0.1320468E+00
        -11   -1    0    0    0    0  0.00000000000E+00  0.00000000000E+00  0.45593999997E+02  0.45594000000E+02  0.51100000000E-03 0.  1.
         11   -1    0    0    0    0 -0.00000000000E+00 -0.00000000000E+00 -0.45593999997E+02  0.45594000000E+02  0.51100000000E-03 0. -1.
    9900012    2    1    2    0    0 -0.44535535468E+00  0.18054201600E+02 -0.41266948092E+02  0.46142317170E+02  0.99999946097E+01 0.  0.
        -12    1    1    2    0    0  0.44535535468E+00 -0.18054201600E+02  0.41266948092E+02  0.45045682830E+02  0.00000000000E+00 0.  1.
         11    1    3    3    0    0  0.25311875241E+01  0.88505366698E+01 -0.11442659053E+02  0.14685821601E+02  0.51100000000E-03 0. -1.
        -11    1    3    3    0    0 -0.31710906834E+01  0.64718734392E+01 -0.20058274294E+02  0.21313735708E+02  0.51100000000E-03 0.  1.
         12    1    3    3    0    0  0.19454780457E+00  0.27317914914E+01 -0.97660147445E+01  0.10142759861E+02  0.00000000000E+00 0. -1.
</event>
<event>
 7    1  0.1519238E-008  0.4614232E+02  0.7816164E-02  0.1320468E+00
        -11   -1    0    0    0    0  0.00000000000E+00  0.00000000000E+00  0.45593999997E+02  0.45594000000E+02  0.51100000000E-03 0.  1.
         11   -1    0    0    0    0 -0.00000000000E+00 -0.00000000000E+00 -0.45593999997E+02  0.45594000000E+02  0.51100000000E-03 0. -1.
    9900012    2    1    2    0    0 -0.23762150833E+02  0.14752950177E+02 -0.35310397259E+02  0.46142317569E+02  0.99999982439E+01 0.  0.
        -12    1    1    2    0    0  0.23762150833E+02 -0.14752950177E+02  0.35310397259E+02  0.45045682431E+02  0.00000000000E+00 0.  1.
         11    1    3    3    0    0 -0.10795736522E+02  0.31394514027E+01 -0.17996205865E+02  0.21219507722E+02  0.51100000000E-03 0. -1.
        -11    1    3    3    0    0 -0.59293537443E+01  0.25561117866E+01 -0.62427842165E+01  0.89812748720E+01  0.51100000000E-03 0.  1.
         12    1    3    3    0    0 -0.70370605666E+01  0.90573869873E+01 -0.11071407178E+02  0.15941534975E+02  0.00000000000E+00 0. -1.
</event>
<event>
 7    1  0.1519238E-008  0.4614230E+02  0.7816164E-02  0.1320468E+00
        -11   -1    0    0    0    0  0.00000000000E+00  0.00000000000E+00  0.45593999997E+02  0.45594000000E+02  0.51100000000E-03 0.  1.
         11   -1    0    0    0    0 -0.00000000000E+00 -0.00000000000E+00 -0.45593999997E+02  0.45594000000E+02  0.51100000000E-03 0. -1.
    9900012    2    1    2    0    0  0.10117097911E+01 -0.28346806644E+02 -0.34993568345E+02  0.46142302879E+02  0.99998642904E+01 0.  0.
        -12    1    1    2    0    0 -0.10117097911E+01  0.28346806644E+02  0.34993568345E+02  0.45045697121E+02  0.00000000000E+00 0.  1.
         11    1    3    3    0    0  0.58982629363E+00 -0.55577224133E+01 -0.47792112244E+01  0.73537088377E+01  0.51100000000E-03 0. -1.
        -11    1    3    3    0    0 -0.12080457733E+01 -0.10834082701E+02 -0.20804318806E+02  0.23487366898E+02  0.51100000000E-03 0.  1.
        -12    1    3    3    0    0  0.16299292708E+01 -0.11955001530E+02 -0.94100383148E+01  0.15301227143E+02  0.00000000000E+00 0.  1.
</event>
<event>
 7    1  0.1519238E-008  0.4614232E+02  0.7816164E-02  0.1320468E+00
        -11   -1    0    0    0    0  0.00000000000E+00  0.00000000000E+00  0.45593999997E+02  0.45594000000E+02  0.51100000000E-03 0.  1.
         11   -1    0    0    0    0 -0.00000000000E+00 -0.00000000000E+00 -0.45593999997E+02  0.45594000000E+02  0.51100000000E-03 0. -1.
    9900012    2    1    2    0    0  0.16680435283E+02  0.37903584491E+01 -0.41671450267E+02  0.46142317568E+02  0.99999982381E+01 0.  0.
        -12    1    1    2    0    0 -0.16680435283E+02 -0.37903584491E+01  0.41671450267E+02  0.45045682432E+02  0.00000000000E+00 0.  1.
         11    1    3    3    0    0  0.74303195851E+00 -0.11861973078E+01 -0.97881225562E+00  0.17079912872E+01  0.51100000000E-03 0. -1.
        -11    1    3    3    0    0  0.10975154372E+02  0.62681310888E+01 -0.26958419024E+02  0.29774147131E+02  0.51100000000E-03 0.  1.
         12    1    3    3    0    0  0.49622489524E+01 -0.12915753319E+01 -0.13734218988E+02  0.14660179150E+02  0.00000000000E+00 0. -1.
</event>
<event>
 7    1  0.1519238E-008  0.4614232E+02  0.7816164E-02  0.1320468E+00
        -11   -1    0    0    0    0  0.00000000000E+00  0.00000000000E+00  0.45593999997E+02  0.45594000000E+02  0.51100000000E-03 0.  1.
         11   -1    0    0    0    0 -0.00000000000E+00 -0.00000000000E+00 -0.45593999997E+02  0.45594000000E+02  0.51100000000E-03 0. -1.
    9900012    2    1    2    0    0  0.10857950242E+02  0.18573977855E+02 -0.39575569849E+02  0.46142318013E+02  0.10000002293E+02 0.  0.
        -12    1    1    2    0    0 -0.10857950242E+02 -0.18573977855E+02  0.39575569849E+02  0.45045681987E+02  0.00000000000E+00 0.  1.
         11    1    3    3    0    0  0.71730898206E+00  0.25386627420E+01 -0.23596968997E+01  0.35394223276E+01  0.51100000000E-03 0. -1.
        -11    1    3    3    0    0  0.97779725973E+01  0.12396708346E+02 -0.22818015006E+02  0.27747953709E+02  0.51100000000E-03 0.  1.
        -12    1    3    3    0    0  0.36266866270E+00  0.36386067669E+01 -0.14397857943E+02  0.14854941976E+02  0.00000000000E+00 0.  1.
</event>
<event>
 7    1  0.1519238E-008  0.4614232E+02  0.7816164E-02  0.1320468E+00
        -11   -1    0    0    0    0  0.00000000000E+00  0.00000000000E+00  0.45593999997E+02  0.45594000000E+02  0.51100000000E-03 0.  1.
         11   -1    0    0    0    0 -0.00000000000E+00 -0.00000000000E+00 -0.45593999997E+02  0.45594000000E+02  0.51100000000E-03 0. -1.
    9900012    2    1    2    0    0  0.38474138597E+02  0.71376821709E+01 -0.22313841481E+02  0.46142319084E+02  0.10000012062E+02 0.  0.
        -12    1    1    2    0    0 -0.38474138597E+02 -0.71376821709E+01  0.22313841481E+02  0.45045680916E+02  0.00000000000E+00 0.  1.
         11    1    3    3    0    0  0.10627845893E+02  0.37541210290E+01 -0.44360283569E+01  0.12112922062E+02  0.51100000000E-03 0. -1.
        -11    1    3    3    0    0  0.17504205182E+02 -0.12176955115E+01 -0.95544550141E+01  0.19979178969E+02  0.51100000000E-03 0.  1.
        -12    1    3    3    0    0  0.10342087521E+02  0.46012566534E+01 -0.83233581105E+01  0.14050218053E+02  0.00000000000E+00 0.  1.
</event>
<event>
 7    1  0.1519238E-008  0.4614232E+02  0.7816164E-02  0.1320468E+00
        -11   -1    0    0    0    0  0.00000000000E+00  0.00000000000E+00  0.45593999997E+02  0.45594000000E+02  0.51100000000E-03 0.  1.
         11   -1    0    0    0    0 -0.00000000000E+00 -0.00000000000E+00 -0.45593999997E+02  0.45594000000E+02  0.51100000000E-03 0. -1.
    9900012    2    1    2    0    0  0.71103455122E+01  0.23447592851E+02 -0.37799032474E+02  0.46142317857E+02  0.10000000873E+02 0.  0.
        -12    1    1    2    0    0 -0.71103455122E+01 -0.23447592851E+02  0.37799032474E+02  0.45045682143E+02  0.00000000000E+00 0.  1.
         11    1    3    3    0    0  0.15977798370E+01  0.12284219545E+02 -0.20126128180E+02  0.23632942813E+02  0.51100000000E-03 0. -1.
        -11    1    3    3    0    0  0.32777415882E+00 -0.15203896363E+00 -0.40132144592E+01  0.40294468978E+01  0.51100000000E-03 0.  1.
        -12    1    3    3    0    0  0.51847915164E+01  0.11315412270E+02 -0.13659689834E+02  0.18479928146E+02  0.00000000000E+00 0.  1.
</event>
<event>
 7    1  0.1519238E-008  0.4614232E+02  0.7816164E-02  0.1320468E+00
        -11   -1    0    0    0    0  0.00000000000E+00  0.00000000000E+00  0.45593999997E+02  0.45594000000E+02  0.51100000000E-03 0.  1.
         11   -1    0    0    0    0 -0.00000000000E+00 -0.00000000000E+00 -0.45593999997E+02  0.45594000000E+02  0.51100000000E-03 0. -1.
    9900012    2    1    2    0    0 -0.12012922661E+02 -0.28677291703E+02 -0.32594726541E+02  0.46142316871E+02  0.99999918826E+01 0.  0.
        -12    1    1    2    0    0  0.12012922661E+02  0.28677291703E+02  0.32594726541E+02  0.45045683129E+02  0.00000000000E+00 0.  1.
         11    1    3    3    0    0 -0.90153161777E+01 -0.14944570501E+02 -0.15269690179E+02  0.23190074421E+02  0.51100000000E-03 0. -1.
        -11    1    3    3    0    0 -0.14820249189E+01 -0.59851729865E+01 -0.36588776032E+01  0.71698032829E+01  0.51100000000E-03 0.  1.
         12    1    3    3    0    0 -0.15155815640E+01 -0.77475482162E+01 -0.13666158759E+02  0.15782439167E+02  0.00000000000E+00 0. -1.
</event>
<event>
 7    1  0.1519238E-008  0.4614232E+02  0.7816164E-02  0.1320468E+00
        -11   -1    0    0    0    0  0.00000000000E+00  0.00000000000E+00  0.45593999997E+02  0.45594000000E+02  0.51100000000E-03 0. -1.
         11   -1    0    0    0    0 -0.00000000000E+00 -0.00000000000E+00 -0.45593999997E+02  0.45594000000E+02  0.51100000000E-03 0.  1.
    9900012    2    1    2    0    0 -0.21042532964E+02  0.23916640560E+02 -0.31848382825E+02  0.46142318989E+02  0.10000011193E+02 0.  0.
        -12    1    1    2    0    0  0.21042532964E+02 -0.23916640560E+02  0.31848382825E+02  0.45045681011E+02  0.00000000000E+00 0.  1.
         11    1    3    3    0    0 -0.65501375784E+01  0.14417789172E+02 -0.17165909686E+02  0.23354772585E+02  0.51100000000E-03 0. -1.
        -11    1    3    3    0    0 -0.51174152396E+01  0.29447240298E+01 -0.39620619864E+01  0.71103638298E+01  0.51100000000E-03 0.  1.
         12    1    3    3    0    0 -0.93749801456E+01  0.65541273586E+01 -0.10720411153E+02  0.15677182574E+02  0.00000000000E+00 0. -1.
</event>
<event>
 7    1  0.1519238E-008  0.4614232E+02  0.7816164E-02  0.1320468E+00
        -11   -1    0    0    0    0  0.00000000000E+00  0.00000000000E+00  0.45593999997E+02  0.45594000000E+02  0.51100000000E-03 0.  1.
         11   -1    0    0    0    0 -0.00000000000E+00 -0.00000000000E+00 -0.45593999997E+02  0.45594000000E+02  0.51100000000E-03 0. -1.
    9900012    2    1    2    0    0  0.29630762828E+02  0.31724283870E+02 -0.12029186768E+02  0.46142316221E+02  0.99999859570E+01 0.  0.
        -12    1    1    2    0    0 -0.29630762828E+02 -0.31724283870E+02  0.12029186768E+02  0.45045683779E+02  0.00000000000E+00 0.  1.
         11    1    3    3    0    0  0.36316568141E+01  0.12027548966E+01  0.84765556931E+00  0.39184270800E+01  0.51100000000E-03 0. -1.
        -11    1    3    3    0    0  0.11229663025E+02  0.12576893183E+02 -0.38739136620E+01  0.17300022576E+02  0.51100000000E-03 0.  1.
         12    1    3    3    0    0  0.14769442988E+02  0.17944635790E+02 -0.90029286755E+01  0.24923866565E+02  0.00000000000E+00 0. -1.
</event>
<event>
 7    1  0.1519238E-008  0.4614232E+02  0.7816164E-02  0.1320468E+00
        -11   -1    0    0    0    0  0.00000000000E+00  0.00000000000E+00  0.45593999997E+02  0.45594000000E+02  0.51100000000E-03 0.  1.
         11   -1    0    0    0    0 -0.00000000000E+00 -0.00000000000E+00 -0.45593999997E+02  0.45594000000E+02  0.51100000000E-03 0. -1.
    9900012    2    1    2    0    0 -0.20028192256E+01 -0.43458951290E+02 -0.11679973961E+02  0.46142317368E+02  0.99999964143E+01 0.  0.
        -12    1    1    2    0    0  0.20028192256E+01  0.43458951290E+02  0.11679973961E+02  0.45045682632E+02  0.00000000000E+00 0.  1.
         11    1    3    3    0    0  0.16840273928E+01 -0.31448473919E+02 -0.10764414933E+02  0.33282354021E+02  0.51100000000E-03 0. -1.
        -11    1    3    3    0    0 -0.40407803802E+01 -0.11040296331E+02 -0.11109902630E+01  0.11808909720E+02  0.51100000000E-03 0.  1.
         12    1    3    3    0    0  0.35393376181E+00 -0.97018104005E+00  0.19543123470E+00  0.10510536265E+01  0.00000000000E+00 0. -1.
</event>
<event>
 7    1  0.1519238E-008  0.4614232E+02  0.7816164E-02  0.1320468E+00
        -11   -1    0    0    0    0  0.00000000000E+00  0.00000000000E+00  0.45593999997E+02  0.45594000000E+02  0.51100000000E-03 0.  1.
         11   -1    0    0    0    0 -0.00000000000E+00 -0.00000000000E+00 -0.45593999997E+02  0.45594000000E+02  0.51100000000E-03 0. -1.
    9900012    2    1    2    0    0  0.23919456052E+02 -0.20458792956E+02 -0.32224383864E+02  0.46142317605E+02  0.99999985761E+01 0.  0.
        -12    1    1    2    0    0 -0.23919456052E+02  0.20458792956E+02  0.32224383864E+02  0.45045682395E+02  0.00000000000E+00 0.  1.
         11    1    3    3    0    0  0.10430164028E+02 -0.56765755448E+01 -0.93687170536E+01  0.15125630269E+02  0.51100000000E-03 0. -1.
        -11    1    3    3    0    0  0.24911757260E+01 -0.68787286303E+01 -0.95564376415E+01  0.12035296620E+02  0.51100000000E-03 0.  1.
         12    1    3    3    0    0  0.10998116299E+02 -0.79034887806E+01 -0.13299229168E+02  0.18981390716E+02  0.00000000000E+00 0. -1.
</event>
<event>
 7    1  0.1519238E-008  0.4614232E+02  0.7816164E-02  0.1320468E+00
        -11   -1    0    0    0    0  0.00000000000E+00  0.00000000000E+00  0.45593999997E+02  0.45594000000E+02  0.51100000000E-03 0.  1.
         11   -1    0    0    0    0 -0.00000000000E+00 -0.00000000000E+00 -0.45593999997E+02  0.45594000000E+02  0.51100000000E-03 0. -1.
    9900012    2    1    2    0    0  0.22414433917E+02  0.31872329313E+02 -0.22602236854E+02  0.46142319470E+02  0.10000015581E+02 0.  0.
        -12    1    1    2    0    0 -0.22414433917E+02 -0.31872329313E+02  0.22602236854E+02  0.45045680530E+02  0.00000000000E+00 0.  1.
         11    1    3    3    0    0  0.12586903462E+02  0.12133431872E+02 -0.10058197285E+02  0.20169720887E+02  0.51100000000E-03 0. -1.
        -11    1    3    3    0    0 -0.29814149804E-01  0.13551323397E+01  0.41208744156E+00  0.14167176367E+01  0.51100000000E-03 0.  1.
        -12    1    3    3    0    0  0.98573446038E+01  0.18383765101E+02 -0.12956127011E+02  0.24555880946E+02  0.00000000000E+00 0.  1.
</event>
<event>
 7    1  0.1519238E-008  0.4614232E+02  0.7816164E-02  0.1320468E+00
        -11   -1    0    0    0    0  0.00000000000E+00  0.00000000000E+00  0.45593999997E+02  0.45594000000E+02  0.51100000000E-03 0.  1.
         11   -1    0    0    0    0 -0.00000000000E+00 -0.00000000000E+00 -0.45593999997E+02  0.45594000000E+02  0.51100000000E-03 0. -1.
    9900012    2    1    2    0    0 -0.31461110175E+02 -0.85651414494E+01 -0.31079741822E+02  0.46142318151E+02  0.10000003559E+02 0.  0.
        -12    1    1    2    0    0  0.31461110175E+02  0.85651414494E+01  0.31079741822E+02  0.45045681849E+02  0.00000000000E+00 0.  1.
         11    1    3    3    0    0 -0.11048995457E+02 -0.32188066957E+01 -0.15929789018E+02  0.19651951444E+02  0.51100000000E-03 0. -1.
        -11    1    3    3    0    0 -0.12228446589E+02 -0.18689995829E+01 -0.60617076748E+01  0.13775789110E+02  0.51100000000E-03 0.  1.
        -12    1    3    3    0    0 -0.81836681291E+01 -0.34773351708E+01 -0.90882451290E+01  0.12714577597E+02  0.00000000000E+00 0.  1.
</event>
<event>
 7    1  0.1519238E-008  0.4614231E+02  0.7816164E-02  0.1320468E+00
        -11   -1    0    0    0    0  0.00000000000E+00  0.00000000000E+00  0.45593999997E+02  0.45594000000E+02  0.51100000000E-03 0.  1.
         11   -1    0    0    0    0 -0.00000000000E+00 -0.00000000000E+00 -0.45593999997E+02  0.45594000000E+02  0.51100000000E-03 0. -1.
    9900012    2    1    2    0    0 -0.63931877571E+01 -0.26712598109E+02 -0.35702632900E+02  0.46142314929E+02  0.99999741788E+01 0.  0.
        -12    1    1    2    0    0  0.63931877571E+01  0.26712598109E+02  0.35702632900E+02  0.45045685071E+02  0.00000000000E+00 0.  1.
         11    1    3    3    0    0 -0.31098439354E+01 -0.78383937100E+01 -0.10430738589E+02  0.13413122419E+02  0.51100000000E-03 0. -1.
        -11    1    3    3    0    0 -0.57538139865E+01 -0.12277356598E+02 -0.14437213045E+02  0.19805882490E+02  0.51100000000E-03 0.  1.
        -12    1    3    3    0    0  0.24704701647E+01 -0.65968478014E+01 -0.10834681266E+02  0.12923310020E+02  0.00000000000E+00 0.  1.
</event>
<event>
 7    1  0.1519238E-008  0.4614232E+02  0.7816164E-02  0.1320468E+00
        -11   -1    0    0    0    0  0.00000000000E+00  0.00000000000E+00  0.45593999997E+02  0.45594000000E+02  0.51100000000E-03 0. -1.
         11   -1    0    0    0    0 -0.00000000000E+00 -0.00000000000E+00 -0.45593999997E+02  0.45594000000E+02  0.51100000000E-03 0.  1.
    9900012    2    1    2    0    0  0.12045188135E+02 -0.42443536259E+02  0.90869811156E+01  0.46142317042E+02  0.99999934404E+01 0.  0.
        -12    1    1    2    0    0 -0.12045188135E+02  0.42443536259E+02 -0.90869811156E+01  0.45045682958E+02  0.00000000000E+00 0.  1.
         11    1    3    3    0    0  0.62970046742E+01 -0.32518318105E+02  0.79242408159E+01  0.34057111930E+02  0.51100000000E-03 0. -1.
        -11    1    3    3    0    0  0.26228431152E+01 -0.31899769174E+01 -0.11873996471E+01  0.42971126264E+01  0.51100000000E-03 0.  1.
        -12    1    3    3    0    0  0.31253403455E+01 -0.67352412366E+01  0.23501399468E+01  0.77880924853E+01  0.00000000000E+00 0.  1.
</event>
<event>
 7    1  0.1519238E-008  0.4614232E+02  0.7816164E-02  0.1320468E+00
        -11   -1    0    0    0    0  0.00000000000E+00  0.00000000000E+00  0.45593999997E+02  0.45594000000E+02  0.51100000000E-03 0. -1.
         11   -1    0    0    0    0 -0.00000000000E+00 -0.00000000000E+00 -0.45593999997E+02  0.45594000000E+02  0.51100000000E-03 0.  1.
    9900012    2    1    2    0    0  0.28761776736E+02 -0.30898345362E+02 -0.15721516918E+02  0.46142316064E+02  0.99999845223E+01 0.  0.
        -12    1    1    2    0    0 -0.28761776736E+02  0.30898345362E+02  0.15721516918E+02  0.45045683936E+02  0.00000000000E+00 0.  1.
         11    1    3    3    0    0  0.13639152004E+01 -0.21604915968E+01 -0.26411731960E+01  0.36747496140E+01  0.51100000000E-03 0. -1.
        -11    1    3    3    0    0  0.85088607718E+01 -0.89834983274E+01 -0.78102357271E+01  0.14632284039E+02  0.51100000000E-03 0.  1.
        -12    1    3    3    0    0  0.18889000763E+02 -0.19754355437E+02 -0.52701079950E+01  0.27835282410E+02  0.00000000000E+00 0.  1.
</event>
<event>
 7    1  0.1519238E-008  0.4614232E+02  0.7816164E-02  0.1320468E+00
        -11   -1    0    0    0    0  0.00000000000E+00  0.00000000000E+00  0.45593999997E+02  0.45594000000E+02  0.51100000000E-03 0.  1.
         11   -1    0    0    0    0 -0.00000000000E+00 -0.00000000000E+00 -0.45593999997E+02  0.45594000000E+02  0.51100000000E-03 0. -1.
    9900012    2    1    2    0    0  0.11605253685E+01 -0.28809717086E+02 -0.34608768454E+02  0.46142317947E+02  0.10000001695E+02 0.  0.
        -12    1    1    2    0    0 -0.11605253685E+01  0.28809717086E+02  0.34608768454E+02  0.45045682053E+02  0.00000000000E+00 0.  1.
         11    1    3    3    0    0 -0.10242159230E+01 -0.86426150183E+01 -0.12717678053E+02  0.15410488245E+02  0.51100000000E-03 0. -1.
        -11    1    3    3    0    0  0.27879565971E+01 -0.47433978450E+01 -0.27758999698E+01  0.61626411552E+01  0.51100000000E-03 0.  1.
        -12    1    3    3    0    0 -0.60321530558E+00 -0.15423704223E+02 -0.19115190431E+02  0.24569188547E+02  0.00000000000E+00 0.  1.
</event>
<event>
 7    1  0.1519238E-008  0.4614232E+02  0.7816164E-02  0.1320468E+00
        -11   -1    0    0    0    0  0.00000000000E+00  0.00000000000E+00  0.45593999997E+02  0.45594000000E+02  0.51100000000E-03 0.  1.
         11   -1    0    0    0    0 -0.00000000000E+00 -0.00000000000E+00 -0.45593999997E+02  0.45594000000E+02  0.51100000000E-03 0. -1.
    9900012    2    1    2    0    0 -0.24989654863E+02  0.31233978874E+02 -0.20713986261E+02  0.46142317485E+02  0.99999974798E+01 0.  0.
        -12    1    1    2    0    0  0.24989654863E+02 -0.31233978874E+02  0.20713986261E+02  0.45045682515E+02  0.00000000000E+00 0.  1.
         11    1    3    3    0    0 -0.40035654677E+01  0.35718189566E+01 -0.32181653645E+01  0.62564379392E+01  0.51100000000E-03 0. -1.
        -11    1    3    3    0    0 -0.21729759893E+02  0.25796611754E+02 -0.17181812001E+02  0.37853167726E+02  0.51100000000E-03 0.  1.
        -12    1    3    3    0    0  0.74367049702E+00  0.18655481627E+01 -0.31400889544E+00  0.20327118197E+01  0.00000000000E+00 0.  1.
</event>
<event>
 7    1  0.1519238E-008  0.4614232E+02  0.7816164E-02  0.1320468E+00
        -11   -1    0    0    0    0  0.00000000000E+00  0.00000000000E+00  0.45593999997E+02  0.45594000000E+02  0.51100000000E-03 0.  1.
         11   -1    0    0    0    0 -0.00000000000E+00 -0.00000000000E+00 -0.45593999997E+02  0.45594000000E+02  0.51100000000E-03 0. -1.
    9900012    2    1    2    0    0 -0.27750349287E+02  0.27754218423E+02 -0.22107351650E+02  0.46142317379E+02  0.99999965152E+01 0.  0.
        -12    1    1    2    0    0  0.27750349287E+02 -0.27754218423E+02  0.22107351650E+02  0.45045682621E+02  0.00000000000E+00 0.  1.
         11    1    3    3    0    0 -0.10191953068E+02  0.47112996987E+01 -0.77991889587E+01  0.13671122882E+02  0.51100000000E-03 0.  1.
        -11    1    3    3    0    0 -0.48409589644E+01  0.77578989846E+01 -0.59011160699E+01  0.10883154482E+02  0.51100000000E-03 0. -1.
         12    1    3    3    0    0 -0.12717437254E+02  0.15285019740E+02 -0.84070466210E+01  0.21588040014E+02  0.00000000000E+00 0. -1.
</event>
<event>
 7    1  0.1519238E-008  0.4614232E+02  0.7816164E-02  0.1320468E+00
        -11   -1    0    0    0    0  0.00000000000E+00  0.00000000000E+00  0.45593999997E+02  0.45594000000E+02  0.51100000000E-03 0.  1.
         11   -1    0    0    0    0 -0.00000000000E+00 -0.00000000000E+00 -0.45593999997E+02  0.45594000000E+02  0.51100000000E-03 0. -1.
    9900012    2    1    2    0    0 -0.29141086669E+02  0.27733366810E+02 -0.20267485008E+02  0.46142317461E+02  0.99999972591E+01 0.  0.
        -12    1    1    2    0    0  0.29141086669E+02 -0.27733366810E+02  0.20267485008E+02  0.45045682539E+02  0.00000000000E+00 0.  1.
         11    1    3    3    0    0 -0.63418008185E+01  0.11075513618E+02 -0.76985114138E+01  0.14904781708E+02  0.51100000000E-03 0. -1.
        -11    1    3    3    0    0 -0.17411791658E+02  0.14267991617E+02 -0.84393198213E+01  0.24040969049E+02  0.51100000000E-03 0.  1.
        -12    1    3    3    0    0 -0.53874941931E+01  0.23898615754E+01 -0.41296537730E+01  0.71965667033E+01  0.00000000000E+00 0.  1.
</event>
<event>
 7    1  0.1519238E-008  0.4614232E+02  0.7816164E-02  0.1320468E+00
        -11   -1    0    0    0    0  0.00000000000E+00  0.00000000000E+00  0.45593999997E+02  0.45594000000E+02  0.51100000000E-03 0.  1.
         11   -1    0    0    0    0 -0.00000000000E+00 -0.00000000000E+00 -0.45593999997E+02  0.45594000000E+02  0.51100000000E-03 0. -1.
    9900012    2    1    2    0    0  0.46513369467E+01 -0.46922881343E+01 -0.44558512521E+02  0.46142317172E+02  0.99999946298E+01 0.  0.
        -12    1    1    2    0    0 -0.46513369467E+01  0.46922881343E+01  0.44558512521E+02  0.45045682828E+02  0.00000000000E+00 0.  1.
         11    1    3    3    0    0 -0.25229027394E+01  0.39085924108E+00 -0.65032821341E+01  0.69864503116E+01  0.51100000000E-03 0. -1.
        -11    1    3    3    0    0  0.42785302666E+01 -0.45495988577E+01 -0.24378199541E+02  0.25165478023E+02  0.51100000000E-03 0.  1.
         12    1    3    3    0    0  0.28957094196E+01 -0.53354851766E+00 -0.13677030846E+02  0.13990388838E+02  0.00000000000E+00 0. -1.
</event>
<event>
 7    1  0.1519238E-008  0.4614232E+02  0.7816164E-02  0.1320468E+00
        -11   -1    0    0    0    0  0.00000000000E+00  0.00000000000E+00  0.45593999997E+02  0.45594000000E+02  0.51100000000E-03 0.  1.
         11   -1    0    0    0    0 -0.00000000000E+00 -0.00000000000E+00 -0.45593999997E+02  0.45594000000E+02  0.51100000000E-03 0. -1.
    9900012    2    1    2    0    0  0.31589367894E+02  0.20267229978E+02 -0.24909126230E+02  0.46142319359E+02  0.10000014570E+02 0.  0.
        -12    1    1    2    0    0 -0.31589367894E+02 -0.20267229978E+02  0.24909126230E+02  0.45045680641E+02  0.00000000000E+00 0.  1.
         11    1    3    3    0    0  0.14793953121E+01  0.31650988807E+01 -0.48274268536E+01  0.59590697011E+01  0.51100000000E-03 0. -1.
        -11    1    3    3    0    0  0.17191244830E+02  0.11439905449E+02 -0.10862227149E+02  0.23332344811E+02  0.51100000000E-03 0.  1.
         12    1    3    3    0    0  0.12918727752E+02  0.56622256481E+01 -0.92194722269E+01  0.16850904847E+02  0.00000000000E+00 0. -1.
</event>
<event>
 7    1  0.1519238E-008  0.4614231E+02  0.7816164E-02  0.1320468E+00
        -11   -1    0    0    0    0  0.00000000000E+00  0.00000000000E+00  0.45593999997E+02  0.45594000000E+02  0.51100000000E-03 0. -1.
         11   -1    0    0    0    0 -0.00000000000E+00 -0.00000000000E+00 -0.45593999997E+02  0.45594000000E+02  0.51100000000E-03 0.  1.
    9900012    2    1    2    0    0 -0.40499673974E+02  0.73701323761E+01  0.18291294414E+02  0.46142313252E+02  0.99999588851E+01 0.  0.
        -12    1    1    2    0    0  0.40499673974E+02 -0.73701323761E+01 -0.18291294414E+02  0.45045686748E+02  0.00000000000E+00 0.  1.
         11    1    3    3    0    0 -0.25324005576E+02  0.54248340151E+01  0.85597976505E+01  0.27276440724E+02  0.51100000000E-03 0. -1.
        -11    1    3    3    0    0 -0.28405337317E+01 -0.16238175204E+01  0.14006593879E+01  0.35591097486E+01  0.51100000000E-03 0.  1.
         12    1    3    3    0    0 -0.12335134666E+02  0.35691158814E+01  0.83308373760E+01  0.15306762780E+02  0.00000000000E+00 0. -1.
</event>
<event>
 7    1  0.1519238E-008  0.4614232E+02  0.7816164E-02  0.1320468E+00
        -11   -1    0    0    0    0  0.00000000000E+00  0.00000000000E+00  0.45593999997E+02  0.45594000000E+02  0.51100000000E-03 0.  1.
         11   -1    0    0    0    0 -0.00000000000E+00 -0.00000000000E+00 -0.45593999997E+02  0.45594000000E+02  0.51100000000E-03 0. -1.
    9900012    2    1    2    0    0  0.35171750717E+02  0.91573482679E+01 -0.26612108994E+02  0.46142318510E+02  0.10000006831E+02 0.  0.
        -12    1    1    2    0    0 -0.35171750717E+02 -0.91573482679E+01  0.26612108994E+02  0.45045681490E+02  0.00000000000E+00 0.  1.
         11    1    3    3    0    0  0.20834886790E+02  0.37816637114E+01 -0.10336740605E+02  0.23563567102E+02  0.51100000000E-03 0. -1.
        -11    1    3    3    0    0  0.12217665933E+02  0.32771666753E+01 -0.13581096632E+02  0.18559562717E+02  0.51100000000E-03 0.  1.
        -12    1    3    3    0    0  0.21191979941E+01  0.20985178812E+01 -0.26942717568E+01  0.40191886912E+01  0.00000000000E+00 0.  1.
</event>
<event>
 7    1  0.1519238E-008  0.4614232E+02  0.7816164E-02  0.1320468E+00
        -11   -1    0    0    0    0  0.00000000000E+00  0.00000000000E+00  0.45593999997E+02  0.45594000000E+02  0.51100000000E-03 0.  1.
         11   -1    0    0    0    0 -0.00000000000E+00 -0.00000000000E+00 -0.45593999997E+02  0.45594000000E+02  0.51100000000E-03 0. -1.
    9900012    2    1    2    0    0  0.43142426518E+01  0.22307849384E+02 -0.38895509528E+02  0.46142317685E+02  0.99999993063E+01 0.  0.
        -12    1    1    2    0    0 -0.43142426518E+01 -0.22307849384E+02  0.38895509528E+02  0.45045682315E+02  0.00000000000E+00 0.  1.
         11    1    3    3    0    0  0.97366397264E+00  0.35361380999E+01 -0.21335581724E+01  0.42431550678E+01  0.51100000000E-03 0. -1.
        -11    1    3    3    0    0 -0.14799072828E+01  0.88488458852E+01 -0.14444290430E+02  0.17003815024E+02  0.51100000000E-03 0.  1.
         12    1    3    3    0    0  0.48204859620E+01  0.99228653986E+01 -0.22317660925E+02  0.24895347593E+02  0.00000000000E+00 0. -1.
</event>
<event>
 7    1  0.1519238E-008  0.4614232E+02  0.7816164E-02  0.1320468E+00
        -11   -1    0    0    0    0  0.00000000000E+00  0.00000000000E+00  0.45593999997E+02  0.45594000000E+02  0.51100000000E-03 0. -1.
         11   -1    0    0    0    0 -0.00000000000E+00 -0.00000000000E+00 -0.45593999997E+02  0.45594000000E+02  0.51100000000E-03 0.  1.
    9900012    2    1    2    0    0  0.14564281905E+02 -0.24168986932E+02  0.35112037698E+02  0.46142318430E+02  0.10000006101E+02 0.  0.
        -12    1    1    2    0    0 -0.14564281905E+02  0.24168986932E+02 -0.35112037698E+02  0.45045681570E+02  0.00000000000E+00 0.  1.
         11    1    3    3    0    0  0.11643440359E+02 -0.15779976013E+02  0.20806336776E+02  0.28591624589E+02  0.51100000000E-03 0. -1.
        -11    1    3    3    0    0  0.21580206540E+01 -0.21136345293E+01  0.17438913825E+01  0.34879308309E+01  0.51100000000E-03 0.  1.
         12    1    3    3    0    0  0.76282089223E+00 -0.62753763901E+01  0.12561809540E+02  0.14062763010E+02  0.00000000000E+00 0. -1.
</event>
<event>
 7    1  0.1519238E-008  0.4614232E+02  0.7816164E-02  0.1320468E+00
        -11   -1    0    0    0    0  0.00000000000E+00  0.00000000000E+00  0.45593999997E+02  0.45594000000E+02  0.51100000000E-03 0.  1.
         11   -1    0    0    0    0 -0.00000000000E+00 -0.00000000000E+00 -0.45593999997E+02  0.45594000000E+02  0.51100000000E-03 0. -1.
    9900012    2    1    2    0    0 -0.39964504161E+02 -0.18757193796E+02 -0.89509502720E+01  0.46142318490E+02  0.10000006644E+02 0.  0.
        -12    1    1    2    0    0  0.39964504161E+02  0.18757193796E+02  0.89509502720E+01  0.45045681510E+02  0.00000000000E+00 0.  1.
         11    1    3    3    0    0 -0.15880810791E+02 -0.54704815298E+01 -0.72264180652E+01  0.18285169889E+02  0.51100000000E-03 0. -1.
        -11    1    3    3    0    0 -0.14592113277E+02 -0.94657792953E+01  0.43970435287E+00  0.17398968008E+02  0.51100000000E-03 0.  1.
        -12    1    3    3    0    0 -0.94915800927E+01 -0.38209329707E+01 -0.21642365597E+01  0.10458180593E+02  0.00000000000E+00 0.  1.
</event>
<event>
 7    1  0.1519238E-008  0.4614232E+02  0.7816164E-02  0.1320468E+00
        -11   -1    0    0    0    0  0.00000000000E+00  0.00000000000E+00  0.45593999997E+02  0.45594000000E+02  0.51100000000E-03 0. -1.
         11   -1    0    0    0    0 -0.00000000000E+00 -0.00000000000E+00 -0.45593999997E+02  0.45594000000E+02  0.51100000000E-03 0.  1.
    9900012    2    1    2    0    0 -0.23190838092E+02 -0.35083607085E+02  0.16138124435E+02  0.46142317435E+02  0.99999970282E+01 0.  0.
        -12    1    1    2    0    0  0.23190838092E+02  0.35083607085E+02 -0.16138124435E+02  0.45045682565E+02  0.00000000000E+00 0.  1.
         11    1    3    3    0    0 -0.14522681109E+02 -0.19241359756E+02  0.67223434552E+01  0.25026547777E+02  0.51100000000E-03 0. -1.
        -11    1    3    3    0    0 -0.41255621733E+01 -0.47064059914E+01  0.58615133232E+01  0.85748387332E+01  0.51100000000E-03 0.  1.
        -12    1    3    3    0    0 -0.45425948094E+01 -0.11135841337E+02  0.35542676562E+01  0.12540930925E+02  0.00000000000E+00 0.  1.
</event>
<event>
 7    1  0.1519238E-008  0.4614232E+02  0.7816164E-02  0.1320468E+00
        -11   -1    0    0    0    0  0.00000000000E+00  0.00000000000E+00  0.45593999997E+02  0.45594000000E+02  0.51100000000E-03 0.  1.
         11   -1    0    0    0    0 -0.00000000000E+00 -0.00000000000E+00 -0.45593999997E+02  0.45594000000E+02  0.51100000000E-03 0. -1.
    9900012    2    1    2    0    0  0.70265238905E+01 -0.43945737044E+02  0.69651630155E+01  0.46142319429E+02  0.10000015206E+02 0.  0.
        -12    1    1    2    0    0 -0.70265238905E+01  0.43945737044E+02 -0.69651630155E+01  0.45045680571E+02  0.00000000000E+00 0.  1.
         11    1    3    3    0    0  0.12414657467E+01 -0.19830746320E+02  0.24624478854E+01  0.20021573031E+02  0.51100000000E-03 0. -1.
        -11    1    3    3    0    0  0.23790094711E+01 -0.43040096360E+01 -0.15009676373E+01  0.51417009948E+01  0.51100000000E-03 0.  1.
        -12    1    3    3    0    0  0.34060486727E+01 -0.19810981088E+02  0.60036827674E+01  0.20979045403E+02  0.00000000000E+00 0.  1.
</event>
<event>
 7    1  0.1519238E-008  0.4614232E+02  0.7816164E-02  0.1320468E+00
        -11   -1    0    0    0    0  0.00000000000E+00  0.00000000000E+00  0.45593999997E+02  0.45594000000E+02  0.51100000000E-03 0.  1.
         11   -1    0    0    0    0 -0.00000000000E+00 -0.00000000000E+00 -0.45593999997E+02  0.45594000000E+02  0.51100000000E-03 0. -1.
    9900012    2    1    2    0    0 -0.24163026333E+02 -0.27640609000E+02 -0.26100930153E+02  0.46142315830E+02  0.99999823934E+01 0.  0.
        -12    1    1    2    0    0  0.24163026333E+02  0.27640609000E+02  0.26100930153E+02  0.45045684170E+02  0.00000000000E+00 0.  1.
         11    1    3    3    0    0 -0.17356028586E+02 -0.18971162497E+02 -0.14255399808E+02  0.29399883652E+02  0.51100000000E-03 0. -1.
        -11    1    3    3    0    0 -0.11378117964E+01 -0.63274944472E+00  0.55910163915E-01  0.13031169369E+01  0.51100000000E-03 0.  1.
         12    1    3    3    0    0 -0.56691859498E+01 -0.80366970577E+01 -0.11901440509E+02  0.15439315241E+02  0.00000000000E+00 0. -1.
</event>
<event>
 7    1  0.1519238E-008  0.4614232E+02  0.7816164E-02  0.1320468E+00
        -11   -1    0    0    0    0  0.00000000000E+00  0.00000000000E+00  0.45593999997E+02  0.45594000000E+02  0.51100000000E-03 0.  1.
         11   -1    0    0    0    0 -0.00000000000E+00 -0.00000000000E+00 -0.45593999997E+02  0.45594000000E+02  0.51100000000E-03 0. -1.
    9900012    2    1    2    0    0 -0.31944779071E+02 -0.22802430463E+02 -0.22106417815E+02  0.46142318148E+02  0.10000003525E+02 0.  0.
        -12    1    1    2    0    0  0.31944779071E+02  0.22802430463E+02  0.22106417815E+02  0.45045681852E+02  0.00000000000E+00 0.  1.
         11    1    3    3    0    0 -0.17598503353E+02 -0.12483683754E+02 -0.70755539316E+01  0.22707116595E+02  0.51100000000E-03 0. -1.
        -11    1    3    3    0    0 -0.10514996298E+02 -0.57516257029E+01 -0.10701979174E+02  0.16067940250E+02  0.51100000000E-03 0.  1.
         12    1    3    3    0    0 -0.38312794194E+01 -0.45671210070E+01 -0.43288847091E+01  0.73672613030E+01  0.00000000000E+00 0. -1.
</event>
<event>
 7    1  0.1519238E-008  0.4614232E+02  0.7816164E-02  0.1320468E+00
        -11   -1    0    0    0    0  0.00000000000E+00  0.00000000000E+00  0.45593999997E+02  0.45594000000E+02  0.51100000000E-03 0.  1.
         11   -1    0    0    0    0 -0.00000000000E+00 -0.00000000000E+00 -0.45593999997E+02  0.45594000000E+02  0.51100000000E-03 0. -1.
    9900012    2    1    2    0    0 -0.11825550921E+02 -0.43460739977E+02 -0.65852488053E+00  0.46142320641E+02  0.10000026259E+02 0.  0.
        -12    1    1    2    0    0  0.11825550921E+02  0.43460739977E+02  0.65852488053E+00  0.45045679359E+02  0.00000000000E+00 0.  1.
         11    1    3    3    0    0 -0.40124757084E+01 -0.12397624719E+02  0.28465635163E+00  0.13033882364E+02  0.51100000000E-03 0. -1.
        -11    1    3    3    0    0  0.83797023064E+00 -0.96089233688E+00  0.11512551197E+01  0.17178174532E+01  0.51100000000E-03 0.  1.
        -12    1    3    3    0    0 -0.86510454436E+01 -0.30102222921E+02 -0.20944363519E+01  0.31390620823E+02  0.00000000000E+00 0.  1.
</event>
<event>
 7    1  0.1519238E-008  0.4614232E+02  0.7816164E-02  0.1320468E+00
        -11   -1    0    0    0    0  0.00000000000E+00  0.00000000000E+00  0.45593999997E+02  0.45594000000E+02  0.51100000000E-03 0.  1.
         11   -1    0    0    0    0 -0.00000000000E+00 -0.00000000000E+00 -0.45593999997E+02  0.45594000000E+02  0.51100000000E-03 0. -1.
    9900012    2    1    2    0    0 -0.39517317002E+02 -0.17599397235E+02 -0.12560110378E+02  0.46142317645E+02  0.99999989448E+01 0.  0.
        -12    1    1    2    0    0  0.39517317002E+02  0.17599397235E+02  0.12560110378E+02  0.45045682355E+02  0.00000000000E+00 0.  1.
         11    1    3    3    0    0 -0.44230018546E+01 -0.31622655694E+01 -0.42303766363E+01  0.68890460648E+01  0.51100000000E-03 0.  1.
        -11    1    3    3    0    0 -0.25929737669E+02 -0.13149200427E+02 -0.56348912755E+01  0.29614266282E+02  0.51100000000E-03 0. -1.
        -12    1    3    3    0    0 -0.91645774782E+01 -0.12879312388E+01 -0.26948424665E+01  0.96390052987E+01  0.00000000000E+00 0.  1.
</event>
<event>
 7    1  0.1519238E-008  0.4614231E+02  0.7816164E-02  0.1320468E+00
        -11   -1    0    0    0    0  0.00000000000E+00  0.00000000000E+00  0.45593999997E+02  0.45594000000E+02  0.51100000000E-03 0.  1.
         11   -1    0    0    0    0 -0.00000000000E+00 -0.00000000000E+00 -0.45593999997E+02  0.45594000000E+02  0.51100000000E-03 0. -1.
    9900012    2    1    2    0    0 -0.11157899807E+02 -0.43551345927E+02  0.28098598616E+01  0.46142314607E+02  0.99999712341E+01 0.  0.
        -12    1    1    2    0    0  0.11157899807E+02  0.43551345927E+02 -0.28098598616E+01  0.45045685393E+02  0.00000000000E+00 0.  1.
         11    1    3    3    0    0 -0.97525694552E+00 -0.14628765714E+02  0.45538613328E+01  0.15352184396E+02  0.51100000000E-03 0.  1.
        -11    1    3    3    0    0 -0.42165506992E+01 -0.10289253961E+02 -0.15246388564E+01  0.11223750299E+02  0.51100000000E-03 0. -1.
        -12    1    3    3    0    0 -0.59660921622E+01 -0.18633326252E+02 -0.21936261485E+00  0.19566379912E+02  0.00000000000E+00 0.  1.
</event>
<event>
 7    1  0.1519238E-008  0.4614232E+02  0.7816164E-02  0.1320468E+00
        -11   -1    0    0    0    0  0.00000000000E+00  0.00000000000E+00  0.45593999997E+02  0.45594000000E+02  0.51100000000E-03 0. -1.
         11   -1    0    0    0    0 -0.00000000000E+00 -0.00000000000E+00 -0.45593999997E+02  0.45594000000E+02  0.51100000000E-03 0.  1.
    9900012    2    1    2    0    0  0.32932064629E+02  0.30467559647E+02  0.40398578161E+01  0.46142317379E+02  0.99999965177E+01 0.  0.
        -12    1    1    2    0    0 -0.32932064629E+02 -0.30467559647E+02 -0.40398578161E+01  0.45045682621E+02  0.00000000000E+00 0.  1.
         11    1    3    3    0    0  0.15128340846E+02  0.11726471790E+02  0.57097034129E+01  0.19974422412E+02  0.51100000000E-03 0. -1.
        -11    1    3    3    0    0  0.12975453149E+02  0.11783043795E+02 -0.22895376433E+01  0.17676099354E+02  0.51100000000E-03 0.  1.
         12    1    3    3    0    0  0.48282706342E+01  0.69580440630E+01  0.61969204650E+00  0.84917956130E+01  0.00000000000E+00 0. -1.
</event>
<event>
 7    1  0.1519238E-008  0.4614232E+02  0.7816164E-02  0.1320468E+00
        -11   -1    0    0    0    0  0.00000000000E+00  0.00000000000E+00  0.45593999997E+02  0.45594000000E+02  0.51100000000E-03 0. -1.
         11   -1    0    0    0    0 -0.00000000000E+00 -0.00000000000E+00 -0.45593999997E+02  0.45594000000E+02  0.51100000000E-03 0.  1.
    9900012    2    1    2    0    0 -0.27730620163E+02 -0.29726251159E+02  0.19402995646E+02  0.46142317159E+02  0.99999945104E+01 0.  0.
        -12    1    1    2    0    0  0.27730620163E+02  0.29726251159E+02 -0.19402995646E+02  0.45045682841E+02  0.00000000000E+00 0.  1.
         11    1    3    3    0    0 -0.78451700198E+01 -0.44117597306E+01  0.36483283893E+01  0.97118801917E+01  0.51100000000E-03 0.  1.
        -11    1    3    3    0    0 -0.19291776610E+02 -0.24189877277E+02  0.16384779418E+02  0.35011195414E+02  0.51100000000E-03 0. -1.
        -12    1    3    3    0    0 -0.59367353281E+00 -0.11246141509E+01 -0.63011216127E+00  0.14192415537E+01  0.00000000000E+00 0.  1.
</event>
<event>
 7    1  0.1519238E-008  0.4614232E+02  0.7816164E-02  0.1320468E+00
        -11   -1    0    0    0    0  0.00000000000E+00  0.00000000000E+00  0.45593999997E+02  0.45594000000E+02  0.51100000000E-03 0.  1.
         11   -1    0    0    0    0 -0.00000000000E+00 -0.00000000000E+00 -0.45593999997E+02  0.45594000000E+02  0.51100000000E-03 0. -1.
    9900012    2    1    2    0    0 -0.36858718565E+02 -0.56222312181E+01 -0.25277237999E+02  0.46142318975E+02  0.10000011073E+02 0.  0.
        -12    1    1    2    0    0  0.36858718565E+02  0.56222312181E+01  0.25277237999E+02  0.45045681025E+02  0.00000000000E+00 0.  1.
         11    1    3    3    0    0 -0.27351502009E+02 -0.47563309167E+01 -0.20855307129E+02  0.34722776122E+02  0.51100000000E-03 0. -1.
        -11    1    3    3    0    0 -0.46883161162E+01 -0.24613639301E+01 -0.32395018067E+01  0.62074948746E+01  0.51100000000E-03 0.  1.
         12    1    3    3    0    0 -0.48189004402E+01  0.15954636287E+01 -0.11824290629E+01  0.52120479787E+01  0.00000000000E+00 0. -1.
</event>
<event>
 7    1  0.1519238E-008  0.4614232E+02  0.7816164E-02  0.1320468E+00
        -11   -1    0    0    0    0  0.00000000000E+00  0.00000000000E+00  0.45593999997E+02  0.45594000000E+02  0.51100000000E-03 0.  1.
         11   -1    0    0    0    0 -0.00000000000E+00 -0.00000000000E+00 -0.45593999997E+02  0.45594000000E+02  0.51100000000E-03 0. -1.
    9900012    2    1    2    0    0  0.64735867889E+01 -0.32617187908E+02 -0.30386266481E+02  0.46142318036E+02  0.10000002509E+02 0.  0.
        -12    1    1    2    0    0 -0.64735867889E+01  0.32617187908E+02  0.30386266481E+02  0.45045681964E+02  0.00000000000E+00 0.  1.
         11    1    3    3    0    0  0.61870961899E+01 -0.10113839147E+02 -0.10377504774E+02  0.15756348154E+02  0.51100000000E-03 0.  1.
        -11    1    3    3    0    0  0.97711851162E+00 -0.10855429553E+02 -0.72186398614E+01  0.13073020809E+02  0.51100000000E-03 0. -1.
        -12    1    3    3    0    0 -0.69062791269E+00 -0.11647919208E+02 -0.12790121845E+02  0.17312949073E+02  0.00000000000E+00 0.  1.
</event>
<event>
 7    1  0.1519238E-008  0.4614232E+02  0.7816164E-02  0.1320468E+00
        -11   -1    0    0    0    0  0.00000000000E+00  0.00000000000E+00  0.45593999997E+02  0.45594000000E+02  0.51100000000E-03 0.  1.
         11   -1    0    0    0    0 -0.00000000000E+00 -0.00000000000E+00 -0.45593999997E+02  0.45594000000E+02  0.51100000000E-03 0. -1.
    9900012    2    1    2    0    0  0.22825293345E+02  0.23195804636E+02 -0.31146012352E+02  0.46142318138E+02  0.10000003436E+02 0.  0.
        -12    1    1    2    0    0 -0.22825293345E+02 -0.23195804636E+02  0.31146012352E+02  0.45045681862E+02  0.00000000000E+00 0.  1.
         11    1    3    3    0    0  0.65212993771E+01  0.23678340663E+01 -0.87470645776E+01  0.11164458013E+02  0.51100000000E-03 0.  1.
        -11    1    3    3    0    0  0.13459971144E+02  0.14535489289E+02 -0.14933652854E+02  0.24808572307E+02  0.51100000000E-03 0. -1.
         12    1    3    3    0    0  0.28440228241E+01  0.62924812808E+01 -0.74652949200E+01  0.10169287819E+02  0.00000000000E+00 0. -1.
</event>
<event>
 7    1  0.1519238E-008  0.4614232E+02  0.7816164E-02  0.1320468E+00
        -11   -1    0    0    0    0  0.00000000000E+00  0.00000000000E+00  0.45593999997E+02  0.45594000000E+02  0.51100000000E-03 0.  1.
         11   -1    0    0    0    0 -0.00000000000E+00 -0.00000000000E+00 -0.45593999997E+02  0.45594000000E+02  0.51100000000E-03 0. -1.
    9900012    2    1    2    0    0 -0.67974731997E+01  0.17741113153E+02 -0.40843118551E+02  0.46142322396E+02  0.10000042263E+02 0.  0.
        -12    1    1    2    0    0  0.67974731997E+01 -0.17741113153E+02  0.40843118551E+02  0.45045677604E+02  0.00000000000E+00 0.  1.
         11    1    3    3    0    0 -0.81398985370E+01  0.15136726049E+02 -0.29252201686E+02  0.33927418520E+02  0.51100000000E-03 0. -1.
        -11    1    3    3    0    0  0.14200763694E+01  0.26033034201E+01 -0.67418117940E+01  0.73651769917E+01  0.51100000000E-03 0.  1.
         12    1    3    3    0    0 -0.77651032164E-01  0.10836836111E-02 -0.48491050716E+01  0.48497268844E+01  0.00000000000E+00 0. -1.
</event>
<event>
 7    1  0.1519238E-008  0.4614232E+02  0.7816164E-02  0.1320468E+00
        -11   -1    0    0    0    0  0.00000000000E+00  0.00000000000E+00  0.45593999997E+02  0.45594000000E+02  0.51100000000E-03 0.  1.
         11   -1    0    0    0    0 -0.00000000000E+00 -0.00000000000E+00 -0.45593999997E+02  0.45594000000E+02  0.51100000000E-03 0. -1.
    9900012    2    1    2    0    0  0.23308622138E+02 -0.27282313903E+02 -0.27230441888E+02  0.46142317818E+02  0.10000000517E+02 0.  0.
        -12    1    1    2    0    0 -0.23308622138E+02  0.27282313903E+02  0.27230441888E+02  0.45045682182E+02  0.00000000000E+00 0.  1.
         11    1    3    3    0    0  0.55463182549E+01 -0.30129425957E+01 -0.38165968355E+01  0.73760342281E+01  0.51100000000E-03 0. -1.
        -11    1    3    3    0    0  0.58071194683E+01 -0.99719305066E+01 -0.50310899657E+01  0.12588641748E+02  0.51100000000E-03 0.  1.
         12    1    3    3    0    0  0.11955184415E+02 -0.14297440800E+02 -0.18382755087E+02  0.26177641842E+02  0.00000000000E+00 0. -1.
</event>
<event>
 7    1  0.1519238E-008  0.4614231E+02  0.7816164E-02  0.1320468E+00
        -11   -1    0    0    0    0  0.00000000000E+00  0.00000000000E+00  0.45593999997E+02  0.45594000000E+02  0.51100000000E-03 0.  1.
         11   -1    0    0    0    0 -0.00000000000E+00 -0.00000000000E+00 -0.45593999997E+02  0.45594000000E+02  0.51100000000E-03 0. -1.
    9900012    2    1    2    0    0 -0.45743490477E+01  0.33256327434E+02 -0.30036741859E+02  0.46142313801E+02  0.99999638884E+01 0.  0.
        -12    1    1    2    0    0  0.45743490477E+01 -0.33256327434E+02  0.30036741859E+02  0.45045686199E+02  0.00000000000E+00 0.  1.
         11    1    3    3    0    0 -0.30423837470E+01  0.54743166159E+01 -0.10164329748E+02  0.11938921256E+02  0.51100000000E-03 0.  1.
        -11    1    3    3    0    0 -0.58410606613E+00  0.17785140334E+02 -0.12524191762E+02  0.21760233825E+02  0.51100000000E-03 0. -1.
        -12    1    3    3    0    0 -0.94785923455E+00  0.99968704846E+01 -0.73482203498E+01  0.12443158720E+02  0.00000000000E+00 0.  1.
</event>
<event>
 7    1  0.1519238E-008  0.4614232E+02  0.7816164E-02  0.1320468E+00
        -11   -1    0    0    0    0  0.00000000000E+00  0.00000000000E+00  0.45593999997E+02  0.45594000000E+02  0.51100000000E-03 0.  1.
         11   -1    0    0    0    0 -0.00000000000E+00 -0.00000000000E+00 -0.45593999997E+02  0.45594000000E+02  0.51100000000E-03 0. -1.
    9900012    2    1    2    0    0 -0.39004269451E+02  0.11957098608E+01 -0.22502237975E+02  0.46142317950E+02  0.10000001724E+02 0.  0.
        -12    1    1    2    0    0  0.39004269451E+02 -0.11957098608E+01  0.22502237975E+02  0.45045682050E+02  0.00000000000E+00 0.  1.
         11    1    3    3    0    0 -0.18121887214E+02 -0.18304588637E+01 -0.13019465136E+02  0.22388833121E+02  0.51100000000E-03 0. -1.
        -11    1    3    3    0    0 -0.10235194710E+02  0.39903982249E+01 -0.36559666240E+01  0.11577935091E+02  0.51100000000E-03 0.  1.
        -12    1    3    3    0    0 -0.10647187527E+02 -0.96422950050E+00 -0.58268062146E+01  0.12175549738E+02  0.00000000000E+00 0.  1.
</event>
<event>
 7    1  0.2221581E-008  0.4614232E+02  0.7816164E-02  0.1320468E+00
        -11   -1    0    0    0    0  0.00000000000E+00  0.00000000000E+00  0.45593999997E+02  0.45594000000E+02  0.51100000000E-03 0. -1.
         11   -1    0    0    0    0 -0.00000000000E+00 -0.00000000000E+00 -0.45593999997E+02  0.45594000000E+02  0.51100000000E-03 0.  1.
    9900012    2    1    2    0    0 -0.28595016873E+02  0.30182454609E+02 -0.17333721302E+02  0.46142318183E+02  0.10000003847E+02 0.  0.
        -12    1    1    2    0    0  0.28595016873E+02 -0.30182454609E+02  0.17333721302E+02  0.45045681817E+02  0.00000000000E+00 0.  1.
         11    1    3    3    0    0 -0.26679829029E+02  0.23778837119E+02 -0.15193180959E+02  0.38833994382E+02  0.51100000000E-03 0. -1.
        -11    1    3    3    0    0 -0.66914492923E+00  0.28137524401E+01  0.10560458236E+00  0.28941510533E+01  0.51100000000E-03 0.  1.
         12    1    3    3    0    0 -0.12460429151E+01  0.35898650492E+01 -0.22461449257E+01  0.44141727475E+01  0.00000000000E+00 0. -1.
</event>
<event>
 7    1  0.1519238E-008  0.4614232E+02  0.7816164E-02  0.1320468E+00
        -11   -1    0    0    0    0  0.00000000000E+00  0.00000000000E+00  0.45593999997E+02  0.45594000000E+02  0.51100000000E-03 0.  1.
         11   -1    0    0    0    0 -0.00000000000E+00 -0.00000000000E+00 -0.45593999997E+02  0.45594000000E+02  0.51100000000E-03 0. -1.
    9900012    2    1    2    0    0  0.33035022811E+02  0.29287277978E+02  0.89473981860E+01  0.46142319655E+02  0.10000017271E+02 0.  0.
        -12    1    1    2    0    0 -0.33035022811E+02 -0.29287277978E+02 -0.89473981860E+01  0.45045680345E+02  0.00000000000E+00 0.  1.
         11    1    3    3    0    0  0.14573802792E+02  0.81902345886E+01  0.17097861004E+01  0.16804732643E+02  0.51100000000E-03 0. -1.
        -11    1    3    3    0    0  0.15578196281E+02  0.18954839961E+02  0.77029659032E+01  0.25715789727E+02  0.51100000000E-03 0.  1.
        -12    1    3    3    0    0  0.28830237374E+01  0.21422034278E+01 -0.46535381760E+00  0.36217972848E+01  0.00000000000E+00 0.  1.
</event>
<event>
 7    1  0.1519238E-008  0.4614232E+02  0.7816164E-02  0.1320468E+00
        -11   -1    0    0    0    0  0.00000000000E+00  0.00000000000E+00  0.45593999997E+02  0.45594000000E+02  0.51100000000E-03 0. -1.
         11   -1    0    0    0    0 -0.00000000000E+00 -0.00000000000E+00 -0.45593999997E+02  0.45594000000E+02  0.51100000000E-03 0.  1.
    9900012    2    1    2    0    0 -0.25808499376E+02 -0.55621322736E+01  0.36497910752E+02  0.46142318246E+02  0.10000004418E+02 0.  0.
        -12    1    1    2    0    0  0.25808499376E+02  0.55621322736E+01 -0.36497910752E+02  0.45045681754E+02  0.00000000000E+00 0.  1.
         11    1    3    3    0    0 -0.16548397994E+02 -0.49592404597E+01  0.18589589268E+02  0.25377477643E+02  0.51100000000E-03 0. -1.
        -11    1    3    3    0    0 -0.67849480664E+00 -0.89406375150E+00  0.58800291690E+01  0.59861881431E+01  0.51100000000E-03 0.  1.
         12    1    3    3    0    0 -0.85816065752E+01  0.29117193760E+00  0.12028292315E+02  0.14778652460E+02  0.00000000000E+00 0. -1.
</event>
<event>
 7    1  0.1519238E-008  0.4614232E+02  0.7816164E-02  0.1320468E+00
        -11   -1    0    0    0    0  0.00000000000E+00  0.00000000000E+00  0.45593999997E+02  0.45594000000E+02  0.51100000000E-03 0.  1.
         11   -1    0    0    0    0 -0.00000000000E+00 -0.00000000000E+00 -0.45593999997E+02  0.45594000000E+02  0.51100000000E-03 0. -1.
    9900012    2    1    2    0    0 -0.51445335082E+01 -0.40103722463E+02 -0.19857957753E+02  0.46142320223E+02  0.10000022451E+02 0.  0.
        -12    1    1    2    0    0  0.51445335082E+01  0.40103722463E+02  0.19857957753E+02  0.45045679777E+02  0.00000000000E+00 0.  1.
         11    1    3    3    0    0  0.25653372621E+01 -0.13806820433E+02 -0.54183470460E+01  0.15052166977E+02  0.51100000000E-03 0. -1.
        -11    1    3    3    0    0 -0.27188218661E+01 -0.11094371265E+02 -0.73930351460E+01  0.13606396843E+02  0.51100000000E-03 0.  1.
         12    1    3    3    0    0 -0.49910489041E+01 -0.15202530765E+02 -0.70465755609E+01  0.17483756403E+02  0.00000000000E+00 0. -1.
</event>
<event>
 7    1  0.1519238E-008  0.4614232E+02  0.7816164E-02  0.1320468E+00
        -11   -1    0    0    0    0  0.00000000000E+00  0.00000000000E+00  0.45593999997E+02  0.45594000000E+02  0.51100000000E-03 0.  1.
         11   -1    0    0    0    0 -0.00000000000E+00 -0.00000000000E+00 -0.45593999997E+02  0.45594000000E+02  0.51100000000E-03 0. -1.
    9900012    2    1    2    0    0 -0.28669064329E+02  0.28812039379E+02 -0.19418151591E+02  0.46142317922E+02  0.10000001470E+02 0.  0.
        -12    1    1    2    0    0  0.28669064329E+02 -0.28812039379E+02  0.19418151591E+02  0.45045682078E+02  0.00000000000E+00 0.  1.
         11    1    3    3    0    0 -0.92327769989E+01  0.12504412727E+02 -0.10395860290E+02  0.18699690377E+02  0.51100000000E-03 0. -1.
        -11    1    3    3    0    0 -0.14263402334E+01  0.35454896030E+01 -0.93417156335E+00  0.39341606166E+01  0.51100000000E-03 0.  1.
         12    1    3    3    0    0 -0.18009947096E+02  0.12762137049E+02 -0.80881197376E+01  0.23508466929E+02  0.00000000000E+00 0. -1.
</event>
<event>
 7    1  0.1519238E-008  0.4614232E+02  0.7816164E-02  0.1320468E+00
        -11   -1    0    0    0    0  0.00000000000E+00  0.00000000000E+00  0.45593999997E+02  0.45594000000E+02  0.51100000000E-03 0. -1.
         11   -1    0    0    0    0 -0.00000000000E+00 -0.00000000000E+00 -0.45593999997E+02  0.45594000000E+02  0.51100000000E-03 0.  1.
    9900012    2    1    2    0    0  0.24501680847E+02  0.25738071873E+02  0.27682718572E+02  0.46142316348E+02  0.99999871187E+01 0.  0.
        -12    1    1    2    0    0 -0.24501680847E+02 -0.25738071873E+02 -0.27682718572E+02  0.45045683652E+02  0.00000000000E+00 0.  1.
         11    1    3    3    0    0  0.11496125811E+02  0.13057176309E+02  0.85788580724E+01  0.19397102050E+02  0.51100000000E-03 0. -1.
        -11    1    3    3    0    0  0.31127781586E+01  0.95104237892E+00  0.22757867892E+01  0.39715331098E+01  0.51100000000E-03 0.  1.
         12    1    3    3    0    0  0.98927768774E+01  0.11729853184E+02  0.16828073711E+02  0.22773681189E+02  0.00000000000E+00 0. -1.
</event>
<event>
 7    1  0.1519238E-008  0.4614232E+02  0.7816164E-02  0.1320468E+00
        -11   -1    0    0    0    0  0.00000000000E+00  0.00000000000E+00  0.45593999997E+02  0.45594000000E+02  0.51100000000E-03 0. -1.
         11   -1    0    0    0    0 -0.00000000000E+00 -0.00000000000E+00 -0.45593999997E+02  0.45594000000E+02  0.51100000000E-03 0.  1.
    9900012    2    1    2    0    0  0.43808271713E+02  0.57874003526E+01  0.87438412357E+01  0.46142318377E+02  0.10000005615E+02 0.  0.
        -12    1    1    2    0    0 -0.43808271713E+02 -0.57874003526E+01 -0.87438412357E+01  0.45045681623E+02  0.00000000000E+00 0.  1.
         11    1    3    3    0    0  0.11221617564E+02  0.19640650645E+00  0.61762019367E+01  0.12810493624E+02  0.51100000000E-03 0. -1.
        -11    1    3    3    0    0  0.19287174805E+02  0.17748005124E+01  0.82346777941E+00  0.19386158161E+02  0.51100000000E-03 0.  1.
         12    1    3    3    0    0  0.13299479344E+02  0.38161933338E+01  0.17441715196E+01  0.13945666591E+02  0.00000000000E+00 0. -1.
</event>
<event>
 7    1  0.1519238E-008  0.4614232E+02  0.7816164E-02  0.1320468E+00
        -11   -1    0    0    0    0  0.00000000000E+00  0.00000000000E+00  0.45593999997E+02  0.45594000000E+02  0.51100000000E-03 0.  1.
         11   -1    0    0    0    0 -0.00000000000E+00 -0.00000000000E+00 -0.45593999997E+02  0.45594000000E+02  0.51100000000E-03 0. -1.
    9900012    2    1    2    0    0 -0.21690209733E+02  0.15891312395E+02 -0.36140207560E+02  0.46142316407E+02  0.99999876522E+01 0.  0.
        -12    1    1    2    0    0  0.21690209733E+02 -0.15891312395E+02  0.36140207560E+02  0.45045683593E+02  0.00000000000E+00 0.  1.
         11    1    3    3    0    0 -0.57995877125E+01  0.62989497969E+01 -0.17179693301E+02  0.19195151689E+02  0.51100000000E-03 0.  1.
        -11    1    3    3    0    0 -0.13964410203E+02  0.65020896180E+01 -0.14173169293E+02  0.20932287257E+02  0.51100000000E-03 0. -1.
         12    1    3    3    0    0 -0.19262118170E+01  0.30902729799E+01 -0.47873449660E+01  0.60148774616E+01  0.00000000000E+00 0. -1.
</event>
<event>
 7    1  0.1519238E-008  0.4614232E+02  0.7816164E-02  0.1320468E+00
        -11   -1    0    0    0    0  0.00000000000E+00  0.00000000000E+00  0.45593999997E+02  0.45594000000E+02  0.51100000000E-03 0.  1.
         11   -1    0    0    0    0 -0.00000000000E+00 -0.00000000000E+00 -0.45593999997E+02  0.45594000000E+02  0.51100000000E-03 0. -1.
    9900012    2    1    2    0    0 -0.32795655193E+02 -0.21251404834E+02 -0.22403935744E+02  0.46142317146E+02  0.99999943864E+01 0.  0.
        -12    1    1    2    0    0  0.32795655193E+02  0.21251404834E+02  0.22403935744E+02  0.45045682854E+02  0.00000000000E+00 0.  1.
         11    1    3    3    0    0 -0.15786257568E+02 -0.10845019596E+02 -0.15611101616E+02  0.24708841980E+02  0.51100000000E-03 0.  1.
        -11    1    3    3    0    0 -0.99187908395E+01 -0.60429831911E+01 -0.18782659018E+01  0.11765540388E+02  0.51100000000E-03 0. -1.
        -12    1    3    3    0    0 -0.70906067856E+01 -0.43634020477E+01 -0.49145682263E+01  0.96679347778E+01  0.00000000000E+00 0.  1.
</event>
<event>
 7    1  0.1519238E-008  0.4614231E+02  0.7816164E-02  0.1320468E+00
        -11   -1    0    0    0    0  0.00000000000E+00  0.00000000000E+00  0.45593999997E+02  0.45594000000E+02  0.51100000000E-03 0.  1.
         11   -1    0    0    0    0 -0.00000000000E+00 -0.00000000000E+00 -0.45593999997E+02  0.45594000000E+02  0.51100000000E-03 0. -1.
    9900012    2    1    2    0    0  0.24974322832E+02  0.14511551562E+02 -0.34566055169E+02  0.46142310977E+02  0.99999381353E+01 0.  0.
        -12    1    1    2    0    0 -0.24974322832E+02 -0.14511551562E+02  0.34566055169E+02  0.45045689023E+02  0.00000000000E+00 0.  1.
         11    1    3    3    0    0  0.89487786201E+01  0.84635810889E+01 -0.13215751249E+02  0.18065683629E+02  0.51100000000E-03 0. -1.
        -11    1    3    3    0    0  0.16465403423E+02  0.63480238900E+01 -0.21038773181E+02  0.27459732235E+02  0.51100000000E-03 0.  1.
         12    1    3    3    0    0 -0.43985921133E+00 -0.30005341727E+00 -0.31153073804E+00  0.61689511244E+00  0.00000000000E+00 0. -1.
</event>
<event>
 7    1  0.1519238E-008  0.4614232E+02  0.7816164E-02  0.1320468E+00
        -11   -1    0    0    0    0  0.00000000000E+00  0.00000000000E+00  0.45593999997E+02  0.45594000000E+02  0.51100000000E-03 0.  1.
         11   -1    0    0    0    0 -0.00000000000E+00 -0.00000000000E+00 -0.45593999997E+02  0.45594000000E+02  0.51100000000E-03 0. -1.
    9900012    2    1    2    0    0  0.40089527703E+02 -0.45378935047E+01 -0.20033746406E+02  0.46142315368E+02  0.99999781793E+01 0.  0.
        -12    1    1    2    0    0 -0.40089527703E+02  0.45378935047E+01  0.20033746406E+02  0.45045684632E+02  0.00000000000E+00 0.  1.
         11    1    3    3    0    0  0.14769357357E+02 -0.36416692269E+01 -0.42842502712E+01  0.15803495567E+02  0.51100000000E-03 0. -1.
        -11    1    3    3    0    0  0.48650360105E+01 -0.16280239377E+01 -0.13249493139E+01  0.52985402018E+01  0.51100000000E-03 0.  1.
         12    1    3    3    0    0  0.20455134336E+02  0.73179965985E+00 -0.14424546821E+02  0.25040279599E+02  0.00000000000E+00 0. -1.
</event>
<event>
 7    1  0.1519238E-008  0.4614231E+02  0.7816164E-02  0.1320468E+00
        -11   -1    0    0    0    0  0.00000000000E+00  0.00000000000E+00  0.45593999997E+02  0.45594000000E+02  0.51100000000E-03 0. -1.
         11   -1    0    0    0    0 -0.00000000000E+00 -0.00000000000E+00 -0.45593999997E+02  0.45594000000E+02  0.51100000000E-03 0.  1.
    9900012    2    1    2    0    0 -0.34694919189E+02  0.74616344750E+01  0.27743474334E+02  0.46142314582E+02  0.99999710139E+01 0.  0.
        -12    1    1    2    0    0  0.34694919189E+02 -0.74616344750E+01 -0.27743474334E+02  0.45045685418E+02  0.00000000000E+00 0.  1.
         11    1    3    3    0    0 -0.11131244409E+02  0.44998284780E+01  0.87288911172E+01  0.14844076220E+02  0.51100000000E-03 0. -1.
        -11    1    3    3    0    0 -0.13745758125E+01 -0.23904469128E+00  0.42028635393E+01  0.44283928484E+01  0.51100000000E-03 0.  1.
         12    1    3    3    0    0 -0.22189098968E+02  0.32008506883E+01  0.14811719678E+02  0.26869845514E+02  0.00000000000E+00 0. -1.
</event>
<event>
 7    1  0.1519238E-008  0.4614232E+02  0.7816164E-02  0.1320468E+00
        -11   -1    0    0    0    0  0.00000000000E+00  0.00000000000E+00  0.45593999997E+02  0.45594000000E+02  0.51100000000E-03 0.  1.
         11   -1    0    0    0    0 -0.00000000000E+00 -0.00000000000E+00 -0.45593999997E+02  0.45594000000E+02  0.51100000000E-03 0. -1.
    9900012    2    1    2    0    0 -0.17276770184E+02  0.17549218767E+02 -0.37718054546E+02  0.46142317564E+02  0.99999982056E+01 0.  0.
        -12    1    1    2    0    0  0.17276770184E+02 -0.17549218767E+02  0.37718054546E+02  0.45045682436E+02  0.00000000000E+00 0.  1.
         11    1    3    3    0    0 -0.14169570957E+02  0.11959993818E+02 -0.31152252761E+02  0.36253014296E+02  0.51100000000E-03 0. -1.
        -11    1    3    3    0    0 -0.12992687720E+01  0.52577500217E+01 -0.39992681938E+01  0.67324721299E+01  0.51100000000E-03 0.  1.
         12    1    3    3    0    0 -0.18079304551E+01  0.33147492792E+00 -0.25665335920E+01  0.31568311385E+01  0.00000000000E+00 0. -1.
</event>
<event>
 7    1  0.1519238E-008  0.4614232E+02  0.7816164E-02  0.1320468E+00
        -11   -1    0    0    0    0  0.00000000000E+00  0.00000000000E+00  0.45593999997E+02  0.45594000000E+02  0.51100000000E-03 0.  1.
         11   -1    0    0    0    0 -0.00000000000E+00 -0.00000000000E+00 -0.45593999997E+02  0.45594000000E+02  0.51100000000E-03 0. -1.
    9900012    2    1    2    0    0 -0.25234311706E+02  0.29283534899E+02 -0.23126124090E+02  0.46142317423E+02  0.99999969155E+01 0.  0.
        -12    1    1    2    0    0  0.25234311706E+02 -0.29283534899E+02  0.23126124090E+02  0.45045682577E+02  0.00000000000E+00 0.  1.
         11    1    3    3    0    0  0.42095463361E+00  0.60713948752E+00 -0.15914842470E+01  0.17546063748E+01  0.51100000000E-03 0. -1.
        -11    1    3    3    0    0 -0.20225601138E+01  0.31208301423E+01 -0.38201593704E+01  0.53314114517E+01  0.51100000000E-03 0.  1.
         12    1    3    3    0    0 -0.23632706225E+02  0.25555565269E+02 -0.17714480473E+02  0.39056299596E+02  0.00000000000E+00 0. -1.
</event>
<event>
 7    1  0.1519238E-008  0.4614232E+02  0.7816164E-02  0.1320468E+00
        -11   -1    0    0    0    0  0.00000000000E+00  0.00000000000E+00  0.45593999997E+02  0.45594000000E+02  0.51100000000E-03 0.  1.
         11   -1    0    0    0    0 -0.00000000000E+00 -0.00000000000E+00 -0.45593999997E+02  0.45594000000E+02  0.51100000000E-03 0. -1.
    9900012    2    1    2    0    0 -0.65434844959E+01  0.16071451246E+02 -0.41569276365E+02  0.46142317942E+02  0.10000001652E+02 0.  0.
        -12    1    1    2    0    0  0.65434844959E+01 -0.16071451246E+02  0.41569276365E+02  0.45045682058E+02  0.00000000000E+00 0.  1.
         11    1    3    3    0    0 -0.54454371708E+01  0.77434660700E+01 -0.29658879909E+02  0.31132992315E+02  0.51100000000E-03 0. -1.
        -11    1    3    3    0    0  0.63958235070E+00  0.66245145654E+01 -0.80352542675E+01  0.10433531052E+02  0.51100000000E-03 0.  1.
        -12    1    3    3    0    0 -0.17376296758E+01  0.17034706108E+01 -0.38751421890E+01  0.45757945755E+01  0.00000000000E+00 0.  1.
</event>
<event>
 7    1  0.1519238E-008  0.4614232E+02  0.7816164E-02  0.1320468E+00
        -11   -1    0    0    0    0  0.00000000000E+00  0.00000000000E+00  0.45593999997E+02  0.45594000000E+02  0.51100000000E-03 0.  1.
         11   -1    0    0    0    0 -0.00000000000E+00 -0.00000000000E+00 -0.45593999997E+02  0.45594000000E+02  0.51100000000E-03 0. -1.
    9900012    2    1    2    0    0 -0.33437290078E+02 -0.22999599078E+02 -0.19546859826E+02  0.46142315916E+02  0.99999831772E+01 0.  0.
        -12    1    1    2    0    0  0.33437290078E+02  0.22999599078E+02  0.19546859826E+02  0.45045684084E+02  0.00000000000E+00 0.  1.
         11    1    3    3    0    0 -0.26339493282E+02 -0.18071012903E+02 -0.11406486970E+02  0.33918112550E+02  0.51100000000E-03 0. -1.
        -11    1    3    3    0    0 -0.53943667338E+01 -0.43420761881E+01 -0.47895520962E+01  0.84197759842E+01  0.51100000000E-03 0.  1.
         12    1    3    3    0    0 -0.17034300626E+01 -0.58650998675E+00 -0.33508207596E+01  0.38044273821E+01  0.00000000000E+00 0. -1.
</event>
<event>
 7    1  0.1519238E-008  0.4614232E+02  0.7816164E-02  0.1320468E+00
        -11   -1    0    0    0    0  0.00000000000E+00  0.00000000000E+00  0.45593999997E+02  0.45594000000E+02  0.51100000000E-03 0. -1.
         11   -1    0    0    0    0 -0.00000000000E+00 -0.00000000000E+00 -0.45593999997E+02  0.45594000000E+02  0.51100000000E-03 0.  1.
    9900012    2    1    2    0    0 -0.44574045425E+01 -0.89568862298E-01  0.44824513151E+02  0.46142318109E+02  0.10000003173E+02 0.  0.
        -12    1    1    2    0    0  0.44574045425E+01  0.89568862298E-01 -0.44824513151E+02  0.45045681891E+02  0.00000000000E+00 0.  1.
         11    1    3    3    0    0 -0.35011197375E+01  0.10725796363E+01  0.12149549871E+02  0.12689358882E+02  0.51100000000E-03 0. -1.
        -11    1    3    3    0    0  0.14334425779E+01 -0.20290114043E+01  0.28177314411E+02  0.28286616846E+02  0.51100000000E-03 0.  1.
        -12    1    3    3    0    0 -0.23897273829E+01  0.86686290565E+00  0.44976488679E+01  0.51663423813E+01  0.00000000000E+00 0.  1.
</event>
<event>
 7    1  0.1519238E-008  0.4614232E+02  0.7816164E-02  0.1320468E+00
        -11   -1    0    0    0    0  0.00000000000E+00  0.00000000000E+00  0.45593999997E+02  0.45594000000E+02  0.51100000000E-03 0.  1.
         11   -1    0    0    0    0 -0.00000000000E+00 -0.00000000000E+00 -0.45593999997E+02  0.45594000000E+02  0.51100000000E-03 0. -1.
    9900012    2    1    2    0    0 -0.15157543229E+02 -0.16274136172E+02 -0.39172883808E+02  0.46142318179E+02  0.10000003809E+02 0.  0.
        -12    1    1    2    0    0  0.15157543229E+02  0.16274136172E+02  0.39172883808E+02  0.45045681821E+02  0.00000000000E+00 0.  1.
         11    1    3    3    0    0 -0.33182173914E+01 -0.29840381430E+01 -0.15888256714E+02  0.16503083105E+02  0.51100000000E-03 0. -1.
        -11    1    3    3    0    0 -0.42323150878E+01 -0.71458343898E+01 -0.13175485950E+02  0.15574622641E+02  0.51100000000E-03 0.  1.
         12    1    3    3    0    0 -0.76070107494E+01 -0.61442636392E+01 -0.10109141144E+02  0.14064612433E+02  0.00000000000E+00 0. -1.
</event>
<event>
 7    1  0.1519238E-008  0.4614232E+02  0.7816164E-02  0.1320468E+00
        -11   -1    0    0    0    0  0.00000000000E+00  0.00000000000E+00  0.45593999997E+02  0.45594000000E+02  0.51100000000E-03 0. -1.
         11   -1    0    0    0    0 -0.00000000000E+00 -0.00000000000E+00 -0.45593999997E+02  0.45594000000E+02  0.51100000000E-03 0.  1.
    9900012    2    1    2    0    0  0.13349077309E+01  0.41791647562E+02  0.16756777335E+02  0.46142319061E+02  0.10000011851E+02 0.  0.
        -12    1    1    2    0    0 -0.13349077309E+01 -0.41791647562E+02 -0.16756777335E+02  0.45045680939E+02  0.00000000000E+00 0.  1.
         11    1    3    3    0    0  0.58973177004E+00  0.37177319628E+02  0.12721793885E+02  0.39298154132E+02  0.51100000000E-03 0. -1.
        -11    1    3    3    0    0 -0.10036252976E+01  0.23542164198E+01  0.25930897335E+01  0.36433107630E+01  0.51100000000E-03 0.  1.
         12    1    3    3    0    0  0.17488012584E+01  0.22601115148E+01  0.14418937167E+01  0.32008541658E+01  0.00000000000E+00 0. -1.
</event>
<event>
 7    1  0.1519238E-008  0.4614232E+02  0.7816164E-02  0.1320468E+00
        -11   -1    0    0    0    0  0.00000000000E+00  0.00000000000E+00  0.45593999997E+02  0.45594000000E+02  0.51100000000E-03 0.  1.
         11   -1    0    0    0    0 -0.00000000000E+00 -0.00000000000E+00 -0.45593999997E+02  0.45594000000E+02  0.51100000000E-03 0. -1.
    9900012    2    1    2    0    0  0.30475171081E+02 -0.17423715680E+02 -0.28227494135E+02  0.46142319345E+02  0.10000014441E+02 0.  0.
        -12    1    1    2    0    0 -0.30475171081E+02  0.17423715680E+02  0.28227494135E+02  0.45045680655E+02  0.00000000000E+00 0.  1.
         11    1    3    3    0    0  0.10707157039E+02 -0.52379959503E+01 -0.12738637758E+02  0.17445707370E+02  0.51100000000E-03 0. -1.
        -11    1    3    3    0    0  0.18967415795E+02 -0.10243164242E+02 -0.12130825907E+02  0.24735444469E+02  0.51100000000E-03 0.  1.
        -12    1    3    3    0    0  0.80059824783E+00 -0.19425554882E+01 -0.33580304698E+01  0.39611675066E+01  0.00000000000E+00 0.  1.
</event>
<event>
 7    1  0.1519238E-008  0.4614232E+02  0.7816164E-02  0.1320468E+00
        -11   -1    0    0    0    0  0.00000000000E+00  0.00000000000E+00  0.45593999997E+02  0.45594000000E+02  0.51100000000E-03 0. -1.
         11   -1    0    0    0    0 -0.00000000000E+00 -0.00000000000E+00 -0.45593999997E+02  0.45594000000E+02  0.51100000000E-03 0.  1.
    9900012    2    1    2    0    0  0.22380203951E+02  0.38410941127E+02  0.72690798401E+01  0.46142318200E+02  0.10000003998E+02 0.  0.
        -12    1    1    2    0    0 -0.22380203951E+02 -0.38410941127E+02 -0.72690798401E+01  0.45045681800E+02  0.00000000000E+00 0.  1.
         11    1    3    3    0    0  0.82645243819E+01  0.16301133074E+02  0.16839525248E+01  0.18353882400E+02  0.51100000000E-03 0. -1.
        -11    1    3    3    0    0 -0.53883740854E+00  0.23252469927E+01 -0.47296931802E+00  0.24332734262E+01  0.51100000000E-03 0.  1.
        -12    1    3    3    0    0  0.14654516978E+02  0.19784561060E+02  0.60580966333E+01  0.25355162374E+02  0.00000000000E+00 0.  1.
</event>
<event>
 7    1  0.1519238E-008  0.4614232E+02  0.7816164E-02  0.1320468E+00
        -11   -1    0    0    0    0  0.00000000000E+00  0.00000000000E+00  0.45593999997E+02  0.45594000000E+02  0.51100000000E-03 0.  1.
         11   -1    0    0    0    0 -0.00000000000E+00 -0.00000000000E+00 -0.45593999997E+02  0.45594000000E+02  0.51100000000E-03 0. -1.
    9900012    2    1    2    0    0  0.28833310893E+02 -0.33145079383E+02  0.99577815487E+01  0.46142317435E+02  0.99999970228E+01 0.  0.
        -12    1    1    2    0    0 -0.28833310893E+02  0.33145079383E+02 -0.99577815487E+01  0.45045682565E+02  0.00000000000E+00 0.  1.
         11    1    3    3    0    0  0.13437901940E+02 -0.99492444515E+01  0.67646102414E+01  0.18036757626E+02  0.51100000000E-03 0. -1.
        -11    1    3    3    0    0  0.25143296719E+01 -0.52651495550E+01  0.34699791234E+00  0.58450031093E+01  0.51100000000E-03 0.  1.
         12    1    3    3    0    0  0.12881079282E+02 -0.17930685377E+02  0.28461733950E+01  0.22260556699E+02  0.00000000000E+00 0. -1.
</event>
<event>
 7    1  0.1519238E-008  0.4614232E+02  0.7816164E-02  0.1320468E+00
        -11   -1    0    0    0    0  0.00000000000E+00  0.00000000000E+00  0.45593999997E+02  0.45594000000E+02  0.51100000000E-03 0.  1.
         11   -1    0    0    0    0 -0.00000000000E+00 -0.00000000000E+00 -0.45593999997E+02  0.45594000000E+02  0.51100000000E-03 0. -1.
    9900012    2    1    2    0    0 -0.42379159000E+01  0.13776440107E+02 -0.42677434901E+02  0.46142315601E+02  0.99999803059E+01 0.  0.
        -12    1    1    2    0    0  0.42379159000E+01 -0.13776440107E+02  0.42677434901E+02  0.45045684399E+02  0.00000000000E+00 0.  1.
         11    1    3    3    0    0  0.22627788030E+01  0.82835139829E+00 -0.34322628197E+01  0.41936573864E+01  0.51100000000E-03 0. -1.
        -11    1    3    3    0    0 -0.49918205670E+01  0.66727110121E+01 -0.23390736574E+02  0.24830825652E+02  0.51100000000E-03 0.  1.
         12    1    3    3    0    0 -0.15088741360E+01  0.62753776967E+01 -0.15854435508E+02  0.17117832563E+02  0.00000000000E+00 0. -1.
</event>
<event>
 7    1  0.1519238E-008  0.4614232E+02  0.7816164E-02  0.1320468E+00
        -11   -1    0    0    0    0  0.00000000000E+00  0.00000000000E+00  0.45593999997E+02  0.45594000000E+02  0.51100000000E-03 0.  1.
         11   -1    0    0    0    0 -0.00000000000E+00 -0.00000000000E+00 -0.45593999997E+02  0.45594000000E+02  0.51100000000E-03 0. -1.
    9900012    2    1    2    0    0  0.11948273281E+02  0.20960976417E+02 -0.38039317956E+02  0.46142317884E+02  0.10000001121E+02 0.  0.
        -12    1    1    2    0    0 -0.11948273281E+02 -0.20960976417E+02  0.38039317956E+02  0.45045682116E+02  0.00000000000E+00 0.  1.
         11    1    3    3    0    0  0.39518426066E+01  0.56168076214E+01 -0.13606302546E+02  0.15241294469E+02  0.51100000000E-03 0. -1.
        -11    1    3    3    0    0  0.56083323104E+01  0.12145946859E+02 -0.12466418070E+02  0.18286306247E+02  0.51100000000E-03 0.  1.
        -12    1    3    3    0    0  0.23880983643E+01  0.31982219365E+01 -0.11966597339E+02  0.12614717168E+02  0.00000000000E+00 0.  1.
</event>
<event>
 7    1  0.1519238E-008  0.4614231E+02  0.7816164E-02  0.1320468E+00
        -11   -1    0    0    0    0  0.00000000000E+00  0.00000000000E+00  0.45593999997E+02  0.45594000000E+02  0.51100000000E-03 0. -1.
         11   -1    0    0    0    0 -0.00000000000E+00 -0.00000000000E+00 -0.45593999997E+02  0.45594000000E+02  0.51100000000E-03 0.  1.
    9900012    2    1    2    0    0  0.28520638614E+01  0.12143173820E+02  0.43284213402E+02  0.46142311321E+02  0.99999412760E+01 0.  0.
        -12    1    1    2    0    0 -0.28520638614E+01 -0.12143173820E+02 -0.43284213402E+02  0.45045688679E+02  0.00000000000E+00 0.  1.
         11    1    3    3    0    0  0.56681683776E+00  0.28963835208E+01  0.41612611052E+01  0.51016088711E+01  0.51100000000E-03 0.  1.
        -11    1    3    3    0    0  0.44410846183E+01  0.30402289369E+01  0.23187004944E+02  0.23803433011E+02  0.51100000000E-03 0. -1.
         12    1    3    3    0    0 -0.21558375947E+01  0.62065613619E+01  0.15935947353E+02  0.17237269439E+02  0.00000000000E+00 0. -1.
</event>
<event>
 7    1  0.1519238E-008  0.4614232E+02  0.7816164E-02  0.1320468E+00
        -11   -1    0    0    0    0  0.00000000000E+00  0.00000000000E+00  0.45593999997E+02  0.45594000000E+02  0.51100000000E-03 0.  1.
         11   -1    0    0    0    0 -0.00000000000E+00 -0.00000000000E+00 -0.45593999997E+02  0.45594000000E+02  0.51100000000E-03 0. -1.
    9900012    2    1    2    0    0 -0.59996583346E+00 -0.27307350444E+02 -0.35819856067E+02  0.46142318343E+02  0.10000005303E+02 0.  0.
        -12    1    1    2    0    0  0.59996583346E+00  0.27307350444E+02  0.35819856067E+02  0.45045681657E+02  0.00000000000E+00 0.  1.
         11    1    3    3    0    0 -0.18923472321E+01 -0.44674226000E+01 -0.84964507984E+01  0.97840952144E+01  0.51100000000E-03 0. -1.
        -11    1    3    3    0    0 -0.28736313196E+01 -0.70925227717E+01 -0.97877561895E+01  0.12424242742E+02  0.51100000000E-03 0.  1.
         12    1    3    3    0    0  0.41660127183E+01 -0.15747405073E+02 -0.17535649080E+02  0.23933980386E+02  0.00000000000E+00 0. -1.
</event>
<event>
 7    1  0.1519238E-008  0.4614232E+02  0.7816164E-02  0.1320468E+00
        -11   -1    0    0    0    0  0.00000000000E+00  0.00000000000E+00  0.45593999997E+02  0.45594000000E+02  0.51100000000E-03 0.  1.
         11   -1    0    0    0    0 -0.00000000000E+00 -0.00000000000E+00 -0.45593999997E+02  0.45594000000E+02  0.51100000000E-03 0. -1.
    9900012    2    1    2    0    0 -0.20291345896E+02  0.25959386952E+02 -0.30716201249E+02  0.46142317539E+02  0.99999979749E+01 0.  0.
        -12    1    1    2    0    0  0.20291345896E+02 -0.25959386952E+02  0.30716201249E+02  0.45045682461E+02  0.00000000000E+00 0.  1.
         11    1    3    3    0    0 -0.19772517320E+01  0.50266174191E+00 -0.77413042054E+00  0.21820796062E+01  0.51100000000E-03 0. -1.
        -11    1    3    3    0    0 -0.15567258657E+01  0.17619487047E+01 -0.56289367012E+01  0.61002284635E+01  0.51100000000E-03 0.  1.
         12    1    3    3    0    0 -0.16757368298E+02  0.23694776505E+02 -0.24313134127E+02  0.37860009469E+02  0.00000000000E+00 0. -1.
</event>
<event>
 7    1  0.1519238E-008  0.4614232E+02  0.7816164E-02  0.1320468E+00
        -11   -1    0    0    0    0  0.00000000000E+00  0.00000000000E+00  0.45593999997E+02  0.45594000000E+02  0.51100000000E-03 0.  1.
         11   -1    0    0    0    0 -0.00000000000E+00 -0.00000000000E+00 -0.45593999997E+02  0.45594000000E+02  0.51100000000E-03 0. -1.
    9900012    2    1    2    0    0  0.85323128638E+01 -0.35330146492E+01 -0.44088898112E+02  0.46142317720E+02  0.99999996293E+01 0.  0.
        -12    1    1    2    0    0 -0.85323128638E+01  0.35330146492E+01  0.44088898112E+02  0.45045682280E+02  0.00000000000E+00 0.  1.
         11    1    3    3    0    0  0.10574065231E+01 -0.22026044857E+01 -0.18422946230E+02  0.18584254711E+02  0.51100000000E-03 0. -1.
        -11    1    3    3    0    0  0.44711295880E+01  0.25616332894E-01 -0.53311773765E+01  0.69579528936E+01  0.51100000000E-03 0.  1.
        -12    1    3    3    0    0  0.30037767526E+01 -0.13560264964E+01 -0.20334774505E+02  0.20600110116E+02  0.00000000000E+00 0.  1.
</event>
<event>
 7    1  0.1519238E-008  0.4614232E+02  0.7816164E-02  0.1320468E+00
        -11   -1    0    0    0    0  0.00000000000E+00  0.00000000000E+00  0.45593999997E+02  0.45594000000E+02  0.51100000000E-03 0.  1.
         11   -1    0    0    0    0 -0.00000000000E+00 -0.00000000000E+00 -0.45593999997E+02  0.45594000000E+02  0.51100000000E-03 0. -1.
    9900012    2    1    2    0    0 -0.10280952309E+02 -0.42230106341E+02 -0.11833565759E+02  0.46142321621E+02  0.10000035202E+02 0.  0.
        -12    1    1    2    0    0  0.10280952309E+02  0.42230106341E+02  0.11833565759E+02  0.45045678379E+02  0.00000000000E+00 0.  1.
         11    1    3    3    0    0 -0.44454831152E+01 -0.11284659129E+02 -0.93927237301E+00  0.12165035333E+02  0.51100000000E-03 0. -1.
        -11    1    3    3    0    0 -0.35788034099E+00 -0.19407520794E+02 -0.66556366609E+01  0.20520171571E+02  0.51100000000E-03 0.  1.
         12    1    3    3    0    0 -0.54775888532E+01 -0.11537926418E+02 -0.42386567253E+01  0.13457114717E+02  0.00000000000E+00 0. -1.
</event>
<event>
 7    1  0.1519238E-008  0.4614232E+02  0.7816164E-02  0.1320468E+00
        -11   -1    0    0    0    0  0.00000000000E+00  0.00000000000E+00  0.45593999997E+02  0.45594000000E+02  0.51100000000E-03 0. -1.
         11   -1    0    0    0    0 -0.00000000000E+00 -0.00000000000E+00 -0.45593999997E+02  0.45594000000E+02  0.51100000000E-03 0.  1.
    9900012    2    1    2    0    0 -0.42628533520E+02 -0.89658888722E+01 -0.11468846003E+02  0.46142318054E+02  0.10000002674E+02 0.  0.
        -12    1    1    2    0    0  0.42628533520E+02  0.89658888722E+01  0.11468846003E+02  0.45045681946E+02  0.00000000000E+00 0.  1.
         11    1    3    3    0    0 -0.19424372918E+02 -0.77225545560E+01 -0.71793596041E+01  0.22101749178E+02  0.51100000000E-03 0. -1.
        -11    1    3    3    0    0 -0.10769860494E+02 -0.87186445455E+00  0.22347704761E+00  0.10807404172E+02  0.51100000000E-03 0.  1.
         12    1    3    3    0    0 -0.12434300108E+02 -0.37146986165E+00 -0.45129634463E+01  0.13233164704E+02  0.00000000000E+00 0. -1.
</event>
<event>
 7    1  0.1519238E-008  0.4614232E+02  0.7816164E-02  0.1320468E+00
        -11   -1    0    0    0    0  0.00000000000E+00  0.00000000000E+00  0.45593999997E+02  0.45594000000E+02  0.51100000000E-03 0. -1.
         11   -1    0    0    0    0 -0.00000000000E+00 -0.00000000000E+00 -0.45593999997E+02  0.45594000000E+02  0.51100000000E-03 0.  1.
    9900012    2    1    2    0    0  0.32750416527E+02  0.28388419686E+02  0.12272791998E+02  0.46142316762E+02  0.99999908879E+01 0.  0.
        -12    1    1    2    0    0 -0.32750416527E+02 -0.28388419686E+02 -0.12272791998E+02  0.45045683238E+02  0.00000000000E+00 0.  1.
         11    1    3    3    0    0  0.86374511672E+01  0.39099697370E+01  0.25417652017E+01  0.98160071623E+01  0.51100000000E-03 0. -1.
        -11    1    3    3    0    0  0.97381307618E+01  0.10926811174E+02  0.74970599544E+01  0.16444825976E+02  0.51100000000E-03 0.  1.
         12    1    3    3    0    0  0.14374834598E+02  0.13551638775E+02  0.22339668416E+01  0.19881483623E+02  0.00000000000E+00 0. -1.
</event>
<event>
 7    1  0.1519238E-008  0.4614232E+02  0.7816164E-02  0.1320468E+00
        -11   -1    0    0    0    0  0.00000000000E+00  0.00000000000E+00  0.45593999997E+02  0.45594000000E+02  0.51100000000E-03 0.  1.
         11   -1    0    0    0    0 -0.00000000000E+00 -0.00000000000E+00 -0.45593999997E+02  0.45594000000E+02  0.51100000000E-03 0. -1.
    9900012    2    1    2    0    0 -0.20613852801E+02  0.31546756239E+02 -0.24677615595E+02  0.46142317988E+02  0.10000002065E+02 0.  0.
        -12    1    1    2    0    0  0.20613852801E+02 -0.31546756239E+02  0.24677615595E+02  0.45045682012E+02  0.00000000000E+00 0.  1.
         11    1    3    3    0    0 -0.66002295213E+01  0.82367145073E+01 -0.30786961100E+01  0.10994765373E+02  0.51100000000E-03 0. -1.
        -11    1    3    3    0    0 -0.37406711589E+01  0.24398791013E+01 -0.35451792487E+01  0.57020984658E+01  0.51100000000E-03 0.  1.
         12    1    3    3    0    0 -0.10272952121E+02  0.20870162631E+02 -0.18053740236E+02  0.29445454149E+02  0.00000000000E+00 0. -1.
</event>
<event>
 7    1  0.1519238E-008  0.4614232E+02  0.7816164E-02  0.1320468E+00
        -11   -1    0    0    0    0  0.00000000000E+00  0.00000000000E+00  0.45593999997E+02  0.45594000000E+02  0.51100000000E-03 0.  1.
         11   -1    0    0    0    0 -0.00000000000E+00 -0.00000000000E+00 -0.45593999997E+02  0.45594000000E+02  0.51100000000E-03 0. -1.
    9900012    2    1    2    0    0 -0.64398323592E+01  0.87171658065E+01 -0.43722455009E+02  0.46142317715E+02  0.99999995808E+01 0.  0.
        -12    1    1    2    0    0  0.64398323592E+01 -0.87171658065E+01  0.43722455009E+02  0.45045682285E+02  0.00000000000E+00 0.  1.
         11    1    3    3    0    0 -0.64322871608E+00 -0.14130811936E+01 -0.20233880525E+01  0.25504197916E+01  0.51100000000E-03 0. -1.
        -11    1    3    3    0    0 -0.50216575977E+01  0.88825131488E+01 -0.27764269230E+02  0.29579904175E+02  0.51100000000E-03 0.  1.
        -12    1    3    3    0    0 -0.77494604539E+00  0.12477338513E+01 -0.13934797726E+02  0.14011993748E+02  0.00000000000E+00 0.  1.
</event>
<event>
 7    1  0.1519238E-008  0.4614232E+02  0.7816164E-02  0.1320468E+00
        -11   -1    0    0    0    0  0.00000000000E+00  0.00000000000E+00  0.45593999997E+02  0.45594000000E+02  0.51100000000E-03 0.  1.
         11   -1    0    0    0    0 -0.00000000000E+00 -0.00000000000E+00 -0.45593999997E+02  0.45594000000E+02  0.51100000000E-03 0. -1.
    9900012    2    1    2    0    0 -0.25021870549E+02 -0.16088664982E+01 -0.37422330802E+02  0.46142319854E+02  0.10000019083E+02 0.  0.
        -12    1    1    2    0    0  0.25021870549E+02  0.16088664982E+01  0.37422330802E+02  0.45045680146E+02  0.00000000000E+00 0.  1.
         11    1    3    3    0    0 -0.11751584786E+02 -0.11562867366E+01 -0.24452834968E+02  0.27154702765E+02  0.51100000000E-03 0.  1.
        -11    1    3    3    0    0 -0.12326617423E+02 -0.74807450657E+00 -0.10103244191E+02  0.15955583850E+02  0.51100000000E-03 0. -1.
         12    1    3    3    0    0 -0.94366834006E+00  0.29549474496E+00 -0.28662516432E+01  0.30320332390E+01  0.00000000000E+00 0. -1.
</event>
<event>
 7    1  0.1519238E-008  0.4614232E+02  0.7816164E-02  0.1320468E+00
        -11   -1    0    0    0    0  0.00000000000E+00  0.00000000000E+00  0.45593999997E+02  0.45594000000E+02  0.51100000000E-03 0.  1.
         11   -1    0    0    0    0 -0.00000000000E+00 -0.00000000000E+00 -0.45593999997E+02  0.45594000000E+02  0.51100000000E-03 0. -1.
    9900012    2    1    2    0    0 -0.29908050763E+02  0.16615084633E+02 -0.29301209368E+02  0.46142318650E+02  0.10000008109E+02 0.  0.
        -12    1    1    2    0    0  0.29908050763E+02 -0.16615084633E+02  0.29301209368E+02  0.45045681350E+02  0.00000000000E+00 0.  1.
         11    1    3    3    0    0 -0.91540324114E+01  0.47280501532E+01 -0.96566323706E+01  0.14120953107E+02  0.51100000000E-03 0. -1.
        -11    1    3    3    0    0 -0.40708296545E+01  0.58975669432E+01 -0.32214220453E+01  0.78568766173E+01  0.51100000000E-03 0.  1.
        -12    1    3    3    0    0 -0.16683188697E+02  0.59894675367E+01 -0.16423154953E+02  0.24164488926E+02  0.00000000000E+00 0.  1.
</event>
<event>
 7    1  0.1519238E-008  0.4614232E+02  0.7816164E-02  0.1320468E+00
        -11   -1    0    0    0    0  0.00000000000E+00  0.00000000000E+00  0.45593999997E+02  0.45594000000E+02  0.51100000000E-03 0. -1.
         11   -1    0    0    0    0 -0.00000000000E+00 -0.00000000000E+00 -0.45593999997E+02  0.45594000000E+02  0.51100000000E-03 0.  1.
    9900012    2    1    2    0    0 -0.18842914890E+02  0.74729205725E+00  0.40908429548E+02  0.46142317687E+02  0.99999993270E+01 0.  0.
        -12    1    1    2    0    0  0.18842914890E+02 -0.74729205725E+00 -0.40908429548E+02  0.45045682313E+02  0.00000000000E+00 0.  1.
         11    1    3    3    0    0 -0.17852901099E+02  0.25922481960E+01  0.30095515770E+02  0.35088258693E+02  0.51100000000E-03 0. -1.
        -11    1    3    3    0    0 -0.10370423121E+01 -0.98921646119E+00  0.71495266386E+01  0.72917581818E+01  0.51100000000E-03 0.  1.
         12    1    3    3    0    0  0.47028521036E-01 -0.85573967753E+00  0.36633871385E+01  0.37623008125E+01  0.00000000000E+00 0. -1.
</event>
<event>
 7    1  0.1519238E-008  0.4614232E+02  0.7816164E-02  0.1320468E+00
        -11   -1    0    0    0    0  0.00000000000E+00  0.00000000000E+00  0.45593999997E+02  0.45594000000E+02  0.51100000000E-03 0.  1.
         11   -1    0    0    0    0 -0.00000000000E+00 -0.00000000000E+00 -0.45593999997E+02  0.45594000000E+02  0.51100000000E-03 0. -1.
    9900012    2    1    2    0    0  0.53738683470E+01  0.20235511240E+02 -0.39884321757E+02  0.46142317652E+02  0.99999990085E+01 0.  0.
        -12    1    1    2    0    0 -0.53738683470E+01 -0.20235511240E+02  0.39884321757E+02  0.45045682348E+02  0.00000000000E+00 0.  1.
         11    1    3    3    0    0 -0.11121716662E+01  0.10029633781E+02 -0.14809198028E+02  0.17920458311E+02  0.51100000000E-03 0. -1.
        -11    1    3    3    0    0  0.40500122820E+01  0.25925596016E+01 -0.74271921781E+01  0.88480025251E+01  0.51100000000E-03 0.  1.
         12    1    3    3    0    0  0.24360277313E+01  0.76133178576E+01 -0.17647931551E+02  0.19373856816E+02  0.00000000000E+00 0. -1.
</event>
<event>
 7    1  0.1519238E-008  0.4614232E+02  0.7816164E-02  0.1320468E+00
        -11   -1    0    0    0    0  0.00000000000E+00  0.00000000000E+00  0.45593999997E+02  0.45594000000E+02  0.51100000000E-03 0. -1.
         11   -1    0    0    0    0 -0.00000000000E+00 -0.00000000000E+00 -0.45593999997E+02  0.45594000000E+02  0.51100000000E-03 0.  1.
    9900012    2    1    2    0    0  0.22707107923E+02  0.15360370327E+02  0.35742966331E+02  0.46142319087E+02  0.10000012090E+02 0.  0.
        -12    1    1    2    0    0 -0.22707107923E+02 -0.15360370327E+02 -0.35742966331E+02  0.45045680913E+02  0.00000000000E+00 0.  1.
         11    1    3    3    0    0  0.21171380441E+02  0.16122438963E+02  0.33267146397E+02  0.42601213804E+02  0.51100000000E-03 0. -1.
        -11    1    3    3    0    0  0.13816290915E+01 -0.58954368610E+00  0.27794477704E+01  0.31593972327E+01  0.51100000000E-03 0.  1.
         12    1    3    3    0    0  0.15409839008E+00 -0.17252495059E+00 -0.30362783656E+00  0.38170805013E+00  0.00000000000E+00 0. -1.
</event>
<event>
 7    1  0.1519238E-008  0.4614231E+02  0.7816164E-02  0.1320468E+00
        -11   -1    0    0    0    0  0.00000000000E+00  0.00000000000E+00  0.45593999997E+02  0.45594000000E+02  0.51100000000E-03 0. -1.
         11   -1    0    0    0    0 -0.00000000000E+00 -0.00000000000E+00 -0.45593999997E+02  0.45594000000E+02  0.51100000000E-03 0.  1.
    9900012    2    1    2    0    0  0.29629060402E+02  0.30000349412E+02  0.15849664643E+02  0.46142311478E+02  0.99999427050E+01 0.  0.
        -12    1    1    2    0    0 -0.29629060402E+02 -0.30000349412E+02 -0.15849664643E+02  0.45045688522E+02  0.00000000000E+00 0.  1.
         11    1    3    3    0    0  0.21584843145E+02  0.20441499435E+02  0.12011874911E+02  0.32063148502E+02  0.51100000000E-03 0. -1.
        -11    1    3    3    0    0  0.35189632371E+01  0.71344739565E+01  0.40786470624E+01  0.89397529619E+01  0.51100000000E-03 0.  1.
        -12    1    3    3    0    0  0.45252540205E+01  0.24243760199E+01 -0.24085733059E+00  0.51394100138E+01  0.00000000000E+00 0.  1.
</event>
<event>
 7    1  0.1519238E-008  0.4614232E+02  0.7816164E-02  0.1320468E+00
        -11   -1    0    0    0    0  0.00000000000E+00  0.00000000000E+00  0.45593999997E+02  0.45594000000E+02  0.51100000000E-03 0. -1.
         11   -1    0    0    0    0 -0.00000000000E+00 -0.00000000000E+00 -0.45593999997E+02  0.45594000000E+02  0.51100000000E-03 0.  1.
    9900012    2    1    2    0    0  0.28318543387E+02  0.33931118110E+02 -0.87093502989E+01  0.46142318093E+02  0.10000003031E+02 0.  0.
        -12    1    1    2    0    0 -0.28318543387E+02 -0.33931118110E+02  0.87093502989E+01  0.45045681907E+02  0.00000000000E+00 0.  1.
         11    1    3    3    0    0  0.61700554419E+01  0.53203596840E+01 -0.17221258101E+00  0.81489550715E+01  0.51100000000E-03 0. -1.
        -11    1    3    3    0    0  0.22858631997E+01  0.21466215181E+01 -0.31936901753E+01  0.44758029120E+01  0.51100000000E-03 0.  1.
        -12    1    3    3    0    0  0.19862624745E+02  0.26464136908E+02 -0.53434475425E+01  0.33517560110E+02  0.00000000000E+00 0.  1.
</event>
<event>
 7    1  0.1519238E-008  0.4614232E+02  0.7816164E-02  0.1320468E+00
        -11   -1    0    0    0    0  0.00000000000E+00  0.00000000000E+00  0.45593999997E+02  0.45594000000E+02  0.51100000000E-03 0.  1.
         11   -1    0    0    0    0 -0.00000000000E+00 -0.00000000000E+00 -0.45593999997E+02  0.45594000000E+02  0.51100000000E-03 0. -1.
    9900012    2    1    2    0    0 -0.96093647875E+01 -0.15849287682E+02 -0.41055739347E+02  0.46142317133E+02  0.99999942721E+01 0.  0.
        -12    1    1    2    0    0  0.96093647875E+01  0.15849287682E+02  0.41055739347E+02  0.45045682867E+02  0.00000000000E+00 0.  1.
         11    1    3    3    0    0 -0.20287690216E+01 -0.29612238299E+01 -0.24671436412E+01  0.43556340895E+01  0.51100000000E-03 0. -1.
        -11    1    3    3    0    0 -0.34162960955E+01 -0.10538161217E+02 -0.23974581672E+02  0.26410310249E+02  0.51100000000E-03 0.  1.
        -12    1    3    3    0    0 -0.41642996703E+01 -0.23499026354E+01 -0.14614014034E+02  0.15376372795E+02  0.00000000000E+00 0.  1.
</event>
<event>
 7    1  0.1519238E-008  0.4614232E+02  0.7816164E-02  0.1320468E+00
        -11   -1    0    0    0    0  0.00000000000E+00  0.00000000000E+00  0.45593999997E+02  0.45594000000E+02  0.51100000000E-03 0.  1.
         11   -1    0    0    0    0 -0.00000000000E+00 -0.00000000000E+00 -0.45593999997E+02  0.45594000000E+02  0.51100000000E-03 0. -1.
    9900012    2    1    2    0    0 -0.24110730033E+02  0.30552424134E+02 -0.22678966197E+02  0.46142318398E+02  0.10000005811E+02 0.  0.
        -12    1    1    2    0    0  0.24110730033E+02 -0.30552424134E+02  0.22678966197E+02  0.45045681602E+02  0.00000000000E+00 0.  1.
         11    1    3    3    0    0 -0.14639908206E+02  0.22803555555E+02 -0.12034616822E+02  0.29650650255E+02  0.51100000000E-03 0. -1.
        -11    1    3    3    0    0 -0.79948151454E+00 -0.27189961862E-01 -0.14369183556E+01  0.16445803744E+01  0.51100000000E-03 0.  1.
         12    1    3    3    0    0 -0.86713403125E+01  0.77760585411E+01 -0.92074310187E+01  0.14847087769E+02  0.00000000000E+00 0. -1.
</event>
<event>
 7    1  0.1519238E-008  0.4614232E+02  0.7816164E-02  0.1320468E+00
        -11   -1    0    0    0    0  0.00000000000E+00  0.00000000000E+00  0.45593999997E+02  0.45594000000E+02  0.51100000000E-03 0. -1.
         11   -1    0    0    0    0 -0.00000000000E+00 -0.00000000000E+00 -0.45593999997E+02  0.45594000000E+02  0.51100000000E-03 0.  1.
    9900012    2    1    2    0    0  0.37617082153E+02  0.21595667592E+02  0.12153012597E+02  0.46142318258E+02  0.10000004530E+02 0.  0.
        -12    1    1    2    0    0 -0.37617082153E+02 -0.21595667592E+02 -0.12153012597E+02  0.45045681742E+02  0.00000000000E+00 0.  1.
         11    1    3    3    0    0  0.17953281494E+02  0.59814307609E+01  0.72670030232E+01  0.20270845161E+02  0.51100000000E-03 0.  1.
        -11    1    3    3    0    0  0.12275556735E+02  0.89334284505E+01  0.47565115146E+01  0.15909740384E+02  0.51100000000E-03 0. -1.
        -12    1    3    3    0    0  0.73882439243E+01  0.66808083802E+01  0.12949805947E+00  0.99617327130E+01  0.00000000000E+00 0.  1.
</event>
<event>
 7    1  0.1519238E-008  0.4614232E+02  0.7816164E-02  0.1320468E+00
        -11   -1    0    0    0    0  0.00000000000E+00  0.00000000000E+00  0.45593999997E+02  0.45594000000E+02  0.51100000000E-03 0. -1.
         11   -1    0    0    0    0 -0.00000000000E+00 -0.00000000000E+00 -0.45593999997E+02  0.45594000000E+02  0.51100000000E-03 0.  1.
    9900012    2    1    2    0    0  0.50864069576E+01 -0.23407349054E+02  0.38148889590E+02  0.46142319825E+02  0.10000018822E+02 0.  0.
        -12    1    1    2    0    0 -0.50864069576E+01  0.23407349054E+02 -0.38148889590E+02  0.45045680175E+02  0.00000000000E+00 0.  1.
         11    1    3    3    0    0  0.38116963253E+00 -0.17471722831E+02  0.22017613948E+02  0.28110170992E+02  0.51100000000E-03 0. -1.
        -11    1    3    3    0    0  0.14058939966E+01 -0.36133396893E+01  0.96228547842E+01  0.10374588960E+02  0.51100000000E-03 0.  1.
         12    1    3    3    0    0  0.32993433285E+01 -0.23222865336E+01  0.65084208578E+01  0.76575598728E+01  0.00000000000E+00 0. -1.
</event>
<event>
 7    1  0.1519238E-008  0.4614232E+02  0.7816164E-02  0.1320468E+00
        -11   -1    0    0    0    0  0.00000000000E+00  0.00000000000E+00  0.45593999997E+02  0.45594000000E+02  0.51100000000E-03 0. -1.
         11   -1    0    0    0    0 -0.00000000000E+00 -0.00000000000E+00 -0.45593999997E+02  0.45594000000E+02  0.51100000000E-03 0.  1.
    9900012    2    1    2    0    0  0.28169592994E+01  0.29585323751E+02  0.33850950172E+02  0.46142317980E+02  0.10000001992E+02 0.  0.
        -12    1    1    2    0    0 -0.28169592994E+01 -0.29585323751E+02 -0.33850950172E+02  0.45045682020E+02  0.00000000000E+00 0.  1.
         11    1    3    3    0    0  0.40271946138E+01  0.87224231257E+01  0.15767973202E+02  0.18464234097E+02  0.51100000000E-03 0. -1.
        -11    1    3    3    0    0 -0.44271574913E-01  0.12958127525E+02  0.10868556471E+02  0.16912733338E+02  0.51100000000E-03 0.  1.
         12    1    3    3    0    0 -0.11659637394E+01  0.79047731002E+01  0.72144204990E+01  0.10765350544E+02  0.00000000000E+00 0. -1.
</event>
<event>
 7    1  0.1519238E-008  0.4614232E+02  0.7816164E-02  0.1320468E+00
        -11   -1    0    0    0    0  0.00000000000E+00  0.00000000000E+00  0.45593999997E+02  0.45594000000E+02  0.51100000000E-03 0.  1.
         11   -1    0    0    0    0 -0.00000000000E+00 -0.00000000000E+00 -0.45593999997E+02  0.45594000000E+02  0.51100000000E-03 0. -1.
    9900012    2    1    2    0    0 -0.25462659358E+02  0.61257747476E+01 -0.36650257345E+02  0.46142317618E+02  0.99999986950E+01 0.  0.
        -12    1    1    2    0    0  0.25462659358E+02 -0.61257747476E+01  0.36650257345E+02  0.45045682382E+02  0.00000000000E+00 0.  1.
         11    1    3    3    0    0 -0.14227412150E+02 -0.11042998318E+00 -0.18917085808E+02  0.23670394736E+02  0.51100000000E-03 0. -1.
        -11    1    3    3    0    0  0.41541377893E+00 -0.58308115001E-01 -0.12062774584E+00  0.43648569070E+00  0.51100000000E-03 0.  1.
        -12    1    3    3    0    0 -0.11650660987E+02  0.62945128458E+01 -0.17612543791E+02  0.22035437191E+02  0.00000000000E+00 0.  1.
</event>
<event>
 7    1  0.1519238E-008  0.4614232E+02  0.7816164E-02  0.1320468E+00
        -11   -1    0    0    0    0  0.00000000000E+00  0.00000000000E+00  0.45593999997E+02  0.45594000000E+02  0.51100000000E-03 0.  1.
         11   -1    0    0    0    0 -0.00000000000E+00 -0.00000000000E+00 -0.45593999997E+02  0.45594000000E+02  0.51100000000E-03 0. -1.
    9900012    2    1    2    0    0  0.41532486029E+02 -0.13677057339E+01 -0.17386646104E+02  0.46142317882E+02  0.10000001106E+02 0.  0.
        -12    1    1    2    0    0 -0.41532486029E+02  0.13677057339E+01  0.17386646104E+02  0.45045682118E+02  0.00000000000E+00 0.  1.
         11    1    3    3    0    0  0.17389755106E+02  0.32826275482E+00 -0.75187177302E+01  0.18948415650E+02  0.51100000000E-03 0. -1.
        -11    1    3    3    0    0  0.18191762620E+02 -0.34564489296E+01 -0.46656951572E+01  0.19095967584E+02  0.51100000000E-03 0.  1.
        -12    1    3    3    0    0  0.59509683031E+01  0.17604804409E+01 -0.52022332162E+01  0.80979346480E+01  0.00000000000E+00 0.  1.
</event>
<event>
 7    1  0.1519238E-008  0.4614232E+02  0.7816164E-02  0.1320468E+00
        -11   -1    0    0    0    0  0.00000000000E+00  0.00000000000E+00  0.45593999997E+02  0.45594000000E+02  0.51100000000E-03 0.  1.
         11   -1    0    0    0    0 -0.00000000000E+00 -0.00000000000E+00 -0.45593999997E+02  0.45594000000E+02  0.51100000000E-03 0. -1.
    9900012    2    1    2    0    0  0.31392321273E+02  0.27028315512E+01 -0.32192087385E+02  0.46142316261E+02  0.99999863191E+01 0.  0.
        -12    1    1    2    0    0 -0.31392321273E+02 -0.27028315512E+01  0.32192087385E+02  0.45045683739E+02  0.00000000000E+00 0.  1.
         11    1    3    3    0    0  0.15924085307E+02  0.24643158748E+01 -0.10475166026E+02  0.19219220825E+02  0.51100000000E-03 0.  1.
        -11    1    3    3    0    0  0.13646609535E+02 -0.26096942183E+00 -0.20651578746E+02  0.24754509928E+02  0.51100000000E-03 0. -1.
         12    1    3    3    0    0  0.18216264312E+01  0.49948509819E+00 -0.10653426129E+01  0.21685855070E+01  0.00000000000E+00 0. -1.
</event>
<event>
 7    1  0.1519238E-008  0.4614232E+02  0.7816164E-02  0.1320468E+00
        -11   -1    0    0    0    0  0.00000000000E+00  0.00000000000E+00  0.45593999997E+02  0.45594000000E+02  0.51100000000E-03 0.  1.
         11   -1    0    0    0    0 -0.00000000000E+00 -0.00000000000E+00 -0.45593999997E+02  0.45594000000E+02  0.51100000000E-03 0. -1.
    9900012    2    1    2    0    0 -0.30403720011E+02  0.12950682861E+02 -0.30610570760E+02  0.46142318527E+02  0.10000006985E+02 0.  0.
        -12    1    1    2    0    0  0.30403720011E+02 -0.12950682861E+02  0.30610570760E+02  0.45045681473E+02  0.00000000000E+00 0.  1.
         11    1    3    3    0    0 -0.14851786123E+02  0.73501396449E+01 -0.18931131787E+02  0.25159249887E+02  0.51100000000E-03 0. -1.
        -11    1    3    3    0    0 -0.35721804136E+01  0.29880115683E+01 -0.10923781572E+01  0.47835108800E+01  0.51100000000E-03 0.  1.
        -12    1    3    3    0    0 -0.11979753474E+02  0.26125316478E+01 -0.10587060815E+02  0.16199557760E+02  0.00000000000E+00 0.  1.
</event>
<event>
 7    1  0.1519238E-008  0.4614232E+02  0.7816164E-02  0.1320468E+00
        -11   -1    0    0    0    0  0.00000000000E+00  0.00000000000E+00  0.45593999997E+02  0.45594000000E+02  0.51100000000E-03 0. -1.
         11   -1    0    0    0    0 -0.00000000000E+00 -0.00000000000E+00 -0.45593999997E+02  0.45594000000E+02  0.51100000000E-03 0.  1.
    9900012    2    1    2    0    0 -0.65434603763E+01 -0.32667295817E+02 -0.30317396086E+02  0.46142316576E+02  0.99999891942E+01 0.  0.
        -12    1    1    2    0    0  0.65434603763E+01  0.32667295817E+02  0.30317396086E+02  0.45045683424E+02  0.00000000000E+00 0.  1.
         11    1    3    3    0    0 -0.48234713437E+01 -0.12187925672E+02 -0.15640539161E+02  0.20406809488E+02  0.51100000000E-03 0. -1.
        -11    1    3    3    0    0  0.35511229001E+00 -0.13107847624E+02 -0.11512942403E+02  0.17449630858E+02  0.51100000000E-03 0.  1.
        -12    1    3    3    0    0 -0.20751013225E+01 -0.73715225216E+01 -0.31639145219E+01  0.82858762293E+01  0.00000000000E+00 0.  1.
</event>
<event>
 7    1  0.1519238E-008  0.4614232E+02  0.7816164E-02  0.1320468E+00
        -11   -1    0    0    0    0  0.00000000000E+00  0.00000000000E+00  0.45593999997E+02  0.45594000000E+02  0.51100000000E-03 0.  1.
         11   -1    0    0    0    0 -0.00000000000E+00 -0.00000000000E+00 -0.45593999997E+02  0.45594000000E+02  0.51100000000E-03 0. -1.
    9900012    2    1    2    0    0 -0.18590827442E+02 -0.46449622414E+01 -0.40766639760E+02  0.46142318115E+02  0.10000003227E+02 0.  0.
        -12    1    1    2    0    0  0.18590827442E+02  0.46449622414E+01  0.40766639760E+02  0.45045681885E+02  0.00000000000E+00 0.  1.
         11    1    3    3    0    0 -0.81757043815E+01 -0.20760384517E+01 -0.19330404701E+02  0.21090676233E+02  0.51100000000E-03 0. -1.
        -11    1    3    3    0    0 -0.84300060460E+01 -0.48229849961E+01 -0.14069376652E+02  0.17096009647E+02  0.51100000000E-03 0.  1.
        -12    1    3    3    0    0 -0.19851170145E+01  0.22540612064E+01 -0.73668584060E+01  0.79556322350E+01  0.00000000000E+00 0.  1.
</event>
<event>
 7    1  0.1519238E-008  0.4614232E+02  0.7816164E-02  0.1320468E+00
        -11   -1    0    0    0    0  0.00000000000E+00  0.00000000000E+00  0.45593999997E+02  0.45594000000E+02  0.51100000000E-03 0.  1.
         11   -1    0    0    0    0 -0.00000000000E+00 -0.00000000000E+00 -0.45593999997E+02  0.45594000000E+02  0.51100000000E-03 0. -1.
    9900012    2    1    2    0    0  0.41449454140E+02 -0.92581896252E+01 -0.15011405400E+02  0.46142316348E+02  0.99999871126E+01 0.  0.
        -12    1    1    2    0    0 -0.41449454140E+02  0.92581896252E+01  0.15011405400E+02  0.45045683652E+02  0.00000000000E+00 0.  1.
         11    1    3    3    0    0  0.10165389052E+02 -0.31462675369E+01 -0.97964644937E+00  0.10686151852E+02  0.51100000000E-03 0. -1.
        -11    1    3    3    0    0  0.24188235931E+02 -0.73373341732E+01 -0.98420951866E+01  0.27125155633E+02  0.51100000000E-03 0.  1.
        -12    1    3    3    0    0  0.70958291574E+01  0.12254120849E+01 -0.41896637636E+01  0.83310088621E+01  0.00000000000E+00 0.  1.
</event>
<event>
 7    1  0.1519238E-008  0.4614232E+02  0.7816164E-02  0.1320468E+00
        -11   -1    0    0    0    0  0.00000000000E+00  0.00000000000E+00  0.45593999997E+02  0.45594000000E+02  0.51100000000E-03 0.  1.
         11   -1    0    0    0    0 -0.00000000000E+00 -0.00000000000E+00 -0.45593999997E+02  0.45594000000E+02  0.51100000000E-03 0. -1.
    9900012    2    1    2    0    0 -0.42565577275E+02 -0.12308406282E+01  0.14689114384E+02  0.46142318534E+02  0.10000007044E+02 0.  0.
        -12    1    1    2    0    0  0.42565577275E+02  0.12308406282E+01 -0.14689114384E+02  0.45045681466E+02  0.00000000000E+00 0.  1.
         11    1    3    3    0    0 -0.37583229759E+02 -0.43017621547E+00  0.14697513525E+02  0.40357169311E+02  0.51100000000E-03 0. -1.
        -11    1    3    3    0    0 -0.28559773588E+01 -0.15861509738E+01  0.82593691652E+00  0.33696666952E+01  0.51100000000E-03 0.  1.
         12    1    3    3    0    0 -0.21263701572E+01  0.78548656104E+00 -0.83433605839E+00  0.24154825277E+01  0.00000000000E+00 0. -1.
</event>
<event>
 7    1  0.1519238E-008  0.4614232E+02  0.7816164E-02  0.1320468E+00
        -11   -1    0    0    0    0  0.00000000000E+00  0.00000000000E+00  0.45593999997E+02  0.45594000000E+02  0.51100000000E-03 0. -1.
         11   -1    0    0    0    0 -0.00000000000E+00 -0.00000000000E+00 -0.45593999997E+02  0.45594000000E+02  0.51100000000E-03 0.  1.
    9900012    2    1    2    0    0 -0.18305923057E+01 -0.10085931385E+02  0.43863840529E+02  0.46142316677E+02  0.99999901171E+01 0.  0.
        -12    1    1    2    0    0  0.18305923057E+01  0.10085931385E+02 -0.43863840529E+02  0.45045683323E+02  0.00000000000E+00 0.  1.
         11    1    3    3    0    0 -0.45743195369E+00 -0.51229137651E+01  0.17204211879E+02  0.17956569719E+02  0.51100000000E-03 0. -1.
        -11    1    3    3    0    0 -0.26149879584E+01 -0.33394796724E+01  0.55890146207E+01  0.70162220031E+01  0.51100000000E-03 0.  1.
        -12    1    3    3    0    0  0.12418276065E+01 -0.16235379472E+01  0.21070614029E+02  0.21169524955E+02  0.00000000000E+00 0.  1.
</event>
<event>
 7    1  0.1519238E-008  0.4614232E+02  0.7816164E-02  0.1320468E+00
        -11   -1    0    0    0    0  0.00000000000E+00  0.00000000000E+00  0.45593999997E+02  0.45594000000E+02  0.51100000000E-03 0. -1.
         11   -1    0    0    0    0 -0.00000000000E+00 -0.00000000000E+00 -0.45593999997E+02  0.45594000000E+02  0.51100000000E-03 0.  1.
    9900012    2    1    2    0    0  0.24000015103E+02  0.36633399047E+02 -0.10540721940E+02  0.46142317969E+02  0.10000001892E+02 0.  0.
        -12    1    1    2    0    0 -0.24000015103E+02 -0.36633399047E+02  0.10540721940E+02  0.45045682031E+02  0.00000000000E+00 0.  1.
         11    1    3    3    0    0  0.17194676441E+02  0.26914680313E+02 -0.94471415991E+01  0.33306236637E+02  0.51100000000E-03 0. -1.
        -11    1    3    3    0    0  0.92648702450E+00  0.32174420297E+01  0.15378601342E+01  0.36844708541E+01  0.51100000000E-03 0.  1.
        -12    1    3    3    0    0  0.58788516376E+01  0.65012767036E+01 -0.26314404748E+01  0.91516104771E+01  0.00000000000E+00 0.  1.
</event>
<event>
 7    1  0.1519238E-008  0.4614232E+02  0.7816164E-02  0.1320468E+00
        -11   -1    0    0    0    0  0.00000000000E+00  0.00000000000E+00  0.45593999997E+02  0.45594000000E+02  0.51100000000E-03 0.  1.
         11   -1    0    0    0    0 -0.00000000000E+00 -0.00000000000E+00 -0.45593999997E+02  0.45594000000E+02  0.51100000000E-03 0. -1.
    9900012    2    1    2    0    0  0.29513873710E+02  0.19435042634E+02 -0.27934274287E+02  0.46142319813E+02  0.10000018709E+02 0.  0.
        -12    1    1    2    0    0 -0.29513873710E+02 -0.19435042634E+02  0.27934274287E+02  0.45045680187E+02  0.00000000000E+00 0.  1.
         11    1    3    3    0    0  0.13409592831E+02  0.80770154889E+01 -0.18617519841E+02  0.24324214363E+02  0.51100000000E-03 0. -1.
        -11    1    3    3    0    0  0.10712994564E+02  0.76835303649E+01 -0.57560415308E+01  0.14385301726E+02  0.51100000000E-03 0.  1.
        -12    1    3    3    0    0  0.53912863149E+01  0.36744967803E+01 -0.35607129157E+01  0.74328037231E+01  0.00000000000E+00 0.  1.
</event>
<event>
 7    1  0.1519238E-008  0.4614232E+02  0.7816164E-02  0.1320468E+00
        -11   -1    0    0    0    0  0.00000000000E+00  0.00000000000E+00  0.45593999997E+02  0.45594000000E+02  0.51100000000E-03 0.  1.
         11   -1    0    0    0    0 -0.00000000000E+00 -0.00000000000E+00 -0.45593999997E+02  0.45594000000E+02  0.51100000000E-03 0. -1.
    9900012    2    1    2    0    0  0.51164695949E+01 -0.43142999107E+02 -0.11900284659E+02  0.46142318653E+02  0.10000008133E+02 0.  0.
        -12    1    1    2    0    0 -0.51164695949E+01  0.43142999107E+02  0.11900284659E+02  0.45045681347E+02  0.00000000000E+00 0.  1.
         11    1    3    3    0    0 -0.91220965627E+00 -0.18639918016E+02 -0.66291998469E+01  0.19804670181E+02  0.51100000000E-03 0. -1.
        -11    1    3    3    0    0  0.13074866073E+01 -0.14492145457E+02 -0.14272245794E+01  0.14620833472E+02  0.51100000000E-03 0.  1.
         12    1    3    3    0    0  0.47211926439E+01 -0.10010935634E+02 -0.38438602330E+01  0.11716815000E+02  0.00000000000E+00 0. -1.
</event>
<event>
 7    1  0.1519238E-008  0.4614232E+02  0.7816164E-02  0.1320468E+00
        -11   -1    0    0    0    0  0.00000000000E+00  0.00000000000E+00  0.45593999997E+02  0.45594000000E+02  0.51100000000E-03 0.  1.
         11   -1    0    0    0    0 -0.00000000000E+00 -0.00000000000E+00 -0.45593999997E+02  0.45594000000E+02  0.51100000000E-03 0. -1.
    9900012    2    1    2    0    0 -0.17666469366E+02  0.36171055297E+02  0.20215442689E+02  0.46142317585E+02  0.99999983901E+01 0.  0.
        -12    1    1    2    0    0  0.17666469366E+02 -0.36171055297E+02 -0.20215442689E+02  0.45045682415E+02  0.00000000000E+00 0.  1.
         11    1    3    3    0    0 -0.13783512212E+02  0.21569338146E+02  0.10652774099E+02  0.27725496447E+02  0.51100000000E-03 0. -1.
        -11    1    3    3    0    0 -0.37224540670E+01  0.13398533627E+02  0.99981973811E+01  0.17127209894E+02  0.51100000000E-03 0.  1.
         12    1    3    3    0    0 -0.16050308779E+00  0.12031835231E+01 -0.43552879043E+00  0.12896112433E+01  0.00000000000E+00 0. -1.
</event>
<event>
 7    1  0.1519238E-008  0.4614232E+02  0.7816164E-02  0.1320468E+00
        -11   -1    0    0    0    0  0.00000000000E+00  0.00000000000E+00  0.45593999997E+02  0.45594000000E+02  0.51100000000E-03 0. -1.
         11   -1    0    0    0    0 -0.00000000000E+00 -0.00000000000E+00 -0.45593999997E+02  0.45594000000E+02  0.51100000000E-03 0.  1.
    9900012    2    1    2    0    0 -0.37462693991E+01 -0.24197491062E+02  0.37809528507E+02  0.46142317033E+02  0.99999933562E+01 0.  0.
        -12    1    1    2    0    0  0.37462693991E+01  0.24197491062E+02 -0.37809528507E+02  0.45045682967E+02  0.00000000000E+00 0.  1.
         11    1    3    3    0    0  0.15572437574E+01 -0.16568152023E+02  0.25459846384E+02  0.30415990001E+02  0.51100000000E-03 0. -1.
        -11    1    3    3    0    0 -0.66815311630E+00 -0.30292828940E+01  0.29505432725E+01  0.42812018526E+01  0.51100000000E-03 0.  1.
         12    1    3    3    0    0 -0.46353600401E+01 -0.46000561453E+01  0.93991388500E+01  0.11445125179E+02  0.00000000000E+00 0. -1.
</event>
<event>
 7    1  0.1519238E-008  0.4614232E+02  0.7816164E-02  0.1320468E+00
        -11   -1    0    0    0    0  0.00000000000E+00  0.00000000000E+00  0.45593999997E+02  0.45594000000E+02  0.51100000000E-03 0.  1.
         11   -1    0    0    0    0 -0.00000000000E+00 -0.00000000000E+00 -0.45593999997E+02  0.45594000000E+02  0.51100000000E-03 0. -1.
    9900012    2    1    2    0    0 -0.54786796137E+01 -0.39189677113E+02 -0.21523634931E+02  0.46142316709E+02  0.99999904038E+01 0.  0.
        -12    1    1    2    0    0  0.54786796137E+01  0.39189677113E+02  0.21523634931E+02  0.45045683291E+02  0.00000000000E+00 0.  1.
         11    1    3    3    0    0 -0.28249586334E+01 -0.25297507139E+02 -0.11731989527E+02  0.28028268538E+02  0.51100000000E-03 0. -1.
        -11    1    3    3    0    0  0.87159821736E+00 -0.95238978879E+01 -0.53685661636E+01  0.10967489109E+02  0.51100000000E-03 0.  1.
         12    1    3    3    0    0 -0.35253191977E+01 -0.43682720867E+01 -0.44230792398E+01  0.71465590622E+01  0.00000000000E+00 0. -1.
</event>
<event>
 7    1  0.1519238E-008  0.4614232E+02  0.7816164E-02  0.1320468E+00
        -11   -1    0    0    0    0  0.00000000000E+00  0.00000000000E+00  0.45593999997E+02  0.45594000000E+02  0.51100000000E-03 0.  1.
         11   -1    0    0    0    0 -0.00000000000E+00 -0.00000000000E+00 -0.45593999997E+02  0.45594000000E+02  0.51100000000E-03 0. -1.
    9900012    2    1    2    0    0  0.71985339036E+01  0.19397272329E+02 -0.40013003188E+02  0.46142317762E+02  0.10000000007E+02 0.  0.
        -12    1    1    2    0    0 -0.71985339036E+01 -0.19397272329E+02  0.40013003188E+02  0.45045682238E+02  0.00000000000E+00 0.  1.
         11    1    3    3    0    0  0.51500837059E+01  0.66973938805E+01 -0.18990620530E+02  0.20785141696E+02  0.51100000000E-03 0. -1.
        -11    1    3    3    0    0  0.21167424075E+01  0.66831024756E+01 -0.61948747338E+01  0.93552621742E+01  0.51100000000E-03 0.  1.
         12    1    3    3    0    0 -0.68292209748E-01  0.60167759731E+01 -0.14827507924E+02  0.16001913891E+02  0.00000000000E+00 0. -1.
</event>
<event>
 7    1  0.1519238E-008  0.4614232E+02  0.7816164E-02  0.1320468E+00
        -11   -1    0    0    0    0  0.00000000000E+00  0.00000000000E+00  0.45593999997E+02  0.45594000000E+02  0.51100000000E-03 0. -1.
         11   -1    0    0    0    0 -0.00000000000E+00 -0.00000000000E+00 -0.45593999997E+02  0.45594000000E+02  0.51100000000E-03 0.  1.
    9900012    2    1    2    0    0 -0.20451759933E+02  0.25281355666E+02  0.31171974973E+02  0.46142318160E+02  0.10000003640E+02 0.  0.
        -12    1    1    2    0    0  0.20451759933E+02 -0.25281355666E+02 -0.31171974973E+02  0.45045681840E+02  0.00000000000E+00 0.  1.
         11    1    3    3    0    0 -0.10307449875E+02  0.59757825810E+01  0.13382835946E+02  0.17917974177E+02  0.51100000000E-03 0. -1.
        -11    1    3    3    0    0 -0.86298032882E+01  0.14868636908E+02  0.14595079330E+02  0.22551412577E+02  0.51100000000E-03 0.  1.
        -12    1    3    3    0    0 -0.15145067696E+01  0.44369361771E+01  0.31940596972E+01  0.56729314066E+01  0.00000000000E+00 0.  1.
</event>
<event>
 7    1  0.1519238E-008  0.4614232E+02  0.7816164E-02  0.1320468E+00
        -11   -1    0    0    0    0  0.00000000000E+00  0.00000000000E+00  0.45593999997E+02  0.45594000000E+02  0.51100000000E-03 0.  1.
         11   -1    0    0    0    0 -0.00000000000E+00 -0.00000000000E+00 -0.45593999997E+02  0.45594000000E+02  0.51100000000E-03 0. -1.
    9900012    2    1    2    0    0  0.24724838532E+02  0.18299146220E+00 -0.37653185399E+02  0.46142317665E+02  0.99999991246E+01 0.  0.
        -12    1    1    2    0    0 -0.24724838532E+02 -0.18299146220E+00  0.37653185399E+02  0.45045682335E+02  0.00000000000E+00 0.  1.
         11    1    3    3    0    0  0.13087241010E+00  0.81051587107E+00 -0.54659400059E+00  0.98632085428E+00  0.51100000000E-03 0. -1.
        -11    1    3    3    0    0  0.84254357634E+01  0.26856120141E+01 -0.93976622940E+01  0.12904128663E+02  0.51100000000E-03 0.  1.
         12    1    3    3    0    0  0.16168530358E+02 -0.33131364229E+01 -0.27708929105E+02  0.32251868148E+02  0.00000000000E+00 0. -1.
</event>
<event>
 7    1  0.1519238E-008  0.4614232E+02  0.7816164E-02  0.1320468E+00
        -11   -1    0    0    0    0  0.00000000000E+00  0.00000000000E+00  0.45593999997E+02  0.45594000000E+02  0.51100000000E-03 0.  1.
         11   -1    0    0    0    0 -0.00000000000E+00 -0.00000000000E+00 -0.45593999997E+02  0.45594000000E+02  0.51100000000E-03 0. -1.
    9900012    2    1    2    0    0  0.37953442806E+02 -0.71397656915E+01 -0.23187785788E+02  0.46142317802E+02  0.10000000372E+02 0.  0.
        -12    1    1    2    0    0 -0.37953442806E+02  0.71397656915E+01  0.23187785788E+02  0.45045682198E+02  0.00000000000E+00 0.  1.
         11    1    3    3    0    0  0.29567180899E+02 -0.78854095233E+01 -0.20686453214E+02  0.36936800302E+02  0.51100000000E-03 0. -1.
        -11    1    3    3    0    0  0.84302225976E+01  0.42781989349E+00 -0.26563610115E+01  0.88491771929E+01  0.51100000000E-03 0.  1.
        -12    1    3    3    0    0 -0.43960691211E-01  0.31782393827E+00  0.15502843774E+00  0.35634030732E+00  0.00000000000E+00 0.  1.
</event>
<event>
 7    1  0.1519238E-008  0.4614232E+02  0.7816164E-02  0.1320468E+00
        -11   -1    0    0    0    0  0.00000000000E+00  0.00000000000E+00  0.45593999997E+02  0.45594000000E+02  0.51100000000E-03 0.  1.
         11   -1    0    0    0    0 -0.00000000000E+00 -0.00000000000E+00 -0.45593999997E+02  0.45594000000E+02  0.51100000000E-03 0. -1.
    9900012    2    1    2    0    0  0.58946599626E+00 -0.44730397472E+02 -0.52874895089E+01  0.46142317926E+02  0.10000001507E+02 0.  0.
        -12    1    1    2    0    0 -0.58946599626E+00  0.44730397472E+02  0.52874895089E+01  0.45045682074E+02  0.00000000000E+00 0.  1.
         11    1    3    3    0    0  0.12168123353E+01 -0.12829706413E+02 -0.35272803859E+01  0.13361276365E+02  0.51100000000E-03 0. -1.
        -11    1    3    3    0    0 -0.11627314103E+01 -0.84764556964E+01 -0.35918503445E+01  0.92792044198E+01  0.51100000000E-03 0.  1.
         12    1    3    3    0    0  0.53538507122E+00 -0.23424235362E+02  0.18316412215E+01  0.23501837142E+02  0.00000000000E+00 0. -1.
</event>
<event>
 7    1  0.1519238E-008  0.4614232E+02  0.7816164E-02  0.1320468E+00
        -11   -1    0    0    0    0  0.00000000000E+00  0.00000000000E+00  0.45593999997E+02  0.45594000000E+02  0.51100000000E-03 0.  1.
         11   -1    0    0    0    0 -0.00000000000E+00 -0.00000000000E+00 -0.45593999997E+02  0.45594000000E+02  0.51100000000E-03 0. -1.
    9900012    2    1    2    0    0  0.74624098257E+01  0.29012935028E+02 -0.33640386989E+02  0.46142316565E+02  0.99999890938E+01 0.  0.
        -12    1    1    2    0    0 -0.74624098257E+01 -0.29012935028E+02  0.33640386989E+02  0.45045683435E+02  0.00000000000E+00 0.  1.
         11    1    3    3    0    0  0.10756567300E+01  0.16176649694E+02 -0.19826544572E+02  0.25611187061E+02  0.51100000000E-03 0. -1.
        -11    1    3    3    0    0  0.21976912515E+01  0.82617165175E+01 -0.55273654694E+01  0.10180254218E+02  0.51100000000E-03 0.  1.
         12    1    3    3    0    0  0.41890618442E+01  0.45745688165E+01 -0.82864769472E+01  0.10350875286E+02  0.00000000000E+00 0. -1.
</event>
<event>
 7    1  0.1519238E-008  0.4614232E+02  0.7816164E-02  0.1320468E+00
        -11   -1    0    0    0    0  0.00000000000E+00  0.00000000000E+00  0.45593999997E+02  0.45594000000E+02  0.51100000000E-03 0. -1.
         11   -1    0    0    0    0 -0.00000000000E+00 -0.00000000000E+00 -0.45593999997E+02  0.45594000000E+02  0.51100000000E-03 0.  1.
    9900012    2    1    2    0    0 -0.23221776646E+02 -0.14522071640E+02  0.35762718621E+02  0.46142317427E+02  0.99999969532E+01 0.  0.
        -12    1    1    2    0    0  0.23221776646E+02  0.14522071640E+02 -0.35762718621E+02  0.45045682573E+02  0.00000000000E+00 0.  1.
         11    1    3    3    0    0 -0.18920706442E+02 -0.12991514181E+02  0.25759881368E+02  0.34501363180E+02  0.51100000000E-03 0.  1.
        -11    1    3    3    0    0 -0.20360208383E+01  0.44964283425E+00  0.13599323234E+01  0.24893725550E+01  0.51100000000E-03 0. -1.
         12    1    3    3    0    0 -0.22650493658E+01 -0.19802002938E+01  0.86429049299E+01  0.91515816918E+01  0.00000000000E+00 0. -1.
</event>
<event>
 7    1  0.1519238E-008  0.4614232E+02  0.7816164E-02  0.1320468E+00
        -11   -1    0    0    0    0  0.00000000000E+00  0.00000000000E+00  0.45593999997E+02  0.45594000000E+02  0.51100000000E-03 0.  1.
         11   -1    0    0    0    0 -0.00000000000E+00 -0.00000000000E+00 -0.45593999997E+02  0.45594000000E+02  0.51100000000E-03 0. -1.
    9900012    2    1    2    0    0  0.31520897062E+02  0.88565930662E+01 -0.30937150459E+02  0.46142317956E+02  0.10000001773E+02 0.  0.
        -12    1    1    2    0    0 -0.31520897062E+02 -0.88565930662E+01  0.30937150459E+02  0.45045682044E+02  0.00000000000E+00 0.  1.
         11    1    3    3    0    0  0.64659288165E+01  0.18509465654E+00 -0.11438127448E+02  0.13140519597E+02  0.51100000000E-03 0. -1.
        -11    1    3    3    0    0  0.82346280147E+01  0.19308710375E+01 -0.53079214100E+01  0.99855591461E+01  0.51100000000E-03 0.  1.
         12    1    3    3    0    0  0.16820340231E+02  0.67406273722E+01 -0.14191101601E+02  0.23016239213E+02  0.00000000000E+00 0. -1.
</event>
<event>
 7    1  0.1519238E-008  0.4614232E+02  0.7816164E-02  0.1320468E+00
        -11   -1    0    0    0    0  0.00000000000E+00  0.00000000000E+00  0.45593999997E+02  0.45594000000E+02  0.51100000000E-03 0.  1.
         11   -1    0    0    0    0 -0.00000000000E+00 -0.00000000000E+00 -0.45593999997E+02  0.45594000000E+02  0.51100000000E-03 0. -1.
    9900012    2    1    2    0    0  0.60229158124E+01  0.23231233446E+02 -0.38120175023E+02  0.46142318009E+02  0.10000002258E+02 0.  0.
        -12    1    1    2    0    0 -0.60229158124E+01 -0.23231233446E+02  0.38120175023E+02  0.45045681991E+02  0.00000000000E+00 0.  1.
         11    1    3    3    0    0 -0.10231052973E+01 -0.10850413583E+00 -0.12845690816E+01  0.16457932992E+01  0.51100000000E-03 0.  1.
        -11    1    3    3    0    0  0.56721106376E+01  0.20225332318E+02 -0.34416949432E+02  0.40320755387E+02  0.51100000000E-03 0. -1.
         12    1    3    3    0    0  0.13739104721E+01  0.31144052636E+01 -0.24186565085E+01  0.41757693228E+01  0.00000000000E+00 0. -1.
</event>
<event>
 7    1  0.1519238E-008  0.4614232E+02  0.7816164E-02  0.1320468E+00
        -11   -1    0    0    0    0  0.00000000000E+00  0.00000000000E+00  0.45593999997E+02  0.45594000000E+02  0.51100000000E-03 0.  1.
         11   -1    0    0    0    0 -0.00000000000E+00 -0.00000000000E+00 -0.45593999997E+02  0.45594000000E+02  0.51100000000E-03 0. -1.
    9900012    2    1    2    0    0  0.76149178963E+01  0.24739150675E+02 -0.36865989284E+02  0.46142315228E+02  0.99999769017E+01 0.  0.
        -12    1    1    2    0    0 -0.76149178963E+01 -0.24739150675E+02  0.36865989284E+02  0.45045684772E+02  0.00000000000E+00 0.  1.
         11    1    3    3    0    0  0.58481684532E+01  0.13347237022E+02 -0.25334263269E+02  0.29226267398E+02  0.51100000000E-03 0. -1.
        -11    1    3    3    0    0  0.10141314768E+01  0.59768342335E+01 -0.29527502182E+01  0.67431257010E+01  0.51100000000E-03 0.  1.
        -12    1    3    3    0    0  0.75261796636E+00  0.54150794199E+01 -0.85789757963E+01  0.10172922129E+02  0.00000000000E+00 0.  1.
</event>
<event>
 7    1  0.1519238E-008  0.4614232E+02  0.7816164E-02  0.1320468E+00
        -11   -1    0    0    0    0  0.00000000000E+00  0.00000000000E+00  0.45593999997E+02  0.45594000000E+02  0.51100000000E-03 0. -1.
         11   -1    0    0    0    0 -0.00000000000E+00 -0.00000000000E+00 -0.45593999997E+02  0.45594000000E+02  0.51100000000E-03 0.  1.
    9900012    2    1    2    0    0  0.22521822262E+02 -0.28538462068E+02  0.26597692315E+02  0.46142317281E+02  0.99999956191E+01 0.  0.
        -12    1    1    2    0    0 -0.22521822262E+02  0.28538462068E+02 -0.26597692315E+02  0.45045682719E+02  0.00000000000E+00 0.  1.
         11    1    3    3    0    0  0.14569259348E+02 -0.16391844148E+02  0.11306547223E+02  0.24673748862E+02  0.51100000000E-03 0. -1.
        -11    1    3    3    0    0  0.57085665906E+01 -0.10904248994E+02  0.11207878213E+02  0.16646528555E+02  0.51100000000E-03 0.  1.
        -12    1    3    3    0    0  0.22439963236E+01 -0.12423689256E+01  0.40832668782E+01  0.48220398636E+01  0.00000000000E+00 0.  1.
</event>
<event>
 7    1  0.1519238E-008  0.4614232E+02  0.7816164E-02  0.1320468E+00
        -11   -1    0    0    0    0  0.00000000000E+00  0.00000000000E+00  0.45593999997E+02  0.45594000000E+02  0.51100000000E-03 0. -1.
         11   -1    0    0    0    0 -0.00000000000E+00 -0.00000000000E+00 -0.45593999997E+02  0.45594000000E+02  0.51100000000E-03 0.  1.
    9900012    2    1    2    0    0 -0.40008636929E+02 -0.20675841178E+02 -0.96538750301E+00  0.46142318626E+02  0.10000007890E+02 0.  0.
        -12    1    1    2    0    0  0.40008636929E+02  0.20675841178E+02  0.96538750301E+00  0.45045681374E+02  0.00000000000E+00 0.  1.
         11    1    3    3    0    0 -0.44917232132E+01  0.37087835712E+00  0.66665162256E+00  0.45560457446E+01  0.51100000000E-03 0. -1.
        -11    1    3    3    0    0 -0.27464113555E+02 -0.16617824529E+02  0.68769934992E+00  0.32107671297E+02  0.51100000000E-03 0.  1.
        -12    1    3    3    0    0 -0.80528001610E+01 -0.44288950062E+01 -0.23197384755E+01  0.94786015848E+01  0.00000000000E+00 0.  1.
</event>
<event>
 7    1  0.1519238E-008  0.4614232E+02  0.7816164E-02  0.1320468E+00
        -11   -1    0    0    0    0  0.00000000000E+00  0.00000000000E+00  0.45593999997E+02  0.45594000000E+02  0.51100000000E-03 0. -1.
         11   -1    0    0    0    0 -0.00000000000E+00 -0.00000000000E+00 -0.45593999997E+02  0.45594000000E+02  0.51100000000E-03 0.  1.
    9900012    2    1    2    0    0 -0.38590070030E+02  0.14651397845E+02  0.18034868826E+02  0.46142318106E+02  0.10000003147E+02 0.  0.
        -12    1    1    2    0    0  0.38590070030E+02 -0.14651397845E+02 -0.18034868826E+02  0.45045681894E+02  0.00000000000E+00 0.  1.
         11    1    3    3    0    0 -0.10829321626E+02  0.32483784828E+01  0.29158879750E+01  0.11675982724E+02  0.51100000000E-03 0. -1.
        -11    1    3    3    0    0 -0.46673488251E+01  0.36981675566E+01  0.60450101194E+01  0.84854425893E+01  0.51100000000E-03 0.  1.
        -12    1    3    3    0    0 -0.23093399579E+02  0.77048518058E+01  0.90739707313E+01  0.25980892793E+02  0.00000000000E+00 0.  1.
</event>
<event>
 7    1  0.1519238E-008  0.4614232E+02  0.7816164E-02  0.1320468E+00
        -11   -1    0    0    0    0  0.00000000000E+00  0.00000000000E+00  0.45593999997E+02  0.45594000000E+02  0.51100000000E-03 0. -1.
         11   -1    0    0    0    0 -0.00000000000E+00 -0.00000000000E+00 -0.45593999997E+02  0.45594000000E+02  0.51100000000E-03 0.  1.
    9900012    2    1    2    0    0 -0.13166780376E+02  0.14623338753E+02  0.40520452440E+02  0.46142320876E+02  0.10000028406E+02 0.  0.
        -12    1    1    2    0    0  0.13166780376E+02 -0.14623338753E+02 -0.40520452440E+02  0.45045679124E+02  0.00000000000E+00 0.  1.
         11    1    3    3    0    0 -0.25326887660E+01  0.63309656323E+01  0.14740124202E+02  0.16240902068E+02  0.51100000000E-03 0. -1.
        -11    1    3    3    0    0 -0.64067251148E+01  0.80891769454E+00  0.12744349158E+02  0.14287018942E+02  0.51100000000E-03 0.  1.
        -12    1    3    3    0    0 -0.42273664954E+01  0.74834554259E+01  0.13035979080E+02  0.15614399866E+02  0.00000000000E+00 0.  1.
</event>
<event>
 7    1  0.1519238E-008  0.4614232E+02  0.7816164E-02  0.1320468E+00
        -11   -1    0    0    0    0  0.00000000000E+00  0.00000000000E+00  0.45593999997E+02  0.45594000000E+02  0.51100000000E-03 0.  1.
         11   -1    0    0    0    0 -0.00000000000E+00 -0.00000000000E+00 -0.45593999997E+02  0.45594000000E+02  0.51100000000E-03 0. -1.
    9900012    2    1    2    0    0  0.16431962166E+02 -0.11257704005E+02 -0.40402577164E+02  0.46142317393E+02  0.99999966419E+01 0.  0.
        -12    1    1    2    0    0 -0.16431962166E+02  0.11257704005E+02  0.40402577164E+02  0.45045682607E+02  0.00000000000E+00 0.  1.
         11    1    3    3    0    0  0.73863071263E+01 -0.43095960733E+01 -0.16882105550E+02  0.18924471970E+02  0.51100000000E-03 0. -1.
        -11    1    3    3    0    0  0.70610223385E+01 -0.70607580297E+01 -0.23128060775E+02  0.25191656076E+02  0.51100000000E-03 0.  1.
        -12    1    3    3    0    0  0.19846327010E+01  0.11265009769E+00 -0.39241083932E+00  0.20261893468E+01  0.00000000000E+00 0.  1.
</event>
<event>
 7    1  0.1519238E-008  0.4614232E+02  0.7816164E-02  0.1320468E+00
        -11   -1    0    0    0    0  0.00000000000E+00  0.00000000000E+00  0.45593999997E+02  0.45594000000E+02  0.51100000000E-03 0.  1.
         11   -1    0    0    0    0 -0.00000000000E+00 -0.00000000000E+00 -0.45593999997E+02  0.45594000000E+02  0.51100000000E-03 0. -1.
    9900012    2    1    2    0    0 -0.10086613225E+02  0.24196161519E+02 -0.36632220081E+02  0.46142317114E+02  0.99999941012E+01 0.  0.
        -12    1    1    2    0    0  0.10086613225E+02 -0.24196161519E+02  0.36632220081E+02  0.45045682886E+02  0.00000000000E+00 0.  1.
         11    1    3    3    0    0 -0.40855223089E+01  0.99178355452E+01 -0.84160847460E+01  0.13633980972E+02  0.51100000000E-03 0. -1.
        -11    1    3    3    0    0  0.69397086918E+00  0.16950822971E+01 -0.41817204287E+01  0.45652694955E+01  0.51100000000E-03 0.  1.
         12    1    3    3    0    0 -0.66950617854E+01  0.12583243676E+02 -0.24034414906E+02  0.27943066647E+02  0.00000000000E+00 0. -1.
</event>
<event>
 7    1  0.1519238E-008  0.4614232E+02  0.7816164E-02  0.1320468E+00
        -11   -1    0    0    0    0  0.00000000000E+00  0.00000000000E+00  0.45593999997E+02  0.45594000000E+02  0.51100000000E-03 0. -1.
         11   -1    0    0    0    0 -0.00000000000E+00 -0.00000000000E+00 -0.45593999997E+02  0.45594000000E+02  0.51100000000E-03 0.  1.
    9900012    2    1    2    0    0  0.50363074942E+01  0.49402142434E+01  0.44489812200E+02  0.46142317637E+02  0.99999988679E+01 0.  0.
        -12    1    1    2    0    0 -0.50363074942E+01 -0.49402142434E+01 -0.44489812200E+02  0.45045682363E+02  0.00000000000E+00 0.  1.
         11    1    3    3    0    0 -0.19421941688E+00  0.62877287220E+00  0.14352411565E+02  0.14367490891E+02  0.51100000000E-03 0. -1.
        -11    1    3    3    0    0  0.22310009485E+01 -0.18002951337E+00  0.21302975626E+02  0.21420236848E+02  0.51100000000E-03 0.  1.
        -12    1    3    3    0    0  0.29995259626E+01  0.44914708845E+01  0.88344250090E+01  0.10354589898E+02  0.00000000000E+00 0.  1.
</event>
<event>
 7    1  0.1519238E-008  0.4614232E+02  0.7816164E-02  0.1320468E+00
        -11   -1    0    0    0    0  0.00000000000E+00  0.00000000000E+00  0.45593999997E+02  0.45594000000E+02  0.51100000000E-03 0.  1.
         11   -1    0    0    0    0 -0.00000000000E+00 -0.00000000000E+00 -0.45593999997E+02  0.45594000000E+02  0.51100000000E-03 0. -1.
    9900012    2    1    2    0    0 -0.40702240516E+02  0.11111557995E+02 -0.15778921146E+02  0.46142318113E+02  0.10000003212E+02 0.  0.
        -12    1    1    2    0    0  0.40702240516E+02 -0.11111557995E+02  0.15778921146E+02  0.45045681887E+02  0.00000000000E+00 0.  1.
         11    1    3    3    0    0 -0.30775995131E+02  0.10132361301E+02 -0.88502979314E+01  0.33588009699E+02  0.51100000000E-03 0. -1.
        -11    1    3    3    0    0 -0.71834388423E+01  0.20870107183E+01 -0.45232781690E+01  0.87417076704E+01  0.51100000000E-03 0.  1.
         12    1    3    3    0    0 -0.27428065430E+01 -0.11078140239E+01 -0.24053450452E+01  0.38126007436E+01  0.00000000000E+00 0. -1.
</event>
<event>
 7    1  0.1519238E-008  0.4614232E+02  0.7816164E-02  0.1320468E+00
        -11   -1    0    0    0    0  0.00000000000E+00  0.00000000000E+00  0.45593999997E+02  0.45594000000E+02  0.51100000000E-03 0.  1.
         11   -1    0    0    0    0 -0.00000000000E+00 -0.00000000000E+00 -0.45593999997E+02  0.45594000000E+02  0.51100000000E-03 0. -1.
    9900012    2    1    2    0    0  0.19882754793E+02  0.38968877026E+02 -0.10733880554E+02  0.46142317559E+02  0.99999981576E+01 0.  0.
        -12    1    1    2    0    0 -0.19882754793E+02 -0.38968877026E+02  0.10733880554E+02  0.45045682441E+02  0.00000000000E+00 0.  1.
         11    1    3    3    0    0  0.15102869769E+02  0.25372689926E+02 -0.44539068746E+01  0.29861469422E+02  0.51100000000E-03 0. -1.
        -11    1    3    3    0    0  0.45363760748E+00  0.26429466768E+01 -0.30665102704E+01  0.40736273412E+01  0.51100000000E-03 0.  1.
        -12    1    3    3    0    0  0.43262474166E+01  0.10953240424E+02 -0.32134634086E+01  0.12207220796E+02  0.00000000000E+00 0.  1.
</event>
<event>
 7    1  0.1519238E-008  0.4614232E+02  0.7816164E-02  0.1320468E+00
        -11   -1    0    0    0    0  0.00000000000E+00  0.00000000000E+00  0.45593999997E+02  0.45594000000E+02  0.51100000000E-03 0. -1.
         11   -1    0    0    0    0 -0.00000000000E+00 -0.00000000000E+00 -0.45593999997E+02  0.45594000000E+02  0.51100000000E-03 0.  1.
    9900012    2    1    2    0    0  0.32434350761E+02  0.27892141380E+02  0.14112224200E+02  0.46142317277E+02  0.99999955882E+01 0.  0.
        -12    1    1    2    0    0 -0.32434350761E+02 -0.27892141380E+02 -0.14112224200E+02  0.45045682723E+02  0.00000000000E+00 0.  1.
         11    1    3    3    0    0  0.23218060666E+02  0.20522117463E+02  0.10755908850E+02  0.32801299086E+02  0.51100000000E-03 0. -1.
        -11    1    3    3    0    0  0.42570330072E+01  0.30727625642E+01 -0.11576928837E+01  0.53762861600E+01  0.51100000000E-03 0.  1.
        -12    1    3    3    0    0  0.49592570876E+01  0.42972613528E+01  0.45140082334E+01  0.79647320311E+01  0.00000000000E+00 0.  1.
</event>
<event>
 7    1  0.1519238E-008  0.4614232E+02  0.7816164E-02  0.1320468E+00
        -11   -1    0    0    0    0  0.00000000000E+00  0.00000000000E+00  0.45593999997E+02  0.45594000000E+02  0.51100000000E-03 0.  1.
         11   -1    0    0    0    0 -0.00000000000E+00 -0.00000000000E+00 -0.45593999997E+02  0.45594000000E+02  0.51100000000E-03 0. -1.
    9900012    2    1    2    0    0  0.13682062719E+02 -0.39142874184E+02  0.17599718022E+02  0.46142317476E+02  0.99999973986E+01 0.  0.
        -12    1    1    2    0    0 -0.13682062719E+02  0.39142874184E+02 -0.17599718022E+02  0.45045682524E+02  0.00000000000E+00 0.  1.
         11    1    3    3    0    0  0.54685257590E+01 -0.80421811081E+01  0.56170420639E+01  0.11230877649E+02  0.51100000000E-03 0. -1.
        -11    1    3    3    0    0  0.48434761945E+01 -0.26329616029E+02  0.83968894682E+01  0.28057364360E+02  0.51100000000E-03 0.  1.
        -12    1    3    3    0    0  0.33700607650E+01 -0.47710770475E+01  0.35857864895E+01  0.68540754666E+01  0.00000000000E+00 0.  1.
</event>
<event>
 7    1  0.1519238E-008  0.4614232E+02  0.7816164E-02  0.1320468E+00
        -11   -1    0    0    0    0  0.00000000000E+00  0.00000000000E+00  0.45593999997E+02  0.45594000000E+02  0.51100000000E-03 0.  1.
         11   -1    0    0    0    0 -0.00000000000E+00 -0.00000000000E+00 -0.45593999997E+02  0.45594000000E+02  0.51100000000E-03 0. -1.
    9900012    2    1    2    0    0  0.34671226905E+02  0.25426749785E+02 -0.13435033079E+02  0.46142315484E+02  0.99999792310E+01 0.  0.
        -12    1    1    2    0    0 -0.34671226905E+02 -0.25426749785E+02  0.13435033079E+02  0.45045684516E+02  0.00000000000E+00 0.  1.
         11    1    3    3    0    0  0.17231627455E+02  0.84318192815E+01 -0.61345784405E+01  0.20140943723E+02  0.51100000000E-03 0. -1.
        -11    1    3    3    0    0  0.78481536723E+01  0.64078021316E+01 -0.40851319468E+00  0.10140035873E+02  0.51100000000E-03 0.  1.
         12    1    3    3    0    0  0.95914457782E+01  0.10587128372E+02 -0.68919414438E+01  0.15861335888E+02  0.00000000000E+00 0. -1.
</event>
<event>
 7    1  0.1519238E-008  0.4614232E+02  0.7816164E-02  0.1320468E+00
        -11   -1    0    0    0    0  0.00000000000E+00  0.00000000000E+00  0.45593999997E+02  0.45594000000E+02  0.51100000000E-03 0.  1.
         11   -1    0    0    0    0 -0.00000000000E+00 -0.00000000000E+00 -0.45593999997E+02  0.45594000000E+02  0.51100000000E-03 0. -1.
    9900012    2    1    2    0    0 -0.11195553932E+02 -0.37800155565E+02 -0.21792688258E+02  0.46142318186E+02  0.10000003873E+02 0.  0.
        -12    1    1    2    0    0  0.11195553932E+02  0.37800155565E+02  0.21792688258E+02  0.45045681814E+02  0.00000000000E+00 0.  1.
         11    1    3    3    0    0  0.14299292071E+00 -0.54311125527E+01 -0.36957818290E+01  0.65708625099E+01  0.51100000000E-03 0. -1.
        -11    1    3    3    0    0 -0.39353273987E+01 -0.31943800820E+01 -0.21138168276E+01  0.54917290251E+01  0.51100000000E-03 0.  1.
        -12    1    3    3    0    0 -0.74032194542E+01 -0.29174662931E+02 -0.15983089601E+02  0.34079726651E+02  0.00000000000E+00 0.  1.
</event>
<event>
 7    1  0.1519238E-008  0.4614232E+02  0.7816164E-02  0.1320468E+00
        -11   -1    0    0    0    0  0.00000000000E+00  0.00000000000E+00  0.45593999997E+02  0.45594000000E+02  0.51100000000E-03 0.  1.
         11   -1    0    0    0    0 -0.00000000000E+00 -0.00000000000E+00 -0.45593999997E+02  0.45594000000E+02  0.51100000000E-03 0. -1.
    9900012    2    1    2    0    0  0.19261545980E+02  0.45035181095E+01 -0.40470046796E+02  0.46142317448E+02  0.99999971429E+01 0.  0.
        -12    1    1    2    0    0 -0.19261545980E+02 -0.45035181095E+01  0.40470046796E+02  0.45045682552E+02  0.00000000000E+00 0.  1.
         11    1    3    3    0    0  0.33108789419E+01 -0.11889518141E+01 -0.59348684736E+01  0.68991441385E+01  0.51100000000E-03 0. -1.
        -11    1    3    3    0    0  0.14694612024E+02  0.53116298515E+01 -0.24075563555E+02  0.28701529488E+02  0.51100000000E-03 0.  1.
        -12    1    3    3    0    0  0.12560550140E+01  0.38084007213E+00 -0.10459614768E+02  0.10541643821E+02  0.00000000000E+00 0.  1.
</event>
<event>
 7    1  0.1519238E-008  0.4614232E+02  0.7816164E-02  0.1320468E+00
        -11   -1    0    0    0    0  0.00000000000E+00  0.00000000000E+00  0.45593999997E+02  0.45594000000E+02  0.51100000000E-03 0.  1.
         11   -1    0    0    0    0 -0.00000000000E+00 -0.00000000000E+00 -0.45593999997E+02  0.45594000000E+02  0.51100000000E-03 0. -1.
    9900012    2    1    2    0    0 -0.28983041107E+02 -0.34256373883E+02  0.39493865383E+01  0.46142317882E+02  0.10000001102E+02 0.  0.
        -12    1    1    2    0    0  0.28983041107E+02  0.34256373883E+02 -0.39493865383E+01  0.45045682118E+02  0.00000000000E+00 0.  1.
         11    1    3    3    0    0  0.45484530010E+00 -0.46547232466E+00 -0.11206818651E+00  0.66038494198E+00  0.51100000000E-03 0. -1.
        -11    1    3    3    0    0 -0.75180699026E+00 -0.16543054432E+01  0.14514638971E+01  0.23256586068E+01  0.51100000000E-03 0.  1.
         12    1    3    3    0    0 -0.28686079417E+02 -0.32136596116E+02  0.26099908278E+01  0.43156274333E+02  0.00000000000E+00 0. -1.
</event>
<event>
 7    1  0.1519238E-008  0.4614232E+02  0.7816164E-02  0.1320468E+00
        -11   -1    0    0    0    0  0.00000000000E+00  0.00000000000E+00  0.45593999997E+02  0.45594000000E+02  0.51100000000E-03 0.  1.
         11   -1    0    0    0    0 -0.00000000000E+00 -0.00000000000E+00 -0.45593999997E+02  0.45594000000E+02  0.51100000000E-03 0. -1.
    9900012    2    1    2    0    0  0.52503743995E+01 -0.42750504255E+02 -0.13188690300E+02  0.46142316552E+02  0.99999889780E+01 0.  0.
        -12    1    1    2    0    0 -0.52503743995E+01  0.42750504255E+02  0.13188690300E+02  0.45045683448E+02  0.00000000000E+00 0.  1.
         11    1    3    3    0    0  0.46236308292E+01 -0.27018647289E+02 -0.83678483460E+01  0.28660184046E+02  0.51100000000E-03 0. -1.
        -11    1    3    3    0    0 -0.64738673768E+00 -0.58055286207E+01  0.96732780495E+00  0.59210637133E+01  0.51100000000E-03 0.  1.
         12    1    3    3    0    0  0.12741303079E+01 -0.99263283459E+01 -0.57881697590E+01  0.11561068793E+02  0.00000000000E+00 0. -1.
</event>
<event>
 7    1  0.1519238E-008  0.4614232E+02  0.7816164E-02  0.1320468E+00
        -11   -1    0    0    0    0  0.00000000000E+00  0.00000000000E+00  0.45593999997E+02  0.45594000000E+02  0.51100000000E-03 0. -1.
         11   -1    0    0    0    0 -0.00000000000E+00 -0.00000000000E+00 -0.45593999997E+02  0.45594000000E+02  0.51100000000E-03 0.  1.
    9900012    2    1    2    0    0  0.10684671729E+02  0.43319928601E+02  0.61915134458E+01  0.46142320265E+02  0.10000022837E+02 0.  0.
        -12    1    1    2    0    0 -0.10684671729E+02 -0.43319928601E+02 -0.61915134458E+01  0.45045679735E+02  0.00000000000E+00 0.  1.
         11    1    3    3    0    0  0.57664604478E+01  0.27467619618E+02  0.40491246009E+01  0.28356967466E+02  0.51100000000E-03 0. -1.
        -11    1    3    3    0    0  0.52905143103E+01  0.13350788992E+02  0.36809349887E+01  0.14825059562E+02  0.51100000000E-03 0.  1.
         12    1    3    3    0    0 -0.37230302870E+00  0.25015199914E+01 -0.15385461438E+01  0.29602932370E+01  0.00000000000E+00 0. -1.
</event>
<event>
 7    1  0.1519238E-008  0.4614232E+02  0.7816164E-02  0.1320468E+00
        -11   -1    0    0    0    0  0.00000000000E+00  0.00000000000E+00  0.45593999997E+02  0.45594000000E+02  0.51100000000E-03 0.  1.
         11   -1    0    0    0    0 -0.00000000000E+00 -0.00000000000E+00 -0.45593999997E+02  0.45594000000E+02  0.51100000000E-03 0. -1.
    9900012    2    1    2    0    0  0.24818653610E+02  0.15714710842E+02 -0.34149607955E+02  0.46142318438E+02  0.10000006176E+02 0.  0.
        -12    1    1    2    0    0 -0.24818653610E+02 -0.15714710842E+02  0.34149607955E+02  0.45045681562E+02  0.00000000000E+00 0.  1.
         11    1    3    3    0    0  0.94909980355E+01  0.46930863507E+01 -0.11430779746E+02  0.15580976512E+02  0.51100000000E-03 0. -1.
        -11    1    3    3    0    0  0.45031627974E+01  0.77602821496E+01 -0.81539460470E+01  0.12123831516E+02  0.51100000000E-03 0.  1.
        -12    1    3    3    0    0  0.10824492777E+02  0.32613423420E+01 -0.14564882162E+02  0.18437510411E+02  0.00000000000E+00 0.  1.
</event>
<event>
 7    1  0.1519238E-008  0.4614232E+02  0.7816164E-02  0.1320468E+00
        -11   -1    0    0    0    0  0.00000000000E+00  0.00000000000E+00  0.45593999997E+02  0.45594000000E+02  0.51100000000E-03 0.  1.
         11   -1    0    0    0    0 -0.00000000000E+00 -0.00000000000E+00 -0.45593999997E+02  0.45594000000E+02  0.51100000000E-03 0. -1.
    9900012    2    1    2    0    0 -0.15499021956E+02 -0.34963249474E+02 -0.23800525295E+02  0.46142317635E+02  0.99999988537E+01 0.  0.
        -12    1    1    2    0    0  0.15499021956E+02  0.34963249474E+02  0.23800525295E+02  0.45045682365E+02  0.00000000000E+00 0.  1.
         11    1    3    3    0    0 -0.28443032858E+01 -0.63443100530E+01 -0.57356986877E+01  0.90132441955E+01  0.51100000000E-03 0. -1.
        -11    1    3    3    0    0 -0.29669282935E+01 -0.19486229015E+01 -0.43460069815E+01  0.56113787660E+01  0.51100000000E-03 0.  1.
        -12    1    3    3    0    0 -0.96877903768E+01 -0.26670316519E+02 -0.13718819626E+02  0.31517694674E+02  0.00000000000E+00 0.  1.
</event>
<event>
 7    1  0.1519238E-008  0.4614232E+02  0.7816164E-02  0.1320468E+00
        -11   -1    0    0    0    0  0.00000000000E+00  0.00000000000E+00  0.45593999997E+02  0.45594000000E+02  0.51100000000E-03 0.  1.
         11   -1    0    0    0    0 -0.00000000000E+00 -0.00000000000E+00 -0.45593999997E+02  0.45594000000E+02  0.51100000000E-03 0. -1.
    9900012    2    1    2    0    0  0.12372992611E+01 -0.29459122904E+02 -0.34054994828E+02  0.46142317582E+02  0.99999983662E+01 0.  0.
        -12    1    1    2    0    0 -0.12372992611E+01  0.29459122904E+02  0.34054994828E+02  0.45045682418E+02  0.00000000000E+00 0.  1.
         11    1    3    3    0    0 -0.28918165041E+01 -0.14325808535E+02 -0.17649051849E+02  0.22914633410E+02  0.51100000000E-03 0. -1.
        -11    1    3    3    0    0  0.23698583379E+01 -0.22623145858E+01 -0.47756891168E+01  0.57915026227E+01  0.51100000000E-03 0.  1.
         12    1    3    3    0    0  0.17592574272E+01 -0.12870999783E+02 -0.11630253862E+02  0.17436181549E+02  0.00000000000E+00 0. -1.
</event>
<event>
 7    1  0.1519238E-008  0.4614232E+02  0.7816164E-02  0.1320468E+00
        -11   -1    0    0    0    0  0.00000000000E+00  0.00000000000E+00  0.45593999997E+02  0.45594000000E+02  0.51100000000E-03 0.  1.
         11   -1    0    0    0    0 -0.00000000000E+00 -0.00000000000E+00 -0.45593999997E+02  0.45594000000E+02  0.51100000000E-03 0. -1.
    9900012    2    1    2    0    0  0.42713697912E+01 -0.44652349318E+02  0.41275337899E+01  0.46142318357E+02  0.10000005431E+02 0.  0.
        -12    1    1    2    0    0 -0.42713697912E+01  0.44652349318E+02 -0.41275337899E+01  0.45045681643E+02  0.00000000000E+00 0.  1.
         11    1    3    3    0    0  0.18770644694E+01 -0.16640093937E+02  0.18495832548E+01  0.16847464371E+02  0.51100000000E-03 0. -1.
        -11    1    3    3    0    0  0.13110659254E+01 -0.14359618581E+02 -0.27991489521E+01  0.14688525275E+02  0.51100000000E-03 0.  1.
        -12    1    3    3    0    0  0.10832393963E+01 -0.13652636800E+02  0.50770994872E+01  0.14606328710E+02  0.00000000000E+00 0.  1.
</event>
<event>
 7    1  0.1519238E-008  0.4614232E+02  0.7816164E-02  0.1320468E+00
        -11   -1    0    0    0    0  0.00000000000E+00  0.00000000000E+00  0.45593999997E+02  0.45594000000E+02  0.51100000000E-03 0.  1.
         11   -1    0    0    0    0 -0.00000000000E+00 -0.00000000000E+00 -0.45593999997E+02  0.45594000000E+02  0.51100000000E-03 0. -1.
    9900012    2    1    2    0    0  0.12148309892E+02  0.70617267408E+01 -0.42797943687E+02  0.46142318724E+02  0.10000008778E+02 0.  0.
        -12    1    1    2    0    0 -0.12148309892E+02 -0.70617267408E+01  0.42797943687E+02  0.45045681276E+02  0.00000000000E+00 0.  1.
         11    1    3    3    0    0  0.69083050615E+01 -0.66129672088E+00 -0.13853446514E+02  0.15494514280E+02  0.51100000000E-03 0. -1.
        -11    1    3    3    0    0  0.25082778388E+01  0.50579945200E+01 -0.22115473592E+02  0.22824744002E+02  0.51100000000E-03 0.  1.
         12    1    3    3    0    0  0.27317269915E+01  0.26650289416E+01 -0.68290235805E+01  0.78230604420E+01  0.00000000000E+00 0. -1.
</event>
<event>
 7    1  0.1519238E-008  0.4614232E+02  0.7816164E-02  0.1320468E+00
        -11   -1    0    0    0    0  0.00000000000E+00  0.00000000000E+00  0.45593999997E+02  0.45594000000E+02  0.51100000000E-03 0.  1.
         11   -1    0    0    0    0 -0.00000000000E+00 -0.00000000000E+00 -0.45593999997E+02  0.45594000000E+02  0.51100000000E-03 0. -1.
    9900012    2    1    2    0    0  0.23567287860E+02  0.18197426296E+02 -0.33801631017E+02  0.46142316074E+02  0.99999846195E+01 0.  0.
        -12    1    1    2    0    0 -0.23567287860E+02 -0.18197426296E+02  0.33801631017E+02  0.45045683926E+02  0.00000000000E+00 0.  1.
         11    1    3    3    0    0  0.86590925049E+01  0.65513127934E+01 -0.15119336749E+02  0.18614347325E+02  0.51100000000E-03 0. -1.
        -11    1    3    3    0    0  0.91176866266E+01  0.53755365007E+01 -0.57848141054E+01  0.12062034513E+02  0.51100000000E-03 0.  1.
        -12    1    3    3    0    0  0.57905087286E+01  0.62705770023E+01 -0.12897480163E+02  0.15465934237E+02  0.00000000000E+00 0.  1.
</event>
<event>
 7    1  0.1519238E-008  0.4614232E+02  0.7816164E-02  0.1320468E+00
        -11   -1    0    0    0    0  0.00000000000E+00  0.00000000000E+00  0.45593999997E+02  0.45594000000E+02  0.51100000000E-03 0. -1.
         11   -1    0    0    0    0 -0.00000000000E+00 -0.00000000000E+00 -0.45593999997E+02  0.45594000000E+02  0.51100000000E-03 0.  1.
    9900012    2    1    2    0    0 -0.23819383300E+02 -0.38146327064E+02 -0.25706480905E+01  0.46142317400E+02  0.99999967113E+01 0.  0.
        -12    1    1    2    0    0  0.23819383300E+02  0.38146327064E+02  0.25706480905E+01  0.45045682600E+02  0.00000000000E+00 0.  1.
         11    1    3    3    0    0 -0.79266055765E+01 -0.98359198435E+01  0.15417533847E+01  0.12726091265E+02  0.51100000000E-03 0. -1.
        -11    1    3    3    0    0 -0.77325581946E+01 -0.79695956864E+01  0.67574155960E-01  0.11104570148E+02  0.51100000000E-03 0.  1.
        -12    1    3    3    0    0 -0.81602195284E+01 -0.20340811534E+02 -0.41799756312E+01  0.22311655987E+02  0.00000000000E+00 0.  1.
</event>
<event>
 7    1  0.1519238E-008  0.4614232E+02  0.7816164E-02  0.1320468E+00
        -11   -1    0    0    0    0  0.00000000000E+00  0.00000000000E+00  0.45593999997E+02  0.45594000000E+02  0.51100000000E-03 0. -1.
         11   -1    0    0    0    0 -0.00000000000E+00 -0.00000000000E+00 -0.45593999997E+02  0.45594000000E+02  0.51100000000E-03 0.  1.
    9900012    2    1    2    0    0  0.19297202450E+02  0.25406074584E+02  0.31800360095E+02  0.46142317073E+02  0.99999937248E+01 0.  0.
        -12    1    1    2    0    0 -0.19297202450E+02 -0.25406074584E+02 -0.31800360095E+02  0.45045682927E+02  0.00000000000E+00 0.  1.
         11    1    3    3    0    0  0.59885498320E+01  0.63025843373E+01  0.99479624692E+01  0.13211633357E+02  0.51100000000E-03 0. -1.
        -11    1    3    3    0    0  0.75041654247E+01  0.16714002130E+02  0.17046966652E+02  0.25025375885E+02  0.51100000000E-03 0.  1.
        -12    1    3    3    0    0  0.58044871938E+01  0.23894881168E+01  0.48054309745E+01  0.79053078304E+01  0.00000000000E+00 0.  1.
</event>
<event>
 7    1  0.1519238E-008  0.4614232E+02  0.7816164E-02  0.1320468E+00
        -11   -1    0    0    0    0  0.00000000000E+00  0.00000000000E+00  0.45593999997E+02  0.45594000000E+02  0.51100000000E-03 0.  1.
         11   -1    0    0    0    0 -0.00000000000E+00 -0.00000000000E+00 -0.45593999997E+02  0.45594000000E+02  0.51100000000E-03 0. -1.
    9900012    2    1    2    0    0 -0.13376345350E+02 -0.41671071030E+02 -0.10663422100E+02  0.46142319335E+02  0.10000014349E+02 0.  0.
        -12    1    1    2    0    0  0.13376345350E+02  0.41671071030E+02  0.10663422100E+02  0.45045680665E+02  0.00000000000E+00 0.  1.
         11    1    3    3    0    0 -0.94769613664E+01 -0.25115840352E+02 -0.81072865436E+01  0.28041867425E+02  0.51100000000E-03 0. -1.
        -11    1    3    3    0    0 -0.57448973085E+00 -0.93230670209E+01 -0.37233320109E+01  0.10055486992E+02  0.51100000000E-03 0.  1.
         12    1    3    3    0    0 -0.33248942530E+01 -0.72321636575E+01  0.11671964544E+01  0.80449649176E+01  0.00000000000E+00 0. -1.
</event>
<event>
 7    1  0.1519238E-008  0.4614232E+02  0.7816164E-02  0.1320468E+00
        -11   -1    0    0    0    0  0.00000000000E+00  0.00000000000E+00  0.45593999997E+02  0.45594000000E+02  0.51100000000E-03 0.  1.
         11   -1    0    0    0    0 -0.00000000000E+00 -0.00000000000E+00 -0.45593999997E+02  0.45594000000E+02  0.51100000000E-03 0. -1.
    9900012    2    1    2    0    0 -0.21673475520E+02 -0.20080780377E+02 -0.34002001984E+02  0.46142318513E+02  0.10000006860E+02 0.  0.
        -12    1    1    2    0    0  0.21673475520E+02  0.20080780377E+02  0.34002001984E+02  0.45045681487E+02  0.00000000000E+00 0.  1.
         11    1    3    3    0    0 -0.10920869395E+02 -0.53113189483E+01 -0.13769314819E+02  0.18359453373E+02  0.51100000000E-03 0. -1.
        -11    1    3    3    0    0 -0.61888608716E+01 -0.64276516395E+01 -0.13297794734E+02  0.16013995427E+02  0.51100000000E-03 0.  1.
        -12    1    3    3    0    0 -0.45637452532E+01 -0.83418097894E+01 -0.69348924312E+01  0.11768869713E+02  0.00000000000E+00 0.  1.
</event>
<event>
 7    1  0.1519238E-008  0.4614231E+02  0.7816164E-02  0.1320468E+00
        -11   -1    0    0    0    0  0.00000000000E+00  0.00000000000E+00  0.45593999997E+02  0.45594000000E+02  0.51100000000E-03 0.  1.
         11   -1    0    0    0    0 -0.00000000000E+00 -0.00000000000E+00 -0.45593999997E+02  0.45594000000E+02  0.51100000000E-03 0. -1.
    9900012    2    1    2    0    0  0.41640544812E+02 -0.78591177841E+01 -0.15277878819E+02  0.46142308909E+02  0.99999192823E+01 0.  0.
        -12    1    1    2    0    0 -0.41640544812E+02  0.78591177841E+01  0.15277878819E+02  0.45045691091E+02  0.00000000000E+00 0.  1.
         11    1    3    3    0    0  0.14818466540E+02 -0.18324782972E+01 -0.75173119936E+01  0.16716904833E+02  0.51100000000E-03 0. -1.
        -11    1    3    3    0    0  0.45023918067E+01 -0.36267841902E+01 -0.28522337367E+01  0.64467304188E+01  0.51100000000E-03 0.  1.
         12    1    3    3    0    0  0.22319686466E+02 -0.23998552967E+01 -0.49083330890E+01  0.22978673658E+02  0.00000000000E+00 0. -1.
</event>
<event>
 7    1  0.1519238E-008  0.4614232E+02  0.7816164E-02  0.1320468E+00
        -11   -1    0    0    0    0  0.00000000000E+00  0.00000000000E+00  0.45593999997E+02  0.45594000000E+02  0.51100000000E-03 0.  1.
         11   -1    0    0    0    0 -0.00000000000E+00 -0.00000000000E+00 -0.45593999997E+02  0.45594000000E+02  0.51100000000E-03 0. -1.
    9900012    2    1    2    0    0  0.25940081128E+02 -0.18055912926E+02 -0.32096877342E+02  0.46142319456E+02  0.10000015454E+02 0.  0.
        -12    1    1    2    0    0 -0.25940081128E+02  0.18055912926E+02  0.32096877342E+02  0.45045680544E+02  0.00000000000E+00 0.  1.
         11    1    3    3    0    0  0.17243825058E+02 -0.10411614345E+02 -0.16664652833E+02  0.26143103684E+02  0.51100000000E-03 0. -1.
        -11    1    3    3    0    0  0.10555344227E+01 -0.37903515773E+01 -0.67196622615E+01  0.77868337061E+01  0.51100000000E-03 0.  1.
         12    1    3    3    0    0  0.76407216474E+01 -0.38539470040E+01 -0.87125622477E+01  0.12212382066E+02  0.00000000000E+00 0. -1.
</event>
<event>
 7    1  0.1519238E-008  0.4614232E+02  0.7816164E-02  0.1320468E+00
        -11   -1    0    0    0    0  0.00000000000E+00  0.00000000000E+00  0.45593999997E+02  0.45594000000E+02  0.51100000000E-03 0.  1.
         11   -1    0    0    0    0 -0.00000000000E+00 -0.00000000000E+00 -0.45593999997E+02  0.45594000000E+02  0.51100000000E-03 0. -1.
    9900012    2    1    2    0    0 -0.24019187734E+01 -0.44981577317E+02  0.45266348902E-01  0.46142316957E+02  0.99999926717E+01 0.  0.
        -12    1    1    2    0    0  0.24019187734E+01  0.44981577317E+02 -0.45266348902E-01  0.45045683043E+02  0.00000000000E+00 0.  1.
         11    1    3    3    0    0 -0.16033867856E+01 -0.25889507611E+02  0.12146399795E+01  0.25967533654E+02  0.51100000000E-03 0. -1.
        -11    1    3    3    0    0 -0.14443812069E+01 -0.12396921738E+01 -0.13091443698E+01  0.23101802958E+01  0.51100000000E-03 0.  1.
         12    1    3    3    0    0  0.64584921911E+00 -0.17852377532E+02  0.13977073923E+00  0.17864603008E+02  0.00000000000E+00 0. -1.
</event>
<event>
 7    1  0.1519238E-008  0.4614232E+02  0.7816164E-02  0.1320468E+00
        -11   -1    0    0    0    0  0.00000000000E+00  0.00000000000E+00  0.45593999997E+02  0.45594000000E+02  0.51100000000E-03 0.  1.
         11   -1    0    0    0    0 -0.00000000000E+00 -0.00000000000E+00 -0.45593999997E+02  0.45594000000E+02  0.51100000000E-03 0. -1.
    9900012    2    1    2    0    0 -0.41446057837E+02  0.14263319696E+02 -0.10387276110E+02  0.46142317588E+02  0.99999984180E+01 0.  0.
        -12    1    1    2    0    0  0.41446057837E+02 -0.14263319696E+02  0.10387276110E+02  0.45045682412E+02  0.00000000000E+00 0.  1.
         11    1    3    3    0    0 -0.28797563846E+02  0.62659361434E+01 -0.94030913066E+01  0.30935089552E+02  0.51100000000E-03 0. -1.
        -11    1    3    3    0    0 -0.67006696920E+01  0.37854343129E+01  0.69758985221E+00  0.77275558310E+01  0.51100000000E-03 0.  1.
         12    1    3    3    0    0 -0.59478242991E+01  0.42119492394E+01 -0.16817746559E+01  0.74796722041E+01  0.00000000000E+00 0. -1.
</event>
<event>
 7    1  0.1519238E-008  0.4614232E+02  0.7816164E-02  0.1320468E+00
        -11   -1    0    0    0    0  0.00000000000E+00  0.00000000000E+00  0.45593999997E+02  0.45594000000E+02  0.51100000000E-03 0.  1.
         11   -1    0    0    0    0 -0.00000000000E+00 -0.00000000000E+00 -0.45593999997E+02  0.45594000000E+02  0.51100000000E-03 0. -1.
    9900012    2    1    2    0    0 -0.34598946491E+02 -0.88977538134E+01 -0.27438228570E+02  0.46142317540E+02  0.99999979846E+01 0.  0.
        -12    1    1    2    0    0  0.34598946491E+02  0.88977538134E+01  0.27438228570E+02  0.45045682460E+02  0.00000000000E+00 0.  1.
         11    1    3    3    0    0 -0.11354239302E+02 -0.12033032786E+01 -0.64664139984E+01  0.13121783384E+02  0.51100000000E-03 0. -1.
        -11    1    3    3    0    0 -0.13020565085E+02 -0.77586020170E+01 -0.10905736921E+02  0.18672603419E+02  0.51100000000E-03 0.  1.
        -12    1    3    3    0    0 -0.10224142104E+02  0.64151482218E-01 -0.10066077651E+02  0.14347930737E+02  0.00000000000E+00 0.  1.
</event>
<event>
 7    1  0.1523346E-008  0.4614232E+02  0.7816164E-02  0.1320468E+00
        -11   -1    0    0    0    0  0.00000000000E+00  0.00000000000E+00  0.45593999997E+02  0.45594000000E+02  0.51100000000E-03 0. -1.
         11   -1    0    0    0    0 -0.00000000000E+00 -0.00000000000E+00 -0.45593999997E+02  0.45594000000E+02  0.51100000000E-03 0.  1.
    9900012    2    1    2    0    0 -0.14248639517E+02  0.15556534024E+02  0.39800552151E+02  0.46142318404E+02  0.10000005860E+02 0.  0.
        -12    1    1    2    0    0  0.14248639517E+02 -0.15556534024E+02 -0.39800552151E+02  0.45045681596E+02  0.00000000000E+00 0.  1.
         11    1    3    3    0    0 -0.62745534922E+01  0.38134357780E+01  0.14768878196E+02  0.16493394963E+02  0.51100000000E-03 0. -1.
        -11    1    3    3    0    0  0.53279748643E+00  0.48025242845E+01  0.90544118331E+01  0.10263064190E+02  0.51100000000E-03 0.  1.
        -12    1    3    3    0    0 -0.85068835111E+01  0.69405739614E+01  0.15977262122E+02  0.19385859251E+02  0.00000000000E+00 0.  1.
</event>
<event>
 7    1  0.1519238E-008  0.4614232E+02  0.7816164E-02  0.1320468E+00
        -11   -1    0    0    0    0  0.00000000000E+00  0.00000000000E+00  0.45593999997E+02  0.45594000000E+02  0.51100000000E-03 0.  1.
         11   -1    0    0    0    0 -0.00000000000E+00 -0.00000000000E+00 -0.45593999997E+02  0.45594000000E+02  0.51100000000E-03 0. -1.
    9900012    2    1    2    0    0 -0.57884356867E+01 -0.44400767820E+02 -0.49172254650E+01  0.46142320108E+02  0.10000021398E+02 0.  0.
        -12    1    1    2    0    0  0.57884356867E+01  0.44400767820E+02  0.49172254650E+01  0.45045679892E+02  0.00000000000E+00 0.  1.
         11    1    3    3    0    0 -0.30758965533E+01 -0.81200436631E+01 -0.25515114454E+01  0.90502187605E+01  0.51100000000E-03 0. -1.
        -11    1    3    3    0    0 -0.23743380104E+01 -0.16722683306E+02  0.21213466478E+01  0.17023094013E+02  0.51100000000E-03 0.  1.
        -12    1    3    3    0    0 -0.33820112297E+00 -0.19558040851E+02 -0.44870606674E+01  0.20069007334E+02  0.00000000000E+00 0.  1.
</event>
<event>
 7    1  0.1519238E-008  0.4614232E+02  0.7816164E-02  0.1320468E+00
        -11   -1    0    0    0    0  0.00000000000E+00  0.00000000000E+00  0.45593999997E+02  0.45594000000E+02  0.51100000000E-03 0.  1.
         11   -1    0    0    0    0 -0.00000000000E+00 -0.00000000000E+00 -0.45593999997E+02  0.45594000000E+02  0.51100000000E-03 0. -1.
    9900012    2    1    2    0    0  0.31596786521E+02 -0.25457198723E+02 -0.19562402406E+02  0.46142317930E+02  0.10000001542E+02 0.  0.
        -12    1    1    2    0    0 -0.31596786521E+02  0.25457198723E+02  0.19562402406E+02  0.45045682070E+02  0.00000000000E+00 0.  1.
         11    1    3    3    0    0  0.13064987274E+01 -0.18002900749E+01 -0.30549779699E+00  0.22452867175E+01  0.51100000000E-03 0. -1.
        -11    1    3    3    0    0  0.57854366955E+01 -0.22416361556E+01 -0.63764295483E+01  0.88969131983E+01  0.51100000000E-03 0.  1.
        -12    1    3    3    0    0  0.24504851098E+02 -0.21415272492E+02 -0.12880475060E+02  0.35000118014E+02  0.00000000000E+00 0.  1.
</event>
<event>
 7    1  0.1519238E-008  0.4614232E+02  0.7816164E-02  0.1320468E+00
        -11   -1    0    0    0    0  0.00000000000E+00  0.00000000000E+00  0.45593999997E+02  0.45594000000E+02  0.51100000000E-03 0.  1.
         11   -1    0    0    0    0 -0.00000000000E+00 -0.00000000000E+00 -0.45593999997E+02  0.45594000000E+02  0.51100000000E-03 0. -1.
    9900012    2    1    2    0    0  0.26849511440E+02 -0.30960497263E+02 -0.18699328766E+02  0.46142317059E+02  0.99999935995E+01 0.  0.
        -12    1    1    2    0    0 -0.26849511440E+02  0.30960497263E+02  0.18699328766E+02  0.45045682941E+02  0.00000000000E+00 0.  1.
         11    1    3    3    0    0  0.30094025337E+01 -0.61147650060E+01 -0.24165713917E+01  0.72309523744E+01  0.51100000000E-03 0. -1.
        -11    1    3    3    0    0  0.62122007303E+01 -0.75933071263E+01 -0.86837076882E+01  0.13101775853E+02  0.51100000000E-03 0.  1.
        -12    1    3    3    0    0  0.17627908176E+02 -0.17252425131E+02 -0.75990496856E+01  0.25809588832E+02  0.00000000000E+00 0.  1.
</event>
<event>
 7    1  0.1519238E-008  0.4614231E+02  0.7816164E-02  0.1320468E+00
        -11   -1    0    0    0    0  0.00000000000E+00  0.00000000000E+00  0.45593999997E+02  0.45594000000E+02  0.51100000000E-03 0.  1.
         11   -1    0    0    0    0 -0.00000000000E+00 -0.00000000000E+00 -0.45593999997E+02  0.45594000000E+02  0.51100000000E-03 0. -1.
    9900012    2    1    2    0    0 -0.18972171007E+02  0.36582640701E+02 -0.18190143524E+02  0.46142309920E+02  0.99999284950E+01 0.  0.
        -12    1    1    2    0    0  0.18972171007E+02 -0.36582640701E+02  0.18190143524E+02  0.45045690080E+02  0.00000000000E+00 0.  1.
         11    1    3    3    0    0 -0.12551643792E+01  0.36897612200E+01 -0.49411766685E+01  0.62932505599E+01  0.51100000000E-03 0. -1.
        -11    1    3    3    0    0 -0.14435790798E+02  0.29550275941E+02 -0.11902437187E+02  0.34975403863E+02  0.51100000000E-03 0.  1.
        -12    1    3    3    0    0 -0.32812158299E+01  0.33426035399E+01 -0.13465296686E+01  0.48736554962E+01  0.00000000000E+00 0.  1.
</event>
<event>
 7    1  0.1519238E-008  0.4614232E+02  0.7816164E-02  0.1320468E+00
        -11   -1    0    0    0    0  0.00000000000E+00  0.00000000000E+00  0.45593999997E+02  0.45594000000E+02  0.51100000000E-03 0.  1.
         11   -1    0    0    0    0 -0.00000000000E+00 -0.00000000000E+00 -0.45593999997E+02  0.45594000000E+02  0.51100000000E-03 0. -1.
    9900012    2    1    2    0    0 -0.12212545881E+02  0.45247354567E+01 -0.43121850559E+02  0.46142317593E+02  0.99999984697E+01 0.  0.
        -12    1    1    2    0    0  0.12212545881E+02 -0.45247354567E+01  0.43121850559E+02  0.45045682407E+02  0.00000000000E+00 0.  1.
         11    1    3    3    0    0 -0.47125344377E+01  0.19532577886E+01 -0.11898287395E+02  0.12945749883E+02  0.51100000000E-03 0. -1.
        -11    1    3    3    0    0 -0.17066958226E+01 -0.16763313250E+01 -0.20466043755E+01  0.31482514310E+01  0.51100000000E-03 0.  1.
        -12    1    3    3    0    0 -0.57933156203E+01  0.42478089931E+01 -0.29176958788E+02  0.30048316280E+02  0.00000000000E+00 0.  1.
</event>
<event>
 7    1  0.1519238E-008  0.4614232E+02  0.7816164E-02  0.1320468E+00
        -11   -1    0    0    0    0  0.00000000000E+00  0.00000000000E+00  0.45593999997E+02  0.45594000000E+02  0.51100000000E-03 0. -1.
         11   -1    0    0    0    0 -0.00000000000E+00 -0.00000000000E+00 -0.45593999997E+02  0.45594000000E+02  0.51100000000E-03 0.  1.
    9900012    2    1    2    0    0 -0.27340521393E+02  0.33191893815E+02 -0.13412951597E+02  0.46142321011E+02  0.10000029634E+02 0.  0.
        -12    1    1    2    0    0  0.27340521393E+02 -0.33191893815E+02  0.13412951597E+02  0.45045678989E+02  0.00000000000E+00 0.  1.
         11    1    3    3    0    0 -0.15626029960E+02  0.14941289221E+02 -0.41642683311E+01  0.22017176633E+02  0.51100000000E-03 0. -1.
        -11    1    3    3    0    0 -0.11485892554E+02  0.16906495978E+02 -0.72118092754E+01  0.21674075005E+02  0.51100000000E-03 0.  1.
         12    1    3    3    0    0 -0.22859887888E+00  0.13441086155E+01 -0.20368739908E+01  0.24510693732E+01  0.00000000000E+00 0. -1.
</event>
<event>
 7    1  0.1519238E-008  0.4614232E+02  0.7816164E-02  0.1320468E+00
        -11   -1    0    0    0    0  0.00000000000E+00  0.00000000000E+00  0.45593999997E+02  0.45594000000E+02  0.51100000000E-03 0.  1.
         11   -1    0    0    0    0 -0.00000000000E+00 -0.00000000000E+00 -0.45593999997E+02  0.45594000000E+02  0.51100000000E-03 0. -1.
    9900012    2    1    2    0    0 -0.29373666849E+02  0.18659331662E+02 -0.28602978344E+02  0.46142319493E+02  0.10000015791E+02 0.  0.
        -12    1    1    2    0    0  0.29373666849E+02 -0.18659331662E+02  0.28602978344E+02  0.45045680507E+02  0.00000000000E+00 0.  1.
         11    1    3    3    0    0 -0.12997830671E+02  0.46400304613E+01 -0.10665060269E+02  0.17441817440E+02  0.51100000000E-03 0. -1.
        -11    1    3    3    0    0 -0.81119789584E+00  0.30015968026E+01 -0.12189761640E+01  0.33396898870E+01  0.51100000000E-03 0.  1.
         12    1    3    3    0    0 -0.15564638282E+02  0.11017704398E+02 -0.16718941911E+02  0.25360812165E+02  0.00000000000E+00 0. -1.
</event>
<event>
 7    1  0.1519238E-008  0.4614231E+02  0.7816164E-02  0.1320468E+00
        -11   -1    0    0    0    0  0.00000000000E+00  0.00000000000E+00  0.45593999997E+02  0.45594000000E+02  0.51100000000E-03 0.  1.
         11   -1    0    0    0    0 -0.00000000000E+00 -0.00000000000E+00 -0.45593999997E+02  0.45594000000E+02  0.51100000000E-03 0. -1.
    9900012    2    1    2    0    0 -0.18992327874E+02  0.39086406268E+01 -0.40658677627E+02  0.46142311460E+02  0.99999425456E+01 0.  0.
        -12    1    1    2    0    0  0.18992327874E+02 -0.39086406268E+01  0.40658677627E+02  0.45045688540E+02  0.00000000000E+00 0.  1.
         11    1    3    3    0    0 -0.81036974043E+00 -0.10555735270E+01 -0.72767443964E+01  0.73974281922E+01  0.51100000000E-03 0. -1.
        -11    1    3    3    0    0 -0.80850679399E+01 -0.19817820030E+00 -0.10988874031E+02  0.13644154460E+02  0.51100000000E-03 0.  1.
         12    1    3    3    0    0 -0.10096890194E+02  0.51623923541E+01 -0.22393059200E+02  0.25100728809E+02  0.00000000000E+00 0. -1.
</event>
<event>
 7    1  0.1519238E-008  0.4614231E+02  0.7816164E-02  0.1320468E+00
        -11   -1    0    0    0    0  0.00000000000E+00  0.00000000000E+00  0.45593999997E+02  0.45594000000E+02  0.51100000000E-03 0.  1.
         11   -1    0    0    0    0 -0.00000000000E+00 -0.00000000000E+00 -0.45593999997E+02  0.45594000000E+02  0.51100000000E-03 0. -1.
    9900012    2    1    2    0    0  0.32690486066E+02 -0.29499763488E+02 -0.94978873934E+01  0.46142314413E+02  0.99999694686E+01 0.  0.
        -12    1    1    2    0    0 -0.32690486066E+02  0.29499763488E+02  0.94978873934E+01  0.45045685587E+02  0.00000000000E+00 0.  1.
         11    1    3    3    0    0  0.14435083517E+02 -0.16285194909E+02 -0.64438081735E+01  0.22695855864E+02  0.51100000000E-03 0. -1.
        -11    1    3    3    0    0  0.57101539540E+01 -0.13196581948E+01 -0.17165614287E+01  0.61068763970E+01  0.51100000000E-03 0.  1.
         12    1    3    3    0    0  0.12545248595E+02 -0.11894910384E+02 -0.13375177911E+01  0.17339582152E+02  0.00000000000E+00 0. -1.
</event>
<event>
 7    1  0.1519238E-008  0.4614232E+02  0.7816164E-02  0.1320468E+00
        -11   -1    0    0    0    0  0.00000000000E+00  0.00000000000E+00  0.45593999997E+02  0.45594000000E+02  0.51100000000E-03 0. -1.
         11   -1    0    0    0    0 -0.00000000000E+00 -0.00000000000E+00 -0.45593999997E+02  0.45594000000E+02  0.51100000000E-03 0.  1.
    9900012    2    1    2    0    0  0.45694284811E+01  0.50908343068E+01  0.44523221521E+02  0.46142317353E+02  0.99999962767E+01 0.  0.
        -12    1    1    2    0    0 -0.45694284811E+01 -0.50908343068E+01 -0.44523221521E+02  0.45045682647E+02  0.00000000000E+00 0.  1.
         11    1    3    3    0    0  0.52270614471E+01  0.36148440942E+01  0.25950953815E+02  0.26717808170E+02  0.51100000000E-03 0. -1.
        -11    1    3    3    0    0 -0.26685619013E+01  0.18359536705E+01  0.75652543207E+01  0.82295213530E+01  0.51100000000E-03 0.  1.
         12    1    3    3    0    0  0.20109289353E+01 -0.35996345781E+00  0.11007013384E+02  0.11194987830E+02  0.00000000000E+00 0. -1.
</event>
<event>
 7    1  0.1519238E-008  0.4614232E+02  0.7816164E-02  0.1320468E+00
        -11   -1    0    0    0    0  0.00000000000E+00  0.00000000000E+00  0.45593999997E+02  0.45594000000E+02  0.51100000000E-03 0.  1.
         11   -1    0    0    0    0 -0.00000000000E+00 -0.00000000000E+00 -0.45593999997E+02  0.45594000000E+02  0.51100000000E-03 0. -1.
    9900012    2    1    2    0    0  0.37297438326E+02 -0.48543804107E+01 -0.24788093146E+02  0.46142317891E+02  0.10000001184E+02 0.  0.
        -12    1    1    2    0    0 -0.37297438326E+02  0.48543804107E+01  0.24788093146E+02  0.45045682109E+02  0.00000000000E+00 0.  1.
         11    1    3    3    0    0  0.15304505514E+02 -0.51783563479E+01 -0.62950782433E+01  0.17339875254E+02  0.51100000000E-03 0. -1.
        -11    1    3    3    0    0  0.17541401346E+02 -0.52578708049E+00 -0.14750273553E+02  0.22924828972E+02  0.51100000000E-03 0.  1.
         12    1    3    3    0    0  0.44515314659E+01  0.84976301770E+00 -0.37427413495E+01  0.58776136643E+01  0.00000000000E+00 0. -1.
</event>
<event>
 7    1  0.1519238E-008  0.4614232E+02  0.7816164E-02  0.1320468E+00
        -11   -1    0    0    0    0  0.00000000000E+00  0.00000000000E+00  0.45593999997E+02  0.45594000000E+02  0.51100000000E-03 0. -1.
         11   -1    0    0    0    0 -0.00000000000E+00 -0.00000000000E+00 -0.45593999997E+02  0.45594000000E+02  0.51100000000E-03 0.  1.
    9900012    2    1    2    0    0 -0.20172812130E+02 -0.40232226472E+02 -0.18812650119E+01  0.46142317031E+02  0.99999933410E+01 0.  0.
        -12    1    1    2    0    0  0.20172812130E+02  0.40232226472E+02  0.18812650119E+01  0.45045682969E+02  0.00000000000E+00 0.  1.
         11    1    3    3    0    0 -0.61719193100E+01 -0.55193260318E+01  0.38376547963E+00  0.82887166690E+01  0.51100000000E-03 0. -1.
        -11    1    3    3    0    0 -0.13823051565E+02 -0.34435347912E+02 -0.28145543129E+01  0.37212788886E+02  0.51100000000E-03 0.  1.
         12    1    3    3    0    0 -0.17784125570E+00 -0.27755252735E+00  0.54952382138E+00  0.64081147613E+00  0.00000000000E+00 0. -1.
</event>
<event>
 7    1  0.1519238E-008  0.4614232E+02  0.7816164E-02  0.1320468E+00
        -11   -1    0    0    0    0  0.00000000000E+00  0.00000000000E+00  0.45593999997E+02  0.45594000000E+02  0.51100000000E-03 0.  1.
         11   -1    0    0    0    0 -0.00000000000E+00 -0.00000000000E+00 -0.45593999997E+02  0.45594000000E+02  0.51100000000E-03 0. -1.
    9900012    2    1    2    0    0 -0.20522611436E+02 -0.28781181711E+02 -0.27920951513E+02  0.46142317252E+02  0.99999953618E+01 0.  0.
        -12    1    1    2    0    0  0.20522611436E+02  0.28781181711E+02  0.27920951513E+02  0.45045682748E+02  0.00000000000E+00 0.  1.
         11    1    3    3    0    0 -0.33899816907E+01 -0.19741698946E+01 -0.40885077656E+01  0.56661467195E+01  0.51100000000E-03 0. -1.
        -11    1    3    3    0    0 -0.67840460186E+00 -0.54929887813E-01 -0.22946693606E+01  0.23934823651E+01  0.51100000000E-03 0.  1.
         12    1    3    3    0    0 -0.16454225143E+02 -0.26752081928E+02 -0.21537774386E+02  0.38082688168E+02  0.00000000000E+00 0. -1.
</event>
<event>
 7    1  0.1519238E-008  0.4614232E+02  0.7816164E-02  0.1320468E+00
        -11   -1    0    0    0    0  0.00000000000E+00  0.00000000000E+00  0.45593999997E+02  0.45594000000E+02  0.51100000000E-03 0. -1.
         11   -1    0    0    0    0 -0.00000000000E+00 -0.00000000000E+00 -0.45593999997E+02  0.45594000000E+02  0.51100000000E-03 0.  1.
    9900012    2    1    2    0    0 -0.34498009022E+02 -0.22142220150E+02 -0.18674126018E+02  0.46142317386E+02  0.99999965758E+01 0.  0.
        -12    1    1    2    0    0  0.34498009022E+02  0.22142220150E+02  0.18674126018E+02  0.45045682614E+02  0.00000000000E+00 0.  1.
         11    1    3    3    0    0 -0.54483543093E+01 -0.10535823791E+01 -0.32270278498E+01  0.64193698689E+01  0.51100000000E-03 0. -1.
        -11    1    3    3    0    0 -0.23607165910E+02 -0.19954056840E+02 -0.14244789352E+02  0.34034933386E+02  0.51100000000E-03 0.  1.
        -12    1    3    3    0    0 -0.54424888030E+01 -0.11345809312E+01 -0.12023088164E+01  0.56880141307E+01  0.00000000000E+00 0.  1.
</event>
<event>
 7    1  0.1519238E-008  0.4614232E+02  0.7816164E-02  0.1320468E+00
        -11   -1    0    0    0    0  0.00000000000E+00  0.00000000000E+00  0.45593999997E+02  0.45594000000E+02  0.51100000000E-03 0.  1.
         11   -1    0    0    0    0 -0.00000000000E+00 -0.00000000000E+00 -0.45593999997E+02  0.45594000000E+02  0.51100000000E-03 0. -1.
    9900012    2    1    2    0    0  0.22142900678E+01 -0.41726035420E+02 -0.16827013742E+02  0.46142317590E+02  0.99999984376E+01 0.  0.
        -12    1    1    2    0    0 -0.22142900678E+01  0.41726035420E+02  0.16827013742E+02  0.45045682410E+02  0.00000000000E+00 0.  1.
         11    1    3    3    0    0 -0.41346868814E+00 -0.17403605638E+02 -0.76248799396E+01  0.19005137198E+02  0.51100000000E-03 0. -1.
        -11    1    3    3    0    0  0.45882439353E+01 -0.12164632254E+02 -0.64735202554E+01  0.14523660869E+02  0.51100000000E-03 0.  1.
        -12    1    3    3    0    0 -0.19604851793E+01 -0.12157797528E+02 -0.27286135468E+01  0.12613519523E+02  0.00000000000E+00 0.  1.
</event>
<event>
 7    1  0.1519238E-008  0.4614232E+02  0.7816164E-02  0.1320468E+00
        -11   -1    0    0    0    0  0.00000000000E+00  0.00000000000E+00  0.45593999997E+02  0.45594000000E+02  0.51100000000E-03 0.  1.
         11   -1    0    0    0    0 -0.00000000000E+00 -0.00000000000E+00 -0.45593999997E+02  0.45594000000E+02  0.51100000000E-03 0. -1.
    9900012    2    1    2    0    0  0.28450494110E+02 -0.26123416849E+02 -0.23178652201E+02  0.46142318289E+02  0.10000004813E+02 0.  0.
        -12    1    1    2    0    0 -0.28450494110E+02  0.26123416849E+02  0.23178652201E+02  0.45045681711E+02  0.00000000000E+00 0.  1.
         11    1    3    3    0    0  0.83519501877E+01 -0.10319052623E+02 -0.76481050282E+01  0.15320947417E+02  0.51100000000E-03 0. -1.
        -11    1    3    3    0    0  0.26162067599E+01  0.12061521863E+00 -0.32522343456E+01  0.41756573544E+01  0.51100000000E-03 0.  1.
        -12    1    3    3    0    0  0.17482337162E+02 -0.15924979445E+02 -0.12278312827E+02  0.26645713518E+02  0.00000000000E+00 0.  1.
</event>
<event>
 7    1  0.1519238E-008  0.4614232E+02  0.7816164E-02  0.1320468E+00
        -11   -1    0    0    0    0  0.00000000000E+00  0.00000000000E+00  0.45593999997E+02  0.45594000000E+02  0.51100000000E-03 0.  1.
         11   -1    0    0    0    0 -0.00000000000E+00 -0.00000000000E+00 -0.45593999997E+02  0.45594000000E+02  0.51100000000E-03 0. -1.
    9900012    2    1    2    0    0  0.75668574146E+01 -0.64823011592E+01 -0.43929898016E+02  0.46142317641E+02  0.99999989051E+01 0.  0.
        -12    1    1    2    0    0 -0.75668574146E+01  0.64823011592E+01  0.43929898016E+02  0.45045682359E+02  0.00000000000E+00 0.  1.
         11    1    3    3    0    0  0.19127823392E+01  0.15248410194E+01 -0.11109164982E+02  0.11375298821E+02  0.51100000000E-03 0. -1.
        -11    1    3    3    0    0  0.62993626194E+00 -0.54934020518E+01 -0.12197217368E+02  0.13392027389E+02  0.51100000000E-03 0.  1.
         12    1    3    3    0    0  0.50241388134E+01 -0.25137401268E+01 -0.20623515667E+02  0.21374991431E+02  0.00000000000E+00 0. -1.
</event>
<event>
 7    1  0.1519238E-008  0.4614232E+02  0.7816164E-02  0.1320468E+00
        -11   -1    0    0    0    0  0.00000000000E+00  0.00000000000E+00  0.45593999997E+02  0.45594000000E+02  0.51100000000E-03 0. -1.
         11   -1    0    0    0    0 -0.00000000000E+00 -0.00000000000E+00 -0.45593999997E+02  0.45594000000E+02  0.51100000000E-03 0.  1.
    9900012    2    1    2    0    0  0.60979746454E+01 -0.59445032317E+01  0.44233370455E+02  0.46142317906E+02  0.10000001323E+02 0.  0.
        -12    1    1    2    0    0 -0.60979746454E+01  0.59445032317E+01 -0.44233370455E+02  0.45045682094E+02  0.00000000000E+00 0.  1.
         11    1    3    3    0    0  0.17763072885E+01 -0.70626047211E+01  0.30570368577E+02  0.31425834726E+02  0.51100000000E-03 0. -1.
        -11    1    3    3    0    0  0.38604501783E+01  0.10584681437E+01  0.13677474848E+02  0.14251201665E+02  0.51100000000E-03 0.  1.
        -12    1    3    3    0    0  0.46121717866E+00  0.59633345676E-01 -0.14472970316E-01  0.46528151551E+00  0.00000000000E+00 0.  1.
</event>
<event>
 7    1  0.1519238E-008  0.4614232E+02  0.7816164E-02  0.1320468E+00
        -11   -1    0    0    0    0  0.00000000000E+00  0.00000000000E+00  0.45593999997E+02  0.45594000000E+02  0.51100000000E-03 0.  1.
         11   -1    0    0    0    0 -0.00000000000E+00 -0.00000000000E+00 -0.45593999997E+02  0.45594000000E+02  0.51100000000E-03 0. -1.
    9900012    2    1    2    0    0 -0.15317540517E+02 -0.35904919211E+02 -0.22479397100E+02  0.46142316910E+02  0.99999922423E+01 0.  0.
        -12    1    1    2    0    0  0.15317540517E+02  0.35904919211E+02  0.22479397100E+02  0.45045683090E+02  0.00000000000E+00 0.  1.
         11    1    3    3    0    0 -0.91240180333E+01 -0.28053960940E+02 -0.19080055192E+02  0.35132903892E+02  0.51100000000E-03 0. -1.
        -11    1    3    3    0    0 -0.44419619514E+01 -0.47475426546E+01 -0.70048330062E+00  0.65391791801E+01  0.51100000000E-03 0.  1.
        -12    1    3    3    0    0 -0.17515605322E+01 -0.31034156163E+01 -0.26988586067E+01  0.44702338378E+01  0.00000000000E+00 0.  1.
</event>
<event>
 7    1  0.1519238E-008  0.4614232E+02  0.7816164E-02  0.1320468E+00
        -11   -1    0    0    0    0  0.00000000000E+00  0.00000000000E+00  0.45593999997E+02  0.45594000000E+02  0.51100000000E-03 0.  1.
         11   -1    0    0    0    0 -0.00000000000E+00 -0.00000000000E+00 -0.45593999997E+02  0.45594000000E+02  0.51100000000E-03 0. -1.
    9900012    2    1    2    0    0 -0.27014755795E+02  0.30736699684E+02 -0.18830073536E+02  0.46142318659E+02  0.10000008185E+02 0.  0.
        -12    1    1    2    0    0  0.27014755795E+02 -0.30736699684E+02  0.18830073536E+02  0.45045681341E+02  0.00000000000E+00 0.  1.
         11    1    3    3    0    0  0.59930674450E-01  0.32494710823E+01 -0.27156513826E+01  0.42352587517E+01  0.51100000000E-03 0. -1.
        -11    1    3    3    0    0 -0.55889017967E+01  0.47173600776E+01 -0.21182029586E+01  0.76142034009E+01  0.51100000000E-03 0.  1.
         12    1    3    3    0    0 -0.21485784673E+02  0.22769868524E+02 -0.13996219194E+02  0.34292856506E+02  0.00000000000E+00 0. -1.
</event>
<event>
 7    1  0.1519238E-008  0.4614232E+02  0.7816164E-02  0.1320468E+00
        -11   -1    0    0    0    0  0.00000000000E+00  0.00000000000E+00  0.45593999997E+02  0.45594000000E+02  0.51100000000E-03 0.  1.
         11   -1    0    0    0    0 -0.00000000000E+00 -0.00000000000E+00 -0.45593999997E+02  0.45594000000E+02  0.51100000000E-03 0. -1.
    9900012    2    1    2    0    0 -0.23071341561E+02  0.27212066282E+02 -0.27501456992E+02  0.46142317750E+02  0.99999998952E+01 0.  0.
        -12    1    1    2    0    0  0.23071341561E+02 -0.27212066282E+02  0.27501456992E+02  0.45045682250E+02  0.00000000000E+00 0.  1.
         11    1    3    3    0    0 -0.14240126144E+02  0.13637377411E+02 -0.12749721046E+02  0.23480090337E+02  0.51100000000E-03 0. -1.
        -11    1    3    3    0    0 -0.18665725325E+01  0.26126464052E+01 -0.28879600378E+00  0.32238823878E+01  0.51100000000E-03 0.  1.
        -12    1    3    3    0    0 -0.69646428849E+01  0.10962042466E+02 -0.14462939942E+02  0.19438345025E+02  0.00000000000E+00 0.  1.
</event>
<event>
 7    1  0.1519238E-008  0.4614232E+02  0.7816164E-02  0.1320468E+00
        -11   -1    0    0    0    0  0.00000000000E+00  0.00000000000E+00  0.45593999997E+02  0.45594000000E+02  0.51100000000E-03 0.  1.
         11   -1    0    0    0    0 -0.00000000000E+00 -0.00000000000E+00 -0.45593999997E+02  0.45594000000E+02  0.51100000000E-03 0. -1.
    9900012    2    1    2    0    0  0.33998246636E+02  0.12153814474E+02  0.26935432608E+02  0.46142317516E+02  0.99999977689E+01 0.  0.
        -12    1    1    2    0    0 -0.33998246636E+02 -0.12153814474E+02 -0.26935432608E+02  0.45045682484E+02  0.00000000000E+00 0.  1.
         11    1    3    3    0    0  0.14471545731E+02  0.59168434406E+01  0.86587141632E+01  0.17871989351E+02  0.51100000000E-03 0. -1.
        -11    1    3    3    0    0  0.14657691493E+02  0.76008857359E+01  0.14041580835E+02  0.21674579038E+02  0.51100000000E-03 0.  1.
        -12    1    3    3    0    0  0.48690094122E+01 -0.13639147024E+01  0.42351376099E+01  0.65957491270E+01  0.00000000000E+00 0.  1.
</event>
<event>
 7    1  0.1519238E-008  0.4614232E+02  0.7816164E-02  0.1320468E+00
        -11   -1    0    0    0    0  0.00000000000E+00  0.00000000000E+00  0.45593999997E+02  0.45594000000E+02  0.51100000000E-03 0.  1.
         11   -1    0    0    0    0 -0.00000000000E+00 -0.00000000000E+00 -0.45593999997E+02  0.45594000000E+02  0.51100000000E-03 0. -1.
    9900012    2    1    2    0    0 -0.26198033099E+02  0.28254859508E+02 -0.23333226810E+02  0.46142317660E+02  0.99999990820E+01 0.  0.
        -12    1    1    2    0    0  0.26198033099E+02 -0.28254859508E+02  0.23333226810E+02  0.45045682340E+02  0.00000000000E+00 0.  1.
         11    1    3    3    0    0 -0.91660699871E+01  0.14266058341E+02 -0.71764733248E+01  0.18413012497E+02  0.51100000000E-03 0. -1.
        -11    1    3    3    0    0 -0.10270672073E+02  0.64630986331E+01 -0.66066772856E+01  0.13816893059E+02  0.51100000000E-03 0.  1.
         12    1    3    3    0    0 -0.67612910384E+01  0.75257025343E+01 -0.95500761996E+01  0.13912412104E+02  0.00000000000E+00 0. -1.
</event>
<event>
 7    1  0.1519238E-008  0.4614232E+02  0.7816164E-02  0.1320468E+00
        -11   -1    0    0    0    0  0.00000000000E+00  0.00000000000E+00  0.45593999997E+02  0.45594000000E+02  0.51100000000E-03 0.  1.
         11   -1    0    0    0    0 -0.00000000000E+00 -0.00000000000E+00 -0.45593999997E+02  0.45594000000E+02  0.51100000000E-03 0. -1.
    9900012    2    1    2    0    0  0.58354458523E+00  0.39776169358E+02 -0.21133608972E+02  0.46142316508E+02  0.99999885716E+01 0.  0.
        -12    1    1    2    0    0 -0.58354458523E+00 -0.39776169358E+02  0.21133608972E+02  0.45045683492E+02  0.00000000000E+00 0.  1.
         11    1    3    3    0    0  0.18621463671E+01  0.42522671348E+01 -0.31350762690E+01  0.56016130134E+01  0.51100000000E-03 0. -1.
        -11    1    3    3    0    0  0.27102145017E+01  0.85998391007E+01 -0.32566187661E+01  0.95868692101E+01  0.51100000000E-03 0.  1.
         12    1    3    3    0    0 -0.39888162835E+01  0.26924063123E+02 -0.14741913937E+02  0.30953834284E+02  0.00000000000E+00 0. -1.
</event>
<event>
 7    1  0.1519238E-008  0.4614232E+02  0.7816164E-02  0.1320468E+00
        -11   -1    0    0    0    0  0.00000000000E+00  0.00000000000E+00  0.45593999997E+02  0.45594000000E+02  0.51100000000E-03 0.  1.
         11   -1    0    0    0    0 -0.00000000000E+00 -0.00000000000E+00 -0.45593999997E+02  0.45594000000E+02  0.51100000000E-03 0. -1.
    9900012    2    1    2    0    0 -0.11976107788E+02 -0.14063912708E+02 -0.41083970986E+02  0.46142317961E+02  0.10000001820E+02 0.  0.
        -12    1    1    2    0    0  0.11976107788E+02  0.14063912708E+02  0.41083970986E+02  0.45045682039E+02  0.00000000000E+00 0.  1.
         11    1    3    3    0    0 -0.27781739398E+01 -0.41448532964E+01 -0.17852768012E+02  0.18536973465E+02  0.51100000000E-03 0. -1.
        -11    1    3    3    0    0 -0.98592300316E+01 -0.87437430090E+01 -0.18693437095E+02  0.22871424296E+02  0.51100000000E-03 0.  1.
         12    1    3    3    0    0  0.66129618350E+00 -0.11753164030E+01 -0.45377658792E+01  0.47339202005E+01  0.00000000000E+00 0. -1.
</event>
<event>
 7    1  0.1519238E-008  0.4614232E+02  0.7816164E-02  0.1320468E+00
        -11   -1    0    0    0    0  0.00000000000E+00  0.00000000000E+00  0.45593999997E+02  0.45594000000E+02  0.51100000000E-03 0.  1.
         11   -1    0    0    0    0 -0.00000000000E+00 -0.00000000000E+00 -0.45593999997E+02  0.45594000000E+02  0.51100000000E-03 0. -1.
    9900012    2    1    2    0    0 -0.57767464461E+01  0.17080240742E+02 -0.41279635158E+02  0.46142315389E+02  0.99999783657E+01 0.  0.
        -12    1    1    2    0    0  0.57767464461E+01 -0.17080240742E+02  0.41279635158E+02  0.45045684611E+02  0.00000000000E+00 0.  1.
         11    1    3    3    0    0  0.45058877158E-01  0.11458985798E+02 -0.25304931819E+02  0.27778588165E+02  0.51100000000E-03 0.  1.
        -11    1    3    3    0    0 -0.30942118851E+01  0.78845871225E+00 -0.36643612290E+01  0.48603865905E+01  0.51100000000E-03 0. -1.
         12    1    3    3    0    0 -0.27275934381E+01  0.48327962321E+01 -0.12310342111E+02  0.13503340633E+02  0.00000000000E+00 0. -1.
</event>
<event>
 7    1  0.1519238E-008  0.4614232E+02  0.7816164E-02  0.1320468E+00
        -11   -1    0    0    0    0  0.00000000000E+00  0.00000000000E+00  0.45593999997E+02  0.45594000000E+02  0.51100000000E-03 0.  1.
         11   -1    0    0    0    0 -0.00000000000E+00 -0.00000000000E+00 -0.45593999997E+02  0.45594000000E+02  0.51100000000E-03 0. -1.
    9900012    2    1    2    0    0 -0.28064748070E+02 -0.14775555012E+01 -0.35203696832E+02  0.46142317353E+02  0.99999962830E+01 0.  0.
        -12    1    1    2    0    0  0.28064748070E+02  0.14775555012E+01  0.35203696832E+02  0.45045682647E+02  0.00000000000E+00 0.  1.
         11    1    3    3    0    0 -0.11537362824E+02 -0.30959019359E+01 -0.10327870083E+02  0.15791144684E+02  0.51100000000E-03 0. -1.
        -11    1    3    3    0    0 -0.13125086241E+02  0.33316173392E+01 -0.20221177015E+02  0.24336465707E+02  0.51100000000E-03 0.  1.
        -12    1    3    3    0    0 -0.34022990047E+01 -0.17132709045E+01 -0.46546497330E+01  0.60147069627E+01  0.00000000000E+00 0.  1.
</event>
<event>
 7    1  0.1519238E-008  0.4614232E+02  0.7816164E-02  0.1320468E+00
        -11   -1    0    0    0    0  0.00000000000E+00  0.00000000000E+00  0.45593999997E+02  0.45594000000E+02  0.51100000000E-03 0.  1.
         11   -1    0    0    0    0 -0.00000000000E+00 -0.00000000000E+00 -0.45593999997E+02  0.45594000000E+02  0.51100000000E-03 0. -1.
    9900012    2    1    2    0    0  0.34054492296E+02 -0.22468730147E+02 -0.19093485891E+02  0.46142317816E+02  0.10000000503E+02 0.  0.
        -12    1    1    2    0    0 -0.34054492296E+02  0.22468730147E+02  0.19093485891E+02  0.45045682184E+02  0.00000000000E+00 0.  1.
         11    1    3    3    0    0  0.65718147733E+01 -0.73886084981E+01 -0.34204169312E+01  0.10463246972E+02  0.51100000000E-03 0. -1.
        -11    1    3    3    0    0  0.26126271828E+02 -0.15131341921E+02 -0.16150715227E+02  0.34240110843E+02  0.51100000000E-03 0.  1.
        -12    1    3    3    0    0  0.13564056952E+01  0.51220272886E-01  0.47764626809E+00  0.14389600008E+01  0.00000000000E+00 0.  1.
</event>
<event>
 7    1  0.1519238E-008  0.4614232E+02  0.7816164E-02  0.1320468E+00
        -11   -1    0    0    0    0  0.00000000000E+00  0.00000000000E+00  0.45593999997E+02  0.45594000000E+02  0.51100000000E-03 0.  1.
         11   -1    0    0    0    0 -0.00000000000E+00 -0.00000000000E+00 -0.45593999997E+02  0.45594000000E+02  0.51100000000E-03 0. -1.
    9900012    2    1    2    0    0 -0.22356223649E+02  0.29630489769E+02 -0.25521498223E+02  0.46142317284E+02  0.99999956506E+01 0.  0.
        -12    1    1    2    0    0  0.22356223649E+02 -0.29630489769E+02  0.25521498223E+02  0.45045682716E+02  0.00000000000E+00 0.  1.
         11    1    3    3    0    0 -0.14827867893E+02  0.13815118796E+02 -0.12769936345E+02  0.23954006932E+02  0.51100000000E-03 0. -1.
        -11    1    3    3    0    0 -0.72364436408E+00  0.77428331361E+00 -0.26009912948E+01  0.28086174165E+01  0.51100000000E-03 0.  1.
         12    1    3    3    0    0 -0.68047113925E+01  0.15041087659E+02 -0.10150570583E+02  0.19379692936E+02  0.00000000000E+00 0. -1.
</event>
<event>
 7    1  0.1519238E-008  0.4614232E+02  0.7816164E-02  0.1320468E+00
        -11   -1    0    0    0    0  0.00000000000E+00  0.00000000000E+00  0.45593999997E+02  0.45594000000E+02  0.51100000000E-03 0. -1.
         11   -1    0    0    0    0 -0.00000000000E+00 -0.00000000000E+00 -0.45593999997E+02  0.45594000000E+02  0.51100000000E-03 0.  1.
    9900012    2    1    2    0    0  0.22998218755E+02  0.21416963077E+01  0.38673096654E+02  0.46142319477E+02  0.10000015648E+02 0.  0.
        -12    1    1    2    0    0 -0.22998218755E+02 -0.21416963077E+01 -0.38673096654E+02  0.45045680523E+02  0.00000000000E+00 0.  1.
         11    1    3    3    0    0  0.16856786211E+02  0.12854087987E+01  0.22186212168E+02  0.27893216519E+02  0.51100000000E-03 0. -1.
        -11    1    3    3    0    0  0.14631393527E-02  0.50196434643E+00 -0.14007405077E+00  0.52114426667E+00  0.51100000000E-03 0.  1.
        -12    1    3    3    0    0  0.61399694040E+01  0.35432316248E+00  0.16626958536E+02  0.17727958691E+02  0.00000000000E+00 0.  1.
</event>
<event>
 7    1  0.1519238E-008  0.4614232E+02  0.7816164E-02  0.1320468E+00
        -11   -1    0    0    0    0  0.00000000000E+00  0.00000000000E+00  0.45593999997E+02  0.45594000000E+02  0.51100000000E-03 0.  1.
         11   -1    0    0    0    0 -0.00000000000E+00 -0.00000000000E+00 -0.45593999997E+02  0.45594000000E+02  0.51100000000E-03 0. -1.
    9900012    2    1    2    0    0 -0.87137937175E+01  0.12594058282E+02 -0.42362399700E+02  0.46142318594E+02  0.10000007593E+02 0.  0.
        -12    1    1    2    0    0  0.87137937175E+01 -0.12594058282E+02  0.42362399700E+02  0.45045681406E+02  0.00000000000E+00 0.  1.
         11    1    3    3    0    0 -0.14501224876E+01  0.90972060523E-01 -0.61190648305E+01  0.62892039088E+01  0.51100000000E-03 0. -1.
        -11    1    3    3    0    0 -0.89450147490E+01  0.11316134952E+02 -0.32958165074E+02  0.35976504060E+02  0.51100000000E-03 0.  1.
        -12    1    3    3    0    0  0.16813435191E+01  0.11869512703E+01 -0.32851697963E+01  0.38766106251E+01  0.00000000000E+00 0.  1.
</event>
<event>
 7    1  0.1519238E-008  0.4614232E+02  0.7816164E-02  0.1320468E+00
        -11   -1    0    0    0    0  0.00000000000E+00  0.00000000000E+00  0.45593999997E+02  0.45594000000E+02  0.51100000000E-03 0. -1.
         11   -1    0    0    0    0 -0.00000000000E+00 -0.00000000000E+00 -0.45593999997E+02  0.45594000000E+02  0.51100000000E-03 0.  1.
    9900012    2    1    2    0    0  0.18452695210E+02  0.30114516487E+02  0.27959387751E+02  0.46142318440E+02  0.10000006192E+02 0.  0.
        -12    1    1    2    0    0 -0.18452695210E+02 -0.30114516487E+02 -0.27959387751E+02  0.45045681560E+02  0.00000000000E+00 0.  1.
         11    1    3    3    0    0  0.50809010088E+01  0.76467930370E+01  0.77047306459E+01  0.11985485948E+02  0.51100000000E-03 0. -1.
        -11    1    3    3    0    0  0.38245792801E+01  0.11329155507E+02  0.13414901564E+02  0.17970441158E+02  0.51100000000E-03 0.  1.
        -12    1    3    3    0    0  0.95472149213E+01  0.11138567943E+02  0.68397555411E+01  0.16186391334E+02  0.00000000000E+00 0.  1.
</event>
<event>
 7    1  0.1519238E-008  0.4614232E+02  0.7816164E-02  0.1320468E+00
        -11   -1    0    0    0    0  0.00000000000E+00  0.00000000000E+00  0.45593999997E+02  0.45594000000E+02  0.51100000000E-03 0.  1.
         11   -1    0    0    0    0 -0.00000000000E+00 -0.00000000000E+00 -0.45593999997E+02  0.45594000000E+02  0.51100000000E-03 0. -1.
    9900012    2    1    2    0    0 -0.26842841282E+02 -0.32629518573E+02 -0.15616974553E+02  0.46142317581E+02  0.99999983620E+01 0.  0.
        -12    1    1    2    0    0  0.26842841282E+02  0.32629518573E+02  0.15616974553E+02  0.45045682419E+02  0.00000000000E+00 0.  1.
         11    1    3    3    0    0 -0.23098656141E+02 -0.21529422466E+02 -0.11020539421E+02  0.33444225759E+02  0.51100000000E-03 0. -1.
        -11    1    3    3    0    0 -0.11175160049E+01 -0.51870095489E+01 -0.14341644701E+01  0.54964295747E+01  0.51100000000E-03 0.  1.
         12    1    3    3    0    0 -0.26266691360E+01 -0.59130865581E+01 -0.31622706619E+01  0.72016622479E+01  0.00000000000E+00 0. -1.
</event>
<event>
 7    1  0.1519238E-008  0.4614232E+02  0.7816164E-02  0.1320468E+00
        -11   -1    0    0    0    0  0.00000000000E+00  0.00000000000E+00  0.45593999997E+02  0.45594000000E+02  0.51100000000E-03 0.  1.
         11   -1    0    0    0    0 -0.00000000000E+00 -0.00000000000E+00 -0.45593999997E+02  0.45594000000E+02  0.51100000000E-03 0. -1.
    9900012    2    1    2    0    0 -0.29113437112E+02 -0.97940953091E+01 -0.32948401338E+02  0.46142315699E+02  0.99999811956E+01 0.  0.
        -12    1    1    2    0    0  0.29113437112E+02  0.97940953091E+01  0.32948401338E+02  0.45045684301E+02  0.00000000000E+00 0.  1.
         11    1    3    3    0    0 -0.25429134619E+02 -0.81667362989E+01 -0.25591409814E+02  0.36989954390E+02  0.51100000000E-03 0. -1.
        -11    1    3    3    0    0  0.13633500216E+00  0.56429544835E+00 -0.26218584381E+01  0.26853600348E+01  0.51100000000E-03 0.  1.
        -12    1    3    3    0    0 -0.38206374950E+01 -0.21916544586E+01 -0.47351330865E+01  0.64670012742E+01  0.00000000000E+00 0.  1.
</event>
<event>
 7    1  0.1519238E-008  0.4614232E+02  0.7816164E-02  0.1320468E+00
        -11   -1    0    0    0    0  0.00000000000E+00  0.00000000000E+00  0.45593999997E+02  0.45594000000E+02  0.51100000000E-03 0.  1.
         11   -1    0    0    0    0 -0.00000000000E+00 -0.00000000000E+00 -0.45593999997E+02  0.45594000000E+02  0.51100000000E-03 0. -1.
    9900012    2    1    2    0    0  0.12789948722E+02 -0.30279116513E+02 -0.30801071256E+02  0.46142315682E+02  0.99999810423E+01 0.  0.
        -12    1    1    2    0    0 -0.12789948722E+02  0.30279116513E+02  0.30801071256E+02  0.45045684318E+02  0.00000000000E+00 0.  1.
         11    1    3    3    0    0  0.41442268964E+01 -0.67456267399E+01 -0.81683811266E+01  0.11375436131E+02  0.51100000000E-03 0. -1.
        -11    1    3    3    0    0  0.54332499994E+01 -0.22243698153E+02 -0.20217918815E+02  0.30546138128E+02  0.51100000000E-03 0.  1.
        -12    1    3    3    0    0  0.32124718262E+01 -0.12897916209E+01 -0.24147713146E+01  0.42207414232E+01  0.00000000000E+00 0.  1.
</event>
<event>
 7    1  0.1519238E-008  0.4614232E+02  0.7816164E-02  0.1320468E+00
        -11   -1    0    0    0    0  0.00000000000E+00  0.00000000000E+00  0.45593999997E+02  0.45594000000E+02  0.51100000000E-03 0.  1.
         11   -1    0    0    0    0 -0.00000000000E+00 -0.00000000000E+00 -0.45593999997E+02  0.45594000000E+02  0.51100000000E-03 0. -1.
    9900012    2    1    2    0    0 -0.79382957991E+01 -0.71451391820E+01 -0.43761215166E+02  0.46142317555E+02  0.99999981185E+01 0.  0.
        -12    1    1    2    0    0  0.79382957991E+01  0.71451391820E+01  0.43761215166E+02  0.45045682445E+02  0.00000000000E+00 0.  1.
         11    1    3    3    0    0  0.85462502532E+00  0.12274093485E+01 -0.21609794456E+01  0.26280696467E+01  0.51100000000E-03 0. -1.
        -11    1    3    3    0    0 -0.85437298750E+01 -0.75089215072E+01 -0.33803976591E+02  0.35666343463E+02  0.51100000000E-03 0.  1.
         12    1    3    3    0    0 -0.24919094938E+00 -0.86362702336E+00 -0.77962591294E+01  0.78479044450E+01  0.00000000000E+00 0. -1.
</event>
<event>
 7    1  0.1519238E-008  0.4614232E+02  0.7816164E-02  0.1320468E+00
        -11   -1    0    0    0    0  0.00000000000E+00  0.00000000000E+00  0.45593999997E+02  0.45594000000E+02  0.51100000000E-03 0.  1.
         11   -1    0    0    0    0 -0.00000000000E+00 -0.00000000000E+00 -0.45593999997E+02  0.45594000000E+02  0.51100000000E-03 0. -1.
    9900012    2    1    2    0    0 -0.48767852424E+01 -0.31505215848E+02 -0.31823761602E+02  0.46142318049E+02  0.10000002623E+02 0.  0.
        -12    1    1    2    0    0  0.48767852424E+01  0.31505215848E+02  0.31823761602E+02  0.45045681951E+02  0.00000000000E+00 0.  1.
         11    1    3    3    0    0 -0.54014850834E+00 -0.48119251172E+01 -0.18268811672E+01  0.51753143677E+01  0.51100000000E-03 0. -1.
        -11    1    3    3    0    0 -0.53917682678E+01 -0.18070814568E+02 -0.17356941155E+02  0.25629844142E+02  0.51100000000E-03 0.  1.
        -12    1    3    3    0    0  0.10551315337E+01 -0.86224761627E+01 -0.12639939280E+02  0.15337159539E+02  0.00000000000E+00 0.  1.
</event>
<event>
 7    1  0.1519238E-008  0.4614232E+02  0.7816164E-02  0.1320468E+00
        -11   -1    0    0    0    0  0.00000000000E+00  0.00000000000E+00  0.45593999997E+02  0.45594000000E+02  0.51100000000E-03 0. -1.
         11   -1    0    0    0    0 -0.00000000000E+00 -0.00000000000E+00 -0.45593999997E+02  0.45594000000E+02  0.51100000000E-03 0.  1.
    9900012    2    1    2    0    0  0.17017851088E+02 -0.40287394655E+02 -0.10790369202E+02  0.46142317729E+02  0.99999997045E+01 0.  0.
        -12    1    1    2    0    0 -0.17017851088E+02  0.40287394655E+02  0.10790369202E+02  0.45045682271E+02  0.00000000000E+00 0.  1.
         11    1    3    3    0    0  0.36529984194E+01 -0.98232263260E+01 -0.30299430063E+01  0.10909662130E+02  0.51100000000E-03 0. -1.
        -11    1    3    3    0    0  0.96077406624E+01 -0.26494143326E+02 -0.37015348225E+01  0.28424455519E+02  0.51100000000E-03 0.  1.
        -12    1    3    3    0    0  0.37571120058E+01 -0.39700250032E+01 -0.40588913736E+01  0.68082000803E+01  0.00000000000E+00 0.  1.
</event>
<event>
 7    1  0.1519238E-008  0.4614232E+02  0.7816164E-02  0.1320468E+00
        -11   -1    0    0    0    0  0.00000000000E+00  0.00000000000E+00  0.45593999997E+02  0.45594000000E+02  0.51100000000E-03 0. -1.
         11   -1    0    0    0    0 -0.00000000000E+00 -0.00000000000E+00 -0.45593999997E+02  0.45594000000E+02  0.51100000000E-03 0.  1.
    9900012    2    1    2    0    0 -0.42592639500E+02  0.14202557536E+02  0.36425082315E+01  0.46142318227E+02  0.10000004251E+02 0.  0.
        -12    1    1    2    0    0  0.42592639500E+02 -0.14202557536E+02 -0.36425082315E+01  0.45045681773E+02  0.00000000000E+00 0.  1.
         11    1    3    3    0    0 -0.18296911048E+02  0.40633839626E+01  0.38239750511E+01  0.19128795796E+02  0.51100000000E-03 0. -1.
        -11    1    3    3    0    0 -0.23558646449E+01  0.26525256260E+01 -0.13651609870E+01  0.38012702092E+01  0.51100000000E-03 0.  1.
         12    1    3    3    0    0 -0.21939863807E+02  0.74866479470E+01  0.11836941675E+01  0.23212252222E+02  0.00000000000E+00 0. -1.
</event>
<event>
 7    1  0.1519238E-008  0.4614232E+02  0.7816164E-02  0.1320468E+00
        -11   -1    0    0    0    0  0.00000000000E+00  0.00000000000E+00  0.45593999997E+02  0.45594000000E+02  0.51100000000E-03 0. -1.
         11   -1    0    0    0    0 -0.00000000000E+00 -0.00000000000E+00 -0.45593999997E+02  0.45594000000E+02  0.51100000000E-03 0.  1.
    9900012    2    1    2    0    0 -0.14225801836E+02  0.12480179606E+02  0.40877684725E+02  0.46142318416E+02  0.10000005974E+02 0.  0.
        -12    1    1    2    0    0  0.14225801836E+02 -0.12480179606E+02 -0.40877684725E+02  0.45045681584E+02  0.00000000000E+00 0.  1.
         11    1    3    3    0    0 -0.20821040372E+01  0.73535406301E-02  0.93817630700E+00  0.22837220366E+01  0.51100000000E-03 0.  1.
        -11    1    3    3    0    0 -0.75513713530E+01  0.96055313597E+01  0.22571903997E+02  0.25666715651E+02  0.51100000000E-03 0. -1.
        -12    1    3    3    0    0 -0.45923264456E+01  0.28672947057E+01  0.17367604421E+02  0.18191880728E+02  0.00000000000E+00 0.  1.
</event>
<event>
 7    1  0.1519238E-008  0.4614232E+02  0.7816164E-02  0.1320468E+00
        -11   -1    0    0    0    0  0.00000000000E+00  0.00000000000E+00  0.45593999997E+02  0.45594000000E+02  0.51100000000E-03 0. -1.
         11   -1    0    0    0    0 -0.00000000000E+00 -0.00000000000E+00 -0.45593999997E+02  0.45594000000E+02  0.51100000000E-03 0.  1.
    9900012    2    1    2    0    0 -0.34962310547E+02 -0.27504293292E+02  0.70897081956E+01  0.46142320178E+02  0.10000022040E+02 0.  0.
        -12    1    1    2    0    0  0.34962310547E+02  0.27504293292E+02 -0.70897081956E+01  0.45045679822E+02  0.00000000000E+00 0.  1.
         11    1    3    3    0    0 -0.20883330070E+02 -0.18615517745E+02  0.78522013936E+01  0.29056979243E+02  0.51100000000E-03 0. -1.
        -11    1    3    3    0    0 -0.76248188143E+01 -0.27226700690E+01 -0.98723005868E+00  0.81563115257E+01  0.51100000000E-03 0.  1.
         12    1    3    3    0    0 -0.64541616627E+01 -0.61661054780E+01  0.22473686073E+00  0.89290294092E+01  0.00000000000E+00 0. -1.
</event>
<event>
 7    1  0.1519238E-008  0.4614232E+02  0.7816164E-02  0.1320468E+00
        -11   -1    0    0    0    0  0.00000000000E+00  0.00000000000E+00  0.45593999997E+02  0.45594000000E+02  0.51100000000E-03 0.  1.
         11   -1    0    0    0    0 -0.00000000000E+00 -0.00000000000E+00 -0.45593999997E+02  0.45594000000E+02  0.51100000000E-03 0. -1.
    9900012    2    1    2    0    0 -0.40219008411E+02 -0.69117519294E+01 -0.19072821707E+02  0.46142317852E+02  0.10000000831E+02 0.  0.
        -12    1    1    2    0    0  0.40219008411E+02  0.69117519294E+01  0.19072821707E+02  0.45045682148E+02  0.00000000000E+00 0.  1.
         11    1    3    3    0    0 -0.23771584209E+02 -0.62923058685E+01 -0.16027186506E+02  0.29352206672E+02  0.51100000000E-03 0. -1.
        -11    1    3    3    0    0 -0.67020249214E+01 -0.51675542526E+00 -0.64452341998E+00  0.67527464721E+01  0.51100000000E-03 0.  1.
         12    1    3    3    0    0 -0.97453992804E+01 -0.10269063562E+00 -0.24011117813E+01  0.10037364708E+02  0.00000000000E+00 0. -1.
</event>
<event>
 7    1  0.1519238E-008  0.4614231E+02  0.7816164E-02  0.1320468E+00
        -11   -1    0    0    0    0  0.00000000000E+00  0.00000000000E+00  0.45593999997E+02  0.45594000000E+02  0.51100000000E-03 0. -1.
         11   -1    0    0    0    0 -0.00000000000E+00 -0.00000000000E+00 -0.45593999997E+02  0.45594000000E+02  0.51100000000E-03 0.  1.
    9900012    2    1    2    0    0  0.16952454418E+02 -0.22038802970E+02  0.35440364759E+02  0.46142312067E+02  0.99999480735E+01 0.  0.
        -12    1    1    2    0    0 -0.16952454418E+02  0.22038802970E+02 -0.35440364759E+02  0.45045687933E+02  0.00000000000E+00 0.  1.
         11    1    3    3    0    0  0.39023288869E+00 -0.32329151741E+01  0.65838302411E+01  0.73451237658E+01  0.51100000000E-03 0.  1.
        -11    1    3    3    0    0  0.57814201088E+01 -0.24481063780E+01  0.58730792458E+01  0.85971567045E+01  0.51100000000E-03 0. -1.
         12    1    3    3    0    0  0.10780801421E+02 -0.16357781418E+02  0.22983455272E+02  0.30200031596E+02  0.00000000000E+00 0. -1.
</event>
<event>
 7    1  0.1519238E-008  0.4614232E+02  0.7816164E-02  0.1320468E+00
        -11   -1    0    0    0    0  0.00000000000E+00  0.00000000000E+00  0.45593999997E+02  0.45594000000E+02  0.51100000000E-03 0.  1.
         11   -1    0    0    0    0 -0.00000000000E+00 -0.00000000000E+00 -0.45593999997E+02  0.45594000000E+02  0.51100000000E-03 0. -1.
    9900012    2    1    2    0    0 -0.20839996694E+01 -0.12723030252E+01 -0.44979457424E+02  0.46142318744E+02  0.10000008963E+02 0.  0.
        -12    1    1    2    0    0  0.20839996694E+01  0.12723030252E+01  0.44979457424E+02  0.45045681256E+02  0.00000000000E+00 0.  1.
         11    1    3    3    0    0 -0.23402137188E+01 -0.72924008517E+00 -0.14663550811E+02  0.14867014294E+02  0.51100000000E-03 0. -1.
        -11    1    3    3    0    0  0.13048221542E+01 -0.30900575458E+01 -0.66341689815E+01  0.74339232460E+01  0.51100000000E-03 0.  1.
        -12    1    3    3    0    0 -0.10486081049E+01  0.25469946058E+01 -0.23681737632E+02  0.23841381204E+02  0.00000000000E+00 0.  1.
</event>
<event>
 7    1  0.1519238E-008  0.4614232E+02  0.7816164E-02  0.1320468E+00
        -11   -1    0    0    0    0  0.00000000000E+00  0.00000000000E+00  0.45593999997E+02  0.45594000000E+02  0.51100000000E-03 0.  1.
         11   -1    0    0    0    0 -0.00000000000E+00 -0.00000000000E+00 -0.45593999997E+02  0.45594000000E+02  0.51100000000E-03 0. -1.
    9900012    2    1    2    0    0 -0.79021203092E+01 -0.15712472585E+02 -0.41470329865E+02  0.46142316975E+02  0.99999928295E+01 0.  0.
        -12    1    1    2    0    0  0.79021203092E+01  0.15712472585E+02  0.41470329865E+02  0.45045683025E+02  0.00000000000E+00 0.  1.
         11    1    3    3    0    0 -0.68459507674E+00 -0.20499857884E+01 -0.12795036959E+02  0.12976289269E+02  0.51100000000E-03 0. -1.
        -11    1    3    3    0    0 -0.27596949394E+01 -0.35211826507E+01 -0.35641828159E+01  0.57199687783E+01  0.51100000000E-03 0.  1.
        -12    1    3    3    0    0 -0.44578302930E+01 -0.10141304146E+02 -0.25111110090E+02  0.27446058927E+02  0.00000000000E+00 0.  1.
</event>
<event>
 7    1  0.1519238E-008  0.4614232E+02  0.7816164E-02  0.1320468E+00
        -11   -1    0    0    0    0  0.00000000000E+00  0.00000000000E+00  0.45593999997E+02  0.45594000000E+02  0.51100000000E-03 0.  1.
         11   -1    0    0    0    0 -0.00000000000E+00 -0.00000000000E+00 -0.45593999997E+02  0.45594000000E+02  0.51100000000E-03 0. -1.
    9900012    2    1    2    0    0  0.42322042521E+01  0.42654937673E+01 -0.44643112798E+02  0.46142317519E+02  0.99999977917E+01 0.  0.
        -12    1    1    2    0    0 -0.42322042521E+01 -0.42654937673E+01  0.44643112798E+02  0.45045682481E+02  0.00000000000E+00 0.  1.
         11    1    3    3    0    0 -0.22351489539E+01  0.40934715880E+01 -0.21788414768E+02  0.22281997640E+02  0.51100000000E-03 0. -1.
        -11    1    3    3    0    0  0.24055655639E+01  0.19198373334E+00 -0.50334700603E+01  0.55820627501E+01  0.51100000000E-03 0.  1.
         12    1    3    3    0    0  0.40617876420E+01 -0.19961554017E-01 -0.17821227970E+02  0.18278257129E+02  0.00000000000E+00 0. -1.
</event>
<event>
 7    1  0.1519238E-008  0.4614232E+02  0.7816164E-02  0.1320468E+00
        -11   -1    0    0    0    0  0.00000000000E+00  0.00000000000E+00  0.45593999997E+02  0.45594000000E+02  0.51100000000E-03 0.  1.
         11   -1    0    0    0    0 -0.00000000000E+00 -0.00000000000E+00 -0.45593999997E+02  0.45594000000E+02  0.51100000000E-03 0. -1.
    9900012    2    1    2    0    0 -0.20267812753E+01  0.31020122370E+02 -0.32599963885E+02  0.46142317860E+02  0.10000000898E+02 0.  0.
        -12    1    1    2    0    0  0.20267812753E+01 -0.31020122370E+02  0.32599963885E+02  0.45045682140E+02  0.00000000000E+00 0.  1.
         11    1    3    3    0    0  0.10790735712E+01  0.19598597026E+02 -0.24286143101E+02  0.31226369500E+02  0.51100000000E-03 0. -1.
        -11    1    3    3    0    0 -0.23895236781E+01  0.26285788131E+01 -0.21228615488E+01  0.41383319588E+01  0.51100000000E-03 0.  1.
        -12    1    3    3    0    0 -0.71633116844E+00  0.87929465304E+01 -0.61909592359E+01  0.10777616401E+02  0.00000000000E+00 0.  1.
</event>
<event>
 7    1  0.1519238E-008  0.4614232E+02  0.7816164E-02  0.1320468E+00
        -11   -1    0    0    0    0  0.00000000000E+00  0.00000000000E+00  0.45593999997E+02  0.45594000000E+02  0.51100000000E-03 0.  1.
         11   -1    0    0    0    0 -0.00000000000E+00 -0.00000000000E+00 -0.45593999997E+02  0.45594000000E+02  0.51100000000E-03 0. -1.
    9900012    2    1    2    0    0 -0.40362154346E+02  0.60000795588E+01 -0.19079021931E+02  0.46142317232E+02  0.99999951736E+01 0.  0.
        -12    1    1    2    0    0  0.40362154346E+02 -0.60000795588E+01  0.19079021931E+02  0.45045682768E+02  0.00000000000E+00 0.  1.
         11    1    3    3    0    0 -0.23212216826E+02  0.77628816254E+01 -0.10271167723E+02  0.26543666434E+02  0.51100000000E-03 0. -1.
        -11    1    3    3    0    0 -0.13054929452E+02 -0.16291985034E+01 -0.52246627718E+01  0.14155655128E+02  0.51100000000E-03 0.  1.
         12    1    3    3    0    0 -0.40950080687E+01 -0.13360356326E+00 -0.35831914362E+01  0.54429956700E+01  0.00000000000E+00 0. -1.
</event>
<event>
 7    1  0.1519238E-008  0.4614232E+02  0.7816164E-02  0.1320468E+00
        -11   -1    0    0    0    0  0.00000000000E+00  0.00000000000E+00  0.45593999997E+02  0.45594000000E+02  0.51100000000E-03 0.  1.
         11   -1    0    0    0    0 -0.00000000000E+00 -0.00000000000E+00 -0.45593999997E+02  0.45594000000E+02  0.51100000000E-03 0. -1.
    9900012    2    1    2    0    0  0.25144839882E+02 -0.22308836110E+02 -0.29986103111E+02  0.46142317399E+02  0.99999966937E+01 0.  0.
        -12    1    1    2    0    0 -0.25144839882E+02  0.22308836110E+02  0.29986103111E+02  0.45045682601E+02  0.00000000000E+00 0.  1.
         11    1    3    3    0    0  0.17490647529E+02 -0.16272926017E+02 -0.24655396544E+02  0.34331027528E+02  0.51100000000E-03 0. -1.
        -11    1    3    3    0    0  0.54553033706E+01 -0.61744386076E+01 -0.35205974473E+01  0.89598344645E+01  0.51100000000E-03 0.  1.
         12    1    3    3    0    0  0.21988889830E+01  0.13852851474E+00 -0.18101091188E+01  0.28514554058E+01  0.00000000000E+00 0. -1.
</event>
<event>
 7    1  0.1519238E-008  0.4614232E+02  0.7816164E-02  0.1320468E+00
        -11   -1    0    0    0    0  0.00000000000E+00  0.00000000000E+00  0.45593999997E+02  0.45594000000E+02  0.51100000000E-03 0. -1.
         11   -1    0    0    0    0 -0.00000000000E+00 -0.00000000000E+00 -0.45593999997E+02  0.45594000000E+02  0.51100000000E-03 0.  1.
    9900012    2    1    2    0    0  0.67595248017E+01  0.46267566390E+01  0.44294643170E+02  0.46142318009E+02  0.10000002257E+02 0.  0.
        -12    1    1    2    0    0 -0.67595248017E+01 -0.46267566390E+01 -0.44294643170E+02  0.45045681991E+02  0.00000000000E+00 0.  1.
         11    1    3    3    0    0  0.19529522556E+01 -0.46097114205E+00  0.24012175746E+02  0.24095873116E+02  0.51100000000E-03 0. -1.
        -11    1    3    3    0    0 -0.56822379947E+00 -0.54720159591E+00  0.27807426645E+01  0.28904736463E+01  0.51100000000E-03 0.  1.
         12    1    3    3    0    0  0.53747963456E+01  0.56349293769E+01  0.17501724759E+02  0.19155971246E+02  0.00000000000E+00 0. -1.
</event>
<event>
 7    1  0.1519238E-008  0.4614232E+02  0.7816164E-02  0.1320468E+00
        -11   -1    0    0    0    0  0.00000000000E+00  0.00000000000E+00  0.45593999997E+02  0.45594000000E+02  0.51100000000E-03 0.  1.
         11   -1    0    0    0    0 -0.00000000000E+00 -0.00000000000E+00 -0.45593999997E+02  0.45594000000E+02  0.51100000000E-03 0. -1.
    9900012    2    1    2    0    0  0.13660049298E+02 -0.31154473227E+02 -0.29528214415E+02  0.46142316572E+02  0.99999891594E+01 0.  0.
        -12    1    1    2    0    0 -0.13660049298E+02  0.31154473227E+02  0.29528214415E+02  0.45045683428E+02  0.00000000000E+00 0.  1.
         11    1    3    3    0    0  0.10669136370E+02 -0.15979720251E+02 -0.12790679711E+02  0.23082101679E+02  0.51100000000E-03 0. -1.
        -11    1    3    3    0    0  0.10983313320E+01 -0.96790415332E+01 -0.12595824426E+02  0.15923095489E+02  0.51100000000E-03 0.  1.
        -12    1    3    3    0    0  0.18925815960E+01 -0.54957114434E+01 -0.41417102786E+01  0.71371194049E+01  0.00000000000E+00 0.  1.
</event>
<event>
 7    1  0.1519238E-008  0.4614232E+02  0.7816164E-02  0.1320468E+00
        -11   -1    0    0    0    0  0.00000000000E+00  0.00000000000E+00  0.45593999997E+02  0.45594000000E+02  0.51100000000E-03 0. -1.
         11   -1    0    0    0    0 -0.00000000000E+00 -0.00000000000E+00 -0.45593999997E+02  0.45594000000E+02  0.51100000000E-03 0.  1.
    9900012    2    1    2    0    0 -0.29851571196E+02  0.33725841968E+02  0.75131409831E+00  0.46142321048E+02  0.10000029976E+02 0.  0.
        -12    1    1    2    0    0  0.29851571196E+02 -0.33725841968E+02 -0.75131409831E+00  0.45045678952E+02  0.00000000000E+00 0.  1.
         11    1    3    3    0    0 -0.34131336690E+01  0.48832799790E+01  0.24873081985E+01  0.64562068687E+01  0.51100000000E-03 0. -1.
        -11    1    3    3    0    0 -0.25680118743E+02  0.27876196570E+02 -0.28752488934E+01  0.38010760192E+02  0.51100000000E-03 0.  1.
        -12    1    3    3    0    0 -0.75831878353E+00  0.96636541897E+00  0.11392547932E+01  0.16753539877E+01  0.00000000000E+00 0.  1.
</event>
<event>
 7    1  0.1519238E-008  0.4614232E+02  0.7816164E-02  0.1320468E+00
        -11   -1    0    0    0    0  0.00000000000E+00  0.00000000000E+00  0.45593999997E+02  0.45594000000E+02  0.51100000000E-03 0. -1.
         11   -1    0    0    0    0 -0.00000000000E+00 -0.00000000000E+00 -0.45593999997E+02  0.45594000000E+02  0.51100000000E-03 0.  1.
    9900012    2    1    2    0    0 -0.72058871796E+00  0.21556426496E+02  0.39546360721E+02  0.46142318546E+02  0.10000007160E+02 0.  0.
        -12    1    1    2    0    0  0.72058871796E+00 -0.21556426496E+02 -0.39546360721E+02  0.45045681454E+02  0.00000000000E+00 0.  1.
         11    1    3    3    0    0 -0.26868495494E+01  0.58857876521E+01  0.12939123467E+02  0.14466601990E+02  0.51100000000E-03 0. -1.
        -11    1    3    3    0    0  0.30119609432E+01  0.12405715150E+02  0.15659826890E+02  0.20204055424E+02  0.51100000000E-03 0.  1.
        -12    1    3    3    0    0 -0.10457001117E+01  0.32649236944E+01  0.10947410364E+02  0.11471661132E+02  0.00000000000E+00 0.  1.
</event>
<event>
 7    1  0.1519238E-008  0.4614232E+02  0.7816164E-02  0.1320468E+00
        -11   -1    0    0    0    0  0.00000000000E+00  0.00000000000E+00  0.45593999997E+02  0.45594000000E+02  0.51100000000E-03 0.  1.
         11   -1    0    0    0    0 -0.00000000000E+00 -0.00000000000E+00 -0.45593999997E+02  0.45594000000E+02  0.51100000000E-03 0. -1.
    9900012    2    1    2    0    0  0.21082838076E+02 -0.25240068685E+01 -0.39727282490E+02  0.46142316011E+02  0.99999840378E+01 0.  0.
        -12    1    1    2    0    0 -0.21082838076E+02  0.25240068685E+01  0.39727282490E+02  0.45045683989E+02  0.00000000000E+00 0.  1.
         11    1    3    3    0    0  0.18694589157E+02 -0.48342490578E+01 -0.32243503298E+02  0.37583256018E+02  0.51100000000E-03 0. -1.
        -11    1    3    3    0    0  0.21458680893E+01  0.28458902677E+01 -0.64942785158E+01  0.74080695849E+01  0.51100000000E-03 0.  1.
         12    1    3    3    0    0  0.24238082921E+00 -0.53564807841E+00 -0.98950067636E+00  0.11509904078E+01  0.00000000000E+00 0. -1.
</event>
<event>
 7    1  0.1519238E-008  0.4614232E+02  0.7816164E-02  0.1320468E+00
        -11   -1    0    0    0    0  0.00000000000E+00  0.00000000000E+00  0.45593999997E+02  0.45594000000E+02  0.51100000000E-03 0.  1.
         11   -1    0    0    0    0 -0.00000000000E+00 -0.00000000000E+00 -0.45593999997E+02  0.45594000000E+02  0.51100000000E-03 0. -1.
    9900012    2    1    2    0    0  0.16171682640E+02 -0.28048367600E+02 -0.31318989658E+02  0.46142319213E+02  0.10000013237E+02 0.  0.
        -12    1    1    2    0    0 -0.16171682640E+02  0.28048367600E+02  0.31318989658E+02  0.45045680787E+02  0.00000000000E+00 0.  1.
         11    1    3    3    0    0  0.74170315318E+01 -0.10716924747E+02 -0.14197205516E+02  0.19272401965E+02  0.51100000000E-03 0. -1.
        -11    1    3    3    0    0  0.77197213670E+00 -0.71956486782E+01 -0.92934185264E+01  0.11778833943E+02  0.51100000000E-03 0.  1.
        -12    1    3    3    0    0  0.79826789719E+01 -0.10135794174E+02 -0.78283656149E+01  0.15091083305E+02  0.00000000000E+00 0.  1.
</event>
<event>
 7    1  0.1519238E-008  0.4614232E+02  0.7816164E-02  0.1320468E+00
        -11   -1    0    0    0    0  0.00000000000E+00  0.00000000000E+00  0.45593999997E+02  0.45594000000E+02  0.51100000000E-03 0.  1.
         11   -1    0    0    0    0 -0.00000000000E+00 -0.00000000000E+00 -0.45593999997E+02  0.45594000000E+02  0.51100000000E-03 0. -1.
    9900012    2    1    2    0    0 -0.11437718783E+02 -0.45967007382E+00 -0.43566967326E+02  0.46142319302E+02  0.10000014051E+02 0.  0.
        -12    1    1    2    0    0  0.11437718783E+02  0.45967007382E+00  0.43566967326E+02  0.45045680698E+02  0.00000000000E+00 0.  1.
         11    1    3    3    0    0 -0.78882971621E+01 -0.25836194498E+01 -0.33766802650E+02  0.34772076197E+02  0.51100000000E-03 0. -1.
        -11    1    3    3    0    0 -0.18594607740E+01  0.26983778481E+01 -0.86421171544E+01  0.92425660156E+01  0.51100000000E-03 0.  1.
        -12    1    3    3    0    0 -0.16899608469E+01 -0.57442847218E+00 -0.11580475218E+01  0.21276770893E+01  0.00000000000E+00 0.  1.
</event>
<event>
 7    1  0.1519238E-008  0.4614230E+02  0.7816164E-02  0.1320468E+00
        -11   -1    0    0    0    0  0.00000000000E+00  0.00000000000E+00  0.45593999997E+02  0.45594000000E+02  0.51100000000E-03 0. -1.
         11   -1    0    0    0    0 -0.00000000000E+00 -0.00000000000E+00 -0.45593999997E+02  0.45594000000E+02  0.51100000000E-03 0.  1.
    9900012    2    1    2    0    0  0.14337845740E+02  0.11408177917E+02  0.41150874093E+02  0.46142303396E+02  0.99998690110E+01 0.  0.
        -12    1    1    2    0    0 -0.14337845740E+02 -0.11408177917E+02 -0.41150874093E+02  0.45045696604E+02  0.00000000000E+00 0.  1.
         11    1    3    3    0    0  0.33779786898E+01  0.17226048804E+01  0.81571545033E+01  0.89954031291E+01  0.51100000000E-03 0. -1.
        -11    1    3    3    0    0  0.35590400672E+01  0.82010437528E+01  0.22578951485E+02  0.24284417540E+02  0.51100000000E-03 0.  1.
        -12    1    3    3    0    0  0.74008269834E+01  0.14845292835E+01  0.10414768105E+02  0.12862482727E+02  0.00000000000E+00 0.  1.
</event>
<event>
 7    1  0.1519238E-008  0.4614232E+02  0.7816164E-02  0.1320468E+00
        -11   -1    0    0    0    0  0.00000000000E+00  0.00000000000E+00  0.45593999997E+02  0.45594000000E+02  0.51100000000E-03 0.  1.
         11   -1    0    0    0    0 -0.00000000000E+00 -0.00000000000E+00 -0.45593999997E+02  0.45594000000E+02  0.51100000000E-03 0. -1.
    9900012    2    1    2    0    0 -0.13426208376E+02  0.27591427588E+02 -0.32978228557E+02  0.46142317560E+02  0.99999981676E+01 0.  0.
        -12    1    1    2    0    0  0.13426208376E+02 -0.27591427588E+02  0.32978228557E+02  0.45045682440E+02  0.00000000000E+00 0.  1.
         11    1    3    3    0    0 -0.57352674419E+00  0.34613809745E+01 -0.19374544306E+01  0.40079696991E+01  0.51100000000E-03 0. -1.
        -11    1    3    3    0    0 -0.38777777140E+01  0.10559964471E+02 -0.18251560951E+02  0.21439904082E+02  0.51100000000E-03 0.  1.
         12    1    3    3    0    0 -0.89749039177E+01  0.13570082142E+02 -0.12789213176E+02  0.20694443779E+02  0.00000000000E+00 0. -1.
</event>
<event>
 7    1  0.1519238E-008  0.4614232E+02  0.7816164E-02  0.1320468E+00
        -11   -1    0    0    0    0  0.00000000000E+00  0.00000000000E+00  0.45593999997E+02  0.45594000000E+02  0.51100000000E-03 0.  1.
         11   -1    0    0    0    0 -0.00000000000E+00 -0.00000000000E+00 -0.45593999997E+02  0.45594000000E+02  0.51100000000E-03 0. -1.
    9900012    2    1    2    0    0 -0.49108259566E+01  0.15482521214E+02 -0.42015343076E+02  0.46142315095E+02  0.99999756925E+01 0.  0.
        -12    1    1    2    0    0  0.49108259566E+01 -0.15482521214E+02  0.42015343076E+02  0.45045684905E+02  0.00000000000E+00 0.  1.
         11    1    3    3    0    0 -0.33351618538E+01  0.29443129143E+01 -0.11467054293E+02  0.12299821850E+02  0.51100000000E-03 0. -1.
        -11    1    3    3    0    0 -0.21978141481E+01  0.37648364681E+01 -0.41552146358E+01  0.60224737103E+01  0.51100000000E-03 0.  1.
         12    1    3    3    0    0  0.62215004534E+00  0.87733718315E+01 -0.26393074148E+02  0.27820019535E+02  0.00000000000E+00 0. -1.
</event>
<event>
 7    1  0.1519238E-008  0.4614232E+02  0.7816164E-02  0.1320468E+00
        -11   -1    0    0    0    0  0.00000000000E+00  0.00000000000E+00  0.45593999997E+02  0.45594000000E+02  0.51100000000E-03 0.  1.
         11   -1    0    0    0    0 -0.00000000000E+00 -0.00000000000E+00 -0.45593999997E+02  0.45594000000E+02  0.51100000000E-03 0. -1.
    9900012    2    1    2    0    0 -0.34134124647E+02  0.29227912977E+02  0.31151468084E+01  0.46142317609E+02  0.99999986127E+01 0.  0.
        -12    1    1    2    0    0  0.34134124647E+02 -0.29227912977E+02 -0.31151468084E+01  0.45045682391E+02  0.00000000000E+00 0.  1.
         11    1    3    3    0    0 -0.20383465164E+02  0.15055409463E+02  0.14720984791E+01  0.25383421369E+02  0.51100000000E-03 0. -1.
        -11    1    3    3    0    0 -0.20771953840E+00 -0.16673052913E-02  0.11291754530E+01  0.11481235348E+01  0.51100000000E-03 0.  1.
        -12    1    3    3    0    0 -0.13542939945E+02  0.14174170819E+02  0.51387287639E+00  0.19610772705E+02  0.00000000000E+00 0.  1.
</event>
<event>
 7    1  0.1519238E-008  0.4614232E+02  0.7816164E-02  0.1320468E+00
        -11   -1    0    0    0    0  0.00000000000E+00  0.00000000000E+00  0.45593999997E+02  0.45594000000E+02  0.51100000000E-03 0. -1.
         11   -1    0    0    0    0 -0.00000000000E+00 -0.00000000000E+00 -0.45593999997E+02  0.45594000000E+02  0.51100000000E-03 0.  1.
    9900012    2    1    2    0    0  0.17754368670E+02  0.91237729234E+01  0.40381341504E+02  0.46142316734E+02  0.99999906321E+01 0.  0.
        -12    1    1    2    0    0 -0.17754368670E+02 -0.91237729234E+01 -0.40381341504E+02  0.45045683266E+02  0.00000000000E+00 0.  1.
         11    1    3    3    0    0  0.67709217115E+01  0.43335710905E+01  0.14353524783E+02  0.16451410067E+02  0.51100000000E-03 0. -1.
        -11    1    3    3    0    0  0.24601460892E+01  0.50763620132E+01  0.85465751902E+01  0.10240396370E+02  0.51100000000E-03 0.  1.
        -12    1    3    3    0    0  0.85233008690E+01 -0.28616018038E+00  0.17481241531E+02  0.19450510297E+02  0.00000000000E+00 0.  1.
</event>
<event>
 7    1  0.1519238E-008  0.4614232E+02  0.7816164E-02  0.1320468E+00
        -11   -1    0    0    0    0  0.00000000000E+00  0.00000000000E+00  0.45593999997E+02  0.45594000000E+02  0.51100000000E-03 0.  1.
         11   -1    0    0    0    0 -0.00000000000E+00 -0.00000000000E+00 -0.45593999997E+02  0.45594000000E+02  0.51100000000E-03 0. -1.
    9900012    2    1    2    0    0  0.10639475721E+02 -0.25573121072E+01 -0.43696397268E+02  0.46142318487E+02  0.10000006617E+02 0.  0.
        -12    1    1    2    0    0 -0.10639475721E+02  0.25573121072E+01  0.43696397268E+02  0.45045681513E+02  0.00000000000E+00 0.  1.
         11    1    3    3    0    0  0.48564082396E+01  0.14010709639E+01 -0.18062829915E+02  0.18756692822E+02  0.51100000000E-03 0. -1.
        -11    1    3    3    0    0 -0.11276262459E+01  0.20775557517E+00 -0.68027117502E+01  0.68986658672E+01  0.51100000000E-03 0.  1.
         12    1    3    3    0    0  0.69106937270E+01 -0.41661386463E+01 -0.18830855603E+02  0.20486959797E+02  0.00000000000E+00 0. -1.
</event>
<event>
 7    1  0.1519238E-008  0.4614232E+02  0.7816164E-02  0.1320468E+00
        -11   -1    0    0    0    0  0.00000000000E+00  0.00000000000E+00  0.45593999997E+02  0.45594000000E+02  0.51100000000E-03 0.  1.
         11   -1    0    0    0    0 -0.00000000000E+00 -0.00000000000E+00 -0.45593999997E+02  0.45594000000E+02  0.51100000000E-03 0. -1.
    9900012    2    1    2    0    0 -0.84140311866E+01 -0.24321139014E+02 -0.36970254555E+02  0.46142318236E+02  0.10000004326E+02 0.  0.
        -12    1    1    2    0    0  0.84140311866E+01  0.24321139014E+02  0.36970254555E+02  0.45045681764E+02  0.00000000000E+00 0.  1.
         11    1    3    3    0    0 -0.52968074296E+00 -0.11090049004E+02 -0.11011586510E+02  0.15637288330E+02  0.51100000000E-03 0. -1.
        -11    1    3    3    0    0 -0.76150809432E+01 -0.12989554700E+02 -0.26087525051E+02  0.30121038372E+02  0.51100000000E-03 0.  1.
        -12    1    3    3    0    0 -0.26926950038E+00 -0.24153531024E+00  0.12885700527E+00  0.38399153342E+00  0.00000000000E+00 0.  1.
</event>
<event>
 7    1  0.1519238E-008  0.4614232E+02  0.7816164E-02  0.1320468E+00
        -11   -1    0    0    0    0  0.00000000000E+00  0.00000000000E+00  0.45593999997E+02  0.45594000000E+02  0.51100000000E-03 0. -1.
         11   -1    0    0    0    0 -0.00000000000E+00 -0.00000000000E+00 -0.45593999997E+02  0.45594000000E+02  0.51100000000E-03 0.  1.
    9900012    2    1    2    0    0  0.32360259561E+02  0.18951720768E+02 -0.24955146319E+02  0.46142318223E+02  0.10000004211E+02 0.  0.
        -12    1    1    2    0    0 -0.32360259561E+02 -0.18951720768E+02  0.24955146319E+02  0.45045681777E+02  0.00000000000E+00 0.  1.
         11    1    3    3    0    0  0.60648435339E+00  0.19969887163E+00 -0.29374955426E+01  0.30060910222E+01  0.51100000000E-03 0.  1.
        -11    1    3    3    0    0  0.20793135004E+02  0.12194547435E+02 -0.12138478696E+02  0.26988962850E+02  0.51100000000E-03 0. -1.
         12    1    3    3    0    0  0.10960640204E+02  0.65574744621E+01 -0.98791720809E+01  0.16147264351E+02  0.00000000000E+00 0. -1.
</event>
<event>
 7    1  0.1519238E-008  0.4614232E+02  0.7816164E-02  0.1320468E+00
        -11   -1    0    0    0    0  0.00000000000E+00  0.00000000000E+00  0.45593999997E+02  0.45594000000E+02  0.51100000000E-03 0. -1.
         11   -1    0    0    0    0 -0.00000000000E+00 -0.00000000000E+00 -0.45593999997E+02  0.45594000000E+02  0.51100000000E-03 0.  1.
    9900012    2    1    2    0    0 -0.16923263859E+02  0.41117752015E+02 -0.72143655137E+01  0.46142318074E+02  0.10000002853E+02 0.  0.
        -12    1    1    2    0    0  0.16923263859E+02 -0.41117752015E+02  0.72143655137E+01  0.45045681926E+02  0.00000000000E+00 0.  1.
         11    1    3    3    0    0 -0.10463227074E+02  0.29774021395E+02 -0.14527665102E+01  0.31592435830E+02  0.51100000000E-03 0. -1.
        -11    1    3    3    0    0 -0.22423460333E+01  0.36193026696E+01 -0.33696477861E+01  0.54297324070E+01  0.51100000000E-03 0.  1.
         12    1    3    3    0    0 -0.42176907511E+01  0.77244279501E+01 -0.23919512173E+01  0.91201498373E+01  0.00000000000E+00 0. -1.
</event>
<event>
 7    1  0.1519238E-008  0.4614232E+02  0.7816164E-02  0.1320468E+00
        -11   -1    0    0    0    0  0.00000000000E+00  0.00000000000E+00  0.45593999997E+02  0.45594000000E+02  0.51100000000E-03 0. -1.
         11   -1    0    0    0    0 -0.00000000000E+00 -0.00000000000E+00 -0.45593999997E+02  0.45594000000E+02  0.51100000000E-03 0.  1.
    9900012    2    1    2    0    0  0.31198352862E+02  0.16880607565E+02  0.27763669656E+02  0.46142317790E+02  0.10000000260E+02 0.  0.
        -12    1    1    2    0    0 -0.31198352862E+02 -0.16880607565E+02 -0.27763669656E+02  0.45045682210E+02  0.00000000000E+00 0.  1.
         11    1    3    3    0    0  0.25883795478E+02  0.12262595884E+02  0.23746061230E+02  0.37205074255E+02  0.51100000000E-03 0. -1.
        -11    1    3    3    0    0  0.13596608297E+01  0.99503792289E+00 -0.67076762101E+00  0.18134793912E+01  0.51100000000E-03 0.  1.
        -12    1    3    3    0    0  0.39548965539E+01  0.36229737587E+01  0.46883760469E+01  0.71237641430E+01  0.00000000000E+00 0.  1.
</event>
<event>
 7    1  0.1519238E-008  0.4614232E+02  0.7816164E-02  0.1320468E+00
        -11   -1    0    0    0    0  0.00000000000E+00  0.00000000000E+00  0.45593999997E+02  0.45594000000E+02  0.51100000000E-03 0.  1.
         11   -1    0    0    0    0 -0.00000000000E+00 -0.00000000000E+00 -0.45593999997E+02  0.45594000000E+02  0.51100000000E-03 0. -1.
    9900012    2    1    2    0    0 -0.44436288969E+02 -0.57325066503E+01  0.46549044124E+01  0.46142317133E+02  0.99999942737E+01 0.  0.
        -12    1    1    2    0    0  0.44436288969E+02  0.57325066503E+01 -0.46549044124E+01  0.45045682867E+02  0.00000000000E+00 0.  1.
         11    1    3    3    0    0 -0.15565718623E+02 -0.40010320384E+01  0.30922958537E+01  0.16366494663E+02  0.51100000000E-03 0. -1.
        -11    1    3    3    0    0 -0.93013736478E+01 -0.29204752742E+01  0.27652876374E+01  0.10133683612E+02  0.51100000000E-03 0.  1.
         12    1    3    3    0    0 -0.19569196698E+02  0.11890006623E+01 -0.12026790787E+01  0.19642138859E+02  0.00000000000E+00 0. -1.
</event>
<event>
 7    1  0.1519238E-008  0.4614232E+02  0.7816164E-02  0.1320468E+00
        -11   -1    0    0    0    0  0.00000000000E+00  0.00000000000E+00  0.45593999997E+02  0.45594000000E+02  0.51100000000E-03 0.  1.
         11   -1    0    0    0    0 -0.00000000000E+00 -0.00000000000E+00 -0.45593999997E+02  0.45594000000E+02  0.51100000000E-03 0. -1.
    9900012    2    1    2    0    0  0.40743288901E+02 -0.72849387515E+01 -0.17777160235E+02  0.46142319307E+02  0.10000014099E+02 0.  0.
        -12    1    1    2    0    0 -0.40743288901E+02  0.72849387515E+01  0.17777160235E+02  0.45045680693E+02  0.00000000000E+00 0.  1.
         11    1    3    3    0    0  0.18959227891E+02 -0.32900911473E+01 -0.81936667384E+01  0.20914425569E+02  0.51100000000E-03 0. -1.
        -11    1    3    3    0    0  0.14486450652E+02 -0.61082305707E+01 -0.69190816645E+01  0.17176769910E+02  0.51100000000E-03 0.  1.
        -12    1    3    3    0    0  0.72976103577E+01  0.21133829664E+01 -0.26644118322E+01  0.80511238288E+01  0.00000000000E+00 0.  1.
</event>
<event>
 7    1  0.1519238E-008  0.4614233E+02  0.7816164E-02  0.1320468E+00
        -11   -1    0    0    0    0  0.00000000000E+00  0.00000000000E+00  0.45593999997E+02  0.45594000000E+02  0.51100000000E-03 0.  1.
         11   -1    0    0    0    0 -0.00000000000E+00 -0.00000000000E+00 -0.45593999997E+02  0.45594000000E+02  0.51100000000E-03 0. -1.
    9900012    2    1    2    0    0  0.25663020465E+02  0.81316450749E+01 -0.36116450438E+02  0.46142331360E+02  0.10000124002E+02 0.  0.
        -12    1    1    2    0    0 -0.25663020465E+02 -0.81316450749E+01  0.36116450438E+02  0.45045668640E+02  0.00000000000E+00 0.  1.
         11    1    3    3    0    0  0.55226926437E+01  0.28759124971E+01 -0.31630094679E+01  0.69839556043E+01  0.51100000000E-03 0. -1.
        -11    1    3    3    0    0  0.13729324794E+02  0.21309315442E+01 -0.23744089413E+02  0.27510307356E+02  0.51100000000E-03 0.  1.
         12    1    3    3    0    0  0.64110030275E+01  0.31248010336E+01 -0.92093515574E+01  0.11648068399E+02  0.00000000000E+00 0. -1.
</event>
<event>
 7    1  0.1519238E-008  0.4614231E+02  0.7816164E-02  0.1320468E+00
        -11   -1    0    0    0    0  0.00000000000E+00  0.00000000000E+00  0.45593999997E+02  0.45594000000E+02  0.51100000000E-03 0. -1.
         11   -1    0    0    0    0 -0.00000000000E+00 -0.00000000000E+00 -0.45593999997E+02  0.45594000000E+02  0.51100000000E-03 0.  1.
    9900012    2    1    2    0    0  0.12403412030E+02 -0.43202238174E+02 -0.29724984132E+01  0.46142314746E+02  0.99999725056E+01 0.  0.
        -12    1    1    2    0    0 -0.12403412030E+02  0.43202238174E+02  0.29724984132E+01  0.45045685254E+02  0.00000000000E+00 0.  1.
         11    1    3    3    0    0  0.78306272074E+01 -0.31116006735E+02 -0.14404159340E+01  0.32118521073E+02  0.51100000000E-03 0. -1.
        -11    1    3    3    0    0  0.22348336015E+01 -0.15976077823E+01  0.11015007515E+01  0.29597526956E+01  0.51100000000E-03 0.  1.
         12    1    3    3    0    0  0.23379512207E+01 -0.10488623657E+02 -0.26335832307E+01  0.11064040978E+02  0.00000000000E+00 0. -1.
</event>
<event>
 7    1  0.1519238E-008  0.4614231E+02  0.7816164E-02  0.1320468E+00
        -11   -1    0    0    0    0  0.00000000000E+00  0.00000000000E+00  0.45593999997E+02  0.45594000000E+02  0.51100000000E-03 0.  1.
         11   -1    0    0    0    0 -0.00000000000E+00 -0.00000000000E+00 -0.45593999997E+02  0.45594000000E+02  0.51100000000E-03 0. -1.
    9900012    2    1    2    0    0 -0.21503769889E+02 -0.53520795578E+01 -0.39218077451E+02  0.46142306821E+02  0.99999002386E+01 0.  0.
        -12    1    1    2    0    0  0.21503769889E+02  0.53520795578E+01  0.39218077451E+02  0.45045693179E+02  0.00000000000E+00 0.  1.
         11    1    3    3    0    0 -0.74090751743E+01 -0.11698602442E+01 -0.15804478163E+02  0.17494127534E+02  0.51100000000E-03 0. -1.
        -11    1    3    3    0    0 -0.14600880026E+02 -0.34255522296E+01 -0.23329151307E+02  0.27733903558E+02  0.51100000000E-03 0.  1.
         12    1    3    3    0    0  0.50618531158E+00 -0.75666708395E+00 -0.84447981035E-01  0.91427572815E+00  0.00000000000E+00 0. -1.
</event>
<event>
 7    1  0.1519238E-008  0.4614232E+02  0.7816164E-02  0.1320468E+00
        -11   -1    0    0    0    0  0.00000000000E+00  0.00000000000E+00  0.45593999997E+02  0.45594000000E+02  0.51100000000E-03 0.  1.
         11   -1    0    0    0    0 -0.00000000000E+00 -0.00000000000E+00 -0.45593999997E+02  0.45594000000E+02  0.51100000000E-03 0. -1.
    9900012    2    1    2    0    0 -0.10638082004E+02 -0.26063729104E+02 -0.35165704677E+02  0.46142317089E+02  0.99999938704E+01 0.  0.
        -12    1    1    2    0    0  0.10638082004E+02  0.26063729104E+02  0.35165704677E+02  0.45045682911E+02  0.00000000000E+00 0.  1.
         11    1    3    3    0    0 -0.60043313248E+01 -0.81701282432E+01 -0.18792116160E+02  0.21352906598E+02  0.51100000000E-03 0. -1.
        -11    1    3    3    0    0 -0.20101224419E+00 -0.13559571703E+00 -0.52538823202E+00  0.57864080072E+00  0.51100000000E-03 0.  1.
         12    1    3    3    0    0 -0.44327384353E+01 -0.17758005144E+02 -0.15848200285E+02  0.24210769690E+02  0.00000000000E+00 0. -1.
</event>
<event>
 7    1  0.1519238E-008  0.4614232E+02  0.7816164E-02  0.1320468E+00
        -11   -1    0    0    0    0  0.00000000000E+00  0.00000000000E+00  0.45593999997E+02  0.45594000000E+02  0.51100000000E-03 0.  1.
         11   -1    0    0    0    0 -0.00000000000E+00 -0.00000000000E+00 -0.45593999997E+02  0.45594000000E+02  0.51100000000E-03 0. -1.
    9900012    2    1    2    0    0 -0.40660784169E+02  0.15348584617E+02  0.11842088645E+02  0.46142317826E+02  0.10000000594E+02 0.  0.
        -12    1    1    2    0    0  0.40660784169E+02 -0.15348584617E+02 -0.11842088645E+02  0.45045682174E+02  0.00000000000E+00 0.  1.
         11    1    3    3    0    0 -0.20374085981E+02  0.96543197632E+01  0.84352022299E+01  0.24072015008E+02  0.51100000000E-03 0. -1.
        -11    1    3    3    0    0 -0.39200181895E+01 -0.10368893593E+01  0.34162881946E-01  0.40549783616E+01  0.51100000000E-03 0.  1.
        -12    1    3    3    0    0 -0.16366679999E+02  0.67311542133E+01  0.33727235331E+01  0.18015324456E+02  0.00000000000E+00 0.  1.
</event>
<event>
 7    1  0.1519238E-008  0.4614231E+02  0.7816164E-02  0.1320468E+00
        -11   -1    0    0    0    0  0.00000000000E+00  0.00000000000E+00  0.45593999997E+02  0.45594000000E+02  0.51100000000E-03 0.  1.
         11   -1    0    0    0    0 -0.00000000000E+00 -0.00000000000E+00 -0.45593999997E+02  0.45594000000E+02  0.51100000000E-03 0. -1.
    9900012    2    1    2    0    0  0.38717854165E+02 -0.15961572245E+02 -0.16591254492E+02  0.46142314909E+02  0.99999739940E+01 0.  0.
        -12    1    1    2    0    0 -0.38717854165E+02  0.15961572245E+02  0.16591254492E+02  0.45045685091E+02  0.00000000000E+00 0.  1.
         11    1    3    3    0    0  0.23251273311E+02 -0.62603470910E+01 -0.90165859766E+01  0.25712107638E+02  0.51100000000E-03 0. -1.
        -11    1    3    3    0    0  0.13760531991E+02 -0.10239310579E+02 -0.64945907680E+01  0.18340540650E+02  0.51100000000E-03 0.  1.
         12    1    3    3    0    0  0.17060488628E+01  0.53808542486E+00 -0.10800777473E+01  0.20896666210E+01  0.00000000000E+00 0. -1.
</event>
<event>
 7    1  0.1519238E-008  0.4614232E+02  0.7816164E-02  0.1320468E+00
        -11   -1    0    0    0    0  0.00000000000E+00  0.00000000000E+00  0.45593999997E+02  0.45594000000E+02  0.51100000000E-03 0.  1.
         11   -1    0    0    0    0 -0.00000000000E+00 -0.00000000000E+00 -0.45593999997E+02  0.45594000000E+02  0.51100000000E-03 0. -1.
    9900012    2    1    2    0    0 -0.15399556224E+02  0.41937691194E+02 -0.57617030860E+01  0.46142317665E+02  0.99999991245E+01 0.  0.
        -12    1    1    2    0    0  0.15399556224E+02 -0.41937691194E+02  0.57617030860E+01  0.45045682335E+02  0.00000000000E+00 0.  1.
         11    1    3    3    0    0 -0.55026014121E+01  0.22257938501E+02 -0.44558914116E+00  0.22932357021E+02  0.51100000000E-03 0. -1.
        -11    1    3    3    0    0 -0.40946967415E+01  0.35111837022E+01 -0.84792622377E+00  0.54602135066E+01  0.51100000000E-03 0.  1.
         12    1    3    3    0    0 -0.58022580703E+01  0.16168568991E+02 -0.44681877210E+01  0.17749747137E+02  0.00000000000E+00 0. -1.
</event>
<event>
 7    1  0.1519238E-008  0.4614232E+02  0.7816164E-02  0.1320468E+00
        -11   -1    0    0    0    0  0.00000000000E+00  0.00000000000E+00  0.45593999997E+02  0.45594000000E+02  0.51100000000E-03 0.  1.
         11   -1    0    0    0    0 -0.00000000000E+00 -0.00000000000E+00 -0.45593999997E+02  0.45594000000E+02  0.51100000000E-03 0. -1.
    9900012    2    1    2    0    0 -0.54858138492E+01 -0.24186913130E+02 -0.37603355475E+02  0.46142320259E+02  0.10000022776E+02 0.  0.
        -12    1    1    2    0    0  0.54858138492E+01  0.24186913130E+02  0.37603355475E+02  0.45045679741E+02  0.00000000000E+00 0.  1.
         11    1    3    3    0    0 -0.12651845762E+01 -0.50686278342E+01 -0.33825344894E+01  0.62236018483E+01  0.51100000000E-03 0. -1.
        -11    1    3    3    0    0  0.66478934505E+00 -0.49600114428E+01 -0.49518506743E+01  0.70402048087E+01  0.51100000000E-03 0.  1.
        -12    1    3    3    0    0 -0.48854186181E+01 -0.14158273853E+02 -0.29268970312E+02  0.32878513602E+02  0.00000000000E+00 0.  1.
</event>
<event>
 7    1  0.1519238E-008  0.4614232E+02  0.7816164E-02  0.1320468E+00
        -11   -1    0    0    0    0  0.00000000000E+00  0.00000000000E+00  0.45593999997E+02  0.45594000000E+02  0.51100000000E-03 0.  1.
         11   -1    0    0    0    0 -0.00000000000E+00 -0.00000000000E+00 -0.45593999997E+02  0.45594000000E+02  0.51100000000E-03 0. -1.
    9900012    2    1    2    0    0  0.17004120401E+02 -0.24782750049E+02 -0.33552772860E+02  0.46142318996E+02  0.10000011257E+02 0.  0.
        -12    1    1    2    0    0 -0.17004120401E+02  0.24782750049E+02  0.33552772860E+02  0.45045681004E+02  0.00000000000E+00 0.  1.
         11    1    3    3    0    0  0.15398087046E+02 -0.15389309048E+02 -0.22217566190E+02  0.31105500564E+02  0.51100000000E-03 0. -1.
        -11    1    3    3    0    0 -0.31716448150E-01 -0.62642813670E+01 -0.62813942962E+01  0.88711973005E+01  0.51100000000E-03 0.  1.
        -12    1    3    3    0    0  0.16377498030E+01 -0.31291596331E+01 -0.50538123737E+01  0.61656211314E+01  0.00000000000E+00 0.  1.
</event>
<event>
 7    1  0.1519238E-008  0.4614232E+02  0.7816164E-02  0.1320468E+00
        -11   -1    0    0    0    0  0.00000000000E+00  0.00000000000E+00  0.45593999997E+02  0.45594000000E+02  0.51100000000E-03 0. -1.
         11   -1    0    0    0    0 -0.00000000000E+00 -0.00000000000E+00 -0.45593999997E+02  0.45594000000E+02  0.51100000000E-03 0.  1.
    9900012    2    1    2    0    0  0.43659757179E+02  0.80370230368E+01  0.76384122949E+01  0.46142317869E+02  0.10000000987E+02 0.  0.
        -12    1    1    2    0    0 -0.43659757179E+02 -0.80370230368E+01 -0.76384122949E+01  0.45045682131E+02  0.00000000000E+00 0.  1.
         11    1    3    3    0    0  0.25897123220E+02  0.23894154703E+01  0.79753503051E+01  0.27202509261E+02  0.51100000000E-03 0.  1.
        -11    1    3    3    0    0  0.31485842808E+01  0.23905580785E+01 -0.33221814798E+00  0.39672055731E+01  0.51100000000E-03 0. -1.
         12    1    3    3    0    0  0.14614049678E+02  0.32570494879E+01 -0.47198622554E-02  0.14972603035E+02  0.00000000000E+00 0. -1.
</event>
<event>
 7    1  0.1519238E-008  0.4614232E+02  0.7816164E-02  0.1320468E+00
        -11   -1    0    0    0    0  0.00000000000E+00  0.00000000000E+00  0.45593999997E+02  0.45594000000E+02  0.51100000000E-03 0.  1.
         11   -1    0    0    0    0 -0.00000000000E+00 -0.00000000000E+00 -0.45593999997E+02  0.45594000000E+02  0.51100000000E-03 0. -1.
    9900012    2    1    2    0    0  0.27332322567E+02  0.35764403839E+02 -0.17219104451E+01  0.46142318581E+02  0.10000007479E+02 0.  0.
        -12    1    1    2    0    0 -0.27332322567E+02 -0.35764403839E+02  0.17219104451E+01  0.45045681419E+02  0.00000000000E+00 0.  1.
         11    1    3    3    0    0  0.25001126910E+02  0.28584899066E+02 -0.33647769981E+01  0.38124460992E+02  0.51100000000E-03 0. -1.
        -11    1    3    3    0    0  0.12346611249E+01  0.13440897955E+01  0.89711387776E+00  0.20336614867E+01  0.51100000000E-03 0.  1.
         12    1    3    3    0    0  0.10965345317E+01  0.58354149781E+01  0.74575267526E+00  0.59841961029E+01  0.00000000000E+00 0. -1.
</event>
<event>
 7    1  0.1519238E-008  0.4614232E+02  0.7816164E-02  0.1320468E+00
        -11   -1    0    0    0    0  0.00000000000E+00  0.00000000000E+00  0.45593999997E+02  0.45594000000E+02  0.51100000000E-03 0. -1.
         11   -1    0    0    0    0 -0.00000000000E+00 -0.00000000000E+00 -0.45593999997E+02  0.45594000000E+02  0.51100000000E-03 0.  1.
    9900012    2    1    2    0    0 -0.35632372522E+02 -0.15723222103E+02  0.22632451353E+02  0.46142317198E+02  0.99999948655E+01 0.  0.
        -12    1    1    2    0    0  0.35632372522E+02  0.15723222103E+02 -0.22632451353E+02  0.45045682802E+02  0.00000000000E+00 0.  1.
         11    1    3    3    0    0 -0.91852137372E+01 -0.60521708846E+01  0.81106776759E+01  0.13666748569E+02  0.51100000000E-03 0. -1.
        -11    1    3    3    0    0 -0.17077337902E+02 -0.34894709215E+01  0.61920828021E+01  0.18497398920E+02  0.51100000000E-03 0.  1.
        -12    1    3    3    0    0 -0.93698208831E+01 -0.61815802967E+01  0.83296908751E+01  0.13978169709E+02  0.00000000000E+00 0.  1.
</event>
<event>
 7    1  0.1519238E-008  0.4614232E+02  0.7816164E-02  0.1320468E+00
        -11   -1    0    0    0    0  0.00000000000E+00  0.00000000000E+00  0.45593999997E+02  0.45594000000E+02  0.51100000000E-03 0.  1.
         11   -1    0    0    0    0 -0.00000000000E+00 -0.00000000000E+00 -0.45593999997E+02  0.45594000000E+02  0.51100000000E-03 0. -1.
    9900012    2    1    2    0    0  0.10094151366E+02  0.31505196757E+02 -0.30571950101E+02  0.46142318215E+02  0.10000004135E+02 0.  0.
        -12    1    1    2    0    0 -0.10094151366E+02 -0.31505196757E+02  0.30571950101E+02  0.45045681785E+02  0.00000000000E+00 0.  1.
         11    1    3    3    0    0  0.62267842121E+01  0.20105674973E+02 -0.15593254091E+02  0.26194667037E+02  0.51100000000E-03 0. -1.
        -11    1    3    3    0    0 -0.11207371243E+01  0.67541705300E+00 -0.10718852319E+01  0.16915017318E+01  0.51100000000E-03 0.  1.
         12    1    3    3    0    0  0.49881042783E+01  0.10724104731E+02 -0.13906810778E+02  0.18256149446E+02  0.00000000000E+00 0. -1.
</event>
<event>
 7    1  0.1519238E-008  0.4614232E+02  0.7816164E-02  0.1320468E+00
        -11   -1    0    0    0    0  0.00000000000E+00  0.00000000000E+00  0.45593999997E+02  0.45594000000E+02  0.51100000000E-03 0.  1.
         11   -1    0    0    0    0 -0.00000000000E+00 -0.00000000000E+00 -0.45593999997E+02  0.45594000000E+02  0.51100000000E-03 0. -1.
    9900012    2    1    2    0    0 -0.46448416062E+01 -0.44644925883E+02 -0.37907359956E+01  0.46142316078E+02  0.99999846508E+01 0.  0.
        -12    1    1    2    0    0  0.46448416062E+01  0.44644925883E+02  0.37907359956E+01  0.45045683922E+02  0.00000000000E+00 0.  1.
         11    1    3    3    0    0 -0.28208378192E+01 -0.29571616452E+02 -0.63809025054E+01  0.30383441916E+02  0.51100000000E-03 0. -1.
        -11    1    3    3    0    0 -0.25888252235E+01 -0.76152640784E+01  0.15218691942E+01  0.81859849210E+01  0.51100000000E-03 0.  1.
         12    1    3    3    0    0  0.76482143647E+00 -0.74580453520E+01  0.10682973156E+01  0.75728892410E+01  0.00000000000E+00 0. -1.
</event>
<event>
 7    1  0.1519238E-008  0.4614232E+02  0.7816164E-02  0.1320468E+00
        -11   -1    0    0    0    0  0.00000000000E+00  0.00000000000E+00  0.45593999997E+02  0.45594000000E+02  0.51100000000E-03 0. -1.
         11   -1    0    0    0    0 -0.00000000000E+00 -0.00000000000E+00 -0.45593999997E+02  0.45594000000E+02  0.51100000000E-03 0.  1.
    9900012    2    1    2    0    0  0.29613781648E+02  0.33519344057E+02 -0.53470523691E+01  0.46142318092E+02  0.10000003016E+02 0.  0.
        -12    1    1    2    0    0 -0.29613781648E+02 -0.33519344057E+02  0.53470523691E+01  0.45045681908E+02  0.00000000000E+00 0.  1.
         11    1    3    3    0    0  0.88499213912E+00  0.40488649049E+01  0.38876114683E+00  0.41626498285E+01  0.51100000000E-03 0.  1.
        -11    1    3    3    0    0  0.18341765434E+02  0.18272546588E+02 -0.64766547485E+01  0.26688075521E+02  0.51100000000E-03 0. -1.
         12    1    3    3    0    0  0.10387024075E+02  0.11197932565E+02  0.74084123263E+00  0.15291592742E+02  0.00000000000E+00 0. -1.
</event>
<event>
 7    1  0.1519238E-008  0.4614233E+02  0.7816164E-02  0.1320468E+00
        -11   -1    0    0    0    0  0.00000000000E+00  0.00000000000E+00  0.45593999997E+02  0.45594000000E+02  0.51100000000E-03 0.  1.
         11   -1    0    0    0    0 -0.00000000000E+00 -0.00000000000E+00 -0.45593999997E+02  0.45594000000E+02  0.51100000000E-03 0. -1.
    9900012    2    1    2    0    0 -0.20861997926E+02  0.19368256904E+02 -0.34910746408E+02  0.46142328202E+02  0.10000095207E+02 0.  0.
        -12    1    1    2    0    0  0.20861997926E+02 -0.19368256904E+02  0.34910746408E+02  0.45045671798E+02  0.00000000000E+00 0.  1.
         11    1    3    3    0    0 -0.36373140499E+01  0.40312611113E+01 -0.89006472018E+01  0.10426055847E+02  0.51100000000E-03 0. -1.
        -11    1    3    3    0    0  0.11894951729E+00 -0.29458589168E+00 -0.27177501560E+01  0.27362558372E+01  0.51100000000E-03 0.  1.
         12    1    3    3    0    0 -0.17343633393E+02  0.15631581684E+02 -0.23292349050E+02  0.32980016518E+02  0.00000000000E+00 0. -1.
</event>
<event>
 7    1  0.1519238E-008  0.4614232E+02  0.7816164E-02  0.1320468E+00
        -11   -1    0    0    0    0  0.00000000000E+00  0.00000000000E+00  0.45593999997E+02  0.45594000000E+02  0.51100000000E-03 0.  1.
         11   -1    0    0    0    0 -0.00000000000E+00 -0.00000000000E+00 -0.45593999997E+02  0.45594000000E+02  0.51100000000E-03 0. -1.
    9900012    2    1    2    0    0 -0.15918120470E+02  0.26988729164E+01 -0.42052861012E+02  0.46142316593E+02  0.99999893510E+01 0.  0.
        -12    1    1    2    0    0  0.15918120470E+02 -0.26988729164E+01  0.42052861012E+02  0.45045683407E+02  0.00000000000E+00 0.  1.
         11    1    3    3    0    0 -0.79697655587E+01  0.54157788653E+01 -0.28534524533E+02  0.30117551599E+02  0.51100000000E-03 0. -1.
        -11    1    3    3    0    0 -0.53905177801E+01 -0.22369939188E+01 -0.10703169797E+02  0.12190966643E+02  0.51100000000E-03 0.  1.
        -12    1    3    3    0    0 -0.25578371315E+01 -0.47991203003E+00 -0.28151666823E+01  0.38337983511E+01  0.00000000000E+00 0.  1.
</event>
<event>
 7    1  0.1519238E-008  0.4614232E+02  0.7816164E-02  0.1320468E+00
        -11   -1    0    0    0    0  0.00000000000E+00  0.00000000000E+00  0.45593999997E+02  0.45594000000E+02  0.51100000000E-03 0.  1.
         11   -1    0    0    0    0 -0.00000000000E+00 -0.00000000000E+00 -0.45593999997E+02  0.45594000000E+02  0.51100000000E-03 0. -1.
    9900012    2    1    2    0    0 -0.16664712331E+01 -0.19170010951E+02 -0.40728945184E+02  0.46142318498E+02  0.10000006715E+02 0.  0.
        -12    1    1    2    0    0  0.16664712331E+01  0.19170010951E+02  0.40728945184E+02  0.45045681502E+02  0.00000000000E+00 0.  1.
         11    1    3    3    0    0 -0.37808157201E+01 -0.78008309738E+01 -0.23342846372E+02  0.24900522252E+02  0.51100000000E-03 0. -1.
        -11    1    3    3    0    0  0.16315545319E+01 -0.11362208263E+02 -0.17283718673E+02  0.20748221086E+02  0.51100000000E-03 0.  1.
        -12    1    3    3    0    0  0.48278995508E+00 -0.69717142433E-02 -0.10238013842E+00  0.49357515970E+00  0.00000000000E+00 0.  1.
</event>
<event>
 7    1  0.1519238E-008  0.4614232E+02  0.7816164E-02  0.1320468E+00
        -11   -1    0    0    0    0  0.00000000000E+00  0.00000000000E+00  0.45593999997E+02  0.45594000000E+02  0.51100000000E-03 0.  1.
         11   -1    0    0    0    0 -0.00000000000E+00 -0.00000000000E+00 -0.45593999997E+02  0.45594000000E+02  0.51100000000E-03 0. -1.
    9900012    2    1    2    0    0  0.22464274653E+02 -0.12968947778E+02 -0.36827655476E+02  0.46142318187E+02  0.10000003882E+02 0.  0.
        -12    1    1    2    0    0 -0.22464274653E+02  0.12968947778E+02  0.36827655476E+02  0.45045681813E+02  0.00000000000E+00 0.  1.
         11    1    3    3    0    0  0.33432144328E+01 -0.89958852089E+00 -0.66742331721E+01  0.75187586041E+01  0.51100000000E-03 0. -1.
        -11    1    3    3    0    0  0.13765748273E+02 -0.38038778108E+01 -0.17432315383E+02  0.22535548180E+02  0.51100000000E-03 0.  1.
        -12    1    3    3    0    0  0.53553119477E+01 -0.82654814463E+01 -0.12721106921E+02  0.16088011402E+02  0.00000000000E+00 0.  1.
</event>
<event>
 7    1  0.1519238E-008  0.4614232E+02  0.7816164E-02  0.1320468E+00
        -11   -1    0    0    0    0  0.00000000000E+00  0.00000000000E+00  0.45593999997E+02  0.45594000000E+02  0.51100000000E-03 0. -1.
         11   -1    0    0    0    0 -0.00000000000E+00 -0.00000000000E+00 -0.45593999997E+02  0.45594000000E+02  0.51100000000E-03 0.  1.
    9900012    2    1    2    0    0  0.20292573510E+00  0.44501945961E+02  0.69748904799E+01  0.46142317961E+02  0.10000001823E+02 0.  0.
        -12    1    1    2    0    0 -0.20292573510E+00 -0.44501945961E+02 -0.69748904799E+01  0.45045682039E+02  0.00000000000E+00 0.  1.
         11    1    3    3    0    0 -0.23503989821E+01  0.29097420658E+02  0.37583890372E+01  0.29433140382E+02  0.51100000000E-03 0. -1.
        -11    1    3    3    0    0 -0.40873309001E+00  0.45374947317E+01  0.29786370059E+01  0.54431792046E+01  0.51100000000E-03 0.  1.
         12    1    3    3    0    0  0.29620578072E+01  0.10867030571E+02  0.23786443683E+00  0.11265998375E+02  0.00000000000E+00 0. -1.
</event>
<event>
 7    1  0.1519238E-008  0.4614232E+02  0.7816164E-02  0.1320468E+00
        -11   -1    0    0    0    0  0.00000000000E+00  0.00000000000E+00  0.45593999997E+02  0.45594000000E+02  0.51100000000E-03 0.  1.
         11   -1    0    0    0    0 -0.00000000000E+00 -0.00000000000E+00 -0.45593999997E+02  0.45594000000E+02  0.51100000000E-03 0. -1.
    9900012    2    1    2    0    0  0.26522340843E+02 -0.33373754586E+02 -0.14555801813E+02  0.46142318460E+02  0.10000006375E+02 0.  0.
        -12    1    1    2    0    0 -0.26522340843E+02  0.33373754586E+02  0.14555801813E+02  0.45045681540E+02  0.00000000000E+00 0.  1.
         11    1    3    3    0    0  0.11752131532E+02 -0.10438076930E+02 -0.55634775353E+01  0.16673881614E+02  0.51100000000E-03 0. -1.
        -11    1    3    3    0    0  0.74125683044E+01 -0.68088700358E+01 -0.13124899879E+01  0.10150345327E+02  0.51100000000E-03 0.  1.
        -12    1    3    3    0    0  0.73576410065E+01 -0.16126807620E+02 -0.76798342899E+01  0.19318091519E+02  0.00000000000E+00 0.  1.
</event>
<event>
 7    1  0.1519238E-008  0.4614232E+02  0.7816164E-02  0.1320468E+00
        -11   -1    0    0    0    0  0.00000000000E+00  0.00000000000E+00  0.45593999997E+02  0.45594000000E+02  0.51100000000E-03 0.  1.
         11   -1    0    0    0    0 -0.00000000000E+00 -0.00000000000E+00 -0.45593999997E+02  0.45594000000E+02  0.51100000000E-03 0. -1.
    9900012    2    1    2    0    0  0.12471432806E+00  0.11139590617E+02 -0.43646390958E+02  0.46142317893E+02  0.10000001207E+02 0.  0.
        -12    1    1    2    0    0 -0.12471432806E+00 -0.11139590617E+02  0.43646390958E+02  0.45045682107E+02  0.00000000000E+00 0.  1.
         11    1    3    3    0    0 -0.10673752740E+01  0.78092630492E+01 -0.25612985926E+02  0.26798300835E+02  0.51100000000E-03 0. -1.
        -11    1    3    3    0    0  0.11466744013E+01  0.11028248477E+01 -0.16640690819E+02  0.16716568907E+02  0.51100000000E-03 0.  1.
        -12    1    3    3    0    0  0.45415200720E-01  0.22275027202E+01 -0.13927142133E+01  0.26274481515E+01  0.00000000000E+00 0.  1.
</event>
<event>
 7    1  0.1519238E-008  0.4614232E+02  0.7816164E-02  0.1320468E+00
        -11   -1    0    0    0    0  0.00000000000E+00  0.00000000000E+00  0.45593999997E+02  0.45594000000E+02  0.51100000000E-03 0.  1.
         11   -1    0    0    0    0 -0.00000000000E+00 -0.00000000000E+00 -0.45593999997E+02  0.45594000000E+02  0.51100000000E-03 0. -1.
    9900012    2    1    2    0    0  0.12690910981E+01 -0.94996029542E+01 -0.44014320870E+02  0.46142317742E+02  0.99999998228E+01 0.  0.
        -12    1    1    2    0    0 -0.12690910981E+01  0.94996029542E+01  0.44014320870E+02  0.45045682258E+02  0.00000000000E+00 0.  1.
         11    1    3    3    0    0  0.13582637711E+01 -0.84060589003E+01 -0.18441043745E+02  0.20312035874E+02  0.51100000000E-03 0. -1.
        -11    1    3    3    0    0  0.15923257907E+01 -0.89233339894E-01 -0.88332812874E+01  0.89760972910E+01  0.51100000000E-03 0.  1.
         12    1    3    3    0    0 -0.16814984637E+01 -0.10043107140E+01 -0.16739995837E+02  0.16854184576E+02  0.00000000000E+00 0. -1.
</event>
<event>
 7    1  0.1519238E-008  0.4614232E+02  0.7816164E-02  0.1320468E+00
        -11   -1    0    0    0    0  0.00000000000E+00  0.00000000000E+00  0.45593999997E+02  0.45594000000E+02  0.51100000000E-03 0.  1.
         11   -1    0    0    0    0 -0.00000000000E+00 -0.00000000000E+00 -0.45593999997E+02  0.45594000000E+02  0.51100000000E-03 0. -1.
    9900012    2    1    2    0    0 -0.20472249893E+01 -0.21571585339E+02 -0.39491633137E+02  0.46142317499E+02  0.99999976081E+01 0.  0.
        -12    1    1    2    0    0  0.20472249893E+01  0.21571585339E+02  0.39491633137E+02  0.45045682501E+02  0.00000000000E+00 0.  1.
         11    1    3    3    0    0 -0.25115340319E+01 -0.11486169278E+02 -0.20346773280E+02  0.23499597253E+02  0.51100000000E-03 0. -1.
        -11    1    3    3    0    0 -0.96699016567E+00 -0.26331047630E+00 -0.64533786886E+01  0.65307349622E+01  0.51100000000E-03 0.  1.
        -12    1    3    3    0    0  0.14312992083E+01 -0.98221055851E+01 -0.12691481168E+02  0.16111985284E+02  0.00000000000E+00 0.  1.
</event>
<event>
 7    1  0.1519238E-008  0.4614232E+02  0.7816164E-02  0.1320468E+00
        -11   -1    0    0    0    0  0.00000000000E+00  0.00000000000E+00  0.45593999997E+02  0.45594000000E+02  0.51100000000E-03 0. -1.
         11   -1    0    0    0    0 -0.00000000000E+00 -0.00000000000E+00 -0.45593999997E+02  0.45594000000E+02  0.51100000000E-03 0.  1.
    9900012    2    1    2    0    0 -0.15091375636E+02 -0.37498256764E+02  0.19880757984E+02  0.46142318554E+02  0.10000007232E+02 0.  0.
        -12    1    1    2    0    0  0.15091375636E+02  0.37498256764E+02 -0.19880757984E+02  0.45045681446E+02  0.00000000000E+00 0.  1.
         11    1    3    3    0    0 -0.10703624278E+01 -0.50581357813E+01  0.36982746957E+00  0.51833566275E+01  0.51100000000E-03 0. -1.
        -11    1    3    3    0    0 -0.42328618309E+01 -0.96188886088E+01  0.23337687640E+01  0.10765064526E+02  0.51100000000E-03 0.  1.
         12    1    3    3    0    0 -0.97881513770E+01 -0.22821232373E+02  0.17177161751E+02  0.30193897401E+02  0.00000000000E+00 0. -1.
</event>
<event>
 7    1  0.1519238E-008  0.4614231E+02  0.7816164E-02  0.1320468E+00
        -11   -1    0    0    0    0  0.00000000000E+00  0.00000000000E+00  0.45593999997E+02  0.45594000000E+02  0.51100000000E-03 0.  1.
         11   -1    0    0    0    0 -0.00000000000E+00 -0.00000000000E+00 -0.45593999997E+02  0.45594000000E+02  0.51100000000E-03 0. -1.
    9900012    2    1    2    0    0 -0.26032922040E+02 -0.18258157478E+02 -0.31906745871E+02  0.46142314563E+02  0.99999708331E+01 0.  0.
        -12    1    1    2    0    0  0.26032922040E+02  0.18258157478E+02  0.31906745871E+02  0.45045685437E+02  0.00000000000E+00 0.  1.
         11    1    3    3    0    0 -0.10826652338E+02 -0.41351689955E+01 -0.75032743726E+01  0.13806344558E+02  0.51100000000E-03 0. -1.
        -11    1    3    3    0    0 -0.31168099277E+01 -0.33116746768E+01 -0.83945769061E+01  0.95472831206E+01  0.51100000000E-03 0.  1.
         12    1    3    3    0    0 -0.12089459774E+02 -0.10811313806E+02 -0.16008894592E+02  0.22788686884E+02  0.00000000000E+00 0. -1.
</event>
<event>
 7    1  0.1519238E-008  0.4614231E+02  0.7816164E-02  0.1320468E+00
        -11   -1    0    0    0    0  0.00000000000E+00  0.00000000000E+00  0.45593999997E+02  0.45594000000E+02  0.51100000000E-03 0. -1.
         11   -1    0    0    0    0 -0.00000000000E+00 -0.00000000000E+00 -0.45593999997E+02  0.45594000000E+02  0.51100000000E-03 0.  1.
    9900012    2    1    2    0    0  0.67835796367E+01 -0.95745470701E+00  0.44521688943E+02  0.46142306992E+02  0.99999017978E+01 0.  0.
        -12    1    1    2    0    0 -0.67835796367E+01  0.95745470701E+00 -0.44521688943E+02  0.45045693008E+02  0.00000000000E+00 0.  1.
         11    1    3    3    0    0 -0.39486592371E+00  0.12235471338E+01  0.15839132274E+02  0.15891227081E+02  0.51100000000E-03 0. -1.
        -11    1    3    3    0    0  0.59821190496E+01 -0.20892480977E+01  0.12407555443E+02  0.13931910791E+02  0.51100000000E-03 0.  1.
        -12    1    3    3    0    0  0.11963265108E+01 -0.91753743133E-01  0.16275001226E+02  0.16319169121E+02  0.00000000000E+00 0.  1.
</event>
<event>
 7    1  0.1519238E-008  0.4614232E+02  0.7816164E-02  0.1320468E+00
        -11   -1    0    0    0    0  0.00000000000E+00  0.00000000000E+00  0.45593999997E+02  0.45594000000E+02  0.51100000000E-03 0.  1.
         11   -1    0    0    0    0 -0.00000000000E+00 -0.00000000000E+00 -0.45593999997E+02  0.45594000000E+02  0.51100000000E-03 0. -1.
    9900012    2    1    2    0    0  0.14802116451E+01 -0.75215555622E+01 -0.44388609515E+02  0.46142317862E+02  0.10000000918E+02 0.  0.
        -12    1    1    2    0    0 -0.14802116451E+01  0.75215555622E+01  0.44388609515E+02  0.45045682138E+02  0.00000000000E+00 0.  1.
         11    1    3    3    0    0  0.16569208440E+01 -0.96634929264E+01 -0.33995017755E+02  0.35380640394E+02  0.51100000000E-03 0. -1.
        -11    1    3    3    0    0  0.23861400088E+00  0.13471179690E+01 -0.28110304693E+01  0.31262687063E+01  0.51100000000E-03 0.  1.
         12    1    3    3    0    0 -0.41532319976E+00  0.79481939525E+00 -0.75825612907E+01  0.76354087618E+01  0.00000000000E+00 0. -1.
</event>
<event>
 7    1  0.1519238E-008  0.4614232E+02  0.7816164E-02  0.1320468E+00
        -11   -1    0    0    0    0  0.00000000000E+00  0.00000000000E+00  0.45593999997E+02  0.45594000000E+02  0.51100000000E-03 0.  1.
         11   -1    0    0    0    0 -0.00000000000E+00 -0.00000000000E+00 -0.45593999997E+02  0.45594000000E+02  0.51100000000E-03 0. -1.
    9900012    2    1    2    0    0  0.43917475466E+02  0.34539145271E+01 -0.94042172097E+01  0.46142317874E+02  0.10000001027E+02 0.  0.
        -12    1    1    2    0    0 -0.43917475466E+02 -0.34539145271E+01  0.94042172097E+01  0.45045682126E+02  0.00000000000E+00 0.  1.
         11    1    3    3    0    0  0.36411195301E+02  0.30750874335E+00 -0.78994889038E+01  0.37259517308E+02  0.51100000000E-03 0. -1.
        -11    1    3    3    0    0  0.57699545213E+01  0.37759388096E+01 -0.13743148803E+01  0.70312751847E+01  0.51100000000E-03 0.  1.
         12    1    3    3    0    0  0.17363256444E+01 -0.62953302580E+00 -0.13041342559E+00  0.18515253808E+01  0.00000000000E+00 0. -1.
</event>
<event>
 7    1  0.1519238E-008  0.4614232E+02  0.7816164E-02  0.1320468E+00
        -11   -1    0    0    0    0  0.00000000000E+00  0.00000000000E+00  0.45593999997E+02  0.45594000000E+02  0.51100000000E-03 0.  1.
         11   -1    0    0    0    0 -0.00000000000E+00 -0.00000000000E+00 -0.45593999997E+02  0.45594000000E+02  0.51100000000E-03 0. -1.
    9900012    2    1    2    0    0  0.23972864176E+02 -0.37266083237E+02 -0.81027270195E+01  0.46142319166E+02  0.10000012811E+02 0.  0.
        -12    1    1    2    0    0 -0.23972864176E+02  0.37266083237E+02  0.81027270195E+01  0.45045680834E+02  0.00000000000E+00 0.  1.
         11    1    3    3    0    0  0.19558365825E+02 -0.30467923029E+02 -0.94217396387E+01  0.37411137186E+02  0.51100000000E-03 0. -1.
        -11    1    3    3    0    0  0.14773391557E+01 -0.45147647183E+01 -0.94796812228E-01  0.47512754224E+01  0.51100000000E-03 0.  1.
         12    1    3    3    0    0  0.29371591949E+01 -0.22833954898E+01  0.14138094315E+01  0.39799065577E+01  0.00000000000E+00 0. -1.
</event>
<event>
 7    1  0.1519238E-008  0.4614232E+02  0.7816164E-02  0.1320468E+00
        -11   -1    0    0    0    0  0.00000000000E+00  0.00000000000E+00  0.45593999997E+02  0.45594000000E+02  0.51100000000E-03 0.  1.
         11   -1    0    0    0    0 -0.00000000000E+00 -0.00000000000E+00 -0.45593999997E+02  0.45594000000E+02  0.51100000000E-03 0. -1.
    9900012    2    1    2    0    0 -0.26691350332E+02  0.24345287297E+02 -0.26907099980E+02  0.46142320680E+02  0.10000026617E+02 0.  0.
        -12    1    1    2    0    0  0.26691350332E+02 -0.24345287297E+02  0.26907099980E+02  0.45045679320E+02  0.00000000000E+00 0.  1.
         11    1    3    3    0    0 -0.49743455654E+01  0.28408802285E+01 -0.15656925114E+01  0.59385273914E+01  0.51100000000E-03 0. -1.
        -11    1    3    3    0    0 -0.19599755230E+02  0.18021643929E+02 -0.19173539266E+02  0.32810892448E+02  0.51100000000E-03 0.  1.
        -12    1    3    3    0    0 -0.21172495363E+01  0.34827631391E+01 -0.61678682020E+01  0.73929008406E+01  0.00000000000E+00 0.  1.
</event>
<event>
 7    1  0.1519238E-008  0.4614232E+02  0.7816164E-02  0.1320468E+00
        -11   -1    0    0    0    0  0.00000000000E+00  0.00000000000E+00  0.45593999997E+02  0.45594000000E+02  0.51100000000E-03 0.  1.
         11   -1    0    0    0    0 -0.00000000000E+00 -0.00000000000E+00 -0.45593999997E+02  0.45594000000E+02  0.51100000000E-03 0. -1.
    9900012    2    1    2    0    0 -0.33950133062E+02 -0.22164532227E+02 -0.19627415113E+02  0.46142318211E+02  0.10000004102E+02 0.  0.
        -12    1    1    2    0    0  0.33950133062E+02  0.22164532227E+02  0.19627415113E+02  0.45045681789E+02  0.00000000000E+00 0.  1.
         11    1    3    3    0    0 -0.13363370539E+02 -0.59264104225E+01 -0.54778750529E+01  0.15611185990E+02  0.51100000000E-03 0. -1.
        -11    1    3    3    0    0 -0.49620510086E+01 -0.23725139832E+01 -0.38370080862E+00  0.55134380730E+01  0.51100000000E-03 0.  1.
        -12    1    3    3    0    0 -0.15624711515E+02 -0.13865607822E+02 -0.13765839251E+02  0.25017694148E+02  0.00000000000E+00 0.  1.
</event>
<event>
 7    1  0.1519238E-008  0.4614232E+02  0.7816164E-02  0.1320468E+00
        -11   -1    0    0    0    0  0.00000000000E+00  0.00000000000E+00  0.45593999997E+02  0.45594000000E+02  0.51100000000E-03 0. -1.
         11   -1    0    0    0    0 -0.00000000000E+00 -0.00000000000E+00 -0.45593999997E+02  0.45594000000E+02  0.51100000000E-03 0.  1.
    9900012    2    1    2    0    0  0.41640367708E+02 -0.11662962002E+00  0.17180791153E+02  0.46142318631E+02  0.10000007934E+02 0.  0.
        -12    1    1    2    0    0 -0.41640367708E+02  0.11662962002E+00 -0.17180791153E+02  0.45045681369E+02  0.00000000000E+00 0.  1.
         11    1    3    3    0    0  0.39751113134E+01 -0.95497010681E+00  0.37884410615E+01  0.55736669973E+01  0.51100000000E-03 0. -1.
        -11    1    3    3    0    0  0.32118483515E+02  0.12247501399E+01  0.87140704440E+01  0.33302132366E+02  0.51100000000E-03 0.  1.
        -12    1    3    3    0    0  0.55467728799E+01 -0.38640965313E+00  0.46782796480E+01  0.72665192676E+01  0.00000000000E+00 0.  1.
</event>
<event>
 7    1  0.1519238E-008  0.4614232E+02  0.7816164E-02  0.1320468E+00
        -11   -1    0    0    0    0  0.00000000000E+00  0.00000000000E+00  0.45593999997E+02  0.45594000000E+02  0.51100000000E-03 0. -1.
         11   -1    0    0    0    0 -0.00000000000E+00 -0.00000000000E+00 -0.45593999997E+02  0.45594000000E+02  0.51100000000E-03 0.  1.
    9900012    2    1    2    0    0  0.10515037906E+02 -0.95768086855E+01  0.42741457879E+02  0.46142317539E+02  0.99999979727E+01 0.  0.
        -12    1    1    2    0    0 -0.10515037906E+02  0.95768086855E+01 -0.42741457879E+02  0.45045682461E+02  0.00000000000E+00 0.  1.
         11    1    3    3    0    0  0.13675845490E+01 -0.33225666434E+01  0.21530486817E+02  0.21828229416E+02  0.51100000000E-03 0. -1.
        -11    1    3    3    0    0  0.60859716203E+01 -0.62968903947E+01  0.14530742992E+02  0.16965623224E+02  0.51100000000E-03 0.  1.
        -12    1    3    3    0    0  0.30614817368E+01  0.42648352614E-01  0.66802280699E+01  0.73484648990E+01  0.00000000000E+00 0.  1.
</event>
<event>
 7    1  0.1519238E-008  0.4614232E+02  0.7816164E-02  0.1320468E+00
        -11   -1    0    0    0    0  0.00000000000E+00  0.00000000000E+00  0.45593999997E+02  0.45594000000E+02  0.51100000000E-03 0. -1.
         11   -1    0    0    0    0 -0.00000000000E+00 -0.00000000000E+00 -0.45593999997E+02  0.45594000000E+02  0.51100000000E-03 0.  1.
    9900012    2    1    2    0    0 -0.30960491334E+02  0.16836606338E+02  0.28055126767E+02  0.46142317915E+02  0.10000001401E+02 0.  0.
        -12    1    1    2    0    0  0.30960491334E+02 -0.16836606338E+02 -0.28055126767E+02  0.45045682085E+02  0.00000000000E+00 0.  1.
         11    1    3    3    0    0 -0.24764151488E+02  0.17328470413E+02  0.21894644028E+02  0.37321770097E+02  0.51100000000E-03 0. -1.
        -11    1    3    3    0    0 -0.12586899765E+01 -0.21828328565E+00  0.19201667137E+01  0.23062932422E+01  0.51100000000E-03 0.  1.
         12    1    3    3    0    0 -0.49376498689E+01 -0.27358078993E+00  0.42403160260E+01  0.65142545756E+01  0.00000000000E+00 0. -1.
</event>
<event>
 7    1  0.1519238E-008  0.4614232E+02  0.7816164E-02  0.1320468E+00
        -11   -1    0    0    0    0  0.00000000000E+00  0.00000000000E+00  0.45593999997E+02  0.45594000000E+02  0.51100000000E-03 0. -1.
         11   -1    0    0    0    0 -0.00000000000E+00 -0.00000000000E+00 -0.45593999997E+02  0.45594000000E+02  0.51100000000E-03 0.  1.
    9900012    2    1    2    0    0 -0.53727554008E+01  0.25535472743E+02  0.36717663596E+02  0.46142315537E+02  0.99999797213E+01 0.  0.
        -12    1    1    2    0    0  0.53727554008E+01 -0.25535472743E+02 -0.36717663596E+02  0.45045684463E+02  0.00000000000E+00 0.  1.
         11    1    3    3    0    0 -0.51808904560E+01  0.19105001888E+02  0.25904181467E+02  0.32601676963E+02  0.51100000000E-03 0. -1.
        -11    1    3    3    0    0 -0.13416124160E+01 -0.59073210903E-01  0.32027658084E+01  0.34729126973E+01  0.51100000000E-03 0.  1.
         12    1    3    3    0    0  0.11497474712E+01  0.64895440657E+01  0.76107163205E+01  0.10067725877E+02  0.00000000000E+00 0. -1.
</event>
<event>
 7    1  0.1519238E-008  0.4614232E+02  0.7816164E-02  0.1320468E+00
        -11   -1    0    0    0    0  0.00000000000E+00  0.00000000000E+00  0.45593999997E+02  0.45594000000E+02  0.51100000000E-03 0. -1.
         11   -1    0    0    0    0 -0.00000000000E+00 -0.00000000000E+00 -0.45593999997E+02  0.45594000000E+02  0.51100000000E-03 0.  1.
    9900012    2    1    2    0    0  0.30460321451E+02 -0.28640911298E+01  0.33061744436E+02  0.46142321561E+02  0.10000034650E+02 0.  0.
        -12    1    1    2    0    0 -0.30460321451E+02  0.28640911298E+01 -0.33061744436E+02  0.45045678439E+02  0.00000000000E+00 0.  1.
         11    1    3    3    0    0 -0.47930448474E+00 -0.21853024913E+00  0.20318828990E-01  0.52716351810E+00  0.51100000000E-03 0. -1.
        -11    1    3    3    0    0  0.90755397426E+01 -0.26198510987E+01  0.80631490625E+01  0.12419477222E+02  0.51100000000E-03 0.  1.
         12    1    3    3    0    0  0.21864086193E+02 -0.25709782006E-01  0.24978276544E+02  0.33195680821E+02  0.00000000000E+00 0. -1.
</event>
<event>
 7    1  0.1519238E-008  0.4614232E+02  0.7816164E-02  0.1320468E+00
        -11   -1    0    0    0    0  0.00000000000E+00  0.00000000000E+00  0.45593999997E+02  0.45594000000E+02  0.51100000000E-03 0.  1.
         11   -1    0    0    0    0 -0.00000000000E+00 -0.00000000000E+00 -0.45593999997E+02  0.45594000000E+02  0.51100000000E-03 0. -1.
    9900012    2    1    2    0    0  0.55323759739E+01 -0.11572987912E+02 -0.43180694091E+02  0.46142316796E+02  0.99999912032E+01 0.  0.
        -12    1    1    2    0    0 -0.55323759739E+01  0.11572987912E+02  0.43180694091E+02  0.45045683204E+02  0.00000000000E+00 0.  1.
         11    1    3    3    0    0  0.18170302594E+01  0.15430506625E+01 -0.48086558257E+01  0.53671012122E+01  0.51100000000E-03 0. -1.
        -11    1    3    3    0    0  0.11309117490E+00  0.53969731774E-01 -0.21481372940E+00  0.24869166702E+00  0.51100000000E-03 0.  1.
         12    1    3    3    0    0  0.36022545396E+01 -0.13170008306E+02 -0.38157224536E+02  0.40526523917E+02  0.00000000000E+00 0. -1.
</event>
<event>
 7    1  0.1519238E-008  0.4614232E+02  0.7816164E-02  0.1320468E+00
        -11   -1    0    0    0    0  0.00000000000E+00  0.00000000000E+00  0.45593999997E+02  0.45594000000E+02  0.51100000000E-03 0.  1.
         11   -1    0    0    0    0 -0.00000000000E+00 -0.00000000000E+00 -0.45593999997E+02  0.45594000000E+02  0.51100000000E-03 0. -1.
    9900012    2    1    2    0    0 -0.11276418774E+02 -0.16204949977E+02 -0.40488956822E+02  0.46142315982E+02  0.99999837792E+01 0.  0.
        -12    1    1    2    0    0  0.11276418774E+02  0.16204949977E+02  0.40488956822E+02  0.45045684018E+02  0.00000000000E+00 0.  1.
         11    1    3    3    0    0 -0.63131744974E+01 -0.78470120674E+01 -0.26319860585E+02  0.28180965776E+02  0.51100000000E-03 0. -1.
        -11    1    3    3    0    0 -0.37155064476E+01 -0.84545255589E+01 -0.13888901839E+02  0.16678896400E+02  0.51100000000E-03 0.  1.
        -12    1    3    3    0    0 -0.12477378287E+01  0.96587649061E-01 -0.28019439830E+00  0.12824538058E+01  0.00000000000E+00 0.  1.
</event>
<event>
 7    1  0.1519238E-008  0.4614232E+02  0.7816164E-02  0.1320468E+00
        -11   -1    0    0    0    0  0.00000000000E+00  0.00000000000E+00  0.45593999997E+02  0.45594000000E+02  0.51100000000E-03 0. -1.
         11   -1    0    0    0    0 -0.00000000000E+00 -0.00000000000E+00 -0.45593999997E+02  0.45594000000E+02  0.51100000000E-03 0.  1.
    9900012    2    1    2    0    0  0.36178866064E+02  0.47303053401E+01  0.26416421968E+02  0.46142317766E+02  0.10000000046E+02 0.  0.
        -12    1    1    2    0    0 -0.36178866064E+02 -0.47303053401E+01 -0.26416421968E+02  0.45045682234E+02  0.00000000000E+00 0.  1.
         11    1    3    3    0    0  0.10151280857E+02 -0.21403132628E+01  0.74643785961E+01  0.12780703892E+02  0.51100000000E-03 0. -1.
        -11    1    3    3    0    0  0.17737506989E+02  0.30823463060E+01  0.10038104551E+02  0.20612703756E+02  0.51100000000E-03 0.  1.
         12    1    3    3    0    0  0.82900782193E+01  0.37882722969E+01  0.89139388212E+01  0.12748910118E+02  0.00000000000E+00 0. -1.
</event>
<event>
 7    1  0.1519238E-008  0.4614232E+02  0.7816164E-02  0.1320468E+00
        -11   -1    0    0    0    0  0.00000000000E+00  0.00000000000E+00  0.45593999997E+02  0.45594000000E+02  0.51100000000E-03 0.  1.
         11   -1    0    0    0    0 -0.00000000000E+00 -0.00000000000E+00 -0.45593999997E+02  0.45594000000E+02  0.51100000000E-03 0. -1.
    9900012    2    1    2    0    0  0.18289674761E+02  0.37565110727E+02 -0.16836383487E+02  0.46142317014E+02  0.99999931827E+01 0.  0.
        -12    1    1    2    0    0 -0.18289674761E+02 -0.37565110727E+02  0.16836383487E+02  0.45045682986E+02  0.00000000000E+00 0.  1.
         11    1    3    3    0    0  0.27363420280E+01  0.22211126509E+01  0.27036732332E+00  0.35346863868E+01  0.51100000000E-03 0. -1.
        -11    1    3    3    0    0  0.53861364621E+00  0.50685343915E+01 -0.34683380178E+01  0.61651856748E+01  0.51100000000E-03 0.  1.
         12    1    3    3    0    0  0.15014719087E+02  0.30275463685E+02 -0.13638412793E+02  0.36442444952E+02  0.00000000000E+00 0. -1.
</event>
<event>
 7    1  0.1519238E-008  0.4614232E+02  0.7816164E-02  0.1320468E+00
        -11   -1    0    0    0    0  0.00000000000E+00  0.00000000000E+00  0.45593999997E+02  0.45594000000E+02  0.51100000000E-03 0.  1.
         11   -1    0    0    0    0 -0.00000000000E+00 -0.00000000000E+00 -0.45593999997E+02  0.45594000000E+02  0.51100000000E-03 0. -1.
    9900012    2    1    2    0    0 -0.67706752581E+01 -0.36126228039E+02 -0.26041641200E+02  0.46142317941E+02  0.10000001644E+02 0.  0.
        -12    1    1    2    0    0  0.67706752581E+01  0.36126228039E+02  0.26041641200E+02  0.45045682059E+02  0.00000000000E+00 0.  1.
         11    1    3    3    0    0 -0.21653768887E+01 -0.27996837375E+01 -0.10600420564E+01  0.36946955927E+01  0.51100000000E-03 0.  1.
        -11    1    3    3    0    0 -0.28333219777E+01 -0.18716447678E+02 -0.18139161381E+02  0.26217595293E+02  0.51100000000E-03 0. -1.
         12    1    3    3    0    0 -0.17719763917E+01 -0.14610096624E+02 -0.68424377621E+01  0.16230027055E+02  0.00000000000E+00 0. -1.
</event>
<event>
 7    1  0.1519238E-008  0.4614232E+02  0.7816164E-02  0.1320468E+00
        -11   -1    0    0    0    0  0.00000000000E+00  0.00000000000E+00  0.45593999997E+02  0.45594000000E+02  0.51100000000E-03 0.  1.
         11   -1    0    0    0    0 -0.00000000000E+00 -0.00000000000E+00 -0.45593999997E+02  0.45594000000E+02  0.51100000000E-03 0. -1.
    9900012    2    1    2    0    0 -0.11870943636E+02 -0.30625630114E+02 -0.30826362594E+02  0.46142321478E+02  0.10000033898E+02 0.  0.
        -12    1    1    2    0    0  0.11870943636E+02  0.30625630114E+02  0.30826362594E+02  0.45045678522E+02  0.00000000000E+00 0.  1.
         11    1    3    3    0    0 -0.37408518229E+01 -0.45212053712E+01 -0.24072306614E+01  0.63427147253E+01  0.51100000000E-03 0. -1.
        -11    1    3    3    0    0 -0.14119486871E+01 -0.11770159997E+02 -0.99707246229E+01  0.15490178024E+02  0.51100000000E-03 0.  1.
         12    1    3    3    0    0 -0.67181431265E+01 -0.14334264746E+02 -0.18448407310E+02  0.24309428729E+02  0.00000000000E+00 0. -1.
</event>
<event>
 7    1  0.1519238E-008  0.4614232E+02  0.7816164E-02  0.1320468E+00
        -11   -1    0    0    0    0  0.00000000000E+00  0.00000000000E+00  0.45593999997E+02  0.45594000000E+02  0.51100000000E-03 0.  1.
         11   -1    0    0    0    0 -0.00000000000E+00 -0.00000000000E+00 -0.45593999997E+02  0.45594000000E+02  0.51100000000E-03 0. -1.
    9900012    2    1    2    0    0 -0.28412059779E+02  0.76756015471E+01 -0.34102104811E+02  0.46142317049E+02  0.99999935049E+01 0.  0.
        -12    1    1    2    0    0  0.28412059779E+02 -0.76756015471E+01  0.34102104811E+02  0.45045682951E+02  0.00000000000E+00 0.  1.
         11    1    3    3    0    0 -0.18399138045E+02  0.45120109691E+01 -0.19482017045E+02  0.27174169945E+02  0.51100000000E-03 0. -1.
        -11    1    3    3    0    0 -0.70041812242E+01  0.26349623262E+01 -0.13965254191E+02  0.15843923313E+02  0.51100000000E-03 0.  1.
         12    1    3    3    0    0 -0.30087405100E+01  0.52862825176E+00 -0.65483357531E+00  0.31242237910E+01  0.00000000000E+00 0. -1.
</event>
<event>
 7    1  0.1519238E-008  0.4614232E+02  0.7816164E-02  0.1320468E+00
        -11   -1    0    0    0    0  0.00000000000E+00  0.00000000000E+00  0.45593999997E+02  0.45594000000E+02  0.51100000000E-03 0. -1.
         11   -1    0    0    0    0 -0.00000000000E+00 -0.00000000000E+00 -0.45593999997E+02  0.45594000000E+02  0.51100000000E-03 0.  1.
    9900012    2    1    2    0    0  0.32795540771E+01 -0.11647269658E+02  0.43390081283E+02  0.46142317419E+02  0.99999968778E+01 0.  0.
        -12    1    1    2    0    0 -0.32795540771E+01  0.11647269658E+02 -0.43390081283E+02  0.45045682581E+02  0.00000000000E+00 0.  1.
         11    1    3    3    0    0 -0.14521697933E+01 -0.67443423781E+01  0.14776515054E+02  0.16307677597E+02  0.51100000000E-03 0.  1.
        -11    1    3    3    0    0 -0.18765196018E+00 -0.30734083244E+01  0.82602696549E+01  0.88155037870E+01  0.51100000000E-03 0. -1.
        -12    1    3    3    0    0  0.49193758306E+01 -0.18295189554E+01  0.20353296575E+02  0.21019136035E+02  0.00000000000E+00 0.  1.
</event>
<event>
 7    1  0.1519238E-008  0.4614231E+02  0.7816164E-02  0.1320468E+00
        -11   -1    0    0    0    0  0.00000000000E+00  0.00000000000E+00  0.45593999997E+02  0.45594000000E+02  0.51100000000E-03 0. -1.
         11   -1    0    0    0    0 -0.00000000000E+00 -0.00000000000E+00 -0.45593999997E+02  0.45594000000E+02  0.51100000000E-03 0.  1.
    9900012    2    1    2    0    0 -0.10615778566E+02 -0.35414619439E+02  0.25733713339E+02  0.46142311785E+02  0.99999455042E+01 0.  0.
        -12    1    1    2    0    0  0.10615778566E+02  0.35414619439E+02 -0.25733713339E+02  0.45045688215E+02  0.00000000000E+00 0.  1.
         11    1    3    3    0    0 -0.95050852591E-01 -0.13625601519E+02  0.65922528423E+01  0.15136837491E+02  0.51100000000E-03 0.  1.
        -11    1    3    3    0    0 -0.67087050944E+01 -0.10914913579E+02  0.90197687261E+01  0.15668385067E+02  0.51100000000E-03 0. -1.
        -12    1    3    3    0    0 -0.38120226187E+01 -0.10874104341E+02  0.10121691770E+02  0.15337089227E+02  0.00000000000E+00 0.  1.
</event>
<event>
 7    1  0.1519238E-008  0.4614232E+02  0.7816164E-02  0.1320468E+00
        -11   -1    0    0    0    0  0.00000000000E+00  0.00000000000E+00  0.45593999997E+02  0.45594000000E+02  0.51100000000E-03 0.  1.
         11   -1    0    0    0    0 -0.00000000000E+00 -0.00000000000E+00 -0.45593999997E+02  0.45594000000E+02  0.51100000000E-03 0. -1.
    9900012    2    1    2    0    0 -0.25907907211E+02 -0.16939881433E+02 -0.32725130353E+02  0.46142318790E+02  0.10000009384E+02 0.  0.
        -12    1    1    2    0    0  0.25907907211E+02  0.16939881433E+02  0.32725130353E+02  0.45045681210E+02  0.00000000000E+00 0.  1.
         11    1    3    3    0    0 -0.18932118840E+02 -0.11158754843E+02 -0.17331593104E+02  0.27987980513E+02  0.51100000000E-03 0. -1.
        -11    1    3    3    0    0 -0.21030008255E+01 -0.68145393395E-01 -0.37376335851E+01  0.42891912226E+01  0.51100000000E-03 0.  1.
         12    1    3    3    0    0 -0.48727875456E+01 -0.57129811966E+01 -0.11655903664E+02  0.13865147054E+02  0.00000000000E+00 0. -1.
</event>
<event>
 7    1  0.1519238E-008  0.4614232E+02  0.7816164E-02  0.1320468E+00
        -11   -1    0    0    0    0  0.00000000000E+00  0.00000000000E+00  0.45593999997E+02  0.45594000000E+02  0.51100000000E-03 0.  1.
         11   -1    0    0    0    0 -0.00000000000E+00 -0.00000000000E+00 -0.45593999997E+02  0.45594000000E+02  0.51100000000E-03 0. -1.
    9900012    2    1    2    0    0  0.28527710320E+02  0.39112122525E+01 -0.34640810325E+02  0.46142316773E+02  0.99999909916E+01 0.  0.
        -12    1    1    2    0    0 -0.28527710320E+02 -0.39112122525E+01  0.34640810325E+02  0.45045683227E+02  0.00000000000E+00 0.  1.
         11    1    3    3    0    0  0.16553938521E+02  0.30122540328E+01 -0.16350760111E+02  0.23461754226E+02  0.51100000000E-03 0. -1.
        -11    1    3    3    0    0  0.71278488440E+01  0.33150978688E-01 -0.15406564360E+02  0.16975557539E+02  0.51100000000E-03 0.  1.
        -12    1    3    3    0    0  0.48459229550E+01  0.86580724106E+00 -0.28834858544E+01  0.57050050076E+01  0.00000000000E+00 0.  1.
</event>
<event>
 7    1  0.1519238E-008  0.4614232E+02  0.7816164E-02  0.1320468E+00
        -11   -1    0    0    0    0  0.00000000000E+00  0.00000000000E+00  0.45593999997E+02  0.45594000000E+02  0.51100000000E-03 0. -1.
         11   -1    0    0    0    0 -0.00000000000E+00 -0.00000000000E+00 -0.45593999997E+02  0.45594000000E+02  0.51100000000E-03 0.  1.
    9900012    2    1    2    0    0  0.17578385758E+02  0.62995242578E+00  0.41469470303E+02  0.46142318153E+02  0.10000003571E+02 0.  0.
        -12    1    1    2    0    0 -0.17578385758E+02 -0.62995242578E+00 -0.41469470303E+02  0.45045681847E+02  0.00000000000E+00 0.  1.
         11    1    3    3    0    0  0.10884770008E+02  0.10473021476E+01  0.27289088451E+02  0.29398459291E+02  0.51100000000E-03 0. -1.
        -11    1    3    3    0    0 -0.10189512942E+01 -0.36657766091E+00  0.10071064827E+01  0.14788186671E+01  0.51100000000E-03 0.  1.
         12    1    3    3    0    0  0.77125670436E+01 -0.50772060897E-01  0.13173275369E+02  0.15265040195E+02  0.00000000000E+00 0. -1.
</event>
<event>
 7    1  0.1519238E-008  0.4614232E+02  0.7816164E-02  0.1320468E+00
        -11   -1    0    0    0    0  0.00000000000E+00  0.00000000000E+00  0.45593999997E+02  0.45594000000E+02  0.51100000000E-03 0. -1.
         11   -1    0    0    0    0 -0.00000000000E+00 -0.00000000000E+00 -0.45593999997E+02  0.45594000000E+02  0.51100000000E-03 0.  1.
    9900012    2    1    2    0    0  0.30362352857E+02  0.25851037284E+02  0.20951489388E+02  0.46142317552E+02  0.99999980890E+01 0.  0.
        -12    1    1    2    0    0 -0.30362352857E+02 -0.25851037284E+02 -0.20951489388E+02  0.45045682448E+02  0.00000000000E+00 0.  1.
         11    1    3    3    0    0  0.16600938183E+02  0.14842415209E+02  0.12355367548E+02  0.25466518123E+02  0.51100000000E-03 0. -1.
        -11    1    3    3    0    0  0.10579823060E+02  0.55247528573E+01  0.32172098696E+01  0.12361471989E+02  0.51100000000E-03 0.  1.
        -12    1    3    3    0    0  0.31815916134E+01  0.54838692177E+01  0.53789119703E+01  0.83143274397E+01  0.00000000000E+00 0.  1.
</event>
<event>
 7    1  0.1519238E-008  0.4614232E+02  0.7816164E-02  0.1320468E+00
        -11   -1    0    0    0    0  0.00000000000E+00  0.00000000000E+00  0.45593999997E+02  0.45594000000E+02  0.51100000000E-03 0.  1.
         11   -1    0    0    0    0 -0.00000000000E+00 -0.00000000000E+00 -0.45593999997E+02  0.45594000000E+02  0.51100000000E-03 0. -1.
    9900012    2    1    2    0    0  0.23646426457E+02  0.23595935548E+02 -0.30219064130E+02  0.46142317682E+02  0.99999992765E+01 0.  0.
        -12    1    1    2    0    0 -0.23646426457E+02 -0.23595935548E+02  0.30219064130E+02  0.45045682318E+02  0.00000000000E+00 0.  1.
         11    1    3    3    0    0  0.14102016912E+02  0.96191927480E+01 -0.18691721728E+02  0.25313557860E+02  0.51100000000E-03 0. -1.
        -11    1    3    3    0    0  0.27659650415E+01  0.61412131584E+01 -0.28466869646E+01  0.73122287029E+01  0.51100000000E-03 0.  1.
        -12    1    3    3    0    0  0.67784445035E+01  0.78355296415E+01 -0.86806554377E+01  0.13516531119E+02  0.00000000000E+00 0.  1.
</event>
<event>
 7    1  0.1519238E-008  0.4614232E+02  0.7816164E-02  0.1320468E+00
        -11   -1    0    0    0    0  0.00000000000E+00  0.00000000000E+00  0.45593999997E+02  0.45594000000E+02  0.51100000000E-03 0. -1.
         11   -1    0    0    0    0 -0.00000000000E+00 -0.00000000000E+00 -0.45593999997E+02  0.45594000000E+02  0.51100000000E-03 0.  1.
    9900012    2    1    2    0    0  0.50476513769E+01 -0.44415485936E+02 -0.55587130813E+01  0.46142318004E+02  0.10000002217E+02 0.  0.
        -12    1    1    2    0    0 -0.50476513769E+01  0.44415485936E+02  0.55587130813E+01  0.45045681996E+02  0.00000000000E+00 0.  1.
         11    1    3    3    0    0  0.36245186542E+00 -0.17335086119E+02  0.18252258959E+01  0.17434679003E+02  0.51100000000E-03 0. -1.
        -11    1    3    3    0    0  0.13978884060E+01 -0.16661866764E+02 -0.56305236011E+01  0.17642978557E+02  0.51100000000E-03 0.  1.
        -12    1    3    3    0    0  0.32873111055E+01 -0.10418533052E+02 -0.17534153761E+01  0.11064660444E+02  0.00000000000E+00 0.  1.
</event>
<event>
 7    1  0.1519238E-008  0.4614232E+02  0.7816164E-02  0.1320468E+00
        -11   -1    0    0    0    0  0.00000000000E+00  0.00000000000E+00  0.45593999997E+02  0.45594000000E+02  0.51100000000E-03 0. -1.
         11   -1    0    0    0    0 -0.00000000000E+00 -0.00000000000E+00 -0.45593999997E+02  0.45594000000E+02  0.51100000000E-03 0.  1.
    9900012    2    1    2    0    0  0.40670321877E+02  0.12914343551E+02  0.14431147792E+02  0.46142318992E+02  0.10000011222E+02 0.  0.
        -12    1    1    2    0    0 -0.40670321877E+02 -0.12914343551E+02 -0.14431147792E+02  0.45045681008E+02  0.00000000000E+00 0.  1.
         11    1    3    3    0    0  0.42598625039E+01  0.30718911920E+01  0.20310155521E+01  0.56309829054E+01  0.51100000000E-03 0. -1.
        -11    1    3    3    0    0  0.19471223022E+02  0.59107497405E+01  0.25012724875E+01  0.20501752432E+02  0.51100000000E-03 0.  1.
         12    1    3    3    0    0  0.16939236351E+02  0.39317026185E+01  0.98988597519E+01  0.20009583655E+02  0.00000000000E+00 0. -1.
</event>
<event>
 7    1  0.1519238E-008  0.4614232E+02  0.7816164E-02  0.1320468E+00
        -11   -1    0    0    0    0  0.00000000000E+00  0.00000000000E+00  0.45593999997E+02  0.45594000000E+02  0.51100000000E-03 0.  1.
         11   -1    0    0    0    0 -0.00000000000E+00 -0.00000000000E+00 -0.45593999997E+02  0.45594000000E+02  0.51100000000E-03 0. -1.
    9900012    2    1    2    0    0  0.21898217268E+02 -0.14535265872E+02 -0.36582886421E+02  0.46142318161E+02  0.10000003645E+02 0.  0.
        -12    1    1    2    0    0 -0.21898217268E+02  0.14535265872E+02  0.36582886421E+02  0.45045681839E+02  0.00000000000E+00 0.  1.
         11    1    3    3    0    0  0.12961478053E+02 -0.93227519031E+01 -0.17438694056E+02  0.23643639039E+02  0.51100000000E-03 0.  1.
        -11    1    3    3    0    0  0.67622059660E+01 -0.41427212371E+01 -0.86786581850E+01  0.11756218649E+02  0.51100000000E-03 0. -1.
        -12    1    3    3    0    0  0.21745332494E+01 -0.10697927314E+01 -0.10465534180E+02  0.10742460473E+02  0.00000000000E+00 0.  1.
</event>
<event>
 7    1  0.1519238E-008  0.4614232E+02  0.7816164E-02  0.1320468E+00
        -11   -1    0    0    0    0  0.00000000000E+00  0.00000000000E+00  0.45593999997E+02  0.45594000000E+02  0.51100000000E-03 0.  1.
         11   -1    0    0    0    0 -0.00000000000E+00 -0.00000000000E+00 -0.45593999997E+02  0.45594000000E+02  0.51100000000E-03 0. -1.
    9900012    2    1    2    0    0  0.28239859039E+02  0.26635639459E+02 -0.22850964635E+02  0.46142317491E+02  0.99999975384E+01 0.  0.
        -12    1    1    2    0    0 -0.28239859039E+02 -0.26635639459E+02  0.22850964635E+02  0.45045682509E+02  0.00000000000E+00 0.  1.
         11    1    3    3    0    0  0.94372936998E+01  0.10910175867E+02 -0.87801310570E+01  0.16887425839E+02  0.51100000000E-03 0. -1.
        -11    1    3    3    0    0  0.24217367393E+01  0.58462216511E+01 -0.50962662888E+01  0.81249644169E+01  0.51100000000E-03 0.  1.
        -12    1    3    3    0    0  0.16380828600E+02  0.98792419416E+01 -0.89745672891E+01  0.21129927236E+02  0.00000000000E+00 0.  1.
</event>
<event>
 7    1  0.1519238E-008  0.4614232E+02  0.7816164E-02  0.1320468E+00
        -11   -1    0    0    0    0  0.00000000000E+00  0.00000000000E+00  0.45593999997E+02  0.45594000000E+02  0.51100000000E-03 0. -1.
         11   -1    0    0    0    0 -0.00000000000E+00 -0.00000000000E+00 -0.45593999997E+02  0.45594000000E+02  0.51100000000E-03 0.  1.
    9900012    2    1    2    0    0 -0.50523377978E+01  0.11764566354E+02  0.43187757055E+02  0.46142317652E+02  0.99999990063E+01 0.  0.
        -12    1    1    2    0    0  0.50523377978E+01 -0.11764566354E+02 -0.43187757055E+02  0.45045682348E+02  0.00000000000E+00 0.  1.
         11    1    3    3    0    0 -0.46563762189E+01  0.65109083395E+01  0.31506003685E+02  0.32506953647E+02  0.51100000000E-03 0. -1.
        -11    1    3    3    0    0  0.46004217350E+00  0.23458110139E+01  0.11063202883E+01  0.26340867403E+01  0.51100000000E-03 0.  1.
        -12    1    3    3    0    0 -0.85600375234E+00  0.29078470011E+01  0.10575433081E+02  0.11001277265E+02  0.00000000000E+00 0.  1.
</event>
<event>
 7    1  0.1519238E-008  0.4614232E+02  0.7816164E-02  0.1320468E+00
        -11   -1    0    0    0    0  0.00000000000E+00  0.00000000000E+00  0.45593999997E+02  0.45594000000E+02  0.51100000000E-03 0.  1.
         11   -1    0    0    0    0 -0.00000000000E+00 -0.00000000000E+00 -0.45593999997E+02  0.45594000000E+02  0.51100000000E-03 0. -1.
    9900012    2    1    2    0    0  0.92053903141E+00 -0.41735698986E+02 -0.16923280387E+02  0.46142318953E+02  0.10000010865E+02 0.  0.
        -12    1    1    2    0    0 -0.92053903141E+00  0.41735698986E+02  0.16923280387E+02  0.45045681047E+02  0.00000000000E+00 0.  1.
         11    1    3    3    0    0  0.91459288036E+00 -0.15771219314E+02 -0.46744670126E+01  0.16474783182E+02  0.51100000000E-03 0. -1.
        -11    1    3    3    0    0 -0.23037404767E+01 -0.19065680228E+02 -0.11425000289E+02  0.22345872429E+02  0.51100000000E-03 0.  1.
        -12    1    3    3    0    0  0.23096866278E+01 -0.68987994436E+01 -0.82381308517E+00  0.73216633412E+01  0.00000000000E+00 0.  1.
</event>
<event>
 7    1  0.1519238E-008  0.4614232E+02  0.7816164E-02  0.1320468E+00
        -11   -1    0    0    0    0  0.00000000000E+00  0.00000000000E+00  0.45593999997E+02  0.45594000000E+02  0.51100000000E-03 0.  1.
         11   -1    0    0    0    0 -0.00000000000E+00 -0.00000000000E+00 -0.45593999997E+02  0.45594000000E+02  0.51100000000E-03 0. -1.
    9900012    2    1    2    0    0 -0.91498804835E+01  0.43874441073E+02  0.45195699089E+01  0.46142318692E+02  0.10000008488E+02 0.  0.
        -12    1    1    2    0    0  0.91498804835E+01 -0.43874441073E+02 -0.45195699089E+01  0.45045681308E+02  0.00000000000E+00 0.  1.
         11    1    3    3    0    0  0.26038288849E+00  0.35627773470E+01  0.11205416761E+01  0.37439011180E+01  0.51100000000E-03 0. -1.
        -11    1    3    3    0    0 -0.30915808590E+01  0.71445706742E+01  0.37321112465E+01  0.86331579937E+01  0.51100000000E-03 0.  1.
        -12    1    3    3    0    0 -0.63186825130E+01  0.33167093052E+02 -0.33308301378E+00  0.33765259580E+02  0.00000000000E+00 0.  1.
</event>
<event>
 7    1  0.1519238E-008  0.4614232E+02  0.7816164E-02  0.1320468E+00
        -11   -1    0    0    0    0  0.00000000000E+00  0.00000000000E+00  0.45593999997E+02  0.45594000000E+02  0.51100000000E-03 0.  1.
         11   -1    0    0    0    0 -0.00000000000E+00 -0.00000000000E+00 -0.45593999997E+02  0.45594000000E+02  0.51100000000E-03 0. -1.
    9900012    2    1    2    0    0  0.41466449590E+02 -0.37706081840E+01  0.17188066825E+02  0.46142316868E+02  0.99999918544E+01 0.  0.
        -12    1    1    2    0    0 -0.41466449590E+02  0.37706081840E+01 -0.17188066825E+02  0.45045683132E+02  0.00000000000E+00 0.  1.
         11    1    3    3    0    0  0.27517950976E+02 -0.57856561337E+00  0.12262375543E+02  0.30132013180E+02  0.51100000000E-03 0. -1.
        -11    1    3    3    0    0  0.21515065332E+01  0.17558663433E+00 -0.10080366516E+01  0.23824250630E+01  0.51100000000E-03 0.  1.
         12    1    3    3    0    0  0.11796992081E+02 -0.33676292049E+01  0.59337279339E+01  0.13627878625E+02  0.00000000000E+00 0. -1.
</event>
<event>
 7    1  0.1519238E-008  0.4614232E+02  0.7816164E-02  0.1320468E+00
        -11   -1    0    0    0    0  0.00000000000E+00  0.00000000000E+00  0.45593999997E+02  0.45594000000E+02  0.51100000000E-03 0. -1.
         11   -1    0    0    0    0 -0.00000000000E+00 -0.00000000000E+00 -0.45593999997E+02  0.45594000000E+02  0.51100000000E-03 0.  1.
    9900012    2    1    2    0    0  0.24621480980E+02  0.77346991749E+01  0.36919785791E+02  0.46142317856E+02  0.10000000864E+02 0.  0.
        -12    1    1    2    0    0 -0.24621480980E+02 -0.77346991749E+01 -0.36919785791E+02  0.45045682144E+02  0.00000000000E+00 0.  1.
         11    1    3    3    0    0  0.17467335639E+02  0.33301402872E+01  0.28396956264E+02  0.33504996255E+02  0.51100000000E-03 0. -1.
        -11    1    3    3    0    0  0.29705606738E+01  0.28035156708E+01  0.66019625830E+01  0.77633653168E+01  0.51100000000E-03 0.  1.
         12    1    3    3    0    0  0.41835846671E+01  0.16010432168E+01  0.19208669435E+01  0.48739562845E+01  0.00000000000E+00 0. -1.
</event>
<event>
 7    1  0.1519238E-008  0.4614232E+02  0.7816164E-02  0.1320468E+00
        -11   -1    0    0    0    0  0.00000000000E+00  0.00000000000E+00  0.45593999997E+02  0.45594000000E+02  0.51100000000E-03 0.  1.
         11   -1    0    0    0    0 -0.00000000000E+00 -0.00000000000E+00 -0.45593999997E+02  0.45594000000E+02  0.51100000000E-03 0. -1.
    9900012    2    1    2    0    0  0.91809552119E+01  0.18320664167E+01 -0.44062084125E+02  0.46142315818E+02  0.99999822846E+01 0.  0.
        -12    1    1    2    0    0 -0.91809552119E+01 -0.18320664167E+01  0.44062084125E+02  0.45045684182E+02  0.00000000000E+00 0.  1.
         11    1    3    3    0    0 -0.25744236578E+00 -0.97385333795E+00 -0.98026115638E+01  0.98542305954E+01  0.51100000000E-03 0. -1.
        -11    1    3    3    0    0  0.69811048661E+01  0.49794989210E+01 -0.22468241784E+02  0.24048973446E+02  0.51100000000E-03 0.  1.
        -12    1    3    3    0    0  0.24572927116E+01 -0.21735791664E+01 -0.11791230777E+02  0.12239111777E+02  0.00000000000E+00 0.  1.
</event>
<event>
 7    1  0.1519238E-008  0.4614232E+02  0.7816164E-02  0.1320468E+00
        -11   -1    0    0    0    0  0.00000000000E+00  0.00000000000E+00  0.45593999997E+02  0.45594000000E+02  0.51100000000E-03 0.  1.
         11   -1    0    0    0    0 -0.00000000000E+00 -0.00000000000E+00 -0.45593999997E+02  0.45594000000E+02  0.51100000000E-03 0. -1.
    9900012    2    1    2    0    0  0.37025069273E+02  0.84268687331E+01 -0.24233151045E+02  0.46142317845E+02  0.10000000762E+02 0.  0.
        -12    1    1    2    0    0 -0.37025069273E+02 -0.84268687331E+01  0.24233151045E+02  0.45045682155E+02  0.00000000000E+00 0.  1.
         11    1    3    3    0    0  0.12967643379E+02  0.29511822495E+01 -0.11930547370E+02  0.17866370988E+02  0.51100000000E-03 0. -1.
        -11    1    3    3    0    0  0.10117857708E+02  0.10326035556E+00 -0.25481315062E+01  0.10434303127E+02  0.51100000000E-03 0.  1.
        -12    1    3    3    0    0  0.13939568186E+02  0.53724261281E+01 -0.97544721684E+01  0.17841643730E+02  0.00000000000E+00 0.  1.
</event>
<event>
 7    1  0.1519238E-008  0.4614232E+02  0.7816164E-02  0.1320468E+00
        -11   -1    0    0    0    0  0.00000000000E+00  0.00000000000E+00  0.45593999997E+02  0.45594000000E+02  0.51100000000E-03 0. -1.
         11   -1    0    0    0    0 -0.00000000000E+00 -0.00000000000E+00 -0.45593999997E+02  0.45594000000E+02  0.51100000000E-03 0.  1.
    9900012    2    1    2    0    0 -0.18700111351E+02 -0.40118472785E+02  0.83622668999E+01  0.46142317290E+02  0.99999957018E+01 0.  0.
        -12    1    1    2    0    0  0.18700111351E+02  0.40118472785E+02 -0.83622668999E+01  0.45045682710E+02  0.00000000000E+00 0.  1.
         11    1    3    3    0    0 -0.64976983875E+00 -0.24338973548E+01  0.24692637378E+01  0.35275091559E+01  0.51100000000E-03 0. -1.
        -11    1    3    3    0    0 -0.69985012947E+00 -0.53380534879E+01 -0.29031247813E+00  0.53915569959E+01  0.51100000000E-03 0.  1.
         12    1    3    3    0    0 -0.17350491383E+02 -0.32346521942E+02  0.61833156403E+01  0.37223251138E+02  0.00000000000E+00 0. -1.
</event>
<event>
 7    1  0.1519238E-008  0.4614232E+02  0.7816164E-02  0.1320468E+00
        -11   -1    0    0    0    0  0.00000000000E+00  0.00000000000E+00  0.45593999997E+02  0.45594000000E+02  0.51100000000E-03 0. -1.
         11   -1    0    0    0    0 -0.00000000000E+00 -0.00000000000E+00 -0.45593999997E+02  0.45594000000E+02  0.51100000000E-03 0.  1.
    9900012    2    1    2    0    0 -0.79281577353E+01 -0.36424615117E+02  0.25288443560E+02  0.46142315976E+02  0.99999837234E+01 0.  0.
        -12    1    1    2    0    0  0.79281577353E+01  0.36424615117E+02 -0.25288443560E+02  0.45045684024E+02  0.00000000000E+00 0.  1.
         11    1    3    3    0    0 -0.14097068844E+01 -0.14285377346E+01  0.39505003196E+01  0.44310773629E+01  0.51100000000E-03 0. -1.
        -11    1    3    3    0    0 -0.44332247326E+00 -0.78820721955E+00 -0.61746186416E-01  0.90643162395E+00  0.51100000000E-03 0.  1.
         12    1    3    3    0    0 -0.60751283776E+01 -0.34207870163E+02  0.21399689427E+02  0.40804806989E+02  0.00000000000E+00 0. -1.
</event>
<event>
 7    1  0.1645062E-008  0.4614232E+02  0.7816164E-02  0.1320468E+00
        -11   -1    0    0    0    0  0.00000000000E+00  0.00000000000E+00  0.45593999997E+02  0.45594000000E+02  0.51100000000E-03 0.  1.
         11   -1    0    0    0    0 -0.00000000000E+00 -0.00000000000E+00 -0.45593999997E+02  0.45594000000E+02  0.51100000000E-03 0. -1.
    9900012    2    1    2    0    0 -0.44664292046E+02  0.16488638712E+01 -0.56121013638E+01  0.46142318545E+02  0.10000007145E+02 0.  0.
        -12    1    1    2    0    0  0.44664292046E+02 -0.16488638712E+01  0.56121013638E+01  0.45045681455E+02  0.00000000000E+00 0.  1.
         11    1    3    3    0    0 -0.24757056705E+02  0.21338948148E+01 -0.34112166929E+01  0.25081901112E+02  0.51100000000E-03 0. -1.
        -11    1    3    3    0    0 -0.39351215912E+01 -0.27555142633E+01 -0.25382478322E+00  0.48106619165E+01  0.51100000000E-03 0.  1.
        -12    1    3    3    0    0 -0.15972113750E+02  0.22704833197E+01 -0.19470598878E+01  0.16249755517E+02  0.00000000000E+00 0.  1.
</event>
<event>
 7    1  0.1519238E-008  0.4614232E+02  0.7816164E-02  0.1320468E+00
        -11   -1    0    0    0    0  0.00000000000E+00  0.00000000000E+00  0.45593999997E+02  0.45594000000E+02  0.51100000000E-03 0.  1.
         11   -1    0    0    0    0 -0.00000000000E+00 -0.00000000000E+00 -0.45593999997E+02  0.45594000000E+02  0.51100000000E-03 0. -1.
    9900012    2    1    2    0    0 -0.16736869909E+02 -0.22203134628E+02 -0.35440250645E+02  0.46142319103E+02  0.10000012239E+02 0.  0.
        -12    1    1    2    0    0  0.16736869909E+02  0.22203134628E+02  0.35440250645E+02  0.45045680897E+02  0.00000000000E+00 0.  1.
         11    1    3    3    0    0 -0.37331774080E+01 -0.23238696255E+01 -0.43374299100E+01  0.61765914614E+01  0.51100000000E-03 0. -1.
        -11    1    3    3    0    0 -0.95025828830E+01 -0.73688474549E+01 -0.13349017594E+02  0.17966503980E+02  0.51100000000E-03 0.  1.
        -12    1    3    3    0    0 -0.35011096180E+01 -0.12510417547E+02 -0.17753803141E+02  0.21999223662E+02  0.00000000000E+00 0.  1.
</event>
<event>
 7    1  0.1519238E-008  0.4614232E+02  0.7816164E-02  0.1320468E+00
        -11   -1    0    0    0    0  0.00000000000E+00  0.00000000000E+00  0.45593999997E+02  0.45594000000E+02  0.51100000000E-03 0.  1.
         11   -1    0    0    0    0 -0.00000000000E+00 -0.00000000000E+00 -0.45593999997E+02  0.45594000000E+02  0.51100000000E-03 0. -1.
    9900012    2    1    2    0    0 -0.23934109306E+02  0.35170790810E+02 -0.14808348434E+02  0.46142319876E+02  0.10000019288E+02 0.  0.
        -12    1    1    2    0    0  0.23934109306E+02 -0.35170790810E+02  0.14808348434E+02  0.45045680124E+02  0.00000000000E+00 0.  1.
         11    1    3    3    0    0 -0.15905964814E+02  0.29086202322E+02 -0.98652929466E+01  0.34588016528E+02  0.51100000000E-03 0. -1.
        -11    1    3    3    0    0 -0.67822259494E+01  0.61441757850E+01 -0.46832517462E+01  0.10280191247E+02  0.51100000000E-03 0.  1.
        -12    1    3    3    0    0 -0.12459185427E+01 -0.59587297174E-01 -0.25980374127E+00  0.12741121006E+01  0.00000000000E+00 0.  1.
</event>
<event>
 7    1  0.1519238E-008  0.4614232E+02  0.7816164E-02  0.1320468E+00
        -11   -1    0    0    0    0  0.00000000000E+00  0.00000000000E+00  0.45593999997E+02  0.45594000000E+02  0.51100000000E-03 0.  1.
         11   -1    0    0    0    0 -0.00000000000E+00 -0.00000000000E+00 -0.45593999997E+02  0.45594000000E+02  0.51100000000E-03 0. -1.
    9900012    2    1    2    0    0 -0.28576613521E+02 -0.28200564943E+02 -0.20425933285E+02  0.46142318143E+02  0.10000003478E+02 0.  0.
        -12    1    1    2    0    0  0.28576613521E+02  0.28200564943E+02  0.20425933285E+02  0.45045681857E+02  0.00000000000E+00 0.  1.
         11    1    3    3    0    0 -0.19963446306E+02 -0.22160108540E+02 -0.18892639431E+02  0.35306393527E+02  0.51100000000E-03 0. -1.
        -11    1    3    3    0    0 -0.63294880805E+00  0.10631366869E+00  0.28772637654E-01  0.64246004977E+00  0.51100000000E-03 0.  1.
         12    1    3    3    0    0 -0.79802184068E+01 -0.61467700720E+01 -0.15620664915E+01  0.10193464566E+02  0.00000000000E+00 0. -1.
</event>
<event>
 7    1  0.1519238E-008  0.4614232E+02  0.7816164E-02  0.1320468E+00
        -11   -1    0    0    0    0  0.00000000000E+00  0.00000000000E+00  0.45593999997E+02  0.45594000000E+02  0.51100000000E-03 0.  1.
         11   -1    0    0    0    0 -0.00000000000E+00 -0.00000000000E+00 -0.45593999997E+02  0.45594000000E+02  0.51100000000E-03 0. -1.
    9900012    2    1    2    0    0 -0.27157877827E+02 -0.24811072255E+02 -0.25999498096E+02  0.46142317235E+02  0.99999952066E+01 0.  0.
        -12    1    1    2    0    0  0.27157877827E+02  0.24811072255E+02  0.25999498096E+02  0.45045682765E+02  0.00000000000E+00 0.  1.
         11    1    3    3    0    0 -0.13149863894E+02 -0.13796446142E+02 -0.18917949179E+02  0.26854229611E+02  0.51100000000E-03 0. -1.
        -11    1    3    3    0    0 -0.96920057197E+01 -0.63819669976E+01 -0.47975098491E+01  0.12557092762E+02  0.51100000000E-03 0.  1.
         12    1    3    3    0    0 -0.43160082129E+01 -0.46326591156E+01 -0.22840390674E+01  0.67309948623E+01  0.00000000000E+00 0. -1.
</event>
<event>
 7    1  0.1519238E-008  0.4614231E+02  0.7816164E-02  0.1320468E+00
        -11   -1    0    0    0    0  0.00000000000E+00  0.00000000000E+00  0.45593999997E+02  0.45594000000E+02  0.51100000000E-03 0.  1.
         11   -1    0    0    0    0 -0.00000000000E+00 -0.00000000000E+00 -0.45593999997E+02  0.45594000000E+02  0.51100000000E-03 0. -1.
    9900012    2    1    2    0    0  0.40321576519E+02 -0.19663259954E+02 -0.40792719728E+01  0.46142314470E+02  0.99999699912E+01 0.  0.
        -12    1    1    2    0    0 -0.40321576519E+02  0.19663259954E+02  0.40792719728E+01  0.45045685530E+02  0.00000000000E+00 0.  1.
         11    1    3    3    0    0  0.26729803091E+02 -0.12269402514E+02 -0.11451707510E+01  0.29433518778E+02  0.51100000000E-03 0. -1.
        -11    1    3    3    0    0  0.59645588068E+01 -0.35585359411E+01  0.14748625013E+01  0.71003069978E+01  0.51100000000E-03 0.  1.
        -12    1    3    3    0    0  0.76272146210E+01 -0.38353214990E+01 -0.44089637232E+01  0.96084886943E+01  0.00000000000E+00 0.  1.
</event>
<event>
 7    1  0.1519238E-008  0.4614232E+02  0.7816164E-02  0.1320468E+00
        -11   -1    0    0    0    0  0.00000000000E+00  0.00000000000E+00  0.45593999997E+02  0.45594000000E+02  0.51100000000E-03 0. -1.
         11   -1    0    0    0    0 -0.00000000000E+00 -0.00000000000E+00 -0.45593999997E+02  0.45594000000E+02  0.51100000000E-03 0.  1.
    9900012    2    1    2    0    0  0.35172376421E+02 -0.23089639919E+02  0.16089935155E+02  0.46142317099E+02  0.99999939661E+01 0.  0.
        -12    1    1    2    0    0 -0.35172376421E+02  0.23089639919E+02 -0.16089935155E+02  0.45045682901E+02  0.00000000000E+00 0.  1.
         11    1    3    3    0    0  0.91991597780E+01 -0.98507675148E+01  0.20880627286E+01  0.13638994372E+02  0.51100000000E-03 0. -1.
        -11    1    3    3    0    0  0.20053929596E+02 -0.11400104196E+02  0.10121853521E+02  0.25190759951E+02  0.51100000000E-03 0.  1.
         12    1    3    3    0    0  0.59192870466E+01 -0.18387682089E+01  0.38800189049E+01  0.73125627771E+01  0.00000000000E+00 0. -1.
</event>
<event>
 7    1  0.1519238E-008  0.4614232E+02  0.7816164E-02  0.1320468E+00
        -11   -1    0    0    0    0  0.00000000000E+00  0.00000000000E+00  0.45593999997E+02  0.45594000000E+02  0.51100000000E-03 0.  1.
         11   -1    0    0    0    0 -0.00000000000E+00 -0.00000000000E+00 -0.45593999997E+02  0.45594000000E+02  0.51100000000E-03 0. -1.
    9900012    2    1    2    0    0  0.40912016883E+02 -0.18672512465E+02 -0.25802376172E+01  0.46142317928E+02  0.10000001524E+02 0.  0.
        -12    1    1    2    0    0 -0.40912016883E+02  0.18672512465E+02  0.25802376172E+01  0.45045682072E+02  0.00000000000E+00 0.  1.
         11    1    3    3    0    0  0.56372083417E+01 -0.33258607685E+01  0.21444374206E+01  0.68875307514E+01  0.51100000000E-03 0. -1.
        -11    1    3    3    0    0  0.11951115319E+02 -0.66302566204E+01 -0.43848396896E+01  0.14353267210E+02  0.51100000000E-03 0.  1.
         12    1    3    3    0    0  0.23323693222E+02 -0.87163950757E+01 -0.33983534823E+00  0.24901519967E+02  0.00000000000E+00 0. -1.
</event>
<event>
 7    1  0.1519238E-008  0.4614232E+02  0.7816164E-02  0.1320468E+00
        -11   -1    0    0    0    0  0.00000000000E+00  0.00000000000E+00  0.45593999997E+02  0.45594000000E+02  0.51100000000E-03 0.  1.
         11   -1    0    0    0    0 -0.00000000000E+00 -0.00000000000E+00 -0.45593999997E+02  0.45594000000E+02  0.51100000000E-03 0. -1.
    9900012    2    1    2    0    0 -0.22458495160E+02  0.96458496402E+01 -0.37837640515E+02  0.46142318078E+02  0.10000002886E+02 0.  0.
        -12    1    1    2    0    0  0.22458495160E+02 -0.96458496402E+01  0.37837640515E+02  0.45045681922E+02  0.00000000000E+00 0.  1.
         11    1    3    3    0    0 -0.13067609260E+02  0.71660465234E+01 -0.20924705457E+02  0.25689646422E+02  0.51100000000E-03 0. -1.
        -11    1    3    3    0    0 -0.94333287946E+01  0.42240048912E+00 -0.13893859463E+02  0.16798971557E+02  0.51100000000E-03 0.  1.
         12    1    3    3    0    0  0.42442893981E-01  0.20574026276E+01 -0.30190755942E+01  0.36537000992E+01  0.00000000000E+00 0. -1.
</event>
<event>
 7    1  0.1519238E-008  0.4614232E+02  0.7816164E-02  0.1320468E+00
        -11   -1    0    0    0    0  0.00000000000E+00  0.00000000000E+00  0.45593999997E+02  0.45594000000E+02  0.51100000000E-03 0.  1.
         11   -1    0    0    0    0 -0.00000000000E+00 -0.00000000000E+00 -0.45593999997E+02  0.45594000000E+02  0.51100000000E-03 0. -1.
    9900012    2    1    2    0    0  0.28375542163E+02 -0.29205495253E+02 -0.19260870748E+02  0.46142317766E+02  0.10000000042E+02 0.  0.
        -12    1    1    2    0    0 -0.28375542163E+02  0.29205495253E+02  0.19260870748E+02  0.45045682234E+02  0.00000000000E+00 0.  1.
         11    1    3    3    0    0  0.12187776727E+02 -0.14004177449E+02 -0.88861191325E+01  0.20582079610E+02  0.51100000000E-03 0. -1.
        -11    1    3    3    0    0  0.10225360116E+02 -0.50539128939E+01 -0.67098582033E+01  0.13233375322E+02  0.51100000000E-03 0.  1.
        -12    1    3    3    0    0  0.59624053193E+01 -0.10147404909E+02 -0.36648934121E+01  0.12326862833E+02  0.00000000000E+00 0.  1.
</event>
<event>
 7    1  0.1519238E-008  0.4614232E+02  0.7816164E-02  0.1320468E+00
        -11   -1    0    0    0    0  0.00000000000E+00  0.00000000000E+00  0.45593999997E+02  0.45594000000E+02  0.51100000000E-03 0.  1.
         11   -1    0    0    0    0 -0.00000000000E+00 -0.00000000000E+00 -0.45593999997E+02  0.45594000000E+02  0.51100000000E-03 0. -1.
    9900012    2    1    2    0    0 -0.10997805766E+02 -0.43465431738E+02 -0.43494848698E+01  0.46142317560E+02  0.99999981647E+01 0.  0.
        -12    1    1    2    0    0  0.10997805766E+02  0.43465431738E+02  0.43494848698E+01  0.45045682440E+02  0.00000000000E+00 0.  1.
         11    1    3    3    0    0 -0.68456519287E+01 -0.26547172324E+02 -0.39810486005E+01  0.27703141644E+02  0.51100000000E-03 0. -1.
        -11    1    3    3    0    0 -0.53340532562E+01 -0.92911069833E+01 -0.40170840605E+00  0.10720921743E+02  0.51100000000E-03 0.  1.
         12    1    3    3    0    0  0.11818994185E+01 -0.76271524313E+01  0.33272136780E-01  0.77182541731E+01  0.00000000000E+00 0. -1.
</event>
<event>
 7    1  0.1519238E-008  0.4614232E+02  0.7816164E-02  0.1320468E+00
        -11   -1    0    0    0    0  0.00000000000E+00  0.00000000000E+00  0.45593999997E+02  0.45594000000E+02  0.51100000000E-03 0.  1.
         11   -1    0    0    0    0 -0.00000000000E+00 -0.00000000000E+00 -0.45593999997E+02  0.45594000000E+02  0.51100000000E-03 0. -1.
    9900012    2    1    2    0    0  0.23980191788E+02 -0.19454736116E+02 -0.32795992632E+02  0.46142317763E+02  0.10000000015E+02 0.  0.
        -12    1    1    2    0    0 -0.23980191788E+02  0.19454736116E+02  0.32795992632E+02  0.45045682237E+02  0.00000000000E+00 0.  1.
         11    1    3    3    0    0  0.19621773160E+02 -0.18866240254E+02 -0.25411510995E+02  0.37238339042E+02  0.51100000000E-03 0. -1.
        -11    1    3    3    0    0  0.15540230540E+01  0.84531741622E+00 -0.20378970205E+01  0.26986244114E+01  0.51100000000E-03 0.  1.
         12    1    3    3    0    0  0.28043955739E+01 -0.14338132780E+01 -0.53465846161E+01  0.62053543096E+01  0.00000000000E+00 0. -1.
</event>
<event>
 7    1  0.1519238E-008  0.4614232E+02  0.7816164E-02  0.1320468E+00
        -11   -1    0    0    0    0  0.00000000000E+00  0.00000000000E+00  0.45593999997E+02  0.45594000000E+02  0.51100000000E-03 0.  1.
         11   -1    0    0    0    0 -0.00000000000E+00 -0.00000000000E+00 -0.45593999997E+02  0.45594000000E+02  0.51100000000E-03 0. -1.
    9900012    2    1    2    0    0 -0.46268664421E+01 -0.39988513308E+02 -0.20214457584E+02  0.46142318908E+02  0.10000010455E+02 0.  0.
        -12    1    1    2    0    0  0.46268664421E+01  0.39988513308E+02  0.20214457584E+02  0.45045681092E+02  0.00000000000E+00 0.  1.
         11    1    3    3    0    0 -0.28777906783E+01 -0.32467865925E+02 -0.15277741281E+02  0.35997963496E+02  0.51100000000E-03 0. -1.
        -11    1    3    3    0    0 -0.30682516723E+01 -0.39386793074E+01 -0.22489766403E+01  0.54758797650E+01  0.51100000000E-03 0.  1.
         12    1    3    3    0    0  0.13191759084E+01 -0.35819680750E+01 -0.26877396630E+01  0.46684756467E+01  0.00000000000E+00 0. -1.
</event>
<event>
 7    1  0.1519238E-008  0.4614232E+02  0.7816164E-02  0.1320468E+00
        -11   -1    0    0    0    0  0.00000000000E+00  0.00000000000E+00  0.45593999997E+02  0.45594000000E+02  0.51100000000E-03 0. -1.
         11   -1    0    0    0    0 -0.00000000000E+00 -0.00000000000E+00 -0.45593999997E+02  0.45594000000E+02  0.51100000000E-03 0.  1.
    9900012    2    1    2    0    0 -0.20980282325E+02  0.38431861459E+02  0.10579859383E+02  0.46142316009E+02  0.99999840248E+01 0.  0.
        -12    1    1    2    0    0  0.20980282325E+02 -0.38431861459E+02 -0.10579859383E+02  0.45045683991E+02  0.00000000000E+00 0.  1.
         11    1    3    3    0    0 -0.38287044010E+01  0.93133781079E+01 -0.14145583572E+01  0.10168528152E+02  0.51100000000E-03 0. -1.
        -11    1    3    3    0    0 -0.14139021888E+02  0.22231803649E+02  0.84976703407E+01  0.27683486683E+02  0.51100000000E-03 0.  1.
         12    1    3    3    0    0 -0.30125560361E+01  0.68866797023E+01  0.34967473990E+01  0.82903011746E+01  0.00000000000E+00 0. -1.
</event>
<event>
 7    1  0.1519238E-008  0.4614232E+02  0.7816164E-02  0.1320468E+00
        -11   -1    0    0    0    0  0.00000000000E+00  0.00000000000E+00  0.45593999997E+02  0.45594000000E+02  0.51100000000E-03 0.  1.
         11   -1    0    0    0    0 -0.00000000000E+00 -0.00000000000E+00 -0.45593999997E+02  0.45594000000E+02  0.51100000000E-03 0. -1.
    9900012    2    1    2    0    0  0.34492361165E+02 -0.18837509649E+02 -0.22012239235E+02  0.46142318468E+02  0.10000006448E+02 0.  0.
        -12    1    1    2    0    0 -0.34492361165E+02  0.18837509649E+02  0.22012239235E+02  0.45045681532E+02  0.00000000000E+00 0.  1.
         11    1    3    3    0    0  0.16976007584E+02 -0.71708307564E+01 -0.10492971546E+02  0.21206322155E+02  0.51100000000E-03 0. -1.
        -11    1    3    3    0    0  0.90251228551E+01 -0.32520648617E+01 -0.79527815711E+01  0.12460959168E+02  0.51100000000E-03 0.  1.
        -12    1    3    3    0    0  0.84912307261E+01 -0.84146140310E+01 -0.35664861181E+01  0.12475037145E+02  0.00000000000E+00 0.  1.
</event>
<event>
 7    1  0.1519238E-008  0.4614232E+02  0.7816164E-02  0.1320468E+00
        -11   -1    0    0    0    0  0.00000000000E+00  0.00000000000E+00  0.45593999997E+02  0.45594000000E+02  0.51100000000E-03 0. -1.
         11   -1    0    0    0    0 -0.00000000000E+00 -0.00000000000E+00 -0.45593999997E+02  0.45594000000E+02  0.51100000000E-03 0.  1.
    9900012    2    1    2    0    0  0.70036893760E+01  0.41791700697E+02 -0.15281217388E+02  0.46142317444E+02  0.99999971104E+01 0.  0.
        -12    1    1    2    0    0 -0.70036893760E+01 -0.41791700697E+02  0.15281217388E+02  0.45045682556E+02  0.00000000000E+00 0.  1.
         11    1    3    3    0    0  0.44926352478E+00  0.67130053505E+01 -0.17833021079E+01  0.69603480674E+01  0.51100000000E-03 0. -1.
        -11    1    3    3    0    0  0.17046552773E+01  0.20926810207E+02 -0.37550934542E+01  0.21329274769E+02  0.51100000000E-03 0.  1.
        -12    1    3    3    0    0  0.48497705739E+01  0.14151885140E+02 -0.97428218262E+01  0.17852694608E+02  0.00000000000E+00 0.  1.
</event>
<event>
 7    1  0.1519238E-008  0.4614232E+02  0.7816164E-02  0.1320468E+00
        -11   -1    0    0    0    0  0.00000000000E+00  0.00000000000E+00  0.45593999997E+02  0.45594000000E+02  0.51100000000E-03 0. -1.
         11   -1    0    0    0    0 -0.00000000000E+00 -0.00000000000E+00 -0.45593999997E+02  0.45594000000E+02  0.51100000000E-03 0.  1.
    9900012    2    1    2    0    0  0.43472446026E+02 -0.38367787936E+01  0.11159706982E+02  0.46142317688E+02  0.99999993336E+01 0.  0.
        -12    1    1    2    0    0 -0.43472446026E+02  0.38367787936E+01 -0.11159706982E+02  0.45045682312E+02  0.00000000000E+00 0.  1.
         11    1    3    3    0    0  0.23169675737E+02 -0.62333411236E+01  0.85415871328E+01  0.25468551712E+02  0.51100000000E-03 0. -1.
        -11    1    3    3    0    0  0.71510991960E+01  0.20803835954E+00  0.47260917633E+00  0.71697182207E+01  0.51100000000E-03 0.  1.
         12    1    3    3    0    0  0.13151671094E+02  0.21885239705E+01  0.21455106728E+01  0.13504047755E+02  0.00000000000E+00 0. -1.
</event>
<event>
 7    1  0.1519238E-008  0.4614232E+02  0.7816164E-02  0.1320468E+00
        -11   -1    0    0    0    0  0.00000000000E+00  0.00000000000E+00  0.45593999997E+02  0.45594000000E+02  0.51100000000E-03 0.  1.
         11   -1    0    0    0    0 -0.00000000000E+00 -0.00000000000E+00 -0.45593999997E+02  0.45594000000E+02  0.51100000000E-03 0. -1.
    9900012    2    1    2    0    0  0.11041872949E+02 -0.42626083705E+02  0.94977641162E+01  0.46142317705E+02  0.99999994881E+01 0.  0.
        -12    1    1    2    0    0 -0.11041872949E+02  0.42626083705E+02 -0.94977641162E+01  0.45045682295E+02  0.00000000000E+00 0.  1.
         11    1    3    3    0    0  0.40921937458E+01 -0.68422813460E+01 -0.11365329475E+01  0.80532335787E+01  0.51100000000E-03 0. -1.
        -11    1    3    3    0    0  0.20992257018E+01 -0.12113534540E+02  0.50446564976E+01  0.13288830913E+02  0.51100000000E-03 0.  1.
        -12    1    3    3    0    0  0.48504535014E+01 -0.23670267819E+02  0.55896405661E+01  0.24800253213E+02  0.00000000000E+00 0.  1.
</event>
<event>
 7    1  0.1519238E-008  0.4614232E+02  0.7816164E-02  0.1320468E+00
        -11   -1    0    0    0    0  0.00000000000E+00  0.00000000000E+00  0.45593999997E+02  0.45594000000E+02  0.51100000000E-03 0. -1.
         11   -1    0    0    0    0 -0.00000000000E+00 -0.00000000000E+00 -0.45593999997E+02  0.45594000000E+02  0.51100000000E-03 0.  1.
    9900012    2    1    2    0    0 -0.25054868925E+02 -0.32378083020E+02 -0.18789006230E+02  0.46142317943E+02  0.10000001658E+02 0.  0.
        -12    1    1    2    0    0  0.25054868925E+02  0.32378083020E+02  0.18789006230E+02  0.45045682057E+02  0.00000000000E+00 0.  1.
         11    1    3    3    0    0 -0.94007052048E+01 -0.76585597117E+01 -0.25975525730E+01  0.12400567521E+02  0.51100000000E-03 0. -1.
        -11    1    3    3    0    0 -0.47183855394E+01 -0.11210238063E+02 -0.56189144046E+01  0.13397940099E+02  0.51100000000E-03 0.  1.
        -12    1    3    3    0    0 -0.10935778181E+02 -0.13509285244E+02 -0.10572539253E+02  0.20343810324E+02  0.00000000000E+00 0.  1.
</event>
<event>
 7    1  0.1519238E-008  0.4614231E+02  0.7816164E-02  0.1320468E+00
        -11   -1    0    0    0    0  0.00000000000E+00  0.00000000000E+00  0.45593999997E+02  0.45594000000E+02  0.51100000000E-03 0.  1.
         11   -1    0    0    0    0 -0.00000000000E+00 -0.00000000000E+00 -0.45593999997E+02  0.45594000000E+02  0.51100000000E-03 0. -1.
    9900012    2    1    2    0    0 -0.19070137347E+02  0.11063616200E+02 -0.39281557090E+02  0.46142306873E+02  0.99999007127E+01 0.  0.
        -12    1    1    2    0    0  0.19070137347E+02 -0.11063616200E+02  0.39281557090E+02  0.45045693127E+02  0.00000000000E+00 0.  1.
         11    1    3    3    0    0 -0.13119981175E+01  0.24943147345E+01 -0.11968602409E+01  0.30619307230E+01  0.51100000000E-03 0. -1.
        -11    1    3    3    0    0 -0.61825171630E+01  0.30524449982E+01 -0.17727219729E+02  0.19020916343E+02  0.51100000000E-03 0.  1.
        -12    1    3    3    0    0 -0.11575622066E+02  0.55168564676E+01 -0.20357477121E+02  0.24059459807E+02  0.00000000000E+00 0.  1.
</event>
<event>
 7    1  0.1519238E-008  0.4614231E+02  0.7816164E-02  0.1320468E+00
        -11   -1    0    0    0    0  0.00000000000E+00  0.00000000000E+00  0.45593999997E+02  0.45594000000E+02  0.51100000000E-03 0.  1.
         11   -1    0    0    0    0 -0.00000000000E+00 -0.00000000000E+00 -0.45593999997E+02  0.45594000000E+02  0.51100000000E-03 0. -1.
    9900012    2    1    2    0    0  0.28042516490E+02 -0.65518177298E+01 -0.34638202347E+02  0.46142310878E+02  0.99999372347E+01 0.  0.
        -12    1    1    2    0    0 -0.28042516490E+02  0.65518177298E+01  0.34638202347E+02  0.45045689122E+02  0.00000000000E+00 0.  1.
         11    1    3    3    0    0  0.12805246547E+02 -0.39038125065E+01 -0.10487977690E+02  0.17006227315E+02  0.51100000000E-03 0. -1.
        -11    1    3    3    0    0  0.13456985315E+02 -0.12180596644E+01 -0.22742288815E+02  0.26453465254E+02  0.51100000000E-03 0.  1.
        -12    1    3    3    0    0  0.17802846286E+01 -0.14299455588E+01 -0.14079358419E+01  0.26826183096E+01  0.00000000000E+00 0.  1.
</event>
<event>
 7    1  0.1519238E-008  0.4614232E+02  0.7816164E-02  0.1320468E+00
        -11   -1    0    0    0    0  0.00000000000E+00  0.00000000000E+00  0.45593999997E+02  0.45594000000E+02  0.51100000000E-03 0. -1.
         11   -1    0    0    0    0 -0.00000000000E+00 -0.00000000000E+00 -0.45593999997E+02  0.45594000000E+02  0.51100000000E-03 0.  1.
    9900012    2    1    2    0    0  0.17539561770E+02 -0.12184895435E+02  0.39661134623E+02  0.46142317594E+02  0.99999984754E+01 0.  0.
        -12    1    1    2    0    0 -0.17539561770E+02  0.12184895435E+02 -0.39661134623E+02  0.45045682406E+02  0.00000000000E+00 0.  1.
         11    1    3    3    0    0  0.55252075934E+01  0.83942487758E+00  0.11498991882E+02  0.12785122903E+02  0.51100000000E-03 0. -1.
        -11    1    3    3    0    0  0.10825397520E+02 -0.11067313014E+02  0.23186121744E+02  0.27879578379E+02  0.51100000000E-03 0.  1.
        -12    1    3    3    0    0  0.11889566570E+01 -0.19570072981E+01  0.49760209974E+01  0.54776163122E+01  0.00000000000E+00 0.  1.
</event>
<event>
 7    1  0.1519238E-008  0.4614232E+02  0.7816164E-02  0.1320468E+00
        -11   -1    0    0    0    0  0.00000000000E+00  0.00000000000E+00  0.45593999997E+02  0.45594000000E+02  0.51100000000E-03 0.  1.
         11   -1    0    0    0    0 -0.00000000000E+00 -0.00000000000E+00 -0.45593999997E+02  0.45594000000E+02  0.51100000000E-03 0. -1.
    9900012    2    1    2    0    0  0.43787590940E+02  0.90606959056E+01 -0.54464894244E+01  0.46142316770E+02  0.99999909619E+01 0.  0.
        -12    1    1    2    0    0 -0.43787590940E+02 -0.90606959056E+01  0.54464894244E+01  0.45045683230E+02  0.00000000000E+00 0.  1.
         11    1    3    3    0    0  0.13981333121E+02  0.38559508620E+01 -0.50599155758E+01  0.15360624297E+02  0.51100000000E-03 0. -1.
        -11    1    3    3    0    0  0.14867081449E+02  0.32300296369E+01 -0.29466730066E+01  0.15496647519E+02  0.51100000000E-03 0.  1.
        -12    1    3    3    0    0  0.14939176369E+02  0.19747154067E+01  0.25600991580E+01  0.15285044954E+02  0.00000000000E+00 0.  1.
</event>
<event>
 7    1  0.1519238E-008  0.4614232E+02  0.7816164E-02  0.1320468E+00
        -11   -1    0    0    0    0  0.00000000000E+00  0.00000000000E+00  0.45593999997E+02  0.45594000000E+02  0.51100000000E-03 0.  1.
         11   -1    0    0    0    0 -0.00000000000E+00 -0.00000000000E+00 -0.45593999997E+02  0.45594000000E+02  0.51100000000E-03 0. -1.
    9900012    2    1    2    0    0  0.14644764673E+02  0.12787041454E+01 -0.42579440179E+02  0.46142323819E+02  0.10000055240E+02 0.  0.
        -12    1    1    2    0    0 -0.14644764673E+02 -0.12787041454E+01  0.42579440179E+02  0.45045676181E+02  0.00000000000E+00 0.  1.
         11    1    3    3    0    0  0.83630180115E+01  0.44939400218E+00 -0.20439659335E+02  0.22088949709E+02  0.51100000000E-03 0. -1.
        -11    1    3    3    0    0  0.59793158766E+01  0.28347752628E+01 -0.20163563962E+02  0.21221627672E+02  0.51100000000E-03 0.  1.
        -12    1    3    3    0    0  0.30243078536E+00 -0.20054651195E+01 -0.19762168823E+01  0.28317464384E+01  0.00000000000E+00 0.  1.
</event>
<event>
 7    1  0.1519238E-008  0.4614232E+02  0.7816164E-02  0.1320468E+00
        -11   -1    0    0    0    0  0.00000000000E+00  0.00000000000E+00  0.45593999997E+02  0.45594000000E+02  0.51100000000E-03 0.  1.
         11   -1    0    0    0    0 -0.00000000000E+00 -0.00000000000E+00 -0.45593999997E+02  0.45594000000E+02  0.51100000000E-03 0. -1.
    9900012    2    1    2    0    0 -0.59010991387E+01 -0.39630458128E+02 -0.20584393385E+02  0.46142318370E+02  0.10000005553E+02 0.  0.
        -12    1    1    2    0    0  0.59010991387E+01  0.39630458128E+02  0.20584393385E+02  0.45045681630E+02  0.00000000000E+00 0.  1.
         11    1    3    3    0    0 -0.59062972061E+00 -0.16100418230E+01 -0.27979616123E-01  0.17151854881E+01  0.51100000000E-03 0. -1.
        -11    1    3    3    0    0 -0.72375408423E+01 -0.32264790416E+02 -0.15462772229E+02  0.36503370027E+02  0.51100000000E-03 0.  1.
        -12    1    3    3    0    0  0.19270714242E+01 -0.57556258886E+01 -0.50936415402E+01  0.79237628551E+01  0.00000000000E+00 0.  1.
</event>
<event>
 7    1  0.1519238E-008  0.4614232E+02  0.7816164E-02  0.1320468E+00
        -11   -1    0    0    0    0  0.00000000000E+00  0.00000000000E+00  0.45593999997E+02  0.45594000000E+02  0.51100000000E-03 0.  1.
         11   -1    0    0    0    0 -0.00000000000E+00 -0.00000000000E+00 -0.45593999997E+02  0.45594000000E+02  0.51100000000E-03 0. -1.
    9900012    2    1    2    0    0  0.27105171217E+02  0.14178271240E+02 -0.33066596835E+02  0.46142317540E+02  0.99999979802E+01 0.  0.
        -12    1    1    2    0    0 -0.27105171217E+02 -0.14178271240E+02  0.33066596835E+02  0.45045682460E+02  0.00000000000E+00 0.  1.
         11    1    3    3    0    0  0.30053493313E+01  0.30272068896E-01 -0.27047710939E+01  0.40433683894E+01  0.51100000000E-03 0. -1.
        -11    1    3    3    0    0  0.17286511327E+01  0.22149521572E+01 -0.73107529095E+01  0.78320722776E+01  0.51100000000E-03 0.  1.
        -12    1    3    3    0    0  0.22371170753E+02  0.11933047014E+02 -0.23051072832E+02  0.34266876873E+02  0.00000000000E+00 0.  1.
</event>
<event>
 7    1  0.1519238E-008  0.4614232E+02  0.7816164E-02  0.1320468E+00
        -11   -1    0    0    0    0  0.00000000000E+00  0.00000000000E+00  0.45593999997E+02  0.45594000000E+02  0.51100000000E-03 0.  1.
         11   -1    0    0    0    0 -0.00000000000E+00 -0.00000000000E+00 -0.45593999997E+02  0.45594000000E+02  0.51100000000E-03 0. -1.
    9900012    2    1    2    0    0 -0.31367887125E+02 -0.18145549022E+02 -0.26756461269E+02  0.46142317502E+02  0.99999976392E+01 0.  0.
        -12    1    1    2    0    0  0.31367887125E+02  0.18145549022E+02  0.26756461269E+02  0.45045682498E+02  0.00000000000E+00 0.  1.
         11    1    3    3    0    0 -0.29516234372E+02 -0.15667931888E+02 -0.23132159154E+02  0.40642206738E+02  0.51100000000E-03 0. -1.
        -11    1    3    3    0    0  0.72459423343E+00 -0.49152251338E+00 -0.62799822949E+00  0.10775032351E+01  0.51100000000E-03 0.  1.
         12    1    3    3    0    0 -0.25762469871E+01 -0.19860946208E+01 -0.29963038856E+01  0.44226075291E+01  0.00000000000E+00 0. -1.
</event>
<event>
 7    1  0.1519238E-008  0.4614232E+02  0.7816164E-02  0.1320468E+00
        -11   -1    0    0    0    0  0.00000000000E+00  0.00000000000E+00  0.45593999997E+02  0.45594000000E+02  0.51100000000E-03 0.  1.
         11   -1    0    0    0    0 -0.00000000000E+00 -0.00000000000E+00 -0.45593999997E+02  0.45594000000E+02  0.51100000000E-03 0. -1.
    9900012    2    1    2    0    0  0.39270301603E+02 -0.27070109996E+01 -0.21900435974E+02  0.46142316606E+02  0.99999894680E+01 0.  0.
        -12    1    1    2    0    0 -0.39270301603E+02  0.27070109996E+01  0.21900435974E+02  0.45045683394E+02  0.00000000000E+00 0.  1.
         11    1    3    3    0    0  0.28147214433E+02 -0.42485429207E+00 -0.17260913273E+02  0.33020982856E+02  0.51100000000E-03 0. -1.
        -11    1    3    3    0    0  0.29226744901E+01 -0.19740888772E+01 -0.32545639170E+01  0.47990873738E+01  0.51100000000E-03 0.  1.
        -12    1    3    3    0    0  0.82004126800E+01 -0.30806783042E+00 -0.13849587842E+01  0.83222463761E+01  0.00000000000E+00 0.  1.
</event>
<event>
 7    1  0.1519238E-008  0.4614232E+02  0.7816164E-02  0.1320468E+00
        -11   -1    0    0    0    0  0.00000000000E+00  0.00000000000E+00  0.45593999997E+02  0.45594000000E+02  0.51100000000E-03 0.  1.
         11   -1    0    0    0    0 -0.00000000000E+00 -0.00000000000E+00 -0.45593999997E+02  0.45594000000E+02  0.51100000000E-03 0. -1.
    9900012    2    1    2    0    0  0.31024909185E+02  0.30643581571E+02 -0.11293330643E+02  0.46142318759E+02  0.10000009103E+02 0.  0.
        -12    1    1    2    0    0 -0.31024909185E+02 -0.30643581571E+02  0.11293330643E+02  0.45045681241E+02  0.00000000000E+00 0.  1.
         11    1    3    3    0    0  0.18224770582E+01  0.53177740660E+01 -0.30763193600E+01  0.64081108535E+01  0.51100000000E-03 0. -1.
        -11    1    3    3    0    0  0.27162879557E+02  0.24722912100E+02 -0.74794419157E+01  0.37483149016E+02  0.51100000000E-03 0.  1.
        -12    1    3    3    0    0  0.20395525699E+01  0.60289540467E+00 -0.73756936697E+00  0.22510588898E+01  0.00000000000E+00 0.  1.
</event>
<event>
 7    1  0.1519238E-008  0.4614232E+02  0.7816164E-02  0.1320468E+00
        -11   -1    0    0    0    0  0.00000000000E+00  0.00000000000E+00  0.45593999997E+02  0.45594000000E+02  0.51100000000E-03 0.  1.
         11   -1    0    0    0    0 -0.00000000000E+00 -0.00000000000E+00 -0.45593999997E+02  0.45594000000E+02  0.51100000000E-03 0. -1.
    9900012    2    1    2    0    0 -0.14137723524E+02 -0.20676817127E+02 -0.37439387088E+02  0.46142315429E+02  0.99999787348E+01 0.  0.
        -12    1    1    2    0    0  0.14137723524E+02  0.20676817127E+02  0.37439387088E+02  0.45045684571E+02  0.00000000000E+00 0.  1.
         11    1    3    3    0    0 -0.15477584735E+01 -0.52055328647E+01 -0.33220184018E+01  0.63662339904E+01  0.51100000000E-03 0.  1.
        -11    1    3    3    0    0 -0.34859858255E+01 -0.56713634524E+01 -0.15333853403E+02  0.16716564271E+02  0.51100000000E-03 0. -1.
         12    1    3    3    0    0 -0.91039792250E+01 -0.97999208099E+01 -0.18783515283E+02  0.23059517167E+02  0.00000000000E+00 0. -1.
</event>
<event>
 7    1  0.1519238E-008  0.4614232E+02  0.7816164E-02  0.1320468E+00
        -11   -1    0    0    0    0  0.00000000000E+00  0.00000000000E+00  0.45593999997E+02  0.45594000000E+02  0.51100000000E-03 0. -1.
         11   -1    0    0    0    0 -0.00000000000E+00 -0.00000000000E+00 -0.45593999997E+02  0.45594000000E+02  0.51100000000E-03 0.  1.
    9900012    2    1    2    0    0  0.19380415351E+02  0.29259396437E+02  0.28238279957E+02  0.46142320585E+02  0.10000025753E+02 0.  0.
        -12    1    1    2    0    0 -0.19380415351E+02 -0.29259396437E+02 -0.28238279957E+02  0.45045679415E+02  0.00000000000E+00 0.  1.
         11    1    3    3    0    0  0.15681896278E+02  0.25924443421E+02  0.20880403651E+02  0.36796601670E+02  0.51100000000E-03 0. -1.
        -11    1    3    3    0    0  0.44686290129E+00  0.22779431546E+01  0.33793467816E+01  0.40998410213E+01  0.51100000000E-03 0.  1.
         12    1    3    3    0    0  0.32516561714E+01  0.10570098611E+01  0.39785295245E+01  0.52458778942E+01  0.00000000000E+00 0. -1.
</event>
<event>
 7    1  0.1519238E-008  0.4614232E+02  0.7816164E-02  0.1320468E+00
        -11   -1    0    0    0    0  0.00000000000E+00  0.00000000000E+00  0.45593999997E+02  0.45594000000E+02  0.51100000000E-03 0. -1.
         11   -1    0    0    0    0 -0.00000000000E+00 -0.00000000000E+00 -0.45593999997E+02  0.45594000000E+02  0.51100000000E-03 0.  1.
    9900012    2    1    2    0    0 -0.15058326407E+02  0.32006431945E+02  0.27891731190E+02  0.46142317090E+02  0.99999938826E+01 0.  0.
        -12    1    1    2    0    0  0.15058326407E+02 -0.32006431945E+02 -0.27891731190E+02  0.45045682910E+02  0.00000000000E+00 0.  1.
         11    1    3    3    0    0 -0.88334211881E+00  0.63680267215E+01  0.54481738312E+01  0.84270194008E+01  0.51100000000E-03 0. -1.
        -11    1    3    3    0    0 -0.11566647729E+02  0.22572839737E+02  0.15604038817E+02  0.29779295847E+02  0.51100000000E-03 0.  1.
        -12    1    3    3    0    0 -0.26083365593E+01  0.30655654861E+01  0.68395185419E+01  0.79360018423E+01  0.00000000000E+00 0.  1.
</event>
<event>
 7    1  0.1519238E-008  0.4614232E+02  0.7816164E-02  0.1320468E+00
        -11   -1    0    0    0    0  0.00000000000E+00  0.00000000000E+00  0.45593999997E+02  0.45594000000E+02  0.51100000000E-03 0.  1.
         11   -1    0    0    0    0 -0.00000000000E+00 -0.00000000000E+00 -0.45593999997E+02  0.45594000000E+02  0.51100000000E-03 0. -1.
    9900012    2    1    2    0    0 -0.36718909872E+02  0.25717920677E+02 -0.44072264338E+01  0.46142318399E+02  0.10000005813E+02 0.  0.
        -12    1    1    2    0    0  0.36718909872E+02 -0.25717920677E+02  0.44072264338E+01  0.45045681601E+02  0.00000000000E+00 0.  1.
         11    1    3    3    0    0 -0.46969581339E+01  0.12634862080E+01 -0.18920957583E+01  0.52189883818E+01  0.51100000000E-03 0. -1.
        -11    1    3    3    0    0 -0.17106366326E+01  0.60545942884E+00  0.12008299635E+01  0.21759714316E+01  0.51100000000E-03 0.  1.
         12    1    3    3    0    0 -0.30311315105E+02  0.23848975040E+02 -0.37159606391E+01  0.38747358585E+02  0.00000000000E+00 0. -1.
</event>
<event>
 7    1  0.1519238E-008  0.4614232E+02  0.7816164E-02  0.1320468E+00
        -11   -1    0    0    0    0  0.00000000000E+00  0.00000000000E+00  0.45593999997E+02  0.45594000000E+02  0.51100000000E-03 0. -1.
         11   -1    0    0    0    0 -0.00000000000E+00 -0.00000000000E+00 -0.45593999997E+02  0.45594000000E+02  0.51100000000E-03 0.  1.
    9900012    2    1    2    0    0 -0.20603606109E+02  0.39951164907E+02  0.29170130633E+01  0.46142321769E+02  0.10000036545E+02 0.  0.
        -12    1    1    2    0    0  0.20603606109E+02 -0.39951164907E+02 -0.29170130633E+01  0.45045678231E+02  0.00000000000E+00 0.  1.
         11    1    3    3    0    0 -0.10493572049E+02  0.24849676429E+02 -0.65633267982E+00  0.26982443289E+02  0.51100000000E-03 0. -1.
        -11    1    3    3    0    0 -0.80100536073E+00  0.27502887151E+01  0.22394457773E+01  0.36360439016E+01  0.51100000000E-03 0.  1.
         12    1    3    3    0    0 -0.93090286997E+01  0.12351199762E+02  0.13338999658E+01  0.15523834578E+02  0.00000000000E+00 0. -1.
</event>
<event>
 7    1  0.1519238E-008  0.4614232E+02  0.7816164E-02  0.1320468E+00
        -11   -1    0    0    0    0  0.00000000000E+00  0.00000000000E+00  0.45593999997E+02  0.45594000000E+02  0.51100000000E-03 0.  1.
         11   -1    0    0    0    0 -0.00000000000E+00 -0.00000000000E+00 -0.45593999997E+02  0.45594000000E+02  0.51100000000E-03 0. -1.
    9900012    2    1    2    0    0  0.12714508465E+02  0.18419565782E+01 -0.43174783582E+02  0.46142317999E+02  0.10000002170E+02 0.  0.
        -12    1    1    2    0    0 -0.12714508465E+02 -0.18419565782E+01  0.43174783582E+02  0.45045682001E+02  0.00000000000E+00 0.  1.
         11    1    3    3    0    0  0.90738757090E+01  0.36900979412E+01 -0.20121510190E+02  0.22379169238E+02  0.51100000000E-03 0. -1.
        -11    1    3    3    0    0  0.31166274689E+01  0.26179843869E+00 -0.17882280176E+02  0.18153728261E+02  0.51100000000E-03 0.  1.
         12    1    3    3    0    0  0.52400528675E+00 -0.21099398016E+01 -0.51709932162E+01  0.56094205003E+01  0.00000000000E+00 0. -1.
</event>
<event>
 7    1  0.1519238E-008  0.4614232E+02  0.7816164E-02  0.1320468E+00
        -11   -1    0    0    0    0  0.00000000000E+00  0.00000000000E+00  0.45593999997E+02  0.45594000000E+02  0.51100000000E-03 0. -1.
         11   -1    0    0    0    0 -0.00000000000E+00 -0.00000000000E+00 -0.45593999997E+02  0.45594000000E+02  0.51100000000E-03 0.  1.
    9900012    2    1    2    0    0 -0.10752631485E+02 -0.39523442579E+02 -0.18745448978E+02  0.46142318137E+02  0.10000003426E+02 0.  0.
        -12    1    1    2    0    0  0.10752631485E+02  0.39523442579E+02  0.18745448978E+02  0.45045681863E+02  0.00000000000E+00 0.  1.
         11    1    3    3    0    0 -0.47856768258E+01 -0.11276436155E+02 -0.90340180996E+01  0.15220847490E+02  0.51100000000E-03 0. -1.
        -11    1    3    3    0    0  0.44268374438E+00 -0.41838986727E+01 -0.40739556043E-01  0.42074501748E+01  0.51100000000E-03 0.  1.
        -12    1    3    3    0    0 -0.64096384034E+01 -0.24063107751E+02 -0.96706913223E+01  0.26714020472E+02  0.00000000000E+00 0.  1.
</event>
<event>
 7    1  0.1519238E-008  0.4614232E+02  0.7816164E-02  0.1320468E+00
        -11   -1    0    0    0    0  0.00000000000E+00  0.00000000000E+00  0.45593999997E+02  0.45594000000E+02  0.51100000000E-03 0. -1.
         11   -1    0    0    0    0 -0.00000000000E+00 -0.00000000000E+00 -0.45593999997E+02  0.45594000000E+02  0.51100000000E-03 0.  1.
    9900012    2    1    2    0    0 -0.43200179927E+02 -0.11256609892E+02  0.60122145494E+01  0.46142317235E+02  0.99999951987E+01 0.  0.
        -12    1    1    2    0    0  0.43200179927E+02  0.11256609892E+02 -0.60122145494E+01  0.45045682765E+02  0.00000000000E+00 0.  1.
         11    1    3    3    0    0 -0.41972680084E+02 -0.12668072140E+02  0.58436861350E+01  0.44230471319E+02  0.51100000000E-03 0. -1.
        -11    1    3    3    0    0 -0.11589106292E+01  0.12106874178E+01  0.68700284626E-01  0.16773663465E+01  0.51100000000E-03 0.  1.
         12    1    3    3    0    0 -0.68589213987E-01  0.20077483047E+00  0.99828129792E-01  0.23447956909E+00  0.00000000000E+00 0. -1.
</event>
<event>
 7    1  0.1519238E-008  0.4614232E+02  0.7816164E-02  0.1320468E+00
        -11   -1    0    0    0    0  0.00000000000E+00  0.00000000000E+00  0.45593999997E+02  0.45594000000E+02  0.51100000000E-03 0.  1.
         11   -1    0    0    0    0 -0.00000000000E+00 -0.00000000000E+00 -0.45593999997E+02  0.45594000000E+02  0.51100000000E-03 0. -1.
    9900012    2    1    2    0    0  0.91386960907E+01 -0.18510586567E+02 -0.40036931823E+02  0.46142317731E+02  0.99999997230E+01 0.  0.
        -12    1    1    2    0    0 -0.91386960907E+01  0.18510586567E+02  0.40036931823E+02  0.45045682269E+02  0.00000000000E+00 0.  1.
         11    1    3    3    0    0  0.40751875427E+01 -0.13198047743E+02 -0.22452916867E+02  0.26361507806E+02  0.51100000000E-03 0. -1.
        -11    1    3    3    0    0  0.12648222294E+00 -0.33294606078E+01 -0.98110579184E+01  0.10361378452E+02  0.51100000000E-03 0.  1.
         12    1    3    3    0    0  0.49370263250E+01 -0.19830782162E+01 -0.77729570383E+01  0.94194314725E+01  0.00000000000E+00 0. -1.
</event>
<event>
 7    1  0.1519238E-008  0.4614232E+02  0.7816164E-02  0.1320468E+00
        -11   -1    0    0    0    0  0.00000000000E+00  0.00000000000E+00  0.45593999997E+02  0.45594000000E+02  0.51100000000E-03 0.  1.
         11   -1    0    0    0    0 -0.00000000000E+00 -0.00000000000E+00 -0.45593999997E+02  0.45594000000E+02  0.51100000000E-03 0. -1.
    9900012    2    1    2    0    0 -0.18214953981E+02 -0.31546698750E+02 -0.26497828065E+02  0.46142316048E+02  0.99999843784E+01 0.  0.
        -12    1    1    2    0    0  0.18214953981E+02  0.31546698750E+02  0.26497828065E+02  0.45045683952E+02  0.00000000000E+00 0.  1.
         11    1    3    3    0    0 -0.57477518266E+01 -0.16056210516E+02 -0.10002611343E+02  0.19770958023E+02  0.51100000000E-03 0. -1.
        -11    1    3    3    0    0 -0.97151014235E+01 -0.14736658405E+02 -0.14920579959E+02  0.23112247905E+02  0.51100000000E-03 0.  1.
        -12    1    3    3    0    0 -0.27521007309E+01 -0.75382982825E+00 -0.15746367627E+01  0.32591101204E+01  0.00000000000E+00 0.  1.
</event>
<event>
 7    1  0.1519238E-008  0.4614232E+02  0.7816164E-02  0.1320468E+00
        -11   -1    0    0    0    0  0.00000000000E+00  0.00000000000E+00  0.45593999997E+02  0.45594000000E+02  0.51100000000E-03 0.  1.
         11   -1    0    0    0    0 -0.00000000000E+00 -0.00000000000E+00 -0.45593999997E+02  0.45594000000E+02  0.51100000000E-03 0. -1.
    9900012    2    1    2    0    0 -0.25126183190E+02 -0.37012252417E+02 -0.52802982918E+01  0.46142318068E+02  0.10000002796E+02 0.  0.
        -12    1    1    2    0    0  0.25126183190E+02  0.37012252417E+02  0.52802982918E+01  0.45045681932E+02  0.00000000000E+00 0.  1.
         11    1    3    3    0    0 -0.54876512931E+01 -0.56601930260E+01  0.24248047114E+01  0.82481379691E+01  0.51100000000E-03 0. -1.
        -11    1    3    3    0    0 -0.27229357902E+01 -0.40097962982E+01 -0.66165833148E-01  0.48473935108E+01  0.51100000000E-03 0.  1.
         12    1    3    3    0    0 -0.16915596107E+02 -0.27342263093E+02 -0.76389371701E+01  0.33046786588E+02  0.00000000000E+00 0. -1.
</event>
<event>
 7    1  0.1519238E-008  0.4614232E+02  0.7816164E-02  0.1320468E+00
        -11   -1    0    0    0    0  0.00000000000E+00  0.00000000000E+00  0.45593999997E+02  0.45594000000E+02  0.51100000000E-03 0.  1.
         11   -1    0    0    0    0 -0.00000000000E+00 -0.00000000000E+00 -0.45593999997E+02  0.45594000000E+02  0.51100000000E-03 0. -1.
    9900012    2    1    2    0    0 -0.39985181728E+02  0.10258336878E+02 -0.18029561332E+02  0.46142319683E+02  0.10000017528E+02 0.  0.
        -12    1    1    2    0    0  0.39985181728E+02 -0.10258336878E+02  0.18029561332E+02  0.45045680317E+02  0.00000000000E+00 0.  1.
         11    1    3    3    0    0 -0.17729997459E+02  0.25128299304E+01 -0.88618187245E+01  0.19979963852E+02  0.51100000000E-03 0. -1.
        -11    1    3    3    0    0 -0.14031773012E+02  0.54753002478E+01 -0.23556946551E+01  0.15245289903E+02  0.51100000000E-03 0.  1.
         12    1    3    3    0    0 -0.82234112567E+01  0.22702066998E+01 -0.68120479528E+01  0.10917065928E+02  0.00000000000E+00 0. -1.
</event>
<event>
 7    1  0.1519238E-008  0.4614232E+02  0.7816164E-02  0.1320468E+00
        -11   -1    0    0    0    0  0.00000000000E+00  0.00000000000E+00  0.45593999997E+02  0.45594000000E+02  0.51100000000E-03 0.  1.
         11   -1    0    0    0    0 -0.00000000000E+00 -0.00000000000E+00 -0.45593999997E+02  0.45594000000E+02  0.51100000000E-03 0. -1.
    9900012    2    1    2    0    0  0.40938981645E+02 -0.12176451108E+02  0.14312487896E+02  0.46142317749E+02  0.99999998896E+01 0.  0.
        -12    1    1    2    0    0 -0.40938981645E+02  0.12176451108E+02 -0.14312487896E+02  0.45045682251E+02  0.00000000000E+00 0.  1.
         11    1    3    3    0    0  0.13015424041E+02 -0.16654826650E+01  0.70975141473E+01  0.14918103190E+02  0.51100000000E-03 0. -1.
        -11    1    3    3    0    0  0.60043858076E+01 -0.18663726327E+01  0.39785137894E+01  0.74407370579E+01  0.51100000000E-03 0.  1.
         12    1    3    3    0    0  0.21919171797E+02 -0.86445958100E+01  0.32364599591E+01  0.23783477501E+02  0.00000000000E+00 0. -1.
</event>
<event>
 7    1  0.1519238E-008  0.4614232E+02  0.7816164E-02  0.1320468E+00
        -11   -1    0    0    0    0  0.00000000000E+00  0.00000000000E+00  0.45593999997E+02  0.45594000000E+02  0.51100000000E-03 0.  1.
         11   -1    0    0    0    0 -0.00000000000E+00 -0.00000000000E+00 -0.45593999997E+02  0.45594000000E+02  0.51100000000E-03 0. -1.
    9900012    2    1    2    0    0 -0.38537979682E+02 -0.21208670022E+02 -0.97020522706E+01  0.46142318960E+02  0.10000010932E+02 0.  0.
        -12    1    1    2    0    0  0.38537979682E+02  0.21208670022E+02  0.97020522706E+01  0.45045681040E+02  0.00000000000E+00 0.  1.
         11    1    3    3    0    0 -0.13069028585E+02 -0.97431679811E+01 -0.47511075536E+01  0.16979453870E+02  0.51100000000E-03 0. -1.
        -11    1    3    3    0    0 -0.18123388083E+01 -0.30450902513E+01  0.11909154074E+00  0.35456070920E+01  0.51100000000E-03 0.  1.
         12    1    3    3    0    0 -0.23656612289E+02 -0.84204117897E+01 -0.50700362577E+01  0.25617257998E+02  0.00000000000E+00 0. -1.
</event>
<event>
 7    1  0.1519238E-008  0.4614232E+02  0.7816164E-02  0.1320468E+00
        -11   -1    0    0    0    0  0.00000000000E+00  0.00000000000E+00  0.45593999997E+02  0.45594000000E+02  0.51100000000E-03 0.  1.
         11   -1    0    0    0    0 -0.00000000000E+00 -0.00000000000E+00 -0.45593999997E+02  0.45594000000E+02  0.51100000000E-03 0. -1.
    9900012    2    1    2    0    0 -0.84092771217E+01 -0.29323698895E+02 -0.33143898626E+02  0.46142320133E+02  0.10000021627E+02 0.  0.
        -12    1    1    2    0    0  0.84092771217E+01  0.29323698895E+02  0.33143898626E+02  0.45045679867E+02  0.00000000000E+00 0.  1.
         11    1    3    3    0    0 -0.40170553481E+01 -0.34955962119E+01 -0.77142147016E+01  0.93736351150E+01  0.51100000000E-03 0. -1.
        -11    1    3    3    0    0 -0.48706629999E+00 -0.10317593255E+02 -0.76510199823E+01  0.12854107172E+02  0.51100000000E-03 0.  1.
         12    1    3    3    0    0 -0.39051554736E+01 -0.15510509428E+02 -0.17778663942E+02  0.23914577846E+02  0.00000000000E+00 0. -1.
</event>
<event>
 7    1  0.1519238E-008  0.4614232E+02  0.7816164E-02  0.1320468E+00
        -11   -1    0    0    0    0  0.00000000000E+00  0.00000000000E+00  0.45593999997E+02  0.45594000000E+02  0.51100000000E-03 0.  1.
         11   -1    0    0    0    0 -0.00000000000E+00 -0.00000000000E+00 -0.45593999997E+02  0.45594000000E+02  0.51100000000E-03 0. -1.
    9900012    2    1    2    0    0  0.73444877311E+01 -0.44441491438E+02  0.35471588971E+00  0.46142317803E+02  0.10000000379E+02 0.  0.
        -12    1    1    2    0    0 -0.73444877311E+01  0.44441491438E+02 -0.35471588971E+00  0.45045682197E+02  0.00000000000E+00 0.  1.
         11    1    3    3    0    0  0.87868879409E+00 -0.10738305154E+01  0.16544763585E+01  0.21592818840E+01  0.51100000000E-03 0. -1.
        -11    1    3    3    0    0  0.19716070385E+01 -0.23105102943E+02 -0.27246342640E-01  0.23189087066E+02  0.51100000000E-03 0.  1.
        -12    1    3    3    0    0  0.44941918985E+01 -0.20262557980E+02 -0.12725141262E+01  0.20793948853E+02  0.00000000000E+00 0.  1.
</event>
<event>
 7    1  0.1519238E-008  0.4614232E+02  0.7816164E-02  0.1320468E+00
        -11   -1    0    0    0    0  0.00000000000E+00  0.00000000000E+00  0.45593999997E+02  0.45594000000E+02  0.51100000000E-03 0.  1.
         11   -1    0    0    0    0 -0.00000000000E+00 -0.00000000000E+00 -0.45593999997E+02  0.45594000000E+02  0.51100000000E-03 0. -1.
    9900012    2    1    2    0    0 -0.70509921421E+01 -0.33935074485E+02 -0.28771647306E+02  0.46142318085E+02  0.10000002952E+02 0.  0.
        -12    1    1    2    0    0  0.70509921421E+01  0.33935074485E+02  0.28771647306E+02  0.45045681915E+02  0.00000000000E+00 0.  1.
         11    1    3    3    0    0 -0.28074054920E+01 -0.26227009096E+02 -0.22281745307E+02  0.34528447778E+02  0.51100000000E-03 0. -1.
        -11    1    3    3    0    0 -0.99407235216E+00  0.10238427580E+00 -0.84399551340E-01  0.10028887908E+01  0.51100000000E-03 0.  1.
        -12    1    3    3    0    0 -0.32495142980E+01 -0.78104496647E+01 -0.64055024476E+01  0.10610981516E+02  0.00000000000E+00 0.  1.
</event>
<event>
 7    1  0.1519238E-008  0.4614232E+02  0.7816164E-02  0.1320468E+00
        -11   -1    0    0    0    0  0.00000000000E+00  0.00000000000E+00  0.45593999997E+02  0.45594000000E+02  0.51100000000E-03 0.  1.
         11   -1    0    0    0    0 -0.00000000000E+00 -0.00000000000E+00 -0.45593999997E+02  0.45594000000E+02  0.51100000000E-03 0. -1.
    9900012    2    1    2    0    0 -0.32796564020E+02 -0.14277410599E+02 -0.27379817277E+02  0.46142318087E+02  0.10000002969E+02 0.  0.
        -12    1    1    2    0    0  0.32796564020E+02  0.14277410599E+02  0.27379817277E+02  0.45045681913E+02  0.00000000000E+00 0.  1.
         11    1    3    3    0    0 -0.21733742514E+02 -0.11955855088E+02 -0.19093561632E+02  0.31302749569E+02  0.51100000000E-03 0. -1.
        -11    1    3    3    0    0 -0.41739829988E+01 -0.23347120832E+01 -0.57960061304E+01  0.75144329068E+01  0.51100000000E-03 0.  1.
        -12    1    3    3    0    0 -0.68888385067E+01  0.13156572350E-01 -0.24902495151E+01  0.73251356106E+01  0.00000000000E+00 0.  1.
</event>
<event>
 7    1  0.1519238E-008  0.4614232E+02  0.7816164E-02  0.1320468E+00
        -11   -1    0    0    0    0  0.00000000000E+00  0.00000000000E+00  0.45593999997E+02  0.45594000000E+02  0.51100000000E-03 0.  1.
         11   -1    0    0    0    0 -0.00000000000E+00 -0.00000000000E+00 -0.45593999997E+02  0.45594000000E+02  0.51100000000E-03 0. -1.
    9900012    2    1    2    0    0 -0.36116569991E+02  0.11555317345E+01 -0.26895567636E+02  0.46142318298E+02  0.10000004895E+02 0.  0.
        -12    1    1    2    0    0  0.36116569991E+02 -0.11555317345E+01  0.26895567636E+02  0.45045681702E+02  0.00000000000E+00 0.  1.
         11    1    3    3    0    0 -0.16874477969E+02 -0.37182554602E+01 -0.12262402865E+02  0.21188203196E+02  0.51100000000E-03 0.  1.
        -11    1    3    3    0    0 -0.62227173151E+01  0.20328949073E+01 -0.70548186339E+01  0.96242058741E+01  0.51100000000E-03 0. -1.
        -12    1    3    3    0    0 -0.13019374707E+02  0.28408922875E+01 -0.75783461378E+01  0.15329909228E+02  0.00000000000E+00 0.  1.
</event>
<event>
 7    1  0.1519238E-008  0.4614232E+02  0.7816164E-02  0.1320468E+00
        -11   -1    0    0    0    0  0.00000000000E+00  0.00000000000E+00  0.45593999997E+02  0.45594000000E+02  0.51100000000E-03 0. -1.
         11   -1    0    0    0    0 -0.00000000000E+00 -0.00000000000E+00 -0.45593999997E+02  0.45594000000E+02  0.51100000000E-03 0.  1.
    9900012    2    1    2    0    0 -0.24285065824E+02  0.36611417380E+02 -0.99475193853E+01  0.46142318225E+02  0.10000004233E+02 0.  0.
        -12    1    1    2    0    0  0.24285065824E+02 -0.36611417380E+02  0.99475193853E+01  0.45045681775E+02  0.00000000000E+00 0.  1.
         11    1    3    3    0    0 -0.35939511275E+01  0.10452226847E+02 -0.46305970123E+01  0.11983653855E+02  0.51100000000E-03 0. -1.
        -11    1    3    3    0    0 -0.18208105906E+02  0.22054879744E+02 -0.27867115362E+01  0.28735319776E+02  0.51100000000E-03 0.  1.
        -12    1    3    3    0    0 -0.24830087900E+01  0.41043107893E+01 -0.25302108368E+01  0.54233445940E+01  0.00000000000E+00 0.  1.
</event>
<event>
 7    1  0.1519238E-008  0.4614232E+02  0.7816164E-02  0.1320468E+00
        -11   -1    0    0    0    0  0.00000000000E+00  0.00000000000E+00  0.45593999997E+02  0.45594000000E+02  0.51100000000E-03 0. -1.
         11   -1    0    0    0    0 -0.00000000000E+00 -0.00000000000E+00 -0.45593999997E+02  0.45594000000E+02  0.51100000000E-03 0.  1.
    9900012    2    1    2    0    0  0.22347338186E+02  0.32373037717E+02 -0.21947582246E+02  0.46142318060E+02  0.10000002722E+02 0.  0.
        -12    1    1    2    0    0 -0.22347338186E+02 -0.32373037717E+02  0.21947582246E+02  0.45045681940E+02  0.00000000000E+00 0.  1.
         11    1    3    3    0    0  0.12072433239E+02  0.20429795155E+02 -0.97748647528E+01  0.25664531081E+02  0.51100000000E-03 0. -1.
        -11    1    3    3    0    0  0.87665828694E+01  0.67857009658E+01 -0.79061889233E+01  0.13616406881E+02  0.51100000000E-03 0.  1.
        -12    1    3    3    0    0  0.15083220771E+01  0.51575415963E+01 -0.42665285701E+01  0.68613800977E+01  0.00000000000E+00 0.  1.
</event>
<event>
 7    1  0.1519238E-008  0.4614232E+02  0.7816164E-02  0.1320468E+00
        -11   -1    0    0    0    0  0.00000000000E+00  0.00000000000E+00  0.45593999997E+02  0.45594000000E+02  0.51100000000E-03 0. -1.
         11   -1    0    0    0    0 -0.00000000000E+00 -0.00000000000E+00 -0.45593999997E+02  0.45594000000E+02  0.51100000000E-03 0.  1.
    9900012    2    1    2    0    0  0.30806090457E+01 -0.35969663666E+02  0.26940800139E+02  0.46142316872E+02  0.99999918966E+01 0.  0.
        -12    1    1    2    0    0 -0.30806090457E+01  0.35969663666E+02 -0.26940800139E+02  0.45045683128E+02  0.00000000000E+00 0.  1.
         11    1    3    3    0    0  0.45965649786E+00 -0.20076658315E+02  0.10870170810E+02  0.22835150687E+02  0.51100000000E-03 0. -1.
        -11    1    3    3    0    0  0.67204923215E+00 -0.85867367158E+01  0.11843286612E+02  0.14644013645E+02  0.51100000000E-03 0.  1.
        -12    1    3    3    0    0  0.19489033157E+01 -0.73062686349E+01  0.42273427172E+01  0.86631525410E+01  0.00000000000E+00 0.  1.
</event>
<event>
 7    1  0.1519238E-008  0.4614232E+02  0.7816164E-02  0.1320468E+00
        -11   -1    0    0    0    0  0.00000000000E+00  0.00000000000E+00  0.45593999997E+02  0.45594000000E+02  0.51100000000E-03 0.  1.
         11   -1    0    0    0    0 -0.00000000000E+00 -0.00000000000E+00 -0.45593999997E+02  0.45594000000E+02  0.51100000000E-03 0. -1.
    9900012    2    1    2    0    0  0.28535841396E+02 -0.34587275662E+02 -0.43057668514E+01  0.46142317520E+02  0.99999978022E+01 0.  0.
        -12    1    1    2    0    0 -0.28535841396E+02  0.34587275662E+02  0.43057668514E+01  0.45045682480E+02  0.00000000000E+00 0.  1.
         11    1    3    3    0    0  0.19937269190E+02 -0.20892599049E+02 -0.36636046450E+01  0.29110434505E+02  0.51100000000E-03 0. -1.
        -11    1    3    3    0    0  0.36777813691E+01 -0.10181163194E+02 -0.14870713139E+01  0.10926735155E+02  0.51100000000E-03 0.  1.
        -12    1    3    3    0    0  0.49207908366E+01 -0.35135134183E+01  0.84490910752E+00  0.61051478605E+01  0.00000000000E+00 0.  1.
</event>
<event>
 7    1  0.1519238E-008  0.4614232E+02  0.7816164E-02  0.1320468E+00
        -11   -1    0    0    0    0  0.00000000000E+00  0.00000000000E+00  0.45593999997E+02  0.45594000000E+02  0.51100000000E-03 0.  1.
         11   -1    0    0    0    0 -0.00000000000E+00 -0.00000000000E+00 -0.45593999997E+02  0.45594000000E+02  0.51100000000E-03 0. -1.
    9900012    2    1    2    0    0  0.15947357920E+01 -0.34418413502E+02 -0.29016252757E+02  0.46142319915E+02  0.10000019644E+02 0.  0.
        -12    1    1    2    0    0 -0.15947357920E+01  0.34418413502E+02  0.29016252757E+02  0.45045680085E+02  0.00000000000E+00 0.  1.
         11    1    3    3    0    0  0.11035383607E+01 -0.73801708216E+01 -0.24243445245E+01  0.78461560591E+01  0.51100000000E-03 0. -1.
        -11    1    3    3    0    0  0.17428383031E+01 -0.14444228856E+02 -0.17246845792E+02  0.22563841043E+02  0.51100000000E-03 0.  1.
         12    1    3    3    0    0 -0.12516408719E+01 -0.12594013824E+02 -0.93450624406E+01  0.15732322813E+02  0.00000000000E+00 0. -1.
</event>
<event>
 7    1  0.1519238E-008  0.4614232E+02  0.7816164E-02  0.1320468E+00
        -11   -1    0    0    0    0  0.00000000000E+00  0.00000000000E+00  0.45593999997E+02  0.45594000000E+02  0.51100000000E-03 0.  1.
         11   -1    0    0    0    0 -0.00000000000E+00 -0.00000000000E+00 -0.45593999997E+02  0.45594000000E+02  0.51100000000E-03 0. -1.
    9900012    2    1    2    0    0 -0.18345332037E+02 -0.25723070695E+02 -0.32107411648E+02  0.46142318118E+02  0.10000003252E+02 0.  0.
        -12    1    1    2    0    0  0.18345332037E+02  0.25723070695E+02  0.32107411648E+02  0.45045681882E+02  0.00000000000E+00 0.  1.
         11    1    3    3    0    0 -0.56035167527E+01 -0.11740525674E+02 -0.11717738154E+02  0.17508418855E+02  0.51100000000E-03 0. -1.
        -11    1    3    3    0    0 -0.30069050467E+01 -0.47596633186E+00 -0.55548911335E+01  0.63344169167E+01  0.51100000000E-03 0.  1.
        -12    1    3    3    0    0 -0.97349102373E+01 -0.13506578689E+02 -0.14834782361E+02  0.22299482346E+02  0.00000000000E+00 0.  1.
</event>
<event>
 7    1  0.1519238E-008  0.4614232E+02  0.7816164E-02  0.1320468E+00
        -11   -1    0    0    0    0  0.00000000000E+00  0.00000000000E+00  0.45593999997E+02  0.45594000000E+02  0.51100000000E-03 0.  1.
         11   -1    0    0    0    0 -0.00000000000E+00 -0.00000000000E+00 -0.45593999997E+02  0.45594000000E+02  0.51100000000E-03 0. -1.
    9900012    2    1    2    0    0 -0.32772551353E+02  0.26201069880E+02 -0.16388327219E+02  0.46142318141E+02  0.10000003468E+02 0.  0.
        -12    1    1    2    0    0  0.32772551353E+02 -0.26201069880E+02  0.16388327219E+02  0.45045681859E+02  0.00000000000E+00 0.  1.
         11    1    3    3    0    0 -0.10470073273E+02  0.49611361503E+01 -0.35854872387E+01  0.12128108890E+02  0.51100000000E-03 0. -1.
        -11    1    3    3    0    0 -0.10100820360E+02  0.11392245600E+02 -0.29875905374E+01  0.15515654328E+02  0.51100000000E-03 0.  1.
        -12    1    3    3    0    0 -0.12201657720E+02  0.98476881302E+01 -0.98152494429E+01  0.18498554923E+02  0.00000000000E+00 0.  1.
</event>
<event>
 7    1  0.1519238E-008  0.4614232E+02  0.7816164E-02  0.1320468E+00
        -11   -1    0    0    0    0  0.00000000000E+00  0.00000000000E+00  0.45593999997E+02  0.45594000000E+02  0.51100000000E-03 0.  1.
         11   -1    0    0    0    0 -0.00000000000E+00 -0.00000000000E+00 -0.45593999997E+02  0.45594000000E+02  0.51100000000E-03 0. -1.
    9900012    2    1    2    0    0 -0.13955928438E+02 -0.31344424582E+02 -0.29186856420E+02  0.46142317869E+02  0.10000000987E+02 0.  0.
        -12    1    1    2    0    0  0.13955928438E+02  0.31344424582E+02  0.29186856420E+02  0.45045682131E+02  0.00000000000E+00 0.  1.
         11    1    3    3    0    0 -0.41252670082E+01 -0.16926993994E+02 -0.14959546568E+02  0.22963644905E+02  0.51100000000E-03 0. -1.
        -11    1    3    3    0    0 -0.79056046200E+01 -0.70906078533E+01 -0.95036134204E+01  0.14251104253E+02  0.51100000000E-03 0.  1.
        -12    1    3    3    0    0 -0.19250568099E+01 -0.73268227342E+01 -0.47236964321E+01  0.89275687105E+01  0.00000000000E+00 0.  1.
</event>
<event>
 7    1  0.1519238E-008  0.4614232E+02  0.7816164E-02  0.1320468E+00
        -11   -1    0    0    0    0  0.00000000000E+00  0.00000000000E+00  0.45593999997E+02  0.45594000000E+02  0.51100000000E-03 0.  1.
         11   -1    0    0    0    0 -0.00000000000E+00 -0.00000000000E+00 -0.45593999997E+02  0.45594000000E+02  0.51100000000E-03 0. -1.
    9900012    2    1    2    0    0  0.12168027964E+02 -0.23377931812E+02 -0.36531151128E+02  0.46142316488E+02  0.99999883866E+01 0.  0.
        -12    1    1    2    0    0 -0.12168027964E+02  0.23377931812E+02  0.36531151128E+02  0.45045683512E+02  0.00000000000E+00 0.  1.
         11    1    3    3    0    0  0.16656279112E+01 -0.59318561197E+01 -0.69874635304E+01  0.93158939568E+01  0.51100000000E-03 0. -1.
        -11    1    3    3    0    0  0.92315144403E+01 -0.13607691989E+02 -0.17018260490E+02  0.23664558531E+02  0.51100000000E-03 0.  1.
        -12    1    3    3    0    0  0.12708856128E+01 -0.38383837031E+01 -0.12525427108E+02  0.13161863999E+02  0.00000000000E+00 0.  1.
</event>
<event>
 7    1  0.1519238E-008  0.4614231E+02  0.7816164E-02  0.1320468E+00
        -11   -1    0    0    0    0  0.00000000000E+00  0.00000000000E+00  0.45593999997E+02  0.45594000000E+02  0.51100000000E-03 0.  1.
         11   -1    0    0    0    0 -0.00000000000E+00 -0.00000000000E+00 -0.45593999997E+02  0.45594000000E+02  0.51100000000E-03 0. -1.
    9900012    2    1    2    0    0 -0.19003482547E+02 -0.10989473489E+02 -0.39334628359E+02  0.46142313585E+02  0.99999619159E+01 0.  0.
        -12    1    1    2    0    0  0.19003482547E+02  0.10989473489E+02  0.39334628359E+02  0.45045686415E+02  0.00000000000E+00 0.  1.
         11    1    3    3    0    0 -0.12121663648E+02 -0.76969384143E+01 -0.20803474812E+02  0.25277700747E+02  0.51100000000E-03 0. -1.
        -11    1    3    3    0    0 -0.45114668353E+01  0.88155803354E+00 -0.11144266725E+02  0.12055088497E+02  0.51100000000E-03 0.  1.
         12    1    3    3    0    0 -0.23703520638E+01 -0.41740931087E+01 -0.73868868219E+01  0.88095243405E+01  0.00000000000E+00 0. -1.
</event>
<event>
 7    1  0.1519238E-008  0.4614232E+02  0.7816164E-02  0.1320468E+00
        -11   -1    0    0    0    0  0.00000000000E+00  0.00000000000E+00  0.45593999997E+02  0.45594000000E+02  0.51100000000E-03 0. -1.
         11   -1    0    0    0    0 -0.00000000000E+00 -0.00000000000E+00 -0.45593999997E+02  0.45594000000E+02  0.51100000000E-03 0.  1.
    9900012    2    1    2    0    0  0.24513194801E+02 -0.37295756025E+02  0.61027475549E+01  0.46142315806E+02  0.99999821710E+01 0.  0.
        -12    1    1    2    0    0 -0.24513194801E+02  0.37295756025E+02 -0.61027475549E+01  0.45045684194E+02  0.00000000000E+00 0.  1.
         11    1    3    3    0    0  0.19424559029E+02 -0.28152920101E+02  0.66472195425E+01  0.34843735901E+02  0.51100000000E-03 0. -1.
        -11    1    3    3    0    0  0.68626639423E+00 -0.28676399056E+01 -0.19090060064E+01  0.35126378102E+01  0.51100000000E-03 0.  1.
        -12    1    3    3    0    0  0.44023693779E+01 -0.62751960185E+01  0.13645340188E+01  0.77859420945E+01  0.00000000000E+00 0.  1.
</event>
<event>
 7    1  0.1519238E-008  0.4614232E+02  0.7816164E-02  0.1320468E+00
        -11   -1    0    0    0    0  0.00000000000E+00  0.00000000000E+00  0.45593999997E+02  0.45594000000E+02  0.51100000000E-03 0. -1.
         11   -1    0    0    0    0 -0.00000000000E+00 -0.00000000000E+00 -0.45593999997E+02  0.45594000000E+02  0.51100000000E-03 0.  1.
    9900012    2    1    2    0    0 -0.69786019223E+01  0.44430126855E+02 -0.25251600229E+01  0.46142317740E+02  0.99999998083E+01 0.  0.
        -12    1    1    2    0    0  0.69786019223E+01 -0.44430126855E+02  0.25251600229E+01  0.45045682260E+02  0.00000000000E+00 0.  1.
         11    1    3    3    0    0 -0.77390945041E+01  0.22137493953E+02 -0.31530146985E+01  0.23662284848E+02  0.51100000000E-03 0.  1.
        -11    1    3    3    0    0  0.61374915544E+00  0.22010704352E+02  0.29701834251E+00  0.22021262776E+02  0.51100000000E-03 0. -1.
        -12    1    3    3    0    0  0.14674342633E+00  0.28192854991E+00  0.33083633315E+00  0.45877011646E+00  0.00000000000E+00 0.  1.
</event>
<event>
 7    1  0.1519238E-008  0.4614232E+02  0.7816164E-02  0.1320468E+00
        -11   -1    0    0    0    0  0.00000000000E+00  0.00000000000E+00  0.45593999997E+02  0.45594000000E+02  0.51100000000E-03 0.  1.
         11   -1    0    0    0    0 -0.00000000000E+00 -0.00000000000E+00 -0.45593999997E+02  0.45594000000E+02  0.51100000000E-03 0. -1.
    9900012    2    1    2    0    0 -0.30249353988E+02 -0.32960675646E+02 -0.52615601014E+01  0.46142316850E+02  0.99999916913E+01 0.  0.
        -12    1    1    2    0    0  0.30249353988E+02  0.32960675646E+02  0.52615601014E+01  0.45045683150E+02  0.00000000000E+00 0.  1.
         11    1    3    3    0    0 -0.12919417453E+02 -0.19523276980E+02 -0.81917662600E+00  0.23425215943E+02  0.51100000000E-03 0. -1.
        -11    1    3    3    0    0 -0.15842537102E+02 -0.11048008693E+02 -0.29721377136E+01  0.19541701071E+02  0.51100000000E-03 0.  1.
        -12    1    3    3    0    0 -0.14873994337E+01 -0.23893899727E+01 -0.14702457618E+01  0.31753998358E+01  0.00000000000E+00 0.  1.
</event>
<event>
 7    1  0.1519238E-008  0.4614232E+02  0.7816164E-02  0.1320468E+00
        -11   -1    0    0    0    0  0.00000000000E+00  0.00000000000E+00  0.45593999997E+02  0.45594000000E+02  0.51100000000E-03 0. -1.
         11   -1    0    0    0    0 -0.00000000000E+00 -0.00000000000E+00 -0.45593999997E+02  0.45594000000E+02  0.51100000000E-03 0.  1.
    9900012    2    1    2    0    0 -0.20885288294E+02 -0.28483421273E+02  0.27957340133E+02  0.46142318499E+02  0.10000006728E+02 0.  0.
        -12    1    1    2    0    0  0.20885288294E+02  0.28483421273E+02 -0.27957340133E+02  0.45045681501E+02  0.00000000000E+00 0.  1.
         11    1    3    3    0    0 -0.17914506805E+02 -0.19597792832E+02  0.23849226594E+02  0.35690175782E+02  0.51100000000E-03 0. -1.
        -11    1    3    3    0    0 -0.16959854805E+01 -0.54718953838E+01  0.36174991385E+01  0.67752716639E+01  0.51100000000E-03 0.  1.
         12    1    3    3    0    0 -0.12747960090E+01 -0.34137330575E+01  0.49061440093E+00  0.36768710534E+01  0.00000000000E+00 0. -1.
</event>
<event>
 7    1  0.1519238E-008  0.4614232E+02  0.7816164E-02  0.1320468E+00
        -11   -1    0    0    0    0  0.00000000000E+00  0.00000000000E+00  0.45593999997E+02  0.45594000000E+02  0.51100000000E-03 0.  1.
         11   -1    0    0    0    0 -0.00000000000E+00 -0.00000000000E+00 -0.45593999997E+02  0.45594000000E+02  0.51100000000E-03 0. -1.
    9900012    2    1    2    0    0  0.15899685423E+02 -0.10634269743E+02 -0.40782665547E+02  0.46142317647E+02  0.99999989593E+01 0.  0.
        -12    1    1    2    0    0 -0.15899685423E+02  0.10634269743E+02  0.40782665547E+02  0.45045682353E+02  0.00000000000E+00 0.  1.
         11    1    3    3    0    0  0.74433750171E+01 -0.83708473815E+00 -0.16222100617E+02  0.17867878755E+02  0.51100000000E-03 0. -1.
        -11    1    3    3    0    0  0.25657525204E+01 -0.20232284987E+01 -0.23748568517E+01  0.40393668911E+01  0.51100000000E-03 0.  1.
         12    1    3    3    0    0  0.58905578860E+01 -0.77739565060E+01 -0.22185708078E+02  0.24235072001E+02  0.00000000000E+00 0. -1.
</event>
<event>
 7    1  0.1519238E-008  0.4614232E+02  0.7816164E-02  0.1320468E+00
        -11   -1    0    0    0    0  0.00000000000E+00  0.00000000000E+00  0.45593999997E+02  0.45594000000E+02  0.51100000000E-03 0.  1.
         11   -1    0    0    0    0 -0.00000000000E+00 -0.00000000000E+00 -0.45593999997E+02  0.45594000000E+02  0.51100000000E-03 0. -1.
    9900012    2    1    2    0    0  0.36206901115E+02 -0.21442651100E+02  0.16074405931E+02  0.46142317625E+02  0.99999987605E+01 0.  0.
        -12    1    1    2    0    0 -0.36206901115E+02  0.21442651100E+02 -0.16074405931E+02  0.45045682375E+02  0.00000000000E+00 0.  1.
         11    1    3    3    0    0  0.82768211874E+01 -0.19592627968E+01  0.32138891926E+01  0.90925004085E+01  0.51100000000E-03 0. -1.
        -11    1    3    3    0    0  0.11800397086E+02 -0.11964599245E+02  0.79394989986E+01  0.18585926156E+02  0.51100000000E-03 0.  1.
        -12    1    3    3    0    0  0.16129682842E+02 -0.75187890580E+01  0.49210177402E+01  0.18463891060E+02  0.00000000000E+00 0.  1.
</event>
<event>
 7    1  0.1519238E-008  0.4614232E+02  0.7816164E-02  0.1320468E+00
        -11   -1    0    0    0    0  0.00000000000E+00  0.00000000000E+00  0.45593999997E+02  0.45594000000E+02  0.51100000000E-03 0.  1.
         11   -1    0    0    0    0 -0.00000000000E+00 -0.00000000000E+00 -0.45593999997E+02  0.45594000000E+02  0.51100000000E-03 0. -1.
    9900012    2    1    2    0    0  0.17374281769E+02 -0.39685545928E+02  0.12341201745E+02  0.46142317820E+02  0.10000000534E+02 0.  0.
        -12    1    1    2    0    0 -0.17374281769E+02  0.39685545928E+02 -0.12341201745E+02  0.45045682180E+02  0.00000000000E+00 0.  1.
         11    1    3    3    0    0  0.20260619067E+01 -0.54360639076E+01 -0.11401252620E+01  0.59123264061E+01  0.51100000000E-03 0. -1.
        -11    1    3    3    0    0  0.13477044216E+02 -0.25687159759E+02  0.11743864274E+02  0.31295035479E+02  0.51100000000E-03 0.  1.
         12    1    3    3    0    0  0.18711756455E+01 -0.85623222615E+01  0.17374627332E+01  0.89349559347E+01  0.00000000000E+00 0. -1.
</event>
<event>
 7    1  0.1519238E-008  0.4614232E+02  0.7816164E-02  0.1320468E+00
        -11   -1    0    0    0    0  0.00000000000E+00  0.00000000000E+00  0.45593999997E+02  0.45594000000E+02  0.51100000000E-03 0.  1.
         11   -1    0    0    0    0 -0.00000000000E+00 -0.00000000000E+00 -0.45593999997E+02  0.45594000000E+02  0.51100000000E-03 0. -1.
    9900012    2    1    2    0    0 -0.18184601706E+02 -0.12427256326E+02 -0.39293730713E+02  0.46142315275E+02  0.99999773333E+01 0.  0.
        -12    1    1    2    0    0  0.18184601706E+02  0.12427256326E+02  0.39293730713E+02  0.45045684725E+02  0.00000000000E+00 0.  1.
         11    1    3    3    0    0 -0.40391689832E+01  0.71636912205E+00 -0.95749043226E+01  0.10416662798E+02  0.51100000000E-03 0. -1.
        -11    1    3    3    0    0 -0.44413230565E+01 -0.17584453548E+01 -0.87266489291E+01  0.99484613057E+01  0.51100000000E-03 0.  1.
         12    1    3    3    0    0 -0.97041096661E+01 -0.11385180093E+02 -0.20992177461E+02  0.25777191172E+02  0.00000000000E+00 0. -1.
</event>
<event>
 7    1  0.1519238E-008  0.4614232E+02  0.7816164E-02  0.1320468E+00
        -11   -1    0    0    0    0  0.00000000000E+00  0.00000000000E+00  0.45593999997E+02  0.45594000000E+02  0.51100000000E-03 0.  1.
         11   -1    0    0    0    0 -0.00000000000E+00 -0.00000000000E+00 -0.45593999997E+02  0.45594000000E+02  0.51100000000E-03 0. -1.
    9900012    2    1    2    0    0 -0.11148650089E+01 -0.14016864439E+02 -0.42794833752E+02  0.46142320867E+02  0.10000028326E+02 0.  0.
        -12    1    1    2    0    0  0.11148650089E+01  0.14016864439E+02  0.42794833752E+02  0.45045679133E+02  0.00000000000E+00 0.  1.
         11    1    3    3    0    0  0.94707300186E+00 -0.73984730116E+01 -0.14170081096E+02  0.16013292875E+02  0.51100000000E-03 0. -1.
        -11    1    3    3    0    0  0.18644754704E+01 -0.34964870505E+01 -0.83437537567E+01  0.92368781245E+01  0.51100000000E-03 0.  1.
         12    1    3    3    0    0 -0.39264134812E+01 -0.31219043771E+01 -0.20280998899E+02  0.20892149868E+02  0.00000000000E+00 0. -1.
</event>
<event>
 7    1  0.1519238E-008  0.4614232E+02  0.7816164E-02  0.1320468E+00
        -11   -1    0    0    0    0  0.00000000000E+00  0.00000000000E+00  0.45593999997E+02  0.45594000000E+02  0.51100000000E-03 0.  1.
         11   -1    0    0    0    0 -0.00000000000E+00 -0.00000000000E+00 -0.45593999997E+02  0.45594000000E+02  0.51100000000E-03 0. -1.
    9900012    2    1    2    0    0  0.57205871927E+01  0.42712940105E+02 -0.13114614546E+02  0.46142317799E+02  0.10000000346E+02 0.  0.
        -12    1    1    2    0    0 -0.57205871927E+01 -0.42712940105E+02  0.13114614546E+02  0.45045682201E+02  0.00000000000E+00 0.  1.
         11    1    3    3    0    0  0.25274860706E+01  0.28441573292E+02 -0.83796573638E+01  0.29757855013E+02  0.51100000000E-03 0. -1.
        -11    1    3    3    0    0 -0.15781810269E+01  0.48963175359E+01 -0.11531229234E+01  0.52720274566E+01  0.51100000000E-03 0.  1.
        -12    1    3    3    0    0  0.47712821490E+01  0.93750492770E+01 -0.35818342590E+01  0.11112435329E+02  0.00000000000E+00 0.  1.
</event>
<event>
 7    1  0.1519238E-008  0.4614232E+02  0.7816164E-02  0.1320468E+00
        -11   -1    0    0    0    0  0.00000000000E+00  0.00000000000E+00  0.45593999997E+02  0.45594000000E+02  0.51100000000E-03 0.  1.
         11   -1    0    0    0    0 -0.00000000000E+00 -0.00000000000E+00 -0.45593999997E+02  0.45594000000E+02  0.51100000000E-03 0. -1.
    9900012    2    1    2    0    0  0.27592532810E+02  0.19173359852E+02 -0.30002464767E+02  0.46142317776E+02  0.10000000136E+02 0.  0.
        -12    1    1    2    0    0 -0.27592532810E+02 -0.19173359852E+02  0.30002464767E+02  0.45045682224E+02  0.00000000000E+00 0.  1.
         11    1    3    3    0    0  0.25340429749E+02  0.19425336752E+02 -0.27377774885E+02  0.42059762787E+02  0.51100000000E-03 0. -1.
        -11    1    3    3    0    0  0.21051904027E+01 -0.68580515401E+00 -0.10648151663E+01  0.24568245644E+01  0.51100000000E-03 0.  1.
         12    1    3    3    0    0  0.14691265864E+00  0.43382825458E+00 -0.15598747163E+01  0.16257304248E+01  0.00000000000E+00 0. -1.
</event>
<event>
 7    1  0.1519238E-008  0.4614232E+02  0.7816164E-02  0.1320468E+00
        -11   -1    0    0    0    0  0.00000000000E+00  0.00000000000E+00  0.45593999997E+02  0.45594000000E+02  0.51100000000E-03 0.  1.
         11   -1    0    0    0    0 -0.00000000000E+00 -0.00000000000E+00 -0.45593999997E+02  0.45594000000E+02  0.51100000000E-03 0. -1.
    9900012    2    1    2    0    0  0.40781645505E+02 -0.19037583203E+02  0.18817401293E+01  0.46142321736E+02  0.10000036247E+02 0.  0.
        -12    1    1    2    0    0 -0.40781645505E+02  0.19037583203E+02 -0.18817401293E+01  0.45045678264E+02  0.00000000000E+00 0.  1.
         11    1    3    3    0    0  0.66179122611E+01 -0.56531131935E+01  0.14307697182E+01  0.88205189032E+01  0.51100000000E-03 0. -1.
        -11    1    3    3    0    0  0.12286202574E+02 -0.83729816734E+01 -0.17135965810E+00  0.14868993247E+02  0.51100000000E-03 0.  1.
         12    1    3    3    0    0  0.21877530671E+02 -0.50114883358E+01  0.62233006925E+00  0.22452809586E+02  0.00000000000E+00 0. -1.
</event>
<event>
 7    1  0.1519238E-008  0.4614232E+02  0.7816164E-02  0.1320468E+00
        -11   -1    0    0    0    0  0.00000000000E+00  0.00000000000E+00  0.45593999997E+02  0.45594000000E+02  0.51100000000E-03 0. -1.
         11   -1    0    0    0    0 -0.00000000000E+00 -0.00000000000E+00 -0.45593999997E+02  0.45594000000E+02  0.51100000000E-03 0.  1.
    9900012    2    1    2    0    0  0.38844283239E+02  0.21697112294E+02  0.70335237225E+01  0.46142317874E+02  0.10000001026E+02 0.  0.
        -12    1    1    2    0    0 -0.38844283239E+02 -0.21697112294E+02 -0.70335237225E+01  0.45045682126E+02  0.00000000000E+00 0.  1.
         11    1    3    3    0    0  0.34990210313E+01  0.32778779411E+01  0.24429376141E+01  0.53810386007E+01  0.51100000000E-03 0. -1.
        -11    1    3    3    0    0  0.19441027447E+02  0.81686440834E+01  0.55826217078E+01  0.21813893732E+02  0.51100000000E-03 0.  1.
        -12    1    3    3    0    0  0.15904234760E+02  0.10250590270E+02 -0.99203559949E+00  0.18947385541E+02  0.00000000000E+00 0.  1.
</event>
<event>
 7    1  0.1519238E-008  0.4614232E+02  0.7816164E-02  0.1320468E+00
        -11   -1    0    0    0    0  0.00000000000E+00  0.00000000000E+00  0.45593999997E+02  0.45594000000E+02  0.51100000000E-03 0.  1.
         11   -1    0    0    0    0 -0.00000000000E+00 -0.00000000000E+00 -0.45593999997E+02  0.45594000000E+02  0.51100000000E-03 0. -1.
    9900012    2    1    2    0    0 -0.28100772189E+02  0.80868457269E+01 -0.34264604938E+02  0.46142316267E+02  0.99999863755E+01 0.  0.
        -12    1    1    2    0    0  0.28100772189E+02 -0.80868457269E+01  0.34264604938E+02  0.45045683733E+02  0.00000000000E+00 0.  1.
         11    1    3    3    0    0 -0.12319278929E+02  0.54902385411E+01 -0.17108400277E+02  0.21785424321E+02  0.51100000000E-03 0. -1.
        -11    1    3    3    0    0 -0.12579175786E+02 -0.79630528008E+00 -0.11998157756E+02  0.17401883673E+02  0.51100000000E-03 0.  1.
        -12    1    3    3    0    0 -0.32023174740E+01  0.33929124658E+01 -0.51580469046E+01  0.69550082728E+01  0.00000000000E+00 0.  1.
</event>
<event>
 7    1  0.1519238E-008  0.4614232E+02  0.7816164E-02  0.1320468E+00
        -11   -1    0    0    0    0  0.00000000000E+00  0.00000000000E+00  0.45593999997E+02  0.45594000000E+02  0.51100000000E-03 0.  1.
         11   -1    0    0    0    0 -0.00000000000E+00 -0.00000000000E+00 -0.45593999997E+02  0.45594000000E+02  0.51100000000E-03 0. -1.
    9900012    2    1    2    0    0 -0.29169421332E+02 -0.73862975646E+01 -0.33521648613E+02  0.46142318095E+02  0.10000003046E+02 0.  0.
        -12    1    1    2    0    0  0.29169421332E+02  0.73862975646E+01  0.33521648613E+02  0.45045681905E+02  0.00000000000E+00 0.  1.
         11    1    3    3    0    0 -0.55980723329E+01  0.81240036738E+00 -0.36418658621E+01  0.67276738491E+01  0.51100000000E-03 0. -1.
        -11    1    3    3    0    0 -0.19146761147E+02 -0.73020059653E+01 -0.27547053832E+02  0.34333044267E+02  0.51100000000E-03 0.  1.
        -12    1    3    3    0    0 -0.44245878515E+01 -0.89669196675E+00 -0.23327289189E+01  0.50815999791E+01  0.00000000000E+00 0.  1.
</event>
<event>
 7    1  0.1519238E-008  0.4614232E+02  0.7816164E-02  0.1320468E+00
        -11   -1    0    0    0    0  0.00000000000E+00  0.00000000000E+00  0.45593999997E+02  0.45594000000E+02  0.51100000000E-03 0. -1.
         11   -1    0    0    0    0 -0.00000000000E+00 -0.00000000000E+00 -0.45593999997E+02  0.45594000000E+02  0.51100000000E-03 0.  1.
    9900012    2    1    2    0    0 -0.23503149767E+02 -0.76152827283E+01  0.37665938608E+02  0.46142317507E+02  0.99999976869E+01 0.  0.
        -12    1    1    2    0    0  0.23503149767E+02  0.76152827283E+01 -0.37665938608E+02  0.45045682493E+02  0.00000000000E+00 0.  1.
         11    1    3    3    0    0 -0.10238780321E+01 -0.29951910128E+01  0.37254498167E+01  0.48886063480E+01  0.51100000000E-03 0. -1.
        -11    1    3    3    0    0 -0.13567437224E+02 -0.35209742761E+01  0.16600427397E+02  0.21726638090E+02  0.51100000000E-03 0.  1.
         12    1    3    3    0    0 -0.89118345110E+01 -0.10991174394E+01  0.17340061394E+02  0.19527073069E+02  0.00000000000E+00 0. -1.
</event>
<event>
 7    1  0.1519238E-008  0.4614232E+02  0.7816164E-02  0.1320468E+00
        -11   -1    0    0    0    0  0.00000000000E+00  0.00000000000E+00  0.45593999997E+02  0.45594000000E+02  0.51100000000E-03 0. -1.
         11   -1    0    0    0    0 -0.00000000000E+00 -0.00000000000E+00 -0.45593999997E+02  0.45594000000E+02  0.51100000000E-03 0.  1.
    9900012    2    1    2    0    0 -0.84465269955E-01 -0.21312049268E+02  0.39685042727E+02  0.46142321022E+02  0.10000029733E+02 0.  0.
        -12    1    1    2    0    0  0.84465269955E-01  0.21312049268E+02 -0.39685042727E+02  0.45045678978E+02  0.00000000000E+00 0.  1.
         11    1    3    3    0    0  0.40391589606E+01 -0.10724907344E+02  0.23371409376E+02  0.26030006130E+02  0.51100000000E-03 0. -1.
        -11    1    3    3    0    0 -0.38925107642E+01 -0.10105414442E+02  0.13795670708E+02  0.17538288732E+02  0.51100000000E-03 0.  1.
         12    1    3    3    0    0 -0.23111346635E+00 -0.48172748215E+00  0.25179626434E+01  0.25740261605E+01  0.00000000000E+00 0. -1.
</event>
<event>
 7    1  0.1519238E-008  0.4614232E+02  0.7816164E-02  0.1320468E+00
        -11   -1    0    0    0    0  0.00000000000E+00  0.00000000000E+00  0.45593999997E+02  0.45594000000E+02  0.51100000000E-03 0.  1.
         11   -1    0    0    0    0 -0.00000000000E+00 -0.00000000000E+00 -0.45593999997E+02  0.45594000000E+02  0.51100000000E-03 0. -1.
    9900012    2    1    2    0    0 -0.38577672520E+01  0.10496539788E+02 -0.43635464689E+02  0.46142317694E+02  0.99999993925E+01 0.  0.
        -12    1    1    2    0    0  0.38577672520E+01 -0.10496539788E+02  0.43635464689E+02  0.45045682306E+02  0.00000000000E+00 0.  1.
         11    1    3    3    0    0 -0.19178037534E+01 -0.12809968110E+01 -0.71890632732E+01  0.75499374218E+01  0.51100000000E-03 0. -1.
        -11    1    3    3    0    0  0.10328025312E+01  0.78032857919E+00 -0.34540467213E+01  0.36886356250E+01  0.51100000000E-03 0.  1.
         12    1    3    3    0    0 -0.29727660298E+01  0.10997208020E+02 -0.32992354695E+02  0.34903744648E+02  0.00000000000E+00 0. -1.
</event>
<event>
 7    1  0.1519238E-008  0.4614232E+02  0.7816164E-02  0.1320468E+00
        -11   -1    0    0    0    0  0.00000000000E+00  0.00000000000E+00  0.45593999997E+02  0.45594000000E+02  0.51100000000E-03 0.  1.
         11   -1    0    0    0    0 -0.00000000000E+00 -0.00000000000E+00 -0.45593999997E+02  0.45594000000E+02  0.51100000000E-03 0. -1.
    9900012    2    1    2    0    0  0.17506115345E+02 -0.76534847511E+01 -0.40793057239E+02  0.46142318496E+02  0.10000006699E+02 0.  0.
        -12    1    1    2    0    0 -0.17506115345E+02  0.76534847511E+01  0.40793057239E+02  0.45045681504E+02  0.00000000000E+00 0.  1.
         11    1    3    3    0    0  0.20082004477E+01 -0.34829044116E+01 -0.51424385347E+01  0.65274931270E+01  0.51100000000E-03 0. -1.
        -11    1    3    3    0    0  0.67478937215E+01 -0.19408263731E+01 -0.23168184899E+02  0.24208793205E+02  0.51100000000E-03 0.  1.
         12    1    3    3    0    0  0.87500211755E+01 -0.22297539663E+01 -0.12482433805E+02  0.15406032164E+02  0.00000000000E+00 0. -1.
</event>
<event>
 7    1  0.1519238E-008  0.4614232E+02  0.7816164E-02  0.1320468E+00
        -11   -1    0    0    0    0  0.00000000000E+00  0.00000000000E+00  0.45593999997E+02  0.45594000000E+02  0.51100000000E-03 0.  1.
         11   -1    0    0    0    0 -0.00000000000E+00 -0.00000000000E+00 -0.45593999997E+02  0.45594000000E+02  0.51100000000E-03 0. -1.
    9900012    2    1    2    0    0 -0.30604635166E+02  0.20084687754E+02 -0.26250239327E+02  0.46142318292E+02  0.10000004844E+02 0.  0.
        -12    1    1    2    0    0  0.30604635166E+02 -0.20084687754E+02  0.26250239327E+02  0.45045681708E+02  0.00000000000E+00 0.  1.
         11    1    3    3    0    0 -0.44286753338E+00  0.17256099224E+00  0.41915405780E+00  0.63371865481E+00  0.51100000000E-03 0.  1.
        -11    1    3    3    0    0 -0.19484365800E+02  0.85984481833E+01 -0.14645231666E+02  0.25846791534E+02  0.51100000000E-03 0. -1.
        -12    1    3    3    0    0 -0.10677401832E+02  0.11313678578E+02 -0.12024161719E+02  0.19661808103E+02  0.00000000000E+00 0.  1.
</event>
<event>
 7    1  0.1519238E-008  0.4614232E+02  0.7816164E-02  0.1320468E+00
        -11   -1    0    0    0    0  0.00000000000E+00  0.00000000000E+00  0.45593999997E+02  0.45594000000E+02  0.51100000000E-03 0.  1.
         11   -1    0    0    0    0 -0.00000000000E+00 -0.00000000000E+00 -0.45593999997E+02  0.45594000000E+02  0.51100000000E-03 0. -1.
    9900012    2    1    2    0    0  0.66372840729E+01  0.13123670558E+02 -0.42577332610E+02  0.46142317399E+02  0.99999966976E+01 0.  0.
        -12    1    1    2    0    0 -0.66372840729E+01 -0.13123670558E+02  0.42577332610E+02  0.45045682601E+02  0.00000000000E+00 0.  1.
         11    1    3    3    0    0  0.17052234024E+01  0.10970426107E+02 -0.28180220304E+02  0.30288328651E+02  0.51100000000E-03 0. -1.
        -11    1    3    3    0    0  0.45978353255E+01  0.17988911095E+01 -0.77499692094E+01  0.91890218147E+01  0.51100000000E-03 0.  1.
         12    1    3    3    0    0  0.33422534503E+00  0.35435334169E+00 -0.66471430969E+01  0.66649669334E+01  0.00000000000E+00 0. -1.
</event>
<event>
 7    1  0.1519238E-008  0.4614232E+02  0.7816164E-02  0.1320468E+00
        -11   -1    0    0    0    0  0.00000000000E+00  0.00000000000E+00  0.45593999997E+02  0.45594000000E+02  0.51100000000E-03 0.  1.
         11   -1    0    0    0    0 -0.00000000000E+00 -0.00000000000E+00 -0.45593999997E+02  0.45594000000E+02  0.51100000000E-03 0. -1.
    9900012    2    1    2    0    0 -0.15425817745E+02 -0.35536006481E+01 -0.42172615825E+02  0.46142318118E+02  0.10000003252E+02 0.  0.
        -12    1    1    2    0    0  0.15425817745E+02  0.35536006481E+01  0.42172615825E+02  0.45045681882E+02  0.00000000000E+00 0.  1.
         11    1    3    3    0    0 -0.68499892311E+01 -0.28045702505E+01 -0.26098113959E+02  0.27127467985E+02  0.51100000000E-03 0. -1.
        -11    1    3    3    0    0 -0.42436981088E+01 -0.10499756783E+01 -0.31721141906E+01  0.54012712637E+01  0.51100000000E-03 0.  1.
         12    1    3    3    0    0 -0.43321304052E+01  0.30094528068E+00 -0.12902387675E+02  0.13613578869E+02  0.00000000000E+00 0. -1.
</event>
<event>
 7    1  0.1519238E-008  0.4614232E+02  0.7816164E-02  0.1320468E+00
        -11   -1    0    0    0    0  0.00000000000E+00  0.00000000000E+00  0.45593999997E+02  0.45594000000E+02  0.51100000000E-03 0.  1.
         11   -1    0    0    0    0 -0.00000000000E+00 -0.00000000000E+00 -0.45593999997E+02  0.45594000000E+02  0.51100000000E-03 0. -1.
    9900012    2    1    2    0    0  0.24300629819E+02 -0.35492939831E+02 -0.13373260757E+02  0.46142317735E+02  0.99999997643E+01 0.  0.
        -12    1    1    2    0    0 -0.24300629819E+02  0.35492939831E+02  0.13373260757E+02  0.45045682265E+02  0.00000000000E+00 0.  1.
         11    1    3    3    0    0  0.98724908004E+01 -0.19718145230E+02 -0.33404795552E+01  0.22303141703E+02  0.51100000000E-03 0. -1.
        -11    1    3    3    0    0  0.34004165517E+01 -0.19483204343E+01 -0.14254959873E+01  0.41702307263E+01  0.51100000000E-03 0.  1.
         12    1    3    3    0    0  0.11027722466E+02 -0.13826474167E+02 -0.86072852146E+01  0.19668945306E+02  0.00000000000E+00 0. -1.
</event>
<event>
 7    1  0.1519238E-008  0.4614232E+02  0.7816164E-02  0.1320468E+00
        -11   -1    0    0    0    0  0.00000000000E+00  0.00000000000E+00  0.45593999997E+02  0.45594000000E+02  0.51100000000E-03 0.  1.
         11   -1    0    0    0    0 -0.00000000000E+00 -0.00000000000E+00 -0.45593999997E+02  0.45594000000E+02  0.51100000000E-03 0. -1.
    9900012    2    1    2    0    0 -0.17971668727E+02 -0.29316246543E+01 -0.41201190583E+02  0.46142318682E+02  0.10000008394E+02 0.  0.
        -12    1    1    2    0    0  0.17971668727E+02  0.29316246543E+01  0.41201190583E+02  0.45045681318E+02  0.00000000000E+00 0.  1.
         11    1    3    3    0    0 -0.13845268721E+02 -0.18877320954E+01 -0.26811774678E+02  0.30234520999E+02  0.51100000000E-03 0. -1.
        -11    1    3    3    0    0 -0.20940739714E+01 -0.30412842568E+01 -0.59742372872E+01  0.70232518931E+01  0.51100000000E-03 0.  1.
         12    1    3    3    0    0 -0.20323260352E+01  0.19973916979E+01 -0.84151786179E+01  0.88845457892E+01  0.00000000000E+00 0. -1.
</event>
<event>
 7    1  0.1519238E-008  0.4614232E+02  0.7816164E-02  0.1320468E+00
        -11   -1    0    0    0    0  0.00000000000E+00  0.00000000000E+00  0.45593999997E+02  0.45594000000E+02  0.51100000000E-03 0. -1.
         11   -1    0    0    0    0 -0.00000000000E+00 -0.00000000000E+00 -0.45593999997E+02  0.45594000000E+02  0.51100000000E-03 0.  1.
    9900012    2    1    2    0    0  0.17552701823E+02 -0.41483893934E+02  0.32043608768E+00  0.46142317893E+02  0.10000001201E+02 0.  0.
        -12    1    1    2    0    0 -0.17552701823E+02  0.41483893934E+02 -0.32043608768E+00  0.45045682107E+02  0.00000000000E+00 0.  1.
         11    1    3    3    0    0  0.47207934473E+01 -0.57321273001E+01 -0.29452770696E+01  0.79886063512E+01  0.51100000000E-03 0. -1.
        -11    1    3    3    0    0  0.56835499962E+01 -0.16873181941E+02  0.87747838997E+00  0.17826300176E+02  0.51100000000E-03 0.  1.
         12    1    3    3    0    0  0.71483583791E+01 -0.18878584693E+02  0.23882347673E+01  0.20327411366E+02  0.00000000000E+00 0. -1.
</event>
<event>
 7    1  0.1519238E-008  0.4614232E+02  0.7816164E-02  0.1320468E+00
        -11   -1    0    0    0    0  0.00000000000E+00  0.00000000000E+00  0.45593999997E+02  0.45594000000E+02  0.51100000000E-03 0.  1.
         11   -1    0    0    0    0 -0.00000000000E+00 -0.00000000000E+00 -0.45593999997E+02  0.45594000000E+02  0.51100000000E-03 0. -1.
    9900012    2    1    2    0    0 -0.10803973539E+02  0.10074824214E+02 -0.42554503183E+02  0.46142315763E+02  0.99999817829E+01 0.  0.
        -12    1    1    2    0    0  0.10803973539E+02 -0.10074824214E+02  0.42554503183E+02  0.45045684237E+02  0.00000000000E+00 0.  1.
         11    1    3    3    0    0 -0.56937748823E+01  0.30794994523E+01 -0.14865834787E+02  0.16214050495E+02  0.51100000000E-03 0. -1.
        -11    1    3    3    0    0  0.45859506413E-01 -0.13558763754E+00 -0.11513476366E+02  0.11514366044E+02  0.51100000000E-03 0.  1.
        -12    1    3    3    0    0 -0.51560581629E+01  0.71309123990E+01 -0.16175192030E+02  0.18413899224E+02  0.00000000000E+00 0.  1.
</event>
<event>
 7    1  0.1519238E-008  0.4614232E+02  0.7816164E-02  0.1320468E+00
        -11   -1    0    0    0    0  0.00000000000E+00  0.00000000000E+00  0.45593999997E+02  0.45594000000E+02  0.51100000000E-03 0. -1.
         11   -1    0    0    0    0 -0.00000000000E+00 -0.00000000000E+00 -0.45593999997E+02  0.45594000000E+02  0.51100000000E-03 0.  1.
    9900012    2    1    2    0    0 -0.21427795810E+02 -0.36670383945E+02  0.15008198121E+02  0.46142317601E+02  0.99999985419E+01 0.  0.
        -12    1    1    2    0    0  0.21427795810E+02  0.36670383945E+02 -0.15008198121E+02  0.45045682399E+02  0.00000000000E+00 0.  1.
         11    1    3    3    0    0 -0.79346455461E+01 -0.22452644557E+02  0.98027268470E+01  0.25752151394E+02  0.51100000000E-03 0. -1.
        -11    1    3    3    0    0 -0.32368182513E+01 -0.25206945410E+01  0.17152229646E+01  0.44466710515E+01  0.51100000000E-03 0.  1.
         12    1    3    3    0    0 -0.10256332013E+02 -0.11697044847E+02  0.34902483093E+01  0.15943495155E+02  0.00000000000E+00 0. -1.
</event>
<event>
 7    1  0.1519238E-008  0.4614232E+02  0.7816164E-02  0.1320468E+00
        -11   -1    0    0    0    0  0.00000000000E+00  0.00000000000E+00  0.45593999997E+02  0.45594000000E+02  0.51100000000E-03 0. -1.
         11   -1    0    0    0    0 -0.00000000000E+00 -0.00000000000E+00 -0.45593999997E+02  0.45594000000E+02  0.51100000000E-03 0.  1.
    9900012    2    1    2    0    0 -0.37464911235E+02 -0.24117874573E+02  0.66198068844E+01  0.46142319952E+02  0.10000019980E+02 0.  0.
        -12    1    1    2    0    0  0.37464911235E+02  0.24117874573E+02 -0.66198068844E+01  0.45045680048E+02  0.00000000000E+00 0.  1.
         11    1    3    3    0    0 -0.30916361189E+02 -0.17586347082E+02  0.37208794526E+01  0.35762353628E+02  0.51100000000E-03 0. -1.
        -11    1    3    3    0    0 -0.26754865698E+01 -0.23830622043E+01  0.30459224256E+01  0.47026436755E+01  0.51100000000E-03 0.  1.
         12    1    3    3    0    0 -0.38730634767E+01 -0.41484652870E+01 -0.14699499387E+00  0.56773226489E+01  0.00000000000E+00 0. -1.
</event>
<event>
 7    1  0.1519238E-008  0.4614232E+02  0.7816164E-02  0.1320468E+00
        -11   -1    0    0    0    0  0.00000000000E+00  0.00000000000E+00  0.45593999997E+02  0.45594000000E+02  0.51100000000E-03 0.  1.
         11   -1    0    0    0    0 -0.00000000000E+00 -0.00000000000E+00 -0.45593999997E+02  0.45594000000E+02  0.51100000000E-03 0. -1.
    9900012    2    1    2    0    0 -0.17232340761E+02 -0.36454888647E+02 -0.20079867611E+02  0.46142316992E+02  0.99999929879E+01 0.  0.
        -12    1    1    2    0    0  0.17232340761E+02  0.36454888647E+02  0.20079867611E+02  0.45045683008E+02  0.00000000000E+00 0.  1.
         11    1    3    3    0    0 -0.60270637431E+00  0.23985166368E-01 -0.11122079744E+01  0.12652419141E+01  0.51100000000E-03 0.  1.
        -11    1    3    3    0    0 -0.14237010122E+02 -0.23531214079E+02 -0.12628036352E+02  0.30263472960E+02  0.51100000000E-03 0. -1.
        -12    1    3    3    0    0 -0.23926242651E+01 -0.12947659734E+02 -0.63396232846E+01  0.14613602118E+02  0.00000000000E+00 0.  1.
</event>
<event>
 7    1  0.1519238E-008  0.4614232E+02  0.7816164E-02  0.1320468E+00
        -11   -1    0    0    0    0  0.00000000000E+00  0.00000000000E+00  0.45593999997E+02  0.45594000000E+02  0.51100000000E-03 0.  1.
         11   -1    0    0    0    0 -0.00000000000E+00 -0.00000000000E+00 -0.45593999997E+02  0.45594000000E+02  0.51100000000E-03 0. -1.
    9900012    2    1    2    0    0  0.98103975525E+01 -0.23978108735E+02 -0.36849965179E+02  0.46142317273E+02  0.99999955521E+01 0.  0.
        -12    1    1    2    0    0 -0.98103975525E+01  0.23978108735E+02  0.36849965179E+02  0.45045682727E+02  0.00000000000E+00 0.  1.
         11    1    3    3    0    0  0.10387764050E+01 -0.95846832653E+00 -0.51789050913E+01  0.53683122262E+01  0.51100000000E-03 0. -1.
        -11    1    3    3    0    0 -0.76572538525E-01  0.49513559379E+00 -0.30662453929E+00  0.58740231452E+00  0.51100000000E-03 0.  1.
        -12    1    3    3    0    0  0.88481936860E+01 -0.23514776002E+02 -0.31364435548E+02  0.40186602733E+02  0.00000000000E+00 0.  1.
</event>
<event>
 7    1  0.1519238E-008  0.4614232E+02  0.7816164E-02  0.1320468E+00
        -11   -1    0    0    0    0  0.00000000000E+00  0.00000000000E+00  0.45593999997E+02  0.45594000000E+02  0.51100000000E-03 0.  1.
         11   -1    0    0    0    0 -0.00000000000E+00 -0.00000000000E+00 -0.45593999997E+02  0.45594000000E+02  0.51100000000E-03 0. -1.
    9900012    2    1    2    0    0 -0.35835137682E+02  0.76427998058E+01 -0.26201986370E+02  0.46142316841E+02  0.99999916063E+01 0.  0.
        -12    1    1    2    0    0  0.35835137682E+02 -0.76427998058E+01  0.26201986370E+02  0.45045683159E+02  0.00000000000E+00 0.  1.
         11    1    3    3    0    0 -0.98345065577E+01  0.16945727094E+01 -0.33404578660E+01  0.10523675922E+02  0.51100000000E-03 0. -1.
        -11    1    3    3    0    0 -0.13561643787E+02  0.55532127833E+01 -0.14565152763E+02  0.20661559227E+02  0.51100000000E-03 0.  1.
         12    1    3    3    0    0 -0.12438987337E+02  0.39501431306E+00 -0.82963757407E+01  0.14957081691E+02  0.00000000000E+00 0. -1.
</event>
<event>
 7    1  0.1519238E-008  0.4614232E+02  0.7816164E-02  0.1320468E+00
        -11   -1    0    0    0    0  0.00000000000E+00  0.00000000000E+00  0.45593999997E+02  0.45594000000E+02  0.51100000000E-03 0.  1.
         11   -1    0    0    0    0 -0.00000000000E+00 -0.00000000000E+00 -0.45593999997E+02  0.45594000000E+02  0.51100000000E-03 0. -1.
    9900012    2    1    2    0    0  0.44256243158E+02  0.95701666757E+00 -0.83416050673E+01  0.46142319692E+02  0.10000017607E+02 0.  0.
        -12    1    1    2    0    0 -0.44256243158E+02 -0.95701666757E+00  0.83416050673E+01  0.45045680308E+02  0.00000000000E+00 0.  1.
         11    1    3    3    0    0  0.18803998331E+02 -0.58816784365E+00 -0.23732238981E+01  0.18962291175E+02  0.51100000000E-03 0. -1.
        -11    1    3    3    0    0  0.75379854216E+01  0.20326937172E+01  0.11609635937E+01  0.78930922135E+01  0.51100000000E-03 0.  1.
        -12    1    3    3    0    0  0.17914259405E+02 -0.48750920594E+00 -0.71293447629E+01  0.19286936304E+02  0.00000000000E+00 0.  1.
</event>
<event>
 7    1  0.1519238E-008  0.4614232E+02  0.7816164E-02  0.1320468E+00
        -11   -1    0    0    0    0  0.00000000000E+00  0.00000000000E+00  0.45593999997E+02  0.45594000000E+02  0.51100000000E-03 0.  1.
         11   -1    0    0    0    0 -0.00000000000E+00 -0.00000000000E+00 -0.45593999997E+02  0.45594000000E+02  0.51100000000E-03 0. -1.
    9900012    2    1    2    0    0 -0.42689896050E+02 -0.40252321887E+00 -0.14370955285E+02  0.46142316461E+02  0.99999881450E+01 0.  0.
        -12    1    1    2    0    0  0.42689896050E+02  0.40252321887E+00  0.14370955285E+02  0.45045683539E+02  0.00000000000E+00 0.  1.
         11    1    3    3    0    0 -0.13558761192E+02  0.21851027809E+01 -0.36454631873E+01  0.14209295596E+02  0.51100000000E-03 0. -1.
        -11    1    3    3    0    0 -0.59055746046E+00 -0.70099886601E+00 -0.17148230803E+01  0.19444217604E+01  0.51100000000E-03 0.  1.
        -12    1    3    3    0    0 -0.28540577398E+02 -0.18866271337E+01 -0.90106690173E+01  0.29988599105E+02  0.00000000000E+00 0.  1.
</event>
<event>
 7    1  0.1519238E-008  0.4614232E+02  0.7816164E-02  0.1320468E+00
        -11   -1    0    0    0    0  0.00000000000E+00  0.00000000000E+00  0.45593999997E+02  0.45594000000E+02  0.51100000000E-03 0. -1.
         11   -1    0    0    0    0 -0.00000000000E+00 -0.00000000000E+00 -0.45593999997E+02  0.45594000000E+02  0.51100000000E-03 0.  1.
    9900012    2    1    2    0    0  0.80949627009E+01 -0.25957519518E+02  0.35913677881E+02  0.46142317636E+02  0.99999988621E+01 0.  0.
        -12    1    1    2    0    0 -0.80949627009E+01  0.25957519518E+02 -0.35913677881E+02  0.45045682364E+02  0.00000000000E+00 0.  1.
         11    1    3    3    0    0  0.13447016742E+01 -0.14025299489E+01  0.19302704021E+00  0.19525809969E+01  0.51100000000E-03 0. -1.
        -11    1    3    3    0    0  0.20807358864E+01 -0.17206838387E+01  0.33856215415E+01  0.43304327942E+01  0.51100000000E-03 0.  1.
         12    1    3    3    0    0  0.46695251403E+01 -0.22834305730E+02  0.32335029299E+02  0.39859303845E+02  0.00000000000E+00 0. -1.
</event>
<event>
 7    1  0.1519238E-008  0.4614232E+02  0.7816164E-02  0.1320468E+00
        -11   -1    0    0    0    0  0.00000000000E+00  0.00000000000E+00  0.45593999997E+02  0.45594000000E+02  0.51100000000E-03 0. -1.
         11   -1    0    0    0    0 -0.00000000000E+00 -0.00000000000E+00 -0.45593999997E+02  0.45594000000E+02  0.51100000000E-03 0.  1.
    9900012    2    1    2    0    0  0.36909438174E+02  0.22654993034E+02  0.12391848707E+02  0.46142320406E+02  0.10000024119E+02 0.  0.
        -12    1    1    2    0    0 -0.36909438174E+02 -0.22654993034E+02 -0.12391848707E+02  0.45045679594E+02  0.00000000000E+00 0.  1.
         11    1    3    3    0    0  0.21928088659E+02  0.94586708156E+01  0.53693720201E+01  0.24477289106E+02  0.51100000000E-03 0. -1.
        -11    1    3    3    0    0  0.55067701331E+01  0.77477051493E+01  0.40972373648E+01  0.10350787732E+02  0.51100000000E-03 0.  1.
        -12    1    3    3    0    0  0.94745793817E+01  0.54486170693E+01  0.29252393224E+01  0.11314243568E+02  0.00000000000E+00 0.  1.
</event>
<event>
 7    1  0.1519238E-008  0.4614232E+02  0.7816164E-02  0.1320468E+00
        -11   -1    0    0    0    0  0.00000000000E+00  0.00000000000E+00  0.45593999997E+02  0.45594000000E+02  0.51100000000E-03 0. -1.
         11   -1    0    0    0    0 -0.00000000000E+00 -0.00000000000E+00 -0.45593999997E+02  0.45594000000E+02  0.51100000000E-03 0.  1.
    9900012    2    1    2    0    0  0.42675571601E+02  0.13129549039E+02  0.59602070789E+01  0.46142317211E+02  0.99999949864E+01 0.  0.
        -12    1    1    2    0    0 -0.42675571601E+02 -0.13129549039E+02 -0.59602070789E+01  0.45045682789E+02  0.00000000000E+00 0.  1.
         11    1    3    3    0    0  0.27570681411E+02  0.80161928004E+01 -0.91988190965E+00  0.28727130094E+02  0.51100000000E-03 0. -1.
        -11    1    3    3    0    0  0.33476395364E+01  0.10128473015E+01  0.20862903869E+01  0.40724879326E+01  0.51100000000E-03 0.  1.
         12    1    3    3    0    0  0.11757250654E+02  0.41005089375E+01  0.47937986016E+01  0.13342699184E+02  0.00000000000E+00 0. -1.
</event>
<event>
 7    1  0.1519238E-008  0.4614232E+02  0.7816164E-02  0.1320468E+00
        -11   -1    0    0    0    0  0.00000000000E+00  0.00000000000E+00  0.45593999997E+02  0.45594000000E+02  0.51100000000E-03 0.  1.
         11   -1    0    0    0    0 -0.00000000000E+00 -0.00000000000E+00 -0.45593999997E+02  0.45594000000E+02  0.51100000000E-03 0. -1.
    9900012    2    1    2    0    0 -0.10124299746E+02  0.19032587253E+02 -0.39552154146E+02  0.46142315185E+02  0.99999765066E+01 0.  0.
        -12    1    1    2    0    0  0.10124299746E+02 -0.19032587253E+02  0.39552154146E+02  0.45045684815E+02  0.00000000000E+00 0.  1.
         11    1    3    3    0    0 -0.14551426536E+00  0.64040637800E+01 -0.11173831651E+02  0.12879740732E+02  0.51100000000E-03 0. -1.
        -11    1    3    3    0    0 -0.80723876024E+01  0.53694123760E+01 -0.13792149942E+02  0.16858749395E+02  0.51100000000E-03 0.  1.
        -12    1    3    3    0    0 -0.19063978780E+01  0.72591110974E+01 -0.14586172553E+02  0.16403825058E+02  0.00000000000E+00 0.  1.
</event>
<event>
 7    1  0.1519238E-008  0.4614232E+02  0.7816164E-02  0.1320468E+00
        -11   -1    0    0    0    0  0.00000000000E+00  0.00000000000E+00  0.45593999997E+02  0.45594000000E+02  0.51100000000E-03 0.  1.
         11   -1    0    0    0    0 -0.00000000000E+00 -0.00000000000E+00 -0.45593999997E+02  0.45594000000E+02  0.51100000000E-03 0. -1.
    9900012    2    1    2    0    0 -0.27255814984E+02  0.22470037027E+02 -0.27952307414E+02  0.46142317585E+02  0.99999983964E+01 0.  0.
        -12    1    1    2    0    0  0.27255814984E+02 -0.22470037027E+02  0.27952307414E+02  0.45045682415E+02  0.00000000000E+00 0.  1.
         11    1    3    3    0    0 -0.82117775054E+01  0.32727249369E+01 -0.72789835341E+01  0.11451096885E+02  0.51100000000E-03 0. -1.
        -11    1    3    3    0    0 -0.46229794310E+01  0.92337875464E+01 -0.79428362967E+01  0.13027794133E+02  0.51100000000E-03 0.  1.
        -12    1    3    3    0    0 -0.14421058048E+02  0.99635245436E+01 -0.12730487583E+02  0.21663426568E+02  0.00000000000E+00 0.  1.
</event>
<event>
 7    1  0.1519238E-008  0.4614232E+02  0.7816164E-02  0.1320468E+00
        -11   -1    0    0    0    0  0.00000000000E+00  0.00000000000E+00  0.45593999997E+02  0.45594000000E+02  0.51100000000E-03 0. -1.
         11   -1    0    0    0    0 -0.00000000000E+00 -0.00000000000E+00 -0.45593999997E+02  0.45594000000E+02  0.51100000000E-03 0.  1.
    9900012    2    1    2    0    0  0.14741741887E+02 -0.36612593819E+02  0.21709733369E+02  0.46142317599E+02  0.99999985179E+01 0.  0.
        -12    1    1    2    0    0 -0.14741741887E+02  0.36612593819E+02 -0.21709733369E+02  0.45045682401E+02  0.00000000000E+00 0.  1.
         11    1    3    3    0    0  0.73288119681E+01 -0.18019382420E+02  0.11540732013E+02  0.22618534951E+02  0.51100000000E-03 0. -1.
        -11    1    3    3    0    0  0.21147387947E+01 -0.13609263298E+02  0.80267558255E+01  0.15940921461E+02  0.51100000000E-03 0.  1.
        -12    1    3    3    0    0  0.52981911238E+01 -0.49839481006E+01  0.21422455313E+01  0.75828611863E+01  0.00000000000E+00 0.  1.
</event>
<event>
 7    1  0.1519238E-008  0.4614232E+02  0.7816164E-02  0.1320468E+00
        -11   -1    0    0    0    0  0.00000000000E+00  0.00000000000E+00  0.45593999997E+02  0.45594000000E+02  0.51100000000E-03 0.  1.
         11   -1    0    0    0    0 -0.00000000000E+00 -0.00000000000E+00 -0.45593999997E+02  0.45594000000E+02  0.51100000000E-03 0. -1.
    9900012    2    1    2    0    0 -0.21052575847E+02 -0.49323531698E+01 -0.39516761658E+02  0.46142317526E+02  0.99999978570E+01 0.  0.
        -12    1    1    2    0    0  0.21052575847E+02  0.49323531698E+01  0.39516761658E+02  0.45045682474E+02  0.00000000000E+00 0.  1.
         11    1    3    3    0    0 -0.15823459857E+02 -0.17168934439E+01 -0.23128665637E+02  0.28076053486E+02  0.51100000000E-03 0. -1.
        -11    1    3    3    0    0 -0.58109471031E+00 -0.23633136242E+01 -0.29663562723E+01  0.38369508915E+01  0.51100000000E-03 0.  1.
        -12    1    3    3    0    0 -0.46480212804E+01 -0.85214610170E+00 -0.13421739748E+02  0.14229313148E+02  0.00000000000E+00 0.  1.
</event>
<event>
 7    1  0.1519238E-008  0.4614232E+02  0.7816164E-02  0.1320468E+00
        -11   -1    0    0    0    0  0.00000000000E+00  0.00000000000E+00  0.45593999997E+02  0.45594000000E+02  0.51100000000E-03 0.  1.
         11   -1    0    0    0    0 -0.00000000000E+00 -0.00000000000E+00 -0.45593999997E+02  0.45594000000E+02  0.51100000000E-03 0. -1.
    9900012    2    1    2    0    0 -0.41325818137E+02 -0.15395675941E+01  0.17858330712E+02  0.46142317755E+02  0.99999999424E+01 0.  0.
        -12    1    1    2    0    0  0.41325818137E+02  0.15395675941E+01 -0.17858330712E+02  0.45045682245E+02  0.00000000000E+00 0.  1.
         11    1    3    3    0    0 -0.16343849242E+02 -0.31070758185E+00  0.63536410685E+01  0.17538149912E+02  0.51100000000E-03 0. -1.
        -11    1    3    3    0    0 -0.23653053066E+02 -0.23281557567E+01  0.86960441521E+01  0.25308267675E+02  0.51100000000E-03 0.  1.
        -12    1    3    3    0    0 -0.13289158295E+01  0.10992957445E+01  0.28086454918E+01  0.32959001675E+01  0.00000000000E+00 0.  1.
</event>
<event>
 7    1  0.1519238E-008  0.4614231E+02  0.7816164E-02  0.1320468E+00
        -11   -1    0    0    0    0  0.00000000000E+00  0.00000000000E+00  0.45593999997E+02  0.45594000000E+02  0.51100000000E-03 0. -1.
         11   -1    0    0    0    0 -0.00000000000E+00 -0.00000000000E+00 -0.45593999997E+02  0.45594000000E+02  0.51100000000E-03 0.  1.
    9900012    2    1    2    0    0 -0.26248306887E+01 -0.28652826118E+01  0.44877769323E+02  0.46142314746E+02  0.99999725090E+01 0.  0.
        -12    1    1    2    0    0  0.26248306887E+01  0.28652826118E+01 -0.44877769323E+02  0.45045685254E+02  0.00000000000E+00 0.  1.
         11    1    3    3    0    0 -0.34371848245E+01 -0.28509915930E+01  0.44879992917E+02  0.45101620337E+02  0.51100000000E-03 0. -1.
        -11    1    3    3    0    0  0.45810128926E+00  0.31343630997E+00  0.38377264119E-01  0.55639211636E+00  0.51100000000E-03 0.  1.
         12    1    3    3    0    0  0.35425284657E+00 -0.32772732870E+00 -0.40600857927E-01  0.48430229294E+00  0.00000000000E+00 0. -1.
</event>
<event>
 7    1  0.1519238E-008  0.4614232E+02  0.7816164E-02  0.1320468E+00
        -11   -1    0    0    0    0  0.00000000000E+00  0.00000000000E+00  0.45593999997E+02  0.45594000000E+02  0.51100000000E-03 0.  1.
         11   -1    0    0    0    0 -0.00000000000E+00 -0.00000000000E+00 -0.45593999997E+02  0.45594000000E+02  0.51100000000E-03 0. -1.
    9900012    2    1    2    0    0 -0.22398838472E+01 -0.42120055753E+02 -0.15811302997E+02  0.46142317868E+02  0.10000000975E+02 0.  0.
        -12    1    1    2    0    0  0.22398838472E+01  0.42120055753E+02  0.15811302997E+02  0.45045682132E+02  0.00000000000E+00 0.  1.
         11    1    3    3    0    0 -0.32432179098E+01 -0.30941557373E+02 -0.85947194258E+01  0.32276425412E+02  0.51100000000E-03 0. -1.
        -11    1    3    3    0    0  0.10543110913E+01 -0.95673342162E+01 -0.75337133137E+01  0.12223023048E+02  0.51100000000E-03 0.  1.
         12    1    3    3    0    0 -0.50977028709E-01 -0.16111641633E+01  0.31712974221E+00  0.16428694081E+01  0.00000000000E+00 0. -1.
</event>
<event>
 7    1  0.1519238E-008  0.4614232E+02  0.7816164E-02  0.1320468E+00
        -11   -1    0    0    0    0  0.00000000000E+00  0.00000000000E+00  0.45593999997E+02  0.45594000000E+02  0.51100000000E-03 0.  1.
         11   -1    0    0    0    0 -0.00000000000E+00 -0.00000000000E+00 -0.45593999997E+02  0.45594000000E+02  0.51100000000E-03 0. -1.
    9900012    2    1    2    0    0  0.23880947228E+02 -0.28431801947E+02 -0.25503851942E+02  0.46142318006E+02  0.10000002230E+02 0.  0.
        -12    1    1    2    0    0 -0.23880947228E+02  0.28431801947E+02  0.25503851942E+02  0.45045681994E+02  0.00000000000E+00 0.  1.
         11    1    3    3    0    0  0.31657573161E+01 -0.10889302481E+01 -0.10739867286E+01  0.35158549777E+01  0.51100000000E-03 0. -1.
        -11    1    3    3    0    0  0.70539861574E+00 -0.17781655990E+01 -0.35335805470E+01  0.40181652340E+01  0.51100000000E-03 0.  1.
        -12    1    3    3    0    0  0.20009791296E+02 -0.25564706100E+02 -0.20896284667E+02  0.38608297794E+02  0.00000000000E+00 0.  1.
</event>
<event>
 7    1  0.1519238E-008  0.4614232E+02  0.7816164E-02  0.1320468E+00
        -11   -1    0    0    0    0  0.00000000000E+00  0.00000000000E+00  0.45593999997E+02  0.45594000000E+02  0.51100000000E-03 0.  1.
         11   -1    0    0    0    0 -0.00000000000E+00 -0.00000000000E+00 -0.45593999997E+02  0.45594000000E+02  0.51100000000E-03 0. -1.
    9900012    2    1    2    0    0 -0.97200726266E+01  0.39739932969E+02 -0.18851295495E+02  0.46142318452E+02  0.10000006304E+02 0.  0.
        -12    1    1    2    0    0  0.97200726266E+01 -0.39739932969E+02  0.18851295495E+02  0.45045681548E+02  0.00000000000E+00 0.  1.
         11    1    3    3    0    0  0.31979667336E+00  0.23790189649E+01 -0.96355377886E+00  0.25865879636E+01  0.51100000000E-03 0. -1.
        -11    1    3    3    0    0 -0.83916813636E-01  0.15755558956E+02 -0.91044294907E+01  0.18197123857E+02  0.51100000000E-03 0.  1.
        -12    1    3    3    0    0 -0.99559524863E+01  0.21605355048E+02 -0.87833122251E+01  0.25358606632E+02  0.00000000000E+00 0.  1.
</event>
<event>
 7    1  0.1519238E-008  0.4614232E+02  0.7816164E-02  0.1320468E+00
        -11   -1    0    0    0    0  0.00000000000E+00  0.00000000000E+00  0.45593999997E+02  0.45594000000E+02  0.51100000000E-03 0.  1.
         11   -1    0    0    0    0 -0.00000000000E+00 -0.00000000000E+00 -0.45593999997E+02  0.45594000000E+02  0.51100000000E-03 0. -1.
    9900012    2    1    2    0    0  0.22266892689E+02 -0.25973185519E+01 -0.39071126820E+02  0.46142317358E+02  0.99999963269E+01 0.  0.
        -12    1    1    2    0    0 -0.22266892689E+02  0.25973185519E+01  0.39071126820E+02  0.45045682642E+02  0.00000000000E+00 0.  1.
         11    1    3    3    0    0  0.68843490751E+01 -0.33962894703E+00 -0.58296129775E+01  0.90274026020E+01  0.51100000000E-03 0. -1.
        -11    1    3    3    0    0  0.52762139505E+01 -0.12984352432E+01 -0.62736803785E+01  0.82996044174E+01  0.51100000000E-03 0.  1.
         12    1    3    3    0    0  0.10106329663E+02 -0.95925436165E+00 -0.26967833464E+02  0.28815310339E+02  0.00000000000E+00 0. -1.
</event>
<event>
 7    1  0.1519238E-008  0.4614232E+02  0.7816164E-02  0.1320468E+00
        -11   -1    0    0    0    0  0.00000000000E+00  0.00000000000E+00  0.45593999997E+02  0.45594000000E+02  0.51100000000E-03 0.  1.
         11   -1    0    0    0    0 -0.00000000000E+00 -0.00000000000E+00 -0.45593999997E+02  0.45594000000E+02  0.51100000000E-03 0. -1.
    9900012    2    1    2    0    0  0.11930086440E+02  0.17199929534E+02 -0.39886703424E+02  0.46142315984E+02  0.99999837947E+01 0.  0.
        -12    1    1    2    0    0 -0.11930086440E+02 -0.17199929534E+02  0.39886703424E+02  0.45045684016E+02  0.00000000000E+00 0.  1.
         11    1    3    3    0    0  0.41041891054E+01  0.10456554588E+02 -0.19700098209E+02  0.22677693264E+02  0.51100000000E-03 0. -1.
        -11    1    3    3    0    0  0.26729514767E+01  0.16367754529E+00 -0.16874746482E+01  0.31652852770E+01  0.51100000000E-03 0.  1.
         12    1    3    3    0    0  0.51529458583E+01  0.65796974004E+01 -0.18499130567E+02  0.20299337443E+02  0.00000000000E+00 0. -1.
</event>
<event>
 7    1  0.1519238E-008  0.4614232E+02  0.7816164E-02  0.1320468E+00
        -11   -1    0    0    0    0  0.00000000000E+00  0.00000000000E+00  0.45593999997E+02  0.45594000000E+02  0.51100000000E-03 0.  1.
         11   -1    0    0    0    0 -0.00000000000E+00 -0.00000000000E+00 -0.45593999997E+02  0.45594000000E+02  0.51100000000E-03 0. -1.
    9900012    2    1    2    0    0  0.29054252008E+02  0.12614356733E+02 -0.32028766897E+02  0.46142318026E+02  0.10000002415E+02 0.  0.
        -12    1    1    2    0    0 -0.29054252008E+02 -0.12614356733E+02  0.32028766897E+02  0.45045681974E+02  0.00000000000E+00 0.  1.
         11    1    3    3    0    0  0.35967360499E+00  0.18951533981E+01 -0.12833882938E+01  0.23169068342E+01  0.51100000000E-03 0.  1.
        -11    1    3    3    0    0  0.10255372518E+02  0.35055640250E+01 -0.15116988651E+02  0.18600671783E+02  0.51100000000E-03 0. -1.
         12    1    3    3    0    0  0.18439205885E+02  0.72136393098E+01 -0.15628389952E+02  0.25224739409E+02  0.00000000000E+00 0. -1.
</event>
<event>
 7    1  0.1519238E-008  0.4614232E+02  0.7816164E-02  0.1320468E+00
        -11   -1    0    0    0    0  0.00000000000E+00  0.00000000000E+00  0.45593999997E+02  0.45594000000E+02  0.51100000000E-03 0. -1.
         11   -1    0    0    0    0 -0.00000000000E+00 -0.00000000000E+00 -0.45593999997E+02  0.45594000000E+02  0.51100000000E-03 0.  1.
    9900012    2    1    2    0    0  0.40520177562E+02  0.64263548787E+01  0.18599204818E+02  0.46142320445E+02  0.10000024477E+02 0.  0.
        -12    1    1    2    0    0 -0.40520177562E+02 -0.64263548787E+01 -0.18599204818E+02  0.45045679555E+02  0.00000000000E+00 0.  1.
         11    1    3    3    0    0  0.42824982849E+01  0.48769660887E+00  0.49749799199E+01  0.65824057158E+01  0.51100000000E-03 0. -1.
        -11    1    3    3    0    0  0.30947192343E+02  0.30853333761E+01  0.11980146888E+02  0.33328245014E+02  0.51100000000E-03 0.  1.
         12    1    3    3    0    0  0.52904869333E+01  0.28533248937E+01  0.16440780099E+01  0.62316697155E+01  0.00000000000E+00 0. -1.
</event>
<event>
 7    1  0.1519238E-008  0.4614232E+02  0.7816164E-02  0.1320468E+00
        -11   -1    0    0    0    0  0.00000000000E+00  0.00000000000E+00  0.45593999997E+02  0.45594000000E+02  0.51100000000E-03 0.  1.
         11   -1    0    0    0    0 -0.00000000000E+00 -0.00000000000E+00 -0.45593999997E+02  0.45594000000E+02  0.51100000000E-03 0. -1.
    9900012    2    1    2    0    0  0.30819883002E+02  0.70761847988E+01  0.32080771438E+02  0.46142317903E+02  0.10000001293E+02 0.  0.
        -12    1    1    2    0    0 -0.30819883002E+02 -0.70761847988E+01 -0.32080771438E+02  0.45045682097E+02  0.00000000000E+00 0.  1.
         11    1    3    3    0    0  0.14806986507E+02  0.22124711620E+01  0.11156996842E+02  0.18671380690E+02  0.51100000000E-03 0. -1.
        -11    1    3    3    0    0  0.16270287290E+02  0.50886664214E+01  0.21066862636E+02  0.27100359334E+02  0.51100000000E-03 0.  1.
        -12    1    3    3    0    0 -0.25739079553E+00 -0.22495278461E+00 -0.14308804062E+00  0.37057787885E+00  0.00000000000E+00 0.  1.
</event>
<event>
 7    1  0.1519238E-008  0.4614232E+02  0.7816164E-02  0.1320468E+00
        -11   -1    0    0    0    0  0.00000000000E+00  0.00000000000E+00  0.45593999997E+02  0.45594000000E+02  0.51100000000E-03 0. -1.
         11   -1    0    0    0    0 -0.00000000000E+00 -0.00000000000E+00 -0.45593999997E+02  0.45594000000E+02  0.51100000000E-03 0.  1.
    9900012    2    1    2    0    0  0.15682447186E+02 -0.19601026578E+02  0.37402861435E+02  0.46142318341E+02  0.10000005284E+02 0.  0.
        -12    1    1    2    0    0 -0.15682447186E+02  0.19601026578E+02 -0.37402861435E+02  0.45045681659E+02  0.00000000000E+00 0.  1.
         11    1    3    3    0    0  0.85993854606E+01 -0.70025806019E+01  0.14611027434E+02  0.18343055588E+02  0.51100000000E-03 0. -1.
        -11    1    3    3    0    0  0.40718861065E+00 -0.34040425744E+00  0.57338185759E+01  0.57583290411E+01  0.51100000000E-03 0.  1.
         12    1    3    3    0    0  0.66758731149E+01 -0.12258041718E+02  0.17058015425E+02  0.22040933711E+02  0.00000000000E+00 0. -1.
</event>
<event>
 7    1  0.1519238E-008  0.4614232E+02  0.7816164E-02  0.1320468E+00
        -11   -1    0    0    0    0  0.00000000000E+00  0.00000000000E+00  0.45593999997E+02  0.45594000000E+02  0.51100000000E-03 0.  1.
         11   -1    0    0    0    0 -0.00000000000E+00 -0.00000000000E+00 -0.45593999997E+02  0.45594000000E+02  0.51100000000E-03 0. -1.
    9900012    2    1    2    0    0  0.21913321609E+02 -0.32002151535E+02 -0.22908124034E+02  0.46142317482E+02  0.99999974532E+01 0.  0.
        -12    1    1    2    0    0 -0.21913321609E+02  0.32002151535E+02  0.22908124034E+02  0.45045682518E+02  0.00000000000E+00 0.  1.
         11    1    3    3    0    0  0.33836701876E+01 -0.61137040499E+01 -0.56955367463E+01  0.90147512577E+01  0.51100000000E-03 0. -1.
        -11    1    3    3    0    0  0.76196017958E+01 -0.82966949351E+01 -0.20053821997E+01  0.11441810888E+02  0.51100000000E-03 0.  1.
        -12    1    3    3    0    0  0.10910049626E+02 -0.17591752550E+02 -0.15207205088E+02  0.25685755336E+02  0.00000000000E+00 0.  1.
</event>
<event>
 7    1  0.1519238E-008  0.4614232E+02  0.7816164E-02  0.1320468E+00
        -11   -1    0    0    0    0  0.00000000000E+00  0.00000000000E+00  0.45593999997E+02  0.45594000000E+02  0.51100000000E-03 0.  1.
         11   -1    0    0    0    0 -0.00000000000E+00 -0.00000000000E+00 -0.45593999997E+02  0.45594000000E+02  0.51100000000E-03 0. -1.
    9900012    2    1    2    0    0  0.22193538599E+01 -0.18588842192E+02 -0.40971245449E+02  0.46142317196E+02  0.99999948491E+01 0.  0.
        -12    1    1    2    0    0 -0.22193538599E+01  0.18588842192E+02  0.40971245449E+02  0.45045682804E+02  0.00000000000E+00 0.  1.
         11    1    3    3    0    0  0.28457024424E+01 -0.17340869680E+02 -0.35424934447E+02  0.39544023120E+02  0.51100000000E-03 0. -1.
        -11    1    3    3    0    0 -0.14568385577E+01  0.24546743661E+00 -0.41051263195E+01  0.43628769414E+01  0.51100000000E-03 0.  1.
        -12    1    3    3    0    0  0.83048997519E+00 -0.14934399481E+01 -0.14411846826E+01  0.22354171349E+01  0.00000000000E+00 0.  1.
</event>
<event>
 7    1  0.1519238E-008  0.4614232E+02  0.7816164E-02  0.1320468E+00
        -11   -1    0    0    0    0  0.00000000000E+00  0.00000000000E+00  0.45593999997E+02  0.45594000000E+02  0.51100000000E-03 0.  1.
         11   -1    0    0    0    0 -0.00000000000E+00 -0.00000000000E+00 -0.45593999997E+02  0.45594000000E+02  0.51100000000E-03 0. -1.
    9900012    2    1    2    0    0  0.36499872550E+02  0.15756911791E+02 -0.21180004639E+02  0.46142316945E+02  0.99999925601E+01 0.  0.
        -12    1    1    2    0    0 -0.36499872550E+02 -0.15756911791E+02  0.21180004639E+02  0.45045683055E+02  0.00000000000E+00 0.  1.
         11    1    3    3    0    0  0.14216019657E+02  0.86285134501E+01 -0.53594620865E+01  0.17471985960E+02  0.51100000000E-03 0. -1.
        -11    1    3    3    0    0  0.21210020996E+02  0.71880564683E+01 -0.16072740055E+02  0.27565669221E+02  0.51100000000E-03 0.  1.
         12    1    3    3    0    0  0.10738318967E+01 -0.59658127612E-01  0.25219750246E+00  0.11046617649E+01  0.00000000000E+00 0. -1.
</event>
<event>
 7    1  0.2084493E-008  0.4614232E+02  0.7816164E-02  0.1320468E+00
        -11   -1    0    0    0    0  0.00000000000E+00  0.00000000000E+00  0.45593999997E+02  0.45594000000E+02  0.51100000000E-03 0.  1.
         11   -1    0    0    0    0 -0.00000000000E+00 -0.00000000000E+00 -0.45593999997E+02  0.45594000000E+02  0.51100000000E-03 0. -1.
    9900012    2    1    2    0    0 -0.42903793247E+02  0.73998647459E+01  0.11559407726E+02  0.46142318962E+02  0.10000010952E+02 0.  0.
        -12    1    1    2    0    0  0.42903793247E+02 -0.73998647459E+01 -0.11559407726E+02  0.45045681038E+02  0.00000000000E+00 0.  1.
         11    1    3    3    0    0 -0.34326498051E+02  0.98518610526E+01  0.98635613282E+01  0.37049392397E+02  0.51100000000E-03 0. -1.
        -11    1    3    3    0    0 -0.47845075731E+01 -0.13542402339E+01  0.70652812566E+00  0.50224159108E+01  0.51100000000E-03 0.  1.
         12    1    3    3    0    0 -0.37927876221E+01 -0.10977560729E+01  0.98931827165E+00  0.40705106540E+01  0.00000000000E+00 0. -1.
</event>
<event>
 7    1  0.1519238E-008  0.4614232E+02  0.7816164E-02  0.1320468E+00
        -11   -1    0    0    0    0  0.00000000000E+00  0.00000000000E+00  0.45593999997E+02  0.45594000000E+02  0.51100000000E-03 0.  1.
         11   -1    0    0    0    0 -0.00000000000E+00 -0.00000000000E+00 -0.45593999997E+02  0.45594000000E+02  0.51100000000E-03 0. -1.
    9900012    2    1    2    0    0 -0.26954706195E+02  0.11106697755E+02 -0.34339462285E+02  0.46142316621E+02  0.99999896024E+01 0.  0.
        -12    1    1    2    0    0  0.26954706195E+02 -0.11106697755E+02  0.34339462285E+02  0.45045683379E+02  0.00000000000E+00 0.  1.
         11    1    3    3    0    0 -0.50810558669E+01  0.40217010739E+01 -0.31420305127E+01  0.72016362206E+01  0.51100000000E-03 0.  1.
        -11    1    3    3    0    0 -0.15405151316E+02  0.35718755762E+01 -0.23136547019E+02  0.28024574759E+02  0.51100000000E-03 0. -1.
        -12    1    3    3    0    0 -0.64684990120E+01  0.35131211048E+01 -0.80608847536E+01  0.10916105641E+02  0.00000000000E+00 0.  1.
</event>
<event>
 7    1  0.1519238E-008  0.4614232E+02  0.7816164E-02  0.1320468E+00
        -11   -1    0    0    0    0  0.00000000000E+00  0.00000000000E+00  0.45593999997E+02  0.45594000000E+02  0.51100000000E-03 0.  1.
         11   -1    0    0    0    0 -0.00000000000E+00 -0.00000000000E+00 -0.45593999997E+02  0.45594000000E+02  0.51100000000E-03 0. -1.
    9900012    2    1    2    0    0  0.28416084862E+02  0.34806905112E+01 -0.34778217991E+02  0.46142317277E+02  0.99999955869E+01 0.  0.
        -12    1    1    2    0    0 -0.28416084862E+02 -0.34806905112E+01  0.34778217991E+02  0.45045682723E+02  0.00000000000E+00 0.  1.
         11    1    3    3    0    0  0.11731280497E+02  0.47606662841E+01 -0.12845562948E+02  0.18035946697E+02  0.51100000000E-03 0. -1.
        -11    1    3    3    0    0  0.10185094110E+02 -0.23853976715E+01 -0.99897837754E+01  0.14464509816E+02  0.51100000000E-03 0.  1.
        -12    1    3    3    0    0  0.64997102559E+01  0.11054218986E+01 -0.11942871267E+02  0.13641860764E+02  0.00000000000E+00 0.  1.
</event>
<event>
 7    1  0.1519238E-008  0.4614232E+02  0.7816164E-02  0.1320468E+00
        -11   -1    0    0    0    0  0.00000000000E+00  0.00000000000E+00  0.45593999997E+02  0.45594000000E+02  0.51100000000E-03 0.  1.
         11   -1    0    0    0    0 -0.00000000000E+00 -0.00000000000E+00 -0.45593999997E+02  0.45594000000E+02  0.51100000000E-03 0. -1.
    9900012    2    1    2    0    0  0.34085002164E+02 -0.29218259783E+02  0.36904596736E+01  0.46142316856E+02  0.99999917477E+01 0.  0.
        -12    1    1    2    0    0 -0.34085002164E+02  0.29218259783E+02 -0.36904596736E+01  0.45045683144E+02  0.00000000000E+00 0.  1.
         11    1    3    3    0    0  0.72290835878E+01 -0.52514303560E+01  0.98139978621E-01  0.89357037786E+01  0.51100000000E-03 0. -1.
        -11    1    3    3    0    0  0.28632153882E+01 -0.24774578641E+00 -0.12295686840E+01  0.31258950308E+01  0.51100000000E-03 0.  1.
        -12    1    3    3    0    0  0.23992703188E+02 -0.23719083641E+02  0.48218883790E+01  0.34080718047E+02  0.00000000000E+00 0.  1.
</event>
<event>
 7    1  0.1519238E-008  0.4614232E+02  0.7816164E-02  0.1320468E+00
        -11   -1    0    0    0    0  0.00000000000E+00  0.00000000000E+00  0.45593999997E+02  0.45594000000E+02  0.51100000000E-03 0. -1.
         11   -1    0    0    0    0 -0.00000000000E+00 -0.00000000000E+00 -0.45593999997E+02  0.45594000000E+02  0.51100000000E-03 0.  1.
    9900012    2    1    2    0    0 -0.40725979612E+02  0.57855263554E+01 -0.18358538543E+02  0.46142315767E+02  0.99999818176E+01 0.  0.
        -12    1    1    2    0    0  0.40725979612E+02 -0.57855263554E+01  0.18358538543E+02  0.45045684233E+02  0.00000000000E+00 0.  1.
         11    1    3    3    0    0 -0.16644353951E+02  0.55051596866E+01 -0.39590856883E+01  0.17972636461E+02  0.51100000000E-03 0. -1.
        -11    1    3    3    0    0 -0.87037042310E+01 -0.34394380898E-01 -0.66059145609E+01  0.10926745067E+02  0.51100000000E-03 0.  1.
         12    1    3    3    0    0 -0.15377921430E+02  0.31476104968E+00 -0.77935382933E+01  0.17242934239E+02  0.00000000000E+00 0. -1.
</event>
<event>
 7    1  0.1519238E-008  0.4614232E+02  0.7816164E-02  0.1320468E+00
        -11   -1    0    0    0    0  0.00000000000E+00  0.00000000000E+00  0.45593999997E+02  0.45594000000E+02  0.51100000000E-03 0. -1.
         11   -1    0    0    0    0 -0.00000000000E+00 -0.00000000000E+00 -0.45593999997E+02  0.45594000000E+02  0.51100000000E-03 0.  1.
    9900012    2    1    2    0    0  0.86302863600E+01 -0.43987111348E+02  0.44458614033E+01  0.46142317731E+02  0.99999997300E+01 0.  0.
        -12    1    1    2    0    0 -0.86302863600E+01  0.43987111348E+02 -0.44458614033E+01  0.45045682269E+02  0.00000000000E+00 0.  1.
         11    1    3    3    0    0  0.56999528201E+01 -0.37177867554E+02  0.40010420854E+01  0.37824484611E+02  0.51100000000E-03 0. -1.
        -11    1    3    3    0    0  0.36163478699E+01 -0.40490805306E+01  0.64271781656E+00  0.54668191403E+01  0.51100000000E-03 0.  1.
        -12    1    3    3    0    0 -0.68601433001E+00 -0.27601632634E+01 -0.19789849859E+00  0.28510139805E+01  0.00000000000E+00 0.  1.
</event>
<event>
 7    1  0.1519238E-008  0.4614232E+02  0.7816164E-02  0.1320468E+00
        -11   -1    0    0    0    0  0.00000000000E+00  0.00000000000E+00  0.45593999997E+02  0.45594000000E+02  0.51100000000E-03 0.  1.
         11   -1    0    0    0    0 -0.00000000000E+00 -0.00000000000E+00 -0.45593999997E+02  0.45594000000E+02  0.51100000000E-03 0. -1.
    9900012    2    1    2    0    0  0.21475606653E+02  0.37551166077E+02 -0.12562712006E+02  0.46142317767E+02  0.10000000058E+02 0.  0.
        -12    1    1    2    0    0 -0.21475606653E+02 -0.37551166077E+02  0.12562712006E+02  0.45045682233E+02  0.00000000000E+00 0.  1.
         11    1    3    3    0    0  0.40483825749E+01  0.68851944921E+01 -0.57621827138E+01  0.98487590363E+01  0.51100000000E-03 0. -1.
        -11    1    3    3    0    0  0.11802219589E+02  0.20111082449E+02 -0.19934077219E+01  0.23403454854E+02  0.51100000000E-03 0.  1.
         12    1    3    3    0    0  0.56250044891E+01  0.10554889136E+02 -0.48071215700E+01  0.12890103877E+02  0.00000000000E+00 0. -1.
</event>
<event>
 7    1  0.1519238E-008  0.4614232E+02  0.7816164E-02  0.1320468E+00
        -11   -1    0    0    0    0  0.00000000000E+00  0.00000000000E+00  0.45593999997E+02  0.45594000000E+02  0.51100000000E-03 0. -1.
         11   -1    0    0    0    0 -0.00000000000E+00 -0.00000000000E+00 -0.45593999997E+02  0.45594000000E+02  0.51100000000E-03 0.  1.
    9900012    2    1    2    0    0 -0.27820463761E+02 -0.23720581216E+01  0.35348389650E+02  0.46142317472E+02  0.99999973634E+01 0.  0.
        -12    1    1    2    0    0  0.27820463761E+02  0.23720581216E+01 -0.35348389650E+02  0.45045682528E+02  0.00000000000E+00 0.  1.
         11    1    3    3    0    0 -0.16390153114E+02 -0.32202586101E+01  0.26177252519E+02  0.31052467443E+02  0.51100000000E-03 0. -1.
        -11    1    3    3    0    0 -0.23267033259E+01  0.50732266702E+00  0.38864441882E+01  0.45580010251E+01  0.51100000000E-03 0.  1.
         12    1    3    3    0    0 -0.91036073206E+01  0.34087782153E+00  0.52846929427E+01  0.10531849004E+02  0.00000000000E+00 0. -1.
</event>
<event>
 7    1  0.1519238E-008  0.4614231E+02  0.7816164E-02  0.1320468E+00
        -11   -1    0    0    0    0  0.00000000000E+00  0.00000000000E+00  0.45593999997E+02  0.45594000000E+02  0.51100000000E-03 0.  1.
         11   -1    0    0    0    0 -0.00000000000E+00 -0.00000000000E+00 -0.45593999997E+02  0.45594000000E+02  0.51100000000E-03 0. -1.
    9900012    2    1    2    0    0  0.25264612218E+02 -0.17796583464E+02 -0.32773384865E+02  0.46142314646E+02  0.99999715937E+01 0.  0.
        -12    1    1    2    0    0 -0.25264612218E+02  0.17796583464E+02  0.32773384865E+02  0.45045685354E+02  0.00000000000E+00 0.  1.
         11    1    3    3    0    0  0.95671770358E+01 -0.47601955262E+01 -0.14302488001E+02  0.17853613112E+02  0.51100000000E-03 0. -1.
        -11    1    3    3    0    0  0.32649978765E+01 -0.19565758629E+00 -0.13501669752E+01  0.35385652667E+01  0.51100000000E-03 0.  1.
        -12    1    3    3    0    0  0.12432437306E+02 -0.12840730351E+02 -0.17120729888E+02  0.24750136267E+02  0.00000000000E+00 0.  1.
</event>
<event>
 7    1  0.1519238E-008  0.4614232E+02  0.7816164E-02  0.1320468E+00
        -11   -1    0    0    0    0  0.00000000000E+00  0.00000000000E+00  0.45593999997E+02  0.45594000000E+02  0.51100000000E-03 0.  1.
         11   -1    0    0    0    0 -0.00000000000E+00 -0.00000000000E+00 -0.45593999997E+02  0.45594000000E+02  0.51100000000E-03 0. -1.
    9900012    2    1    2    0    0  0.16148029511E+02  0.41986354918E+02 -0.23453607860E+01  0.46142316815E+02  0.99999913715E+01 0.  0.
        -12    1    1    2    0    0 -0.16148029511E+02 -0.41986354918E+02  0.23453607860E+01  0.45045683185E+02  0.00000000000E+00 0.  1.
         11    1    3    3    0    0  0.26777807066E+01  0.30200265994E+01 -0.26860531483E+01  0.48482937153E+01  0.51100000000E-03 0.  1.
        -11    1    3    3    0    0  0.95974445615E+01  0.25474177707E+02 -0.56334123111E+00  0.27227964037E+02  0.51100000000E-03 0. -1.
         12    1    3    3    0    0  0.38728042430E+01  0.13492150611E+02  0.90403359332E+00  0.14066059063E+02  0.00000000000E+00 0. -1.
</event>
<event>
 7    1  0.1519238E-008  0.4614232E+02  0.7816164E-02  0.1320468E+00
        -11   -1    0    0    0    0  0.00000000000E+00  0.00000000000E+00  0.45593999997E+02  0.45594000000E+02  0.51100000000E-03 0.  1.
         11   -1    0    0    0    0 -0.00000000000E+00 -0.00000000000E+00 -0.45593999997E+02  0.45594000000E+02  0.51100000000E-03 0. -1.
    9900012    2    1    2    0    0  0.31026178014E+02  0.34905818163E+01 -0.32470072162E+02  0.46142317968E+02  0.10000001886E+02 0.  0.
        -12    1    1    2    0    0 -0.31026178014E+02 -0.34905818163E+01  0.32470072162E+02  0.45045682032E+02  0.00000000000E+00 0.  1.
         11    1    3    3    0    0  0.22279848835E+02  0.30399883402E+01 -0.23117120287E+02  0.32249565018E+02  0.51100000000E-03 0. -1.
        -11    1    3    3    0    0  0.33783236380E+01 -0.23804435339E+01 -0.46035090126E+01  0.61864268776E+01  0.51100000000E-03 0.  1.
        -12    1    3    3    0    0  0.53680055409E+01  0.28310370100E+01 -0.47494428618E+01  0.77063260726E+01  0.00000000000E+00 0.  1.
</event>
<event>
 7    1  0.1519238E-008  0.4614232E+02  0.7816164E-02  0.1320468E+00
        -11   -1    0    0    0    0  0.00000000000E+00  0.00000000000E+00  0.45593999997E+02  0.45594000000E+02  0.51100000000E-03 0.  1.
         11   -1    0    0    0    0 -0.00000000000E+00 -0.00000000000E+00 -0.45593999997E+02  0.45594000000E+02  0.51100000000E-03 0. -1.
    9900012    2    1    2    0    0 -0.17660363713E+02 -0.40906415556E+02 -0.66249714127E+01  0.46142317340E+02  0.99999961581E+01 0.  0.
        -12    1    1    2    0    0  0.17660363713E+02  0.40906415556E+02  0.66249714127E+01  0.45045682660E+02  0.00000000000E+00 0.  1.
         11    1    3    3    0    0 -0.11906374287E+02 -0.20502232351E+02 -0.55083955548E+01  0.24340207516E+02  0.51100000000E-03 0. -1.
        -11    1    3    3    0    0 -0.11480316898E+01 -0.78543074309E+01  0.17533792541E+01  0.81291119472E+01  0.51100000000E-03 0.  1.
        -12    1    3    3    0    0 -0.46059577358E+01 -0.12549875774E+02 -0.28699551120E+01  0.13672997877E+02  0.00000000000E+00 0.  1.
</event>
<event>
 7    1  0.1519238E-008  0.4614232E+02  0.7816164E-02  0.1320468E+00
        -11   -1    0    0    0    0  0.00000000000E+00  0.00000000000E+00  0.45593999997E+02  0.45594000000E+02  0.51100000000E-03 0.  1.
         11   -1    0    0    0    0 -0.00000000000E+00 -0.00000000000E+00 -0.45593999997E+02  0.45594000000E+02  0.51100000000E-03 0. -1.
    9900012    2    1    2    0    0  0.35904825735E+02  0.91751055796E+01 -0.25608092283E+02  0.46142318033E+02  0.10000002484E+02 0.  0.
        -12    1    1    2    0    0 -0.35904825735E+02 -0.91751055796E+01  0.25608092283E+02  0.45045681967E+02  0.00000000000E+00 0.  1.
         11    1    3    3    0    0  0.31182322091E+02  0.65863564119E+01 -0.22650145867E+02  0.39099186818E+02  0.51100000000E-03 0. -1.
        -11    1    3    3    0    0  0.39372542425E+01  0.34314402992E+01 -0.26181395252E+01  0.58422091996E+01  0.51100000000E-03 0.  1.
         12    1    3    3    0    0  0.78524940119E+00 -0.84269113147E+00 -0.33980689138E+00  0.12009220160E+01  0.00000000000E+00 0. -1.
</event>
<event>
 7    1  0.1519238E-008  0.4614233E+02  0.7816164E-02  0.1320468E+00
        -11   -1    0    0    0    0  0.00000000000E+00  0.00000000000E+00  0.45593999997E+02  0.45594000000E+02  0.51100000000E-03 0.  1.
         11   -1    0    0    0    0 -0.00000000000E+00 -0.00000000000E+00 -0.45593999997E+02  0.45594000000E+02  0.51100000000E-03 0. -1.
    9900012    2    1    2    0    0  0.29522944449E+02  0.14497400934E+01 -0.33991274333E+02  0.46142326223E+02  0.10000077160E+02 0.  0.
        -12    1    1    2    0    0 -0.29522944449E+02 -0.14497400934E+01  0.33991274333E+02  0.45045673777E+02  0.00000000000E+00 0.  1.
         11    1    3    3    0    0  0.10855389777E+02  0.45799921108E+01 -0.99538366410E+01  0.15423834772E+02  0.51100000000E-03 0. -1.
        -11    1    3    3    0    0  0.13950090234E+02 -0.24367098775E+01 -0.15944317452E+02  0.21325192422E+02  0.51100000000E-03 0.  1.
         12    1    3    3    0    0  0.47174644378E+01 -0.69354213988E+00 -0.80931202396E+01  0.93932990283E+01  0.00000000000E+00 0. -1.
</event>
<event>
 7    1  0.1519238E-008  0.4614232E+02  0.7816164E-02  0.1320468E+00
        -11   -1    0    0    0    0  0.00000000000E+00  0.00000000000E+00  0.45593999997E+02  0.45594000000E+02  0.51100000000E-03 0.  1.
         11   -1    0    0    0    0 -0.00000000000E+00 -0.00000000000E+00 -0.45593999997E+02  0.45594000000E+02  0.51100000000E-03 0. -1.
    9900012    2    1    2    0    0  0.13461208017E+02 -0.95464724832E+00 -0.42976709738E+02  0.46142322598E+02  0.10000044109E+02 0.  0.
        -12    1    1    2    0    0 -0.13461208017E+02  0.95464724832E+00  0.42976709738E+02  0.45045677402E+02  0.00000000000E+00 0.  1.
         11    1    3    3    0    0 -0.87285030642E+00 -0.57875465946E+00 -0.72687480552E+00  0.12748222846E+01  0.51100000000E-03 0. -1.
        -11    1    3    3    0    0  0.29060623407E+01  0.23077892376E+00 -0.40488309226E+01  0.49891371339E+01  0.51100000000E-03 0.  1.
         12    1    3    3    0    0  0.11427995983E+02 -0.60667151262E+00 -0.38201004010E+02  0.39878363180E+02  0.00000000000E+00 0. -1.
</event>
<event>
 7    1  0.1519238E-008  0.4614232E+02  0.7816164E-02  0.1320468E+00
        -11   -1    0    0    0    0  0.00000000000E+00  0.00000000000E+00  0.45593999997E+02  0.45594000000E+02  0.51100000000E-03 0.  1.
         11   -1    0    0    0    0 -0.00000000000E+00 -0.00000000000E+00 -0.45593999997E+02  0.45594000000E+02  0.51100000000E-03 0. -1.
    9900012    2    1    2    0    0 -0.11135694069E+02 -0.43394345959E+02 -0.46947580343E+01  0.46142315450E+02  0.99999789269E+01 0.  0.
        -12    1    1    2    0    0  0.11135694069E+02  0.43394345959E+02  0.46947580343E+01  0.45045684550E+02  0.00000000000E+00 0.  1.
         11    1    3    3    0    0 -0.49014018696E+01 -0.19489552501E+02 -0.75969520885E-01  0.20096571066E+02  0.51100000000E-03 0. -1.
        -11    1    3    3    0    0 -0.62038882196E+01 -0.13095325554E+02 -0.47070228524E+01  0.15235873615E+02  0.51100000000E-03 0.  1.
        -12    1    3    3    0    0 -0.30403979773E-01 -0.10809467903E+02  0.88234339060E-01  0.10809870769E+02  0.00000000000E+00 0.  1.
</event>
<event>
 7    1  0.1519238E-008  0.4614232E+02  0.7816164E-02  0.1320468E+00
        -11   -1    0    0    0    0  0.00000000000E+00  0.00000000000E+00  0.45593999997E+02  0.45594000000E+02  0.51100000000E-03 0. -1.
         11   -1    0    0    0    0 -0.00000000000E+00 -0.00000000000E+00 -0.45593999997E+02  0.45594000000E+02  0.51100000000E-03 0.  1.
    9900012    2    1    2    0    0  0.13473756645E+02  0.19062682643E+01  0.42941092629E+02  0.46142318597E+02  0.10000007626E+02 0.  0.
        -12    1    1    2    0    0 -0.13473756645E+02 -0.19062682643E+01 -0.42941092629E+02  0.45045681403E+02  0.00000000000E+00 0.  1.
         11    1    3    3    0    0  0.45784002995E+01  0.26630620675E+01  0.13726893594E+02  0.14713302039E+02  0.51100000000E-03 0. -1.
        -11    1    3    3    0    0 -0.70160336991E+00  0.11451532726E+01  0.74060567813E+01  0.75268386867E+01  0.51100000000E-03 0.  1.
         12    1    3    3    0    0  0.95969597157E+01 -0.19019470758E+01  0.21808142254E+02  0.23902177872E+02  0.00000000000E+00 0. -1.
</event>
<event>
 7    1  0.1519238E-008  0.4614232E+02  0.7816164E-02  0.1320468E+00
        -11   -1    0    0    0    0  0.00000000000E+00  0.00000000000E+00  0.45593999997E+02  0.45594000000E+02  0.51100000000E-03 0.  1.
         11   -1    0    0    0    0 -0.00000000000E+00 -0.00000000000E+00 -0.45593999997E+02  0.45594000000E+02  0.51100000000E-03 0. -1.
    9900012    2    1    2    0    0  0.49014978526E+01 -0.87727566996E+01 -0.43910448700E+02  0.46142318228E+02  0.10000004255E+02 0.  0.
        -12    1    1    2    0    0 -0.49014978526E+01  0.87727566996E+01  0.43910448700E+02  0.45045681772E+02  0.00000000000E+00 0.  1.
         11    1    3    3    0    0  0.20992032490E+01  0.15162821655E+01 -0.45502343048E+01  0.52354940909E+01  0.51100000000E-03 0. -1.
        -11    1    3    3    0    0 -0.12925091012E+00 -0.41303758875E+00 -0.34224485208E+00  0.55175868583E+00  0.51100000000E-03 0.  1.
         12    1    3    3    0    0  0.29315455137E+01 -0.98760012764E+01 -0.39017969543E+02  0.40355065451E+02  0.00000000000E+00 0. -1.
</event>
<event>
 7    1  0.1519238E-008  0.4614232E+02  0.7816164E-02  0.1320468E+00
        -11   -1    0    0    0    0  0.00000000000E+00  0.00000000000E+00  0.45593999997E+02  0.45594000000E+02  0.51100000000E-03 0. -1.
         11   -1    0    0    0    0 -0.00000000000E+00 -0.00000000000E+00 -0.45593999997E+02  0.45594000000E+02  0.51100000000E-03 0.  1.
    9900012    2    1    2    0    0 -0.15764117152E+01  0.44834889032E+02 -0.40572102223E+01  0.46142319816E+02  0.10000018742E+02 0.  0.
        -12    1    1    2    0    0  0.15764117152E+01 -0.44834889032E+02  0.40572102223E+01  0.45045680184E+02  0.00000000000E+00 0.  1.
         11    1    3    3    0    0  0.13847111210E+01  0.84664030214E+01  0.14898840336E+01  0.87073049622E+01  0.51100000000E-03 0. -1.
        -11    1    3    3    0    0 -0.19476601469E+01  0.34679861002E+01  0.35750445874E+00  0.39935094013E+01  0.51100000000E-03 0.  1.
         12    1    3    3    0    0 -0.10134626893E+01  0.32900499910E+02 -0.59045987146E+01  0.33441505453E+02  0.00000000000E+00 0. -1.
</event>
<event>
 7    1  0.1519238E-008  0.4614231E+02  0.7816164E-02  0.1320468E+00
        -11   -1    0    0    0    0  0.00000000000E+00  0.00000000000E+00  0.45593999997E+02  0.45594000000E+02  0.51100000000E-03 0. -1.
         11   -1    0    0    0    0 -0.00000000000E+00 -0.00000000000E+00 -0.45593999997E+02  0.45594000000E+02  0.51100000000E-03 0.  1.
    9900012    2    1    2    0    0  0.42298916071E+02 -0.45691656291E+01 -0.14799940540E+02  0.46142314132E+02  0.99999669049E+01 0.  0.
        -12    1    1    2    0    0 -0.42298916071E+02  0.45691656291E+01  0.14799940540E+02  0.45045685868E+02  0.00000000000E+00 0.  1.
         11    1    3    3    0    0  0.23998203954E+02 -0.44517913998E+01 -0.68343381706E+01  0.25346408388E+02  0.51100000000E-03 0. -1.
        -11    1    3    3    0    0  0.72833147648E+01  0.15447483161E+01 -0.66476359256E+00  0.74749469710E+01  0.51100000000E-03 0.  1.
        -12    1    3    3    0    0  0.11017397352E+02 -0.16621225454E+01 -0.73008387770E+01  0.13320958773E+02  0.00000000000E+00 0.  1.
</event>
<event>
 7    1  0.1519238E-008  0.4614232E+02  0.7816164E-02  0.1320468E+00
        -11   -1    0    0    0    0  0.00000000000E+00  0.00000000000E+00  0.45593999997E+02  0.45594000000E+02  0.51100000000E-03 0.  1.
         11   -1    0    0    0    0 -0.00000000000E+00 -0.00000000000E+00 -0.45593999997E+02  0.45594000000E+02  0.51100000000E-03 0. -1.
    9900012    2    1    2    0    0 -0.27812568087E+02  0.29023720554E+02 -0.20327276579E+02  0.46142317948E+02  0.10000001708E+02 0.  0.
        -12    1    1    2    0    0  0.27812568087E+02 -0.29023720554E+02  0.20327276579E+02  0.45045682052E+02  0.00000000000E+00 0.  1.
         11    1    3    3    0    0 -0.79463514687E+01  0.46146069611E+01 -0.34724691702E+01  0.98232958557E+01  0.51100000000E-03 0. -1.
        -11    1    3    3    0    0 -0.63909328471E+01  0.13113024127E+02 -0.76115060093E+01  0.16453888549E+02  0.51100000000E-03 0.  1.
        -12    1    3    3    0    0 -0.13475283771E+02  0.11296089466E+02 -0.92433014000E+01  0.19865133544E+02  0.00000000000E+00 0.  1.
</event>
<event>
 7    1  0.1519238E-008  0.4614232E+02  0.7816164E-02  0.1320468E+00
        -11   -1    0    0    0    0  0.00000000000E+00  0.00000000000E+00  0.45593999997E+02  0.45594000000E+02  0.51100000000E-03 0.  1.
         11   -1    0    0    0    0 -0.00000000000E+00 -0.00000000000E+00 -0.45593999997E+02  0.45594000000E+02  0.51100000000E-03 0. -1.
    9900012    2    1    2    0    0 -0.70477024036E+01 -0.38978139470E+02 -0.21451061558E+02  0.46142317547E+02  0.99999980431E+01 0.  0.
        -12    1    1    2    0    0  0.70477024036E+01  0.38978139470E+02  0.21451061558E+02  0.45045682453E+02  0.00000000000E+00 0.  1.
         11    1    3    3    0    0 -0.27729947287E+01 -0.20914589988E+02 -0.75281027611E+01  0.22400488958E+02  0.51100000000E-03 0. -1.
        -11    1    3    3    0    0 -0.21965049699E+01 -0.16287374252E+02 -0.12574695046E+02  0.20693625827E+02  0.51100000000E-03 0.  1.
         12    1    3    3    0    0 -0.20782027050E+01 -0.17761752305E+01 -0.13482637517E+01  0.30482027618E+01  0.00000000000E+00 0. -1.
</event>
<event>
 7    1  0.1519238E-008  0.4614232E+02  0.7816164E-02  0.1320468E+00
        -11   -1    0    0    0    0  0.00000000000E+00  0.00000000000E+00  0.45593999997E+02  0.45594000000E+02  0.51100000000E-03 0.  1.
         11   -1    0    0    0    0 -0.00000000000E+00 -0.00000000000E+00 -0.45593999997E+02  0.45594000000E+02  0.51100000000E-03 0. -1.
    9900012    2    1    2    0    0  0.27256377872E+02 -0.20169599168E+02 -0.29654517646E+02  0.46142320051E+02  0.10000020878E+02 0.  0.
        -12    1    1    2    0    0 -0.27256377872E+02  0.20169599168E+02  0.29654517646E+02  0.45045679949E+02  0.00000000000E+00 0.  1.
         11    1    3    3    0    0  0.61870591764E+01 -0.80685402705E+01 -0.83566743320E+01  0.13161118854E+02  0.51100000000E-03 0. -1.
        -11    1    3    3    0    0  0.75683435588E+01 -0.90907626562E+00 -0.71094662736E+01  0.10423567280E+02  0.51100000000E-03 0.  1.
         12    1    3    3    0    0  0.13500975137E+02 -0.11191982632E+02 -0.14188377041E+02  0.22557633916E+02  0.00000000000E+00 0. -1.
</event>
<event>
 7    1  0.1519238E-008  0.4614232E+02  0.7816164E-02  0.1320468E+00
        -11   -1    0    0    0    0  0.00000000000E+00  0.00000000000E+00  0.45593999997E+02  0.45594000000E+02  0.51100000000E-03 0. -1.
         11   -1    0    0    0    0 -0.00000000000E+00 -0.00000000000E+00 -0.45593999997E+02  0.45594000000E+02  0.51100000000E-03 0.  1.
    9900012    2    1    2    0    0  0.20016334724E+02 -0.37323178183E+02 -0.15344061876E+02  0.46142317406E+02  0.99999967643E+01 0.  0.
        -12    1    1    2    0    0 -0.20016334724E+02  0.37323178183E+02  0.15344061876E+02  0.45045682594E+02  0.00000000000E+00 0.  1.
         11    1    3    3    0    0  0.55625294568E+01 -0.18918036004E+02 -0.75900510857E+01  0.21129190613E+02  0.51100000000E-03 0. -1.
        -11    1    3    3    0    0  0.62109790223E+01 -0.10134661708E+02 -0.55995119202E+01  0.13139336450E+02  0.51100000000E-03 0.  1.
         12    1    3    3    0    0  0.82428262450E+01 -0.82704804715E+01 -0.21544988698E+01  0.11873790343E+02  0.00000000000E+00 0. -1.
</event>
<event>
 7    1  0.1519238E-008  0.4614232E+02  0.7816164E-02  0.1320468E+00
        -11   -1    0    0    0    0  0.00000000000E+00  0.00000000000E+00  0.45593999997E+02  0.45594000000E+02  0.51100000000E-03 0.  1.
         11   -1    0    0    0    0 -0.00000000000E+00 -0.00000000000E+00 -0.45593999997E+02  0.45594000000E+02  0.51100000000E-03 0. -1.
    9900012    2    1    2    0    0  0.27068329787E+02  0.25031336918E+02 -0.25881482982E+02  0.46142318001E+02  0.10000002190E+02 0.  0.
        -12    1    1    2    0    0 -0.27068329787E+02 -0.25031336918E+02  0.25881482982E+02  0.45045681999E+02  0.00000000000E+00 0.  1.
         11    1    3    3    0    0  0.86696234082E+00  0.28623325176E-01 -0.17872913695E+00  0.88565645747E+00  0.51100000000E-03 0.  1.
        -11    1    3    3    0    0  0.79487701222E+01  0.13174308900E+02 -0.12397475385E+02  0.19759624431E+02  0.51100000000E-03 0. -1.
        -12    1    3    3    0    0  0.18252597324E+02  0.11828404693E+02 -0.13305278460E+02  0.25497037113E+02  0.00000000000E+00 0.  1.
</event>
<event>
 7    1  0.1519238E-008  0.4614232E+02  0.7816164E-02  0.1320468E+00
        -11   -1    0    0    0    0  0.00000000000E+00  0.00000000000E+00  0.45593999997E+02  0.45594000000E+02  0.51100000000E-03 0. -1.
         11   -1    0    0    0    0 -0.00000000000E+00 -0.00000000000E+00 -0.45593999997E+02  0.45594000000E+02  0.51100000000E-03 0.  1.
    9900012    2    1    2    0    0  0.16050879732E+02 -0.35073923202E+02 -0.23265907954E+02  0.46142319831E+02  0.10000018877E+02 0.  0.
        -12    1    1    2    0    0 -0.16050879732E+02  0.35073923202E+02  0.23265907954E+02  0.45045680169E+02  0.00000000000E+00 0.  1.
         11    1    3    3    0    0  0.63066644865E+01 -0.12252283372E+02 -0.13171430396E+02  0.19062503605E+02  0.51100000000E-03 0. -1.
        -11    1    3    3    0    0  0.99579893687E+01 -0.22694274115E+02 -0.97003120024E+01  0.26613674738E+02  0.51100000000E-03 0.  1.
        -12    1    3    3    0    0 -0.21377412298E+00 -0.12736571475E+00 -0.39416555600E+00  0.46614148763E+00  0.00000000000E+00 0.  1.
</event>
<event>
 7    1  0.1519238E-008  0.4614232E+02  0.7816164E-02  0.1320468E+00
        -11   -1    0    0    0    0  0.00000000000E+00  0.00000000000E+00  0.45593999997E+02  0.45594000000E+02  0.51100000000E-03 0.  1.
         11   -1    0    0    0    0 -0.00000000000E+00 -0.00000000000E+00 -0.45593999997E+02  0.45594000000E+02  0.51100000000E-03 0. -1.
    9900012    2    1    2    0    0 -0.43926416748E+02  0.47637445178E+01  0.87686954001E+01  0.46142319084E+02  0.10000012066E+02 0.  0.
        -12    1    1    2    0    0  0.43926416748E+02 -0.47637445178E+01 -0.87686954001E+01  0.45045680916E+02  0.00000000000E+00 0.  1.
         11    1    3    3    0    0 -0.23945733255E+02  0.68298266669E+01  0.46565281353E+01  0.25332349436E+02  0.51100000000E-03 0. -1.
        -11    1    3    3    0    0 -0.89192097923E+01 -0.95810324508E+00  0.36466404999E+01  0.96834008666E+01  0.51100000000E-03 0.  1.
         12    1    3    3    0    0 -0.11061473701E+02 -0.11079789040E+01  0.46552676488E+00  0.11126568782E+02  0.00000000000E+00 0. -1.
</event>
<event>
 7    1  0.1519238E-008  0.4614232E+02  0.7816164E-02  0.1320468E+00
        -11   -1    0    0    0    0  0.00000000000E+00  0.00000000000E+00  0.45593999997E+02  0.45594000000E+02  0.51100000000E-03 0.  1.
         11   -1    0    0    0    0 -0.00000000000E+00 -0.00000000000E+00 -0.45593999997E+02  0.45594000000E+02  0.51100000000E-03 0. -1.
    9900012    2    1    2    0    0  0.37997979540E+02  0.17926358953E+02 -0.16245394508E+02  0.46142316109E+02  0.99999849382E+01 0.  0.
        -12    1    1    2    0    0 -0.37997979540E+02 -0.17926358953E+02  0.16245394508E+02  0.45045683891E+02  0.00000000000E+00 0.  1.
         11    1    3    3    0    0  0.24400769042E+02  0.11760774304E+02 -0.65882933464E+01  0.27876853329E+02  0.51100000000E-03 0. -1.
        -11    1    3    3    0    0  0.14634227286E+01 -0.42735693095E+00 -0.22175859485E+00  0.15405898755E+01  0.51100000000E-03 0.  1.
         12    1    3    3    0    0  0.12133787770E+02  0.65929415803E+01 -0.94353425671E+01  0.16724872905E+02  0.00000000000E+00 0. -1.
</event>
<event>
 7    1  0.1519238E-008  0.4614232E+02  0.7816164E-02  0.1320468E+00
        -11   -1    0    0    0    0  0.00000000000E+00  0.00000000000E+00  0.45593999997E+02  0.45594000000E+02  0.51100000000E-03 0.  1.
         11   -1    0    0    0    0 -0.00000000000E+00 -0.00000000000E+00 -0.45593999997E+02  0.45594000000E+02  0.51100000000E-03 0. -1.
    9900012    2    1    2    0    0 -0.16014533072E+02  0.19399031548E+02 -0.37367442333E+02  0.46142318286E+02  0.10000004788E+02 0.  0.
        -12    1    1    2    0    0  0.16014533072E+02 -0.19399031548E+02  0.37367442333E+02  0.45045681714E+02  0.00000000000E+00 0.  1.
         11    1    3    3    0    0 -0.93459780826E+01  0.11838667257E+02 -0.16366962053E+02  0.22257106637E+02  0.51100000000E-03 0. -1.
        -11    1    3    3    0    0 -0.41347113225E+01  0.12169289808E+01 -0.10593366631E+02  0.11436615352E+02  0.51100000000E-03 0.  1.
        -12    1    3    3    0    0 -0.25338436671E+01  0.63434353103E+01 -0.10407113650E+02  0.12448596298E+02  0.00000000000E+00 0.  1.
</event>
<event>
 7    1  0.1519238E-008  0.4614232E+02  0.7816164E-02  0.1320468E+00
        -11   -1    0    0    0    0  0.00000000000E+00  0.00000000000E+00  0.45593999997E+02  0.45594000000E+02  0.51100000000E-03 0.  1.
         11   -1    0    0    0    0 -0.00000000000E+00 -0.00000000000E+00 -0.45593999997E+02  0.45594000000E+02  0.51100000000E-03 0. -1.
    9900012    2    1    2    0    0  0.78826557579E+01  0.71390589731E+01 -0.43772264169E+02  0.46142317240E+02  0.99999952460E+01 0.  0.
        -12    1    1    2    0    0 -0.78826557579E+01 -0.71390589731E+01  0.43772264169E+02  0.45045682760E+02  0.00000000000E+00 0.  1.
         11    1    3    3    0    0  0.26815502045E+01  0.22075389984E+00 -0.34483336967E+01  0.43738369114E+01  0.51100000000E-03 0. -1.
        -11    1    3    3    0    0  0.60572570158E+01  0.36206975899E+01 -0.32104463852E+02  0.32870905267E+02  0.51100000000E-03 0.  1.
        -12    1    3    3    0    0 -0.85615146234E+00  0.32976074833E+01 -0.82194666208E+01  0.88975750613E+01  0.00000000000E+00 0.  1.
</event>
<event>
 7    1  0.1519238E-008  0.4614232E+02  0.7816164E-02  0.1320468E+00
        -11   -1    0    0    0    0  0.00000000000E+00  0.00000000000E+00  0.45593999997E+02  0.45594000000E+02  0.51100000000E-03 0. -1.
         11   -1    0    0    0    0 -0.00000000000E+00 -0.00000000000E+00 -0.45593999997E+02  0.45594000000E+02  0.51100000000E-03 0.  1.
    9900012    2    1    2    0    0 -0.30698109921E+02 -0.29885432367E+02 -0.13914039365E+02  0.46142317499E+02  0.99999976093E+01 0.  0.
        -12    1    1    2    0    0  0.30698109921E+02  0.29885432367E+02  0.13914039365E+02  0.45045682501E+02  0.00000000000E+00 0.  1.
         11    1    3    3    0    0 -0.36712962130E+01 -0.67781400711E+01 -0.97925416950E+00  0.77704914707E+01  0.51100000000E-03 0. -1.
        -11    1    3    3    0    0 -0.24837449704E+02 -0.20227528011E+02 -0.13405070100E+02  0.34723877978E+02  0.51100000000E-03 0.  1.
        -12    1    3    3    0    0 -0.21893640044E+01 -0.28797642853E+01  0.47028490371E+00  0.36479480498E+01  0.00000000000E+00 0.  1.
</event>
<event>
 7    1  0.1519238E-008  0.4614232E+02  0.7816164E-02  0.1320468E+00
        -11   -1    0    0    0    0  0.00000000000E+00  0.00000000000E+00  0.45593999997E+02  0.45594000000E+02  0.51100000000E-03 0. -1.
         11   -1    0    0    0    0 -0.00000000000E+00 -0.00000000000E+00 -0.45593999997E+02  0.45594000000E+02  0.51100000000E-03 0.  1.
    9900012    2    1    2    0    0  0.25553073182E+02  0.10187291614E+02  0.35670336171E+02  0.46142319385E+02  0.10000014809E+02 0.  0.
        -12    1    1    2    0    0 -0.25553073182E+02 -0.10187291614E+02 -0.35670336171E+02  0.45045680615E+02  0.00000000000E+00 0.  1.
         11    1    3    3    0    0  0.11304557774E+01  0.27259976412E-01  0.58980405909E+01  0.60054605522E+01  0.51100000000E-03 0.  1.
        -11    1    3    3    0    0  0.24267872417E+02  0.10577411079E+02  0.29278187436E+02  0.39471806604E+02  0.51100000000E-03 0. -1.
         12    1    3    3    0    0  0.15474498781E+00 -0.41737944088E+00  0.49410814414E+00  0.66505222880E+00  0.00000000000E+00 0. -1.
</event>
<event>
 7    1  0.1519238E-008  0.4614232E+02  0.7816164E-02  0.1320468E+00
        -11   -1    0    0    0    0  0.00000000000E+00  0.00000000000E+00  0.45593999997E+02  0.45594000000E+02  0.51100000000E-03 0.  1.
         11   -1    0    0    0    0 -0.00000000000E+00 -0.00000000000E+00 -0.45593999997E+02  0.45594000000E+02  0.51100000000E-03 0. -1.
    9900012    2    1    2    0    0 -0.15045915098E+01  0.24303248343E+02 -0.37897253130E+02  0.46142317960E+02  0.10000001815E+02 0.  0.
        -12    1    1    2    0    0  0.15045915098E+01 -0.24303248343E+02  0.37897253130E+02  0.45045682040E+02  0.00000000000E+00 0.  1.
         11    1    3    3    0    0 -0.37164599793E+01  0.21938897447E+02 -0.33757149348E+02  0.40431082453E+02  0.51100000000E-03 0. -1.
        -11    1    3    3    0    0  0.12127380259E+01  0.45410032513E+00 -0.33452417620E+00  0.13374779663E+01  0.51100000000E-03 0.  1.
         12    1    3    3    0    0  0.99913044365E+00  0.19102505703E+01 -0.38055796060E+01  0.43737575404E+01  0.00000000000E+00 0. -1.
</event>
<event>
 7    1  0.1519238E-008  0.4614232E+02  0.7816164E-02  0.1320468E+00
        -11   -1    0    0    0    0  0.00000000000E+00  0.00000000000E+00  0.45593999997E+02  0.45594000000E+02  0.51100000000E-03 0.  1.
         11   -1    0    0    0    0 -0.00000000000E+00 -0.00000000000E+00 -0.45593999997E+02  0.45594000000E+02  0.51100000000E-03 0. -1.
    9900012    2    1    2    0    0  0.18149891714E+02  0.39461358552E+02 -0.11937167392E+02  0.46142319260E+02  0.10000013667E+02 0.  0.
        -12    1    1    2    0    0 -0.18149891714E+02 -0.39461358552E+02  0.11937167392E+02  0.45045680740E+02  0.00000000000E+00 0.  1.
         11    1    3    3    0    0  0.11455253795E+02  0.20898571791E+02 -0.60983807640E+01  0.24600068915E+02  0.51100000000E-03 0. -1.
        -11    1    3    3    0    0  0.35309111463E+00  0.61454258493E+01 -0.43127446688E+01  0.75160294733E+01  0.51100000000E-03 0.  1.
         12    1    3    3    0    0  0.63415468047E+01  0.12417360912E+02 -0.15260419594E+01  0.14026220872E+02  0.00000000000E+00 0. -1.
</event>
<event>
 7    1  0.1519238E-008  0.4614232E+02  0.7816164E-02  0.1320468E+00
        -11   -1    0    0    0    0  0.00000000000E+00  0.00000000000E+00  0.45593999997E+02  0.45594000000E+02  0.51100000000E-03 0.  1.
         11   -1    0    0    0    0 -0.00000000000E+00 -0.00000000000E+00 -0.45593999997E+02  0.45594000000E+02  0.51100000000E-03 0. -1.
    9900012    2    1    2    0    0  0.11451928932E+02 -0.16680426974E+02 -0.40245870868E+02  0.46142318274E+02  0.10000004674E+02 0.  0.
        -12    1    1    2    0    0 -0.11451928932E+02  0.16680426974E+02  0.40245870868E+02  0.45045681726E+02  0.00000000000E+00 0.  1.
         11    1    3    3    0    0  0.90445732717E+01 -0.11271532402E+02 -0.20380798134E+02  0.24984568862E+02  0.51100000000E-03 0. -1.
        -11    1    3    3    0    0  0.15065618147E+01 -0.54633362405E+01 -0.19246818034E+02  0.20063842505E+02  0.51100000000E-03 0.  1.
         12    1    3    3    0    0  0.90079384570E+00  0.54441668447E-01 -0.61825469958E+00  0.10939069070E+01  0.00000000000E+00 0. -1.
</event>
<event>
 7    1  0.1519238E-008  0.4614232E+02  0.7816164E-02  0.1320468E+00
        -11   -1    0    0    0    0  0.00000000000E+00  0.00000000000E+00  0.45593999997E+02  0.45594000000E+02  0.51100000000E-03 0.  1.
         11   -1    0    0    0    0 -0.00000000000E+00 -0.00000000000E+00 -0.45593999997E+02  0.45594000000E+02  0.51100000000E-03 0. -1.
    9900012    2    1    2    0    0 -0.12513768968E+02  0.32907961315E+02 -0.28099560351E+02  0.46142316260E+02  0.99999863071E+01 0.  0.
        -12    1    1    2    0    0  0.12513768968E+02 -0.32907961315E+02  0.28099560351E+02  0.45045683740E+02  0.00000000000E+00 0.  1.
         11    1    3    3    0    0 -0.29239817192E+01  0.69170900478E+01 -0.10065584542E+02  0.12558335728E+02  0.51100000000E-03 0. -1.
        -11    1    3    3    0    0 -0.22305365566E+01  0.11362910608E+02 -0.48215961534E+01  0.12543477211E+02  0.51100000000E-03 0.  1.
        -12    1    3    3    0    0 -0.73592506925E+01  0.14627960660E+02 -0.13212379655E+02  0.21040503320E+02  0.00000000000E+00 0.  1.
</event>
<event>
 7    1  0.1519238E-008  0.4614232E+02  0.7816164E-02  0.1320468E+00
        -11   -1    0    0    0    0  0.00000000000E+00  0.00000000000E+00  0.45593999997E+02  0.45594000000E+02  0.51100000000E-03 0. -1.
         11   -1    0    0    0    0 -0.00000000000E+00 -0.00000000000E+00 -0.45593999997E+02  0.45594000000E+02  0.51100000000E-03 0.  1.
    9900012    2    1    2    0    0  0.20623811740E+02 -0.22798239346E+02  0.32924339237E+02  0.46142318274E+02  0.10000004676E+02 0.  0.
        -12    1    1    2    0    0 -0.20623811740E+02  0.22798239346E+02 -0.32924339237E+02  0.45045681726E+02  0.00000000000E+00 0.  1.
         11    1    3    3    0    0  0.16605603990E+02 -0.14027782387E+02  0.18037611193E+02  0.28246772919E+02  0.51100000000E-03 0. -1.
        -11    1    3    3    0    0  0.41457957349E+01 -0.84720828254E+01  0.13481976632E+02  0.16453799071E+02  0.51100000000E-03 0.  1.
         12    1    3    3    0    0 -0.12758798486E+00 -0.29837413381E+00  0.14047514123E+01  0.14417462842E+01  0.00000000000E+00 0. -1.
</event>
<event>
 7    1  0.1519238E-008  0.4614232E+02  0.7816164E-02  0.1320468E+00
        -11   -1    0    0    0    0  0.00000000000E+00  0.00000000000E+00  0.45593999997E+02  0.45594000000E+02  0.51100000000E-03 0.  1.
         11   -1    0    0    0    0 -0.00000000000E+00 -0.00000000000E+00 -0.45593999997E+02  0.45594000000E+02  0.51100000000E-03 0. -1.
    9900012    2    1    2    0    0  0.21434568558E+02 -0.37268955864E+02 -0.13442385430E+02  0.46142317337E+02  0.99999961362E+01 0.  0.
        -12    1    1    2    0    0 -0.21434568558E+02  0.37268955864E+02  0.13442385430E+02  0.45045682663E+02  0.00000000000E+00 0.  1.
         11    1    3    3    0    0  0.92684979581E+01 -0.24771411224E+02 -0.60472959844E+01  0.27131119723E+02  0.51100000000E-03 0. -1.
        -11    1    3    3    0    0  0.98246260203E+01 -0.10879456478E+02 -0.59676501637E+01  0.15827150673E+02  0.51100000000E-03 0.  1.
         12    1    3    3    0    0  0.23414445798E+01 -0.16180881620E+01 -0.14274392816E+01  0.31840469411E+01  0.00000000000E+00 0. -1.
</event>
<event>
 7    1  0.1519238E-008  0.4614232E+02  0.7816164E-02  0.1320468E+00
        -11   -1    0    0    0    0  0.00000000000E+00  0.00000000000E+00  0.45593999997E+02  0.45594000000E+02  0.51100000000E-03 0.  1.
         11   -1    0    0    0    0 -0.00000000000E+00 -0.00000000000E+00 -0.45593999997E+02  0.45594000000E+02  0.51100000000E-03 0. -1.
    9900012    2    1    2    0    0  0.45740779137E+01 -0.15018784455E+02 -0.42221172832E+02  0.46142317514E+02  0.99999977508E+01 0.  0.
        -12    1    1    2    0    0 -0.45740779137E+01  0.15018784455E+02  0.42221172832E+02  0.45045682486E+02  0.00000000000E+00 0.  1.
         11    1    3    3    0    0  0.25774991885E+01 -0.26331789517E+01 -0.13630634584E+02  0.14119891391E+02  0.51100000000E-03 0. -1.
        -11    1    3    3    0    0 -0.66100266023E+00 -0.10424751690E+02 -0.16840309069E+02  0.19816871148E+02  0.51100000000E-03 0.  1.
        -12    1    3    3    0    0  0.26575813855E+01 -0.19608538140E+01 -0.11750229179E+02  0.12205554976E+02  0.00000000000E+00 0.  1.
</event>
<event>
 7    1  0.1519238E-008  0.4614232E+02  0.7816164E-02  0.1320468E+00
        -11   -1    0    0    0    0  0.00000000000E+00  0.00000000000E+00  0.45593999997E+02  0.45594000000E+02  0.51100000000E-03 0.  1.
         11   -1    0    0    0    0 -0.00000000000E+00 -0.00000000000E+00 -0.45593999997E+02  0.45594000000E+02  0.51100000000E-03 0. -1.
    9900012    2    1    2    0    0 -0.21618549831E+01 -0.24154946020E+02 -0.37960223284E+02  0.46142316678E+02  0.99999901213E+01 0.  0.
        -12    1    1    2    0    0  0.21618549831E+01  0.24154946020E+02  0.37960223284E+02  0.45045683322E+02  0.00000000000E+00 0.  1.
         11    1    3    3    0    0 -0.20523356639E+01 -0.90297716480E+01 -0.18742396906E+02  0.20905173995E+02  0.51100000000E-03 0. -1.
        -11    1    3    3    0    0 -0.15743659468E+01 -0.12593667430E+02 -0.18099395974E+02  0.22105818744E+02  0.51100000000E-03 0.  1.
        -12    1    3    3    0    0  0.14648466276E+01 -0.25315069428E+01 -0.11184304034E+01  0.31313239390E+01  0.00000000000E+00 0.  1.
</event>
<event>
 7    1  0.1519238E-008  0.4614232E+02  0.7816164E-02  0.1320468E+00
        -11   -1    0    0    0    0  0.00000000000E+00  0.00000000000E+00  0.45593999997E+02  0.45594000000E+02  0.51100000000E-03 0.  1.
         11   -1    0    0    0    0 -0.00000000000E+00 -0.00000000000E+00 -0.45593999997E+02  0.45594000000E+02  0.51100000000E-03 0. -1.
    9900012    2    1    2    0    0 -0.37102771886E+01  0.30494964561E+02 -0.32945477715E+02  0.46142317385E+02  0.99999965713E+01 0.  0.
        -12    1    1    2    0    0  0.37102771886E+01 -0.30494964561E+02  0.32945477715E+02  0.45045682615E+02  0.00000000000E+00 0.  1.
         11    1    3    3    0    0  0.11840292107E+01  0.22315523800E+01 -0.26119591755E+01  0.36337421747E+01  0.51100000000E-03 0. -1.
        -11    1    3    3    0    0 -0.34481516205E+01  0.65084859964E+01 -0.11713421205E+02  0.13836703948E+02  0.51100000000E-03 0.  1.
        -12    1    3    3    0    0 -0.14461547788E+01  0.21754926185E+02 -0.18620097334E+02  0.28671871262E+02  0.00000000000E+00 0.  1.
</event>
<event>
 7    1  0.1519238E-008  0.4614232E+02  0.7816164E-02  0.1320468E+00
        -11   -1    0    0    0    0  0.00000000000E+00  0.00000000000E+00  0.45593999997E+02  0.45594000000E+02  0.51100000000E-03 0.  1.
         11   -1    0    0    0    0 -0.00000000000E+00 -0.00000000000E+00 -0.45593999997E+02  0.45594000000E+02  0.51100000000E-03 0. -1.
    9900012    2    1    2    0    0 -0.28974922959E+02  0.10851878747E+02 -0.32738411484E+02  0.46142322967E+02  0.10000047473E+02 0.  0.
        -12    1    1    2    0    0  0.28974922959E+02 -0.10851878747E+02  0.32738411484E+02  0.45045677033E+02  0.00000000000E+00 0.  1.
         11    1    3    3    0    0 -0.44424929672E+01  0.17324337454E+01 -0.54367119755E+01  0.72315218185E+01  0.51100000000E-03 0. -1.
        -11    1    3    3    0    0 -0.43377745860E+01 -0.17593524997E+01 -0.59712507556E+01  0.75873213603E+01  0.51100000000E-03 0.  1.
        -12    1    3    3    0    0 -0.20194655406E+02  0.10878797501E+02 -0.21330448753E+02  0.31323479788E+02  0.00000000000E+00 0.  1.
</event>
<event>
 7    1  0.1519238E-008  0.4614232E+02  0.7816164E-02  0.1320468E+00
        -11   -1    0    0    0    0  0.00000000000E+00  0.00000000000E+00  0.45593999997E+02  0.45594000000E+02  0.51100000000E-03 0. -1.
         11   -1    0    0    0    0 -0.00000000000E+00 -0.00000000000E+00 -0.45593999997E+02  0.45594000000E+02  0.51100000000E-03 0.  1.
    9900012    2    1    2    0    0 -0.13334588101E+02 -0.39032953035E+02 -0.18103337885E+02  0.46142317576E+02  0.99999983106E+01 0.  0.
        -12    1    1    2    0    0  0.13334588101E+02  0.39032953035E+02  0.18103337885E+02  0.45045682424E+02  0.00000000000E+00 0.  1.
         11    1    3    3    0    0 -0.47306594167E+01 -0.45962582298E+01 -0.12797196581E+01  0.67188102292E+01  0.51100000000E-03 0. -1.
        -11    1    3    3    0    0 -0.21697794634E+01 -0.14270930520E+02 -0.78639000629E+01  0.16438014639E+02  0.51100000000E-03 0.  1.
         12    1    3    3    0    0 -0.64341492214E+01 -0.20165764285E+02 -0.89597181643E+01  0.22985492707E+02  0.00000000000E+00 0. -1.
</event>
<event>
 7    1  0.1519238E-008  0.4614232E+02  0.7816164E-02  0.1320468E+00
        -11   -1    0    0    0    0  0.00000000000E+00  0.00000000000E+00  0.45593999997E+02  0.45594000000E+02  0.51100000000E-03 0. -1.
         11   -1    0    0    0    0 -0.00000000000E+00 -0.00000000000E+00 -0.45593999997E+02  0.45594000000E+02  0.51100000000E-03 0.  1.
    9900012    2    1    2    0    0 -0.31061637584E+02  0.30874478378E+02  0.10538256544E+02  0.46142316572E+02  0.99999891590E+01 0.  0.
        -12    1    1    2    0    0  0.31061637584E+02 -0.30874478378E+02 -0.10538256544E+02  0.45045683428E+02  0.00000000000E+00 0.  1.
         11    1    3    3    0    0 -0.98139312643E+01  0.95657927609E+01  0.44907513804E+01  0.14421667248E+02  0.51100000000E-03 0. -1.
        -11    1    3    3    0    0 -0.91014181957E+01  0.11338384480E+02 -0.83905531476E+00  0.14563611842E+02  0.51100000000E-03 0.  1.
        -12    1    3    3    0    0 -0.12146288124E+02  0.99703011371E+01  0.68865604779E+01  0.17157037482E+02  0.00000000000E+00 0.  1.
</event>
<event>
 7    1  0.1519238E-008  0.4614232E+02  0.7816164E-02  0.1320468E+00
        -11   -1    0    0    0    0  0.00000000000E+00  0.00000000000E+00  0.45593999997E+02  0.45594000000E+02  0.51100000000E-03 0.  1.
         11   -1    0    0    0    0 -0.00000000000E+00 -0.00000000000E+00 -0.45593999997E+02  0.45594000000E+02  0.51100000000E-03 0. -1.
    9900012    2    1    2    0    0 -0.21110530769E+02  0.32144984278E+01 -0.39662648299E+02  0.46142321188E+02  0.10000031250E+02 0.  0.
        -12    1    1    2    0    0  0.21110530769E+02 -0.32144984278E+01  0.39662648299E+02  0.45045678812E+02  0.00000000000E+00 0.  1.
         11    1    3    3    0    0 -0.45716405033E+01  0.41848016926E+01 -0.14388994806E+02  0.15667023773E+02  0.51100000000E-03 0. -1.
        -11    1    3    3    0    0 -0.56621324937E+00 -0.65421433682E+00 -0.50631035438E+00  0.10024690910E+01  0.51100000000E-03 0.  1.
         12    1    3    3    0    0 -0.15972677017E+02 -0.31608892794E+00 -0.24767343139E+02  0.29472828324E+02  0.00000000000E+00 0. -1.
</event>
<event>
 7    1  0.1519238E-008  0.4614232E+02  0.7816164E-02  0.1320468E+00
        -11   -1    0    0    0    0  0.00000000000E+00  0.00000000000E+00  0.45593999997E+02  0.45594000000E+02  0.51100000000E-03 0.  1.
         11   -1    0    0    0    0 -0.00000000000E+00 -0.00000000000E+00 -0.45593999997E+02  0.45594000000E+02  0.51100000000E-03 0. -1.
    9900012    2    1    2    0    0  0.77189118220E+01 -0.44224919270E+02 -0.36998001246E+01  0.46142316465E+02  0.99999881830E+01 0.  0.
        -12    1    1    2    0    0 -0.77189118220E+01  0.44224919270E+02  0.36998001246E+01  0.45045683535E+02  0.00000000000E+00 0.  1.
         11    1    3    3    0    0  0.49647272022E+01 -0.22218072299E+02 -0.53835834660E+00  0.22772375433E+02  0.51100000000E-03 0. -1.
        -11    1    3    3    0    0 -0.18113632749E+01 -0.58663466092E+01 -0.23581652535E+01  0.65769296086E+01  0.51100000000E-03 0.  1.
        -12    1    3    3    0    0  0.45655478947E+01 -0.16140500361E+02 -0.80327652449E+00  0.16793011424E+02  0.00000000000E+00 0.  1.
</event>
<event>
 7    1  0.1519238E-008  0.4614232E+02  0.7816164E-02  0.1320468E+00
        -11   -1    0    0    0    0  0.00000000000E+00  0.00000000000E+00  0.45593999997E+02  0.45594000000E+02  0.51100000000E-03 0.  1.
         11   -1    0    0    0    0 -0.00000000000E+00 -0.00000000000E+00 -0.45593999997E+02  0.45594000000E+02  0.51100000000E-03 0. -1.
    9900012    2    1    2    0    0  0.39784549456E+02  0.18948001608E+02 -0.93421834234E+01  0.46142317283E+02  0.99999956409E+01 0.  0.
        -12    1    1    2    0    0 -0.39784549456E+02 -0.18948001608E+02  0.93421834234E+01  0.45045682717E+02  0.00000000000E+00 0.  1.
         11    1    3    3    0    0  0.26870475440E+02  0.12602959770E+02 -0.98899056624E+01  0.31283658347E+02  0.51100000000E-03 0. -1.
        -11    1    3    3    0    0  0.32470708480E+01  0.33935213642E+01  0.70819793742E+00  0.47498421995E+01  0.51100000000E-03 0.  1.
         12    1    3    3    0    0  0.96670031681E+01  0.29515204735E+01 -0.16047569839E+00  0.10108816736E+02  0.00000000000E+00 0. -1.
</event>
<event>
 7    1  0.1519238E-008  0.4614232E+02  0.7816164E-02  0.1320468E+00
        -11   -1    0    0    0    0  0.00000000000E+00  0.00000000000E+00  0.45593999997E+02  0.45594000000E+02  0.51100000000E-03 0.  1.
         11   -1    0    0    0    0 -0.00000000000E+00 -0.00000000000E+00 -0.45593999997E+02  0.45594000000E+02  0.51100000000E-03 0. -1.
    9900012    2    1    2    0    0  0.38778897494E+02 -0.21327112750E+02  0.83943358608E+01  0.46142317591E+02  0.99999984493E+01 0.  0.
        -12    1    1    2    0    0 -0.38778897494E+02  0.21327112750E+02 -0.83943358608E+01  0.45045682409E+02  0.00000000000E+00 0.  1.
         11    1    3    3    0    0  0.67906381791E+00 -0.32642536672E+00  0.12980143710E+01  0.15008406835E+01  0.51100000000E-03 0. -1.
        -11    1    3    3    0    0  0.18546450309E+02 -0.14182246257E+02  0.44008967143E+01  0.23758678838E+02  0.51100000000E-03 0.  1.
         12    1    3    3    0    0  0.19553383367E+02 -0.68184411268E+01  0.26954247755E+01  0.20882798070E+02  0.00000000000E+00 0. -1.
</event>
<event>
 7    1  0.1519238E-008  0.4614232E+02  0.7816164E-02  0.1320468E+00
        -11   -1    0    0    0    0  0.00000000000E+00  0.00000000000E+00  0.45593999997E+02  0.45594000000E+02  0.51100000000E-03 0.  1.
         11   -1    0    0    0    0 -0.00000000000E+00 -0.00000000000E+00 -0.45593999997E+02  0.45594000000E+02  0.51100000000E-03 0. -1.
    9900012    2    1    2    0    0 -0.30428800891E+02  0.28077473220E+02 -0.17744211209E+02  0.46142318104E+02  0.10000003122E+02 0.  0.
        -12    1    1    2    0    0  0.30428800891E+02 -0.28077473220E+02  0.17744211209E+02  0.45045681896E+02  0.00000000000E+00 0.  1.
         11    1    3    3    0    0 -0.54636363967E+01  0.45831170611E+01 -0.32373553903E+00  0.71387036380E+01  0.51100000000E-03 0. -1.
        -11    1    3    3    0    0 -0.94788255342E+00  0.19096930571E+01 -0.28960471476E+01  0.35961782839E+01  0.51100000000E-03 0.  1.
         12    1    3    3    0    0 -0.24017281941E+02  0.21584663102E+02 -0.14524428522E+02  0.35407436182E+02  0.00000000000E+00 0. -1.
</event>
<event>
 7    1  0.1519238E-008  0.4614232E+02  0.7816164E-02  0.1320468E+00
        -11   -1    0    0    0    0  0.00000000000E+00  0.00000000000E+00  0.45593999997E+02  0.45594000000E+02  0.51100000000E-03 0.  1.
         11   -1    0    0    0    0 -0.00000000000E+00 -0.00000000000E+00 -0.45593999997E+02  0.45594000000E+02  0.51100000000E-03 0. -1.
    9900012    2    1    2    0    0 -0.39321929655E+02 -0.19052002604E+02 -0.10950819354E+02  0.46142318747E+02  0.10000008991E+02 0.  0.
        -12    1    1    2    0    0  0.39321929655E+02  0.19052002604E+02  0.10950819354E+02  0.45045681253E+02  0.00000000000E+00 0.  1.
         11    1    3    3    0    0 -0.56046059705E+00 -0.32754959145E+00 -0.13180365927E+01  0.14692261693E+01  0.51100000000E-03 0.  1.
        -11    1    3    3    0    0 -0.71831759335E+01 -0.55165807186E+01  0.20108500115E+00  0.90593109426E+01  0.51100000000E-03 0. -1.
         12    1    3    3    0    0 -0.31578293124E+02 -0.13207872294E+02 -0.98338677627E+01  0.35613781635E+02  0.00000000000E+00 0. -1.
</event>
<event>
 7    1  0.1519238E-008  0.4614232E+02  0.7816164E-02  0.1320468E+00
        -11   -1    0    0    0    0  0.00000000000E+00  0.00000000000E+00  0.45593999997E+02  0.45594000000E+02  0.51100000000E-03 0. -1.
         11   -1    0    0    0    0 -0.00000000000E+00 -0.00000000000E+00 -0.45593999997E+02  0.45594000000E+02  0.51100000000E-03 0.  1.
    9900012    2    1    2    0    0 -0.19384447997E+02  0.20743553762E+02  0.34972297035E+02  0.46142318668E+02  0.10000008267E+02 0.  0.
        -12    1    1    2    0    0  0.19384447997E+02 -0.20743553762E+02 -0.34972297035E+02  0.45045681332E+02  0.00000000000E+00 0.  1.
         11    1    3    3    0    0 -0.13221125956E+02  0.12118135828E+02  0.26293923591E+02  0.31827940643E+02  0.51100000000E-03 0. -1.
        -11    1    3    3    0    0 -0.44406469763E+01  0.46234611403E+01  0.27951280212E+01  0.69934597590E+01  0.51100000000E-03 0.  1.
        -12    1    3    3    0    0 -0.17226750649E+01  0.40019567941E+01  0.58832454221E+01  0.73209182660E+01  0.00000000000E+00 0.  1.
</event>
<event>
 7    1  0.1519238E-008  0.4614232E+02  0.7816164E-02  0.1320468E+00
        -11   -1    0    0    0    0  0.00000000000E+00  0.00000000000E+00  0.45593999997E+02  0.45594000000E+02  0.51100000000E-03 0.  1.
         11   -1    0    0    0    0 -0.00000000000E+00 -0.00000000000E+00 -0.45593999997E+02  0.45594000000E+02  0.51100000000E-03 0. -1.
    9900012    2    1    2    0    0 -0.17303783619E+02 -0.41578257677E+02  0.97018433690E+00  0.46142315450E+02  0.99999789249E+01 0.  0.
        -12    1    1    2    0    0  0.17303783619E+02  0.41578257677E+02 -0.97018433690E+00  0.45045684550E+02  0.00000000000E+00 0.  1.
         11    1    3    3    0    0 -0.94276405118E+01 -0.17943927701E+02 -0.24082575068E+01  0.20412365160E+02  0.51100000000E-03 0. -1.
        -11    1    3    3    0    0 -0.58996084316E+01 -0.98621425025E+01  0.38625243944E+00  0.11498540151E+02  0.51100000000E-03 0.  1.
        -12    1    3    3    0    0 -0.19765346752E+01 -0.13772187473E+02  0.29921894043E+01  0.14231410139E+02  0.00000000000E+00 0.  1.
</event>
<event>
 7    1  0.1519238E-008  0.4614232E+02  0.7816164E-02  0.1320468E+00
        -11   -1    0    0    0    0  0.00000000000E+00  0.00000000000E+00  0.45593999997E+02  0.45594000000E+02  0.51100000000E-03 0.  1.
         11   -1    0    0    0    0 -0.00000000000E+00 -0.00000000000E+00 -0.45593999997E+02  0.45594000000E+02  0.51100000000E-03 0. -1.
    9900012    2    1    2    0    0 -0.13234393216E+02 -0.36311195851E+02 -0.23140032973E+02  0.46142320586E+02  0.10000025756E+02 0.  0.
        -12    1    1    2    0    0  0.13234393216E+02  0.36311195851E+02  0.23140032973E+02  0.45045679414E+02  0.00000000000E+00 0.  1.
         11    1    3    3    0    0 -0.83674808311E+01 -0.15460672466E+02 -0.14042116934E+02  0.22499515035E+02  0.51100000000E-03 0. -1.
        -11    1    3    3    0    0 -0.34236440916E+01 -0.75794385103E+01 -0.21340142309E+01  0.85862240826E+01  0.51100000000E-03 0.  1.
         12    1    3    3    0    0 -0.14432682935E+01 -0.13271084875E+02 -0.69639018077E+01  0.15056581468E+02  0.00000000000E+00 0. -1.
</event>
<event>
 7    1  0.1519238E-008  0.4614233E+02  0.7816164E-02  0.1320468E+00
        -11   -1    0    0    0    0  0.00000000000E+00  0.00000000000E+00  0.45593999997E+02  0.45594000000E+02  0.51100000000E-03 0.  1.
         11   -1    0    0    0    0 -0.00000000000E+00 -0.00000000000E+00 -0.45593999997E+02  0.45594000000E+02  0.51100000000E-03 0. -1.
    9900012    2    1    2    0    0 -0.15557497340E+02 -0.41858515701E+02 -0.59111458669E+01  0.46142326449E+02  0.10000079221E+02 0.  0.
        -12    1    1    2    0    0  0.15557497340E+02  0.41858515701E+02  0.59111458669E+01  0.45045673551E+02  0.00000000000E+00 0.  1.
         11    1    3    3    0    0 -0.72859918783E+01 -0.21558596112E+02 -0.38889678820E+01  0.23086420585E+02  0.51100000000E-03 0.  1.
        -11    1    3    3    0    0 -0.60719329196E+01 -0.15499903253E+02 -0.44694438746E+01  0.17236336590E+02  0.51100000000E-03 0. -1.
        -12    1    3    3    0    0 -0.21995725426E+01 -0.48000163362E+01  0.24472658897E+01  0.58195692739E+01  0.00000000000E+00 0.  1.
</event>
<event>
 7    1  0.1519238E-008  0.4614232E+02  0.7816164E-02  0.1320468E+00
        -11   -1    0    0    0    0  0.00000000000E+00  0.00000000000E+00  0.45593999997E+02  0.45594000000E+02  0.51100000000E-03 0.  1.
         11   -1    0    0    0    0 -0.00000000000E+00 -0.00000000000E+00 -0.45593999997E+02  0.45594000000E+02  0.51100000000E-03 0. -1.
    9900012    2    1    2    0    0  0.44959942022E+02 -0.22352021810E+01  0.16495475942E+01  0.46142317381E+02  0.99999965298E+01 0.  0.
        -12    1    1    2    0    0 -0.44959942022E+02  0.22352021810E+01 -0.16495475942E+01  0.45045682619E+02  0.00000000000E+00 0.  1.
         11    1    3    3    0    0  0.12336599434E+02 -0.54825356972E+00 -0.31021264418E+01  0.12732456805E+02  0.51100000000E-03 0. -1.
        -11    1    3    3    0    0  0.19395285749E+02 -0.34628286792E+01  0.34233723268E+01  0.19997194055E+02  0.51100000000E-03 0.  1.
        -12    1    3    3    0    0  0.13228056839E+02  0.17758800679E+01  0.13283017091E+01  0.13412666520E+02  0.00000000000E+00 0.  1.
</event>
<event>
 7    1  0.1519238E-008  0.4614232E+02  0.7816164E-02  0.1320468E+00
        -11   -1    0    0    0    0  0.00000000000E+00  0.00000000000E+00  0.45593999997E+02  0.45594000000E+02  0.51100000000E-03 0.  1.
         11   -1    0    0    0    0 -0.00000000000E+00 -0.00000000000E+00 -0.45593999997E+02  0.45594000000E+02  0.51100000000E-03 0. -1.
    9900012    2    1    2    0    0  0.21615368902E+02 -0.28674982631E+02 -0.27196225925E+02  0.46142317563E+02  0.99999981896E+01 0.  0.
        -12    1    1    2    0    0 -0.21615368902E+02  0.28674982631E+02  0.27196225925E+02  0.45045682437E+02  0.00000000000E+00 0.  1.
         11    1    3    3    0    0  0.91075589261E+01 -0.15616886118E+02 -0.93168690684E+01  0.20338112280E+02  0.51100000000E-03 0. -1.
        -11    1    3    3    0    0  0.41455302411E+01 -0.72902523415E+01 -0.70515346506E+01  0.10957068101E+02  0.51100000000E-03 0.  1.
        -12    1    3    3    0    0  0.83622797352E+01 -0.57678441717E+01 -0.10827822206E+02  0.14847137181E+02  0.00000000000E+00 0.  1.
</event>
<event>
 7    1  0.1519238E-008  0.4614232E+02  0.7816164E-02  0.1320468E+00
        -11   -1    0    0    0    0  0.00000000000E+00  0.00000000000E+00  0.45593999997E+02  0.45594000000E+02  0.51100000000E-03 0.  1.
         11   -1    0    0    0    0 -0.00000000000E+00 -0.00000000000E+00 -0.45593999997E+02  0.45594000000E+02  0.51100000000E-03 0. -1.
    9900012    2    1    2    0    0 -0.80118315233E+01 -0.39651519258E+02 -0.19816181239E+02  0.46142318046E+02  0.10000002597E+02 0.  0.
        -12    1    1    2    0    0  0.80118315233E+01  0.39651519258E+02  0.19816181239E+02  0.45045681954E+02  0.00000000000E+00 0.  1.
         11    1    3    3    0    0 -0.38823442570E+01 -0.14087351306E+02 -0.86094592152E+01  0.16960213796E+02  0.51100000000E-03 0. -1.
        -11    1    3    3    0    0 -0.21999047508E+01 -0.45528166109E+01 -0.51793471872E+01  0.72383256042E+01  0.51100000000E-03 0.  1.
        -12    1    3    3    0    0 -0.19295825155E+01 -0.21011351341E+02 -0.60273748361E+01  0.21943778646E+02  0.00000000000E+00 0.  1.
</event>
<event>
 7    1  0.1519238E-008  0.4614232E+02  0.7816164E-02  0.1320468E+00
        -11   -1    0    0    0    0  0.00000000000E+00  0.00000000000E+00  0.45593999997E+02  0.45594000000E+02  0.51100000000E-03 0. -1.
         11   -1    0    0    0    0 -0.00000000000E+00 -0.00000000000E+00 -0.45593999997E+02  0.45594000000E+02  0.51100000000E-03 0.  1.
    9900012    2    1    2    0    0 -0.34438432531E+02  0.14947775211E+02  0.24893206281E+02  0.46142319431E+02  0.10000015228E+02 0.  0.
        -12    1    1    2    0    0  0.34438432531E+02 -0.14947775211E+02 -0.24893206281E+02  0.45045680569E+02  0.00000000000E+00 0.  1.
         11    1    3    3    0    0 -0.85945654105E+01  0.99200774072E+00  0.26499465214E+01  0.90483617732E+01  0.51100000000E-03 0. -1.
        -11    1    3    3    0    0 -0.10587333305E+02  0.72478223852E+01  0.76250621760E+01  0.14925284898E+02  0.51100000000E-03 0.  1.
         12    1    3    3    0    0 -0.15256533816E+02  0.67079450849E+01  0.14618197583E+02  0.22168672760E+02  0.00000000000E+00 0. -1.
</event>
<event>
 7    1  0.1519238E-008  0.4614232E+02  0.7816164E-02  0.1320468E+00
        -11   -1    0    0    0    0  0.00000000000E+00  0.00000000000E+00  0.45593999997E+02  0.45594000000E+02  0.51100000000E-03 0.  1.
         11   -1    0    0    0    0 -0.00000000000E+00 -0.00000000000E+00 -0.45593999997E+02  0.45594000000E+02  0.51100000000E-03 0. -1.
    9900012    2    1    2    0    0 -0.34247716808E+01 -0.19097006795E+02 -0.40653274462E+02  0.46142318142E+02  0.10000003473E+02 0.  0.
        -12    1    1    2    0    0  0.34247716808E+01  0.19097006795E+02  0.40653274462E+02  0.45045681858E+02  0.00000000000E+00 0.  1.
         11    1    3    3    0    0  0.18870300051E+01 -0.54738177458E+01 -0.92052231878E+01  0.10874727452E+02  0.51100000000E-03 0. -1.
        -11    1    3    3    0    0 -0.48967690026E+01 -0.69495669346E+01 -0.12031775352E+02  0.14732224735E+02  0.51100000000E-03 0.  1.
         12    1    3    3    0    0 -0.41503268329E+00 -0.66736221149E+01 -0.19416275922E+02  0.20535365955E+02  0.00000000000E+00 0. -1.
</event>
<event>
 7    1  0.1519238E-008  0.4614232E+02  0.7816164E-02  0.1320468E+00
        -11   -1    0    0    0    0  0.00000000000E+00  0.00000000000E+00  0.45593999997E+02  0.45594000000E+02  0.51100000000E-03 0.  1.
         11   -1    0    0    0    0 -0.00000000000E+00 -0.00000000000E+00 -0.45593999997E+02  0.45594000000E+02  0.51100000000E-03 0. -1.
    9900012    2    1    2    0    0  0.77659461341E+00 -0.44164043511E+02 -0.88344581914E+01  0.46142317744E+02  0.99999998418E+01 0.  0.
        -12    1    1    2    0    0 -0.77659461341E+00  0.44164043511E+02  0.88344581914E+01  0.45045682256E+02  0.00000000000E+00 0.  1.
         11    1    3    3    0    0  0.20665909948E+01 -0.32281189980E+01 -0.14570403173E+01  0.41005508596E+01  0.51100000000E-03 0. -1.
        -11    1    3    3    0    0 -0.11748312125E+01 -0.41049294243E+01  0.72251062897E+00  0.43304382950E+01  0.51100000000E-03 0.  1.
        -12    1    3    3    0    0 -0.11516516891E+00 -0.36830995088E+02 -0.80999285031E+01  0.37711328589E+02  0.00000000000E+00 0.  1.
</event>
<event>
 7    1  0.1519238E-008  0.4614232E+02  0.7816164E-02  0.1320468E+00
        -11   -1    0    0    0    0  0.00000000000E+00  0.00000000000E+00  0.45593999997E+02  0.45594000000E+02  0.51100000000E-03 0. -1.
         11   -1    0    0    0    0 -0.00000000000E+00 -0.00000000000E+00 -0.45593999997E+02  0.45594000000E+02  0.51100000000E-03 0.  1.
    9900012    2    1    2    0    0 -0.29332954870E+02 -0.28564686581E+02  0.18781635873E+02  0.46142318665E+02  0.10000008240E+02 0.  0.
        -12    1    1    2    0    0  0.29332954870E+02  0.28564686581E+02 -0.18781635873E+02  0.45045681335E+02  0.00000000000E+00 0.  1.
         11    1    3    3    0    0 -0.94952811720E+01 -0.12315227113E+02  0.44301409332E+01  0.16169456773E+02  0.51100000000E-03 0.  1.
        -11    1    3    3    0    0 -0.77146845986E+01 -0.33724643597E+01  0.29074036439E+01  0.89074615083E+01  0.51100000000E-03 0. -1.
         12    1    3    3    0    0 -0.12122989099E+02 -0.12876995108E+02  0.11444091296E+02  0.21065400383E+02  0.00000000000E+00 0. -1.
</event>
<event>
 7    1  0.1519238E-008  0.4614232E+02  0.7816164E-02  0.1320468E+00
        -11   -1    0    0    0    0  0.00000000000E+00  0.00000000000E+00  0.45593999997E+02  0.45594000000E+02  0.51100000000E-03 0. -1.
         11   -1    0    0    0    0 -0.00000000000E+00 -0.00000000000E+00 -0.45593999997E+02  0.45594000000E+02  0.51100000000E-03 0.  1.
    9900012    2    1    2    0    0  0.32823093371E+02  0.83757765994E+01  0.29691824513E+02  0.46142317243E+02  0.99999952782E+01 0.  0.
        -12    1    1    2    0    0 -0.32823093371E+02 -0.83757765994E+01 -0.29691824513E+02  0.45045682757E+02  0.00000000000E+00 0.  1.
         11    1    3    3    0    0  0.71776740763E+01  0.43873530881E+01  0.10898608084E+02  0.13767626182E+02  0.51100000000E-03 0. -1.
        -11    1    3    3    0    0  0.12096362289E+02 -0.44400993439E+00  0.88007463115E+01  0.14965702835E+02  0.51100000000E-03 0.  1.
        -12    1    3    3    0    0  0.13549057006E+02  0.44324334456E+01  0.99924701179E+01  0.17408988226E+02  0.00000000000E+00 0.  1.
</event>
<event>
 7    1  0.1519238E-008  0.4614232E+02  0.7816164E-02  0.1320468E+00
        -11   -1    0    0    0    0  0.00000000000E+00  0.00000000000E+00  0.45593999997E+02  0.45594000000E+02  0.51100000000E-03 0.  1.
         11   -1    0    0    0    0 -0.00000000000E+00 -0.00000000000E+00 -0.45593999997E+02  0.45594000000E+02  0.51100000000E-03 0. -1.
    9900012    2    1    2    0    0 -0.11818783252E+02  0.37183137513E+02 -0.22513200479E+02  0.46142317092E+02  0.99999938972E+01 0.  0.
        -12    1    1    2    0    0  0.11818783252E+02 -0.37183137513E+02  0.22513200479E+02  0.45045682908E+02  0.00000000000E+00 0.  1.
         11    1    3    3    0    0 -0.83137708106E+01  0.13945024906E+02 -0.12946948526E+02  0.20765499780E+02  0.51100000000E-03 0. -1.
        -11    1    3    3    0    0 -0.17864115509E+01  0.10646194662E+02 -0.42780610308E+01  0.11611827309E+02  0.51100000000E-03 0.  1.
         12    1    3    3    0    0 -0.17186008901E+01  0.12591917944E+02 -0.52881909228E+01  0.13764990002E+02  0.00000000000E+00 0. -1.
</event>
<event>
 7    1  0.1519238E-008  0.4614232E+02  0.7816164E-02  0.1320468E+00
        -11   -1    0    0    0    0  0.00000000000E+00  0.00000000000E+00  0.45593999997E+02  0.45594000000E+02  0.51100000000E-03 0.  1.
         11   -1    0    0    0    0 -0.00000000000E+00 -0.00000000000E+00 -0.45593999997E+02  0.45594000000E+02  0.51100000000E-03 0. -1.
    9900012    2    1    2    0    0  0.37312440543E+02  0.23976463214E+02  0.78755620077E+01  0.46142317804E+02  0.10000000393E+02 0.  0.
        -12    1    1    2    0    0 -0.37312440543E+02 -0.23976463214E+02 -0.78755620077E+01  0.45045682196E+02  0.00000000000E+00 0.  1.
         11    1    3    3    0    0  0.22901756090E+02  0.16863849293E+02  0.25142417163E+01  0.28551729487E+02  0.51100000000E-03 0. -1.
        -11    1    3    3    0    0  0.13274314979E+01  0.21918785976E+01  0.19009456473E+01  0.31906113495E+01  0.51100000000E-03 0.  1.
         12    1    3    3    0    0  0.13083252955E+02  0.49207353234E+01  0.34603746441E+01  0.14399976968E+02  0.00000000000E+00 0. -1.
</event>
<event>
 7    1  0.1519238E-008  0.4614232E+02  0.7816164E-02  0.1320468E+00
        -11   -1    0    0    0    0  0.00000000000E+00  0.00000000000E+00  0.45593999997E+02  0.45594000000E+02  0.51100000000E-03 0.  1.
         11   -1    0    0    0    0 -0.00000000000E+00 -0.00000000000E+00 -0.45593999997E+02  0.45594000000E+02  0.51100000000E-03 0. -1.
    9900012    2    1    2    0    0 -0.25791327606E+02 -0.24279524320E+02 -0.27828503808E+02  0.46142317576E+02  0.99999983085E+01 0.  0.
        -12    1    1    2    0    0  0.25791327606E+02  0.24279524320E+02  0.27828503808E+02  0.45045682424E+02  0.00000000000E+00 0.  1.
         11    1    3    3    0    0 -0.49285267630E+00 -0.17000503437E+01 -0.39560507012E+01  0.43339834268E+01  0.51100000000E-03 0. -1.
        -11    1    3    3    0    0 -0.19256099865E+02 -0.14696055934E+02 -0.18752048982E+02  0.30633491203E+02  0.51100000000E-03 0.  1.
         12    1    3    3    0    0 -0.60423750647E+01 -0.78834180427E+01 -0.51204041248E+01  0.11174842946E+02  0.00000000000E+00 0. -1.
</event>
<event>
 7    1  0.1519238E-008  0.4614232E+02  0.7816164E-02  0.1320468E+00
        -11   -1    0    0    0    0  0.00000000000E+00  0.00000000000E+00  0.45593999997E+02  0.45594000000E+02  0.51100000000E-03 0.  1.
         11   -1    0    0    0    0 -0.00000000000E+00 -0.00000000000E+00 -0.45593999997E+02  0.45594000000E+02  0.51100000000E-03 0. -1.
    9900012    2    1    2    0    0  0.29230290853E+02  0.12703441222E+02 -0.31832787152E+02  0.46142315855E+02  0.99999826175E+01 0.  0.
        -12    1    1    2    0    0 -0.29230290853E+02 -0.12703441222E+02  0.31832787152E+02  0.45045684145E+02  0.00000000000E+00 0.  1.
         11    1    3    3    0    0  0.15402965854E+02  0.62581064173E+01 -0.19181174161E+02  0.25383709254E+02  0.51100000000E-03 0. -1.
        -11    1    3    3    0    0  0.19544876981E+01 -0.63364616570E+00 -0.52519087461E-01  0.20553073106E+01  0.51100000000E-03 0.  1.
         12    1    3    3    0    0  0.11872837300E+02  0.70789809708E+01 -0.12599093904E+02  0.18703299290E+02  0.00000000000E+00 0. -1.
</event>
<event>
 7    1  0.1519238E-008  0.4614232E+02  0.7816164E-02  0.1320468E+00
        -11   -1    0    0    0    0  0.00000000000E+00  0.00000000000E+00  0.45593999997E+02  0.45594000000E+02  0.51100000000E-03 0.  1.
         11   -1    0    0    0    0 -0.00000000000E+00 -0.00000000000E+00 -0.45593999997E+02  0.45594000000E+02  0.51100000000E-03 0. -1.
    9900012    2    1    2    0    0 -0.21069058956E+02  0.12107272834E+02 -0.37929172648E+02  0.46142318314E+02  0.10000005044E+02 0.  0.
        -12    1    1    2    0    0  0.21069058956E+02 -0.12107272834E+02  0.37929172648E+02  0.45045681686E+02  0.00000000000E+00 0.  1.
         11    1    3    3    0    0 -0.12199756587E+02  0.41860928449E+01 -0.18969184964E+02  0.22938775306E+02  0.51100000000E-03 0. -1.
        -11    1    3    3    0    0 -0.75880871762E+01  0.83565230354E+01 -0.13593107810E+02  0.17668704662E+02  0.51100000000E-03 0.  1.
        -12    1    3    3    0    0 -0.12812151928E+01 -0.43534304601E+00 -0.53668798735E+01  0.55348383459E+01  0.00000000000E+00 0.  1.
</event>
<event>
 7    1  0.1519238E-008  0.4614231E+02  0.7816164E-02  0.1320468E+00
        -11   -1    0    0    0    0  0.00000000000E+00  0.00000000000E+00  0.45593999997E+02  0.45594000000E+02  0.51100000000E-03 0.  1.
         11   -1    0    0    0    0 -0.00000000000E+00 -0.00000000000E+00 -0.45593999997E+02  0.45594000000E+02  0.51100000000E-03 0. -1.
    9900012    2    1    2    0    0  0.10629899841E+02  0.26381049603E+02 -0.34930777381E+02  0.46142314777E+02  0.99999727876E+01 0.  0.
        -12    1    1    2    0    0 -0.10629899841E+02 -0.26381049603E+02  0.34930777381E+02  0.45045685223E+02  0.00000000000E+00 0.  1.
         11    1    3    3    0    0  0.22131350288E+01  0.36022551224E+01 -0.55887001020E+01  0.70076941795E+01  0.51100000000E-03 0. -1.
        -11    1    3    3    0    0  0.80225771462E+01  0.20973808442E+02 -0.29719125617E+02  0.37249010891E+02  0.51100000000E-03 0.  1.
        -12    1    3    3    0    0  0.39418766619E+00  0.18049860388E+01  0.37704833841E+00  0.18856097067E+01  0.00000000000E+00 0.  1.
</event>
<event>
 7    1  0.1519238E-008  0.4614232E+02  0.7816164E-02  0.1320468E+00
        -11   -1    0    0    0    0  0.00000000000E+00  0.00000000000E+00  0.45593999997E+02  0.45594000000E+02  0.51100000000E-03 0. -1.
         11   -1    0    0    0    0 -0.00000000000E+00 -0.00000000000E+00 -0.45593999997E+02  0.45594000000E+02  0.51100000000E-03 0.  1.
    9900012    2    1    2    0    0 -0.44960037504E+02  0.11770714463E+01 -0.25145669808E+01  0.46142317447E+02  0.99999971341E+01 0.  0.
        -12    1    1    2    0    0  0.44960037504E+02 -0.11770714463E+01  0.25145669808E+01  0.45045682553E+02  0.00000000000E+00 0.  1.
         11    1    3    3    0    0 -0.67737030574E+01  0.13842413543E+01  0.10343195773E+01  0.69906362004E+01  0.51100000000E-03 0. -1.
        -11    1    3    3    0    0 -0.15006860010E+02  0.41474473170E+00 -0.52436747495E+01  0.15902012001E+02  0.51100000000E-03 0.  1.
        -12    1    3    3    0    0 -0.23179474437E+02 -0.62191463972E+00  0.16947881914E+01  0.23249669245E+02  0.00000000000E+00 0.  1.
</event>
<event>
 7    1  0.1519238E-008  0.4614231E+02  0.7816164E-02  0.1320468E+00
        -11   -1    0    0    0    0  0.00000000000E+00  0.00000000000E+00  0.45593999997E+02  0.45594000000E+02  0.51100000000E-03 0. -1.
         11   -1    0    0    0    0 -0.00000000000E+00 -0.00000000000E+00 -0.45593999997E+02  0.45594000000E+02  0.51100000000E-03 0.  1.
    9900012    2    1    2    0    0 -0.28215686237E+02 -0.22715118534E+02  0.26777086103E+02  0.46142313192E+02  0.99999583307E+01 0.  0.
        -12    1    1    2    0    0  0.28215686237E+02  0.22715118534E+02 -0.26777086103E+02  0.45045686808E+02  0.00000000000E+00 0.  1.
         11    1    3    3    0    0 -0.28251252238E+01 -0.11021267548E+01  0.33285279393E+01  0.45027896262E+01  0.51100000000E-03 0. -1.
        -11    1    3    3    0    0 -0.17084919671E+02 -0.90494152545E+01  0.12565875624E+02  0.23058352653E+02  0.51100000000E-03 0.  1.
        -12    1    3    3    0    0 -0.83056413426E+01 -0.12563576525E+02  0.10882682540E+02  0.18581170912E+02  0.00000000000E+00 0.  1.
</event>
<event>
 7    1  0.1519238E-008  0.4614232E+02  0.7816164E-02  0.1320468E+00
        -11   -1    0    0    0    0  0.00000000000E+00  0.00000000000E+00  0.45593999997E+02  0.45594000000E+02  0.51100000000E-03 0.  1.
         11   -1    0    0    0    0 -0.00000000000E+00 -0.00000000000E+00 -0.45593999997E+02  0.45594000000E+02  0.51100000000E-03 0. -1.
    9900012    2    1    2    0    0 -0.44270371383E+02  0.45734808037E+01  0.69520459775E+01  0.46142318161E+02  0.10000003645E+02 0.  0.
        -12    1    1    2    0    0  0.44270371383E+02 -0.45734808037E+01 -0.69520459775E+01  0.45045681839E+02  0.00000000000E+00 0.  1.
         11    1    3    3    0    0 -0.37118675814E+02  0.58876969922E+01  0.39858050833E+01  0.37793487700E+02  0.51100000000E-03 0. -1.
        -11    1    3    3    0    0  0.42116308066E-01  0.24478270989E+00 -0.21641394962E+00  0.32943530044E+00  0.51100000000E-03 0.  1.
         12    1    3    3    0    0 -0.71938118772E+01 -0.15589988984E+01  0.31826548438E+01  0.80193951608E+01  0.00000000000E+00 0. -1.
</event>
<event>
 7    1  0.1519238E-008  0.4614232E+02  0.7816164E-02  0.1320468E+00
        -11   -1    0    0    0    0  0.00000000000E+00  0.00000000000E+00  0.45593999997E+02  0.45594000000E+02  0.51100000000E-03 0.  1.
         11   -1    0    0    0    0 -0.00000000000E+00 -0.00000000000E+00 -0.45593999997E+02  0.45594000000E+02  0.51100000000E-03 0. -1.
    9900012    2    1    2    0    0  0.35141060320E+02 -0.20598001784E+02 -0.19233869130E+02  0.46142317414E+02  0.99999968344E+01 0.  0.
        -12    1    1    2    0    0 -0.35141060320E+02  0.20598001784E+02  0.19233869130E+02  0.45045682586E+02  0.00000000000E+00 0.  1.
         11    1    3    3    0    0  0.67100972937E+01 -0.39696880991E+01 -0.65470212702E+00  0.78238394942E+01  0.51100000000E-03 0. -1.
        -11    1    3    3    0    0  0.91004697591E+01 -0.46801406453E+01 -0.91051955428E+01  0.13697695150E+02  0.51100000000E-03 0.  1.
        -12    1    3    3    0    0  0.19330493268E+02 -0.11948173040E+02 -0.94739714597E+01  0.24620782769E+02  0.00000000000E+00 0.  1.
</event>
<event>
 7    1  0.1519238E-008  0.4614232E+02  0.7816164E-02  0.1320468E+00
        -11   -1    0    0    0    0  0.00000000000E+00  0.00000000000E+00  0.45593999997E+02  0.45594000000E+02  0.51100000000E-03 0.  1.
         11   -1    0    0    0    0 -0.00000000000E+00 -0.00000000000E+00 -0.45593999997E+02  0.45594000000E+02  0.51100000000E-03 0. -1.
    9900012    2    1    2    0    0 -0.77070215932E+01  0.16904745961E+02 -0.41035898668E+02  0.46142316552E+02  0.99999889756E+01 0.  0.
        -12    1    1    2    0    0  0.77070215932E+01 -0.16904745961E+02  0.41035898668E+02  0.45045683448E+02  0.00000000000E+00 0.  1.
         11    1    3    3    0    0 -0.40418416044E+01  0.48779548691E+01 -0.12068264095E+02  0.13629890894E+02  0.51100000000E-03 0. -1.
        -11    1    3    3    0    0  0.94691862408E+00 -0.62114076532E+00 -0.38666832934E+01  0.40291079265E+01  0.51100000000E-03 0.  1.
        -12    1    3    3    0    0 -0.46120986129E+01  0.12647931857E+02 -0.25100951279E+02  0.28483317731E+02  0.00000000000E+00 0.  1.
</event>
<event>
 7    1  0.1519238E-008  0.4614232E+02  0.7816164E-02  0.1320468E+00
        -11   -1    0    0    0    0  0.00000000000E+00  0.00000000000E+00  0.45593999997E+02  0.45594000000E+02  0.51100000000E-03 0. -1.
         11   -1    0    0    0    0 -0.00000000000E+00 -0.00000000000E+00 -0.45593999997E+02  0.45594000000E+02  0.51100000000E-03 0.  1.
    9900012    2    1    2    0    0 -0.10165341303E+01  0.43903141116E+02  0.10029672789E+02  0.46142317880E+02  0.10000001080E+02 0.  0.
        -12    1    1    2    0    0  0.10165341303E+01 -0.43903141116E+02 -0.10029672789E+02  0.45045682120E+02  0.00000000000E+00 0.  1.
         11    1    3    3    0    0 -0.36896397300E+01  0.20788075373E+02  0.60995497573E+01  0.21976397033E+02  0.51100000000E-03 0. -1.
        -11    1    3    3    0    0  0.25083390186E+01  0.40089536667E+01  0.10360022089E+01  0.48411543016E+01  0.51100000000E-03 0.  1.
        -12    1    3    3    0    0  0.16476658107E+00  0.19106112076E+02  0.28941208223E+01  0.19324766545E+02  0.00000000000E+00 0.  1.
</event>
<event>
 7    1  0.1519238E-008  0.4614232E+02  0.7816164E-02  0.1320468E+00
        -11   -1    0    0    0    0  0.00000000000E+00  0.00000000000E+00  0.45593999997E+02  0.45594000000E+02  0.51100000000E-03 0. -1.
         11   -1    0    0    0    0 -0.00000000000E+00 -0.00000000000E+00 -0.45593999997E+02  0.45594000000E+02  0.51100000000E-03 0.  1.
    9900012    2    1    2    0    0 -0.24679366664E+02  0.34326248381E+02 -0.15548348079E+02  0.46142316579E+02  0.99999892209E+01 0.  0.
        -12    1    1    2    0    0  0.24679366664E+02 -0.34326248381E+02  0.15548348079E+02  0.45045683421E+02  0.00000000000E+00 0.  1.
         11    1    3    3    0    0 -0.50210589429E+01  0.49428482445E+01 -0.55361634553E+01  0.89605740744E+01  0.51100000000E-03 0. -1.
        -11    1    3    3    0    0 -0.19514193520E+01  0.18654056891E+01 -0.23378730161E+01  0.35711939702E+01  0.51100000000E-03 0.  1.
         12    1    3    3    0    0 -0.17706888369E+02  0.27517994448E+02 -0.76743116079E+01  0.33610548534E+02  0.00000000000E+00 0. -1.
</event>
<event>
 7    1  0.1519238E-008  0.4614232E+02  0.7816164E-02  0.1320468E+00
        -11   -1    0    0    0    0  0.00000000000E+00  0.00000000000E+00  0.45593999997E+02  0.45594000000E+02  0.51100000000E-03 0.  1.
         11   -1    0    0    0    0 -0.00000000000E+00 -0.00000000000E+00 -0.45593999997E+02  0.45594000000E+02  0.51100000000E-03 0. -1.
    9900012    2    1    2    0    0  0.41141628400E+02 -0.38073494351E+01 -0.17943913816E+02  0.46142317187E+02  0.99999947614E+01 0.  0.
        -12    1    1    2    0    0 -0.41141628400E+02  0.38073494351E+01  0.17943913816E+02  0.45045682813E+02  0.00000000000E+00 0.  1.
         11    1    3    3    0    0  0.30933735533E+02  0.69659430487E+00 -0.14474343779E+02  0.34159740423E+02  0.51100000000E-03 0. -1.
        -11    1    3    3    0    0  0.76403554226E+01 -0.26915865515E+01 -0.35369577191E+01  0.88391028570E+01  0.51100000000E-03 0.  1.
         12    1    3    3    0    0  0.25675374438E+01 -0.18123571885E+01  0.67387681949E-01  0.31434739070E+01  0.00000000000E+00 0. -1.
</event>
<event>
 7    1  0.1519238E-008  0.4614232E+02  0.7816164E-02  0.1320468E+00
        -11   -1    0    0    0    0  0.00000000000E+00  0.00000000000E+00  0.45593999997E+02  0.45594000000E+02  0.51100000000E-03 0.  1.
         11   -1    0    0    0    0 -0.00000000000E+00 -0.00000000000E+00 -0.45593999997E+02  0.45594000000E+02  0.51100000000E-03 0. -1.
    9900012    2    1    2    0    0  0.37792094938E+02  0.23787399669E+02 -0.59186863174E+01  0.46142315739E+02  0.99999815641E+01 0.  0.
        -12    1    1    2    0    0 -0.37792094938E+02 -0.23787399669E+02  0.59186863174E+01  0.45045684261E+02  0.00000000000E+00 0.  1.
         11    1    3    3    0    0  0.14440983183E+02  0.53253224312E+01 -0.25073326122E+01  0.15594478875E+02  0.51100000000E-03 0. -1.
        -11    1    3    3    0    0  0.91379356796E+01  0.90571450506E+01 -0.40630115657E+01  0.13492286989E+02  0.51100000000E-03 0.  1.
        -12    1    3    3    0    0  0.14213176075E+02  0.94049321869E+01  0.65165786054E+00  0.17055549875E+02  0.00000000000E+00 0.  1.
</event>
<event>
 7    1  0.1519238E-008  0.4614232E+02  0.7816164E-02  0.1320468E+00
        -11   -1    0    0    0    0  0.00000000000E+00  0.00000000000E+00  0.45593999997E+02  0.45594000000E+02  0.51100000000E-03 0.  1.
         11   -1    0    0    0    0 -0.00000000000E+00 -0.00000000000E+00 -0.45593999997E+02  0.45594000000E+02  0.51100000000E-03 0. -1.
    9900012    2    1    2    0    0 -0.27351597314E+02  0.23543805006E+02 -0.26957240069E+02  0.46142318499E+02  0.10000006727E+02 0.  0.
        -12    1    1    2    0    0  0.27351597314E+02 -0.23543805006E+02  0.26957240069E+02  0.45045681501E+02  0.00000000000E+00 0.  1.
         11    1    3    3    0    0 -0.54616843819E+01  0.63931600118E+01 -0.34932193936E+01  0.91052223047E+01  0.51100000000E-03 0. -1.
        -11    1    3    3    0    0 -0.70363451128E+01  0.48880444231E+01 -0.11579131603E+02  0.14404145923E+02  0.51100000000E-03 0.  1.
        -12    1    3    3    0    0 -0.14853567819E+02  0.12262600571E+02 -0.11884889073E+02  0.22632950271E+02  0.00000000000E+00 0.  1.
</event>
<event>
 7    1  0.1519238E-008  0.4614231E+02  0.7816164E-02  0.1320468E+00
        -11   -1    0    0    0    0  0.00000000000E+00  0.00000000000E+00  0.45593999997E+02  0.45594000000E+02  0.51100000000E-03 0. -1.
         11   -1    0    0    0    0 -0.00000000000E+00 -0.00000000000E+00 -0.45593999997E+02  0.45594000000E+02  0.51100000000E-03 0.  1.
    9900012    2    1    2    0    0 -0.35731488326E+02  0.13639828085E+02  0.23797680671E+02  0.46142314596E+02  0.99999711391E+01 0.  0.
        -12    1    1    2    0    0  0.35731488326E+02 -0.13639828085E+02 -0.23797680671E+02  0.45045685404E+02  0.00000000000E+00 0.  1.
         11    1    3    3    0    0 -0.53933718816E+01  0.52304721602E+01  0.59628370654E+01  0.95917529889E+01  0.51100000000E-03 0. -1.
        -11    1    3    3    0    0 -0.11848854445E+01  0.49721443710E+00  0.21717742109E+01  0.25234458975E+01  0.51100000000E-03 0.  1.
         12    1    3    3    0    0 -0.29153231000E+02  0.79121414878E+01  0.15663069395E+02  0.34027115710E+02  0.00000000000E+00 0. -1.
</event>
<event>
 7    1  0.1519238E-008  0.4614232E+02  0.7816164E-02  0.1320468E+00
        -11   -1    0    0    0    0  0.00000000000E+00  0.00000000000E+00  0.45593999997E+02  0.45594000000E+02  0.51100000000E-03 0.  1.
         11   -1    0    0    0    0 -0.00000000000E+00 -0.00000000000E+00 -0.45593999997E+02  0.45594000000E+02  0.51100000000E-03 0. -1.
    9900012    2    1    2    0    0  0.10225481298E+02 -0.14825791888E+02 -0.41288604490E+02  0.46142318369E+02  0.10000005543E+02 0.  0.
        -12    1    1    2    0    0 -0.10225481298E+02  0.14825791888E+02  0.41288604490E+02  0.45045681631E+02  0.00000000000E+00 0.  1.
         11    1    3    3    0    0  0.17512252479E+01 -0.18310499483E+01 -0.35310316956E+01  0.43460003312E+01  0.51100000000E-03 0. -1.
        -11    1    3    3    0    0  0.19376772272E+00 -0.83228605939E+01 -0.19751548166E+02  0.21434346493E+02  0.51100000000E-03 0.  1.
        -12    1    3    3    0    0  0.82804883273E+01 -0.46718813461E+01 -0.18006024629E+02  0.20361971544E+02  0.00000000000E+00 0.  1.
</event>
<event>
 7    1  0.1519238E-008  0.4614232E+02  0.7816164E-02  0.1320468E+00
        -11   -1    0    0    0    0  0.00000000000E+00  0.00000000000E+00  0.45593999997E+02  0.45594000000E+02  0.51100000000E-03 0.  1.
         11   -1    0    0    0    0 -0.00000000000E+00 -0.00000000000E+00 -0.45593999997E+02  0.45594000000E+02  0.51100000000E-03 0. -1.
    9900012    2    1    2    0    0 -0.28903387496E+02  0.22224322675E+02 -0.26453489180E+02  0.46142318555E+02  0.10000007238E+02 0.  0.
        -12    1    1    2    0    0  0.28903387496E+02 -0.22224322675E+02  0.26453489180E+02  0.45045681445E+02  0.00000000000E+00 0.  1.
         11    1    3    3    0    0 -0.12176133369E+02  0.10490506581E+02 -0.13384437978E+02  0.20915356377E+02  0.51100000000E-03 0. -1.
        -11    1    3    3    0    0  0.43544879579E+00  0.86379227910E+00  0.16487099329E+00  0.98129274976E+00  0.51100000000E-03 0.  1.
        -12    1    3    3    0    0 -0.17162702922E+02  0.10870023815E+02 -0.13233922195E+02  0.24245669428E+02  0.00000000000E+00 0.  1.
</event>
<event>
 7    1  0.1519238E-008  0.4614232E+02  0.7816164E-02  0.1320468E+00
        -11   -1    0    0    0    0  0.00000000000E+00  0.00000000000E+00  0.45593999997E+02  0.45594000000E+02  0.51100000000E-03 0.  1.
         11   -1    0    0    0    0 -0.00000000000E+00 -0.00000000000E+00 -0.45593999997E+02  0.45594000000E+02  0.51100000000E-03 0. -1.
    9900012    2    1    2    0    0 -0.39922943314E+02  0.18651817135E+02 -0.93478226887E+01  0.46142317917E+02  0.10000001423E+02 0.  0.
        -12    1    1    2    0    0  0.39922943314E+02 -0.18651817135E+02  0.93478226887E+01  0.45045682083E+02  0.00000000000E+00 0.  1.
         11    1    3    3    0    0 -0.13205576535E+02  0.37879352637E+01 -0.38880400321E+01  0.14277694518E+02  0.51100000000E-03 0. -1.
        -11    1    3    3    0    0 -0.56949335862E+01  0.58283265935E+01  0.66890340983E+00  0.81761293694E+01  0.51100000000E-03 0.  1.
        -12    1    3    3    0    0 -0.21022433192E+02  0.90355552776E+01 -0.61286860665E+01  0.23688494030E+02  0.00000000000E+00 0.  1.
</event>
<event>
 7    1  0.1519238E-008  0.4614232E+02  0.7816164E-02  0.1320468E+00
        -11   -1    0    0    0    0  0.00000000000E+00  0.00000000000E+00  0.45593999997E+02  0.45594000000E+02  0.51100000000E-03 0. -1.
         11   -1    0    0    0    0 -0.00000000000E+00 -0.00000000000E+00 -0.45593999997E+02  0.45594000000E+02  0.51100000000E-03 0.  1.
    9900012    2    1    2    0    0  0.30778962666E+02 -0.31691400817E+02  0.87990773218E+01  0.46142321070E+02  0.10000030174E+02 0.  0.
        -12    1    1    2    0    0 -0.30778962666E+02  0.31691400817E+02 -0.87990773218E+01  0.45045678930E+02  0.00000000000E+00 0.  1.
         11    1    3    3    0    0  0.19271514964E+02 -0.21442277344E+02  0.59317395833E+01  0.29433791489E+02  0.51100000000E-03 0. -1.
        -11    1    3    3    0    0  0.94099918924E+01 -0.50214388963E+01  0.75476379926E+00  0.10692636001E+02  0.51100000000E-03 0.  1.
         12    1    3    3    0    0  0.20974558096E+01 -0.52276845769E+01  0.21125739393E+01  0.60158935793E+01  0.00000000000E+00 0. -1.
</event>
<event>
 7    1  0.1519238E-008  0.4614232E+02  0.7816164E-02  0.1320468E+00
        -11   -1    0    0    0    0  0.00000000000E+00  0.00000000000E+00  0.45593999997E+02  0.45594000000E+02  0.51100000000E-03 0.  1.
         11   -1    0    0    0    0 -0.00000000000E+00 -0.00000000000E+00 -0.45593999997E+02  0.45594000000E+02  0.51100000000E-03 0. -1.
    9900012    2    1    2    0    0  0.12448708876E+02 -0.16911676895E+02 -0.39851453983E+02  0.46142317048E+02  0.99999934980E+01 0.  0.
        -12    1    1    2    0    0 -0.12448708876E+02  0.16911676895E+02  0.39851453983E+02  0.45045682952E+02  0.00000000000E+00 0.  1.
         11    1    3    3    0    0  0.12555022292E+02 -0.15704958330E+02 -0.37989584567E+02  0.42982354946E+02  0.51100000000E-03 0. -1.
        -11    1    3    3    0    0  0.68165610296E+00  0.32652189647E+00 -0.23985719391E+00  0.79297120135E+00  0.51100000000E-03 0.  1.
         12    1    3    3    0    0 -0.78796951913E+00 -0.15332404610E+01 -0.16220122218E+01  0.23669909003E+01  0.00000000000E+00 0. -1.
</event>
<event>
 7    1  0.1519238E-008  0.4614232E+02  0.7816164E-02  0.1320468E+00
        -11   -1    0    0    0    0  0.00000000000E+00  0.00000000000E+00  0.45593999997E+02  0.45594000000E+02  0.51100000000E-03 0. -1.
         11   -1    0    0    0    0 -0.00000000000E+00 -0.00000000000E+00 -0.45593999997E+02  0.45594000000E+02  0.51100000000E-03 0.  1.
    9900012    2    1    2    0    0 -0.28171039797E+02  0.27227971929E+02  0.22229344220E+02  0.46142315600E+02  0.99999802969E+01 0.  0.
        -12    1    1    2    0    0  0.28171039797E+02 -0.27227971929E+02 -0.22229344220E+02  0.45045684400E+02  0.00000000000E+00 0.  1.
         11    1    3    3    0    0 -0.17724059664E+02  0.13150202575E+02  0.16452421155E+02  0.27527300647E+02  0.51100000000E-03 0. -1.
        -11    1    3    3    0    0 -0.37898728811E+01  0.44873066215E+01  0.81525919946E+00  0.59298992398E+01  0.51100000000E-03 0.  1.
         12    1    3    3    0    0 -0.66571072515E+01  0.95904627318E+01  0.49616638649E+01  0.12685115714E+02  0.00000000000E+00 0. -1.
</event>
<event>
 7    1  0.1519238E-008  0.4614232E+02  0.7816164E-02  0.1320468E+00
        -11   -1    0    0    0    0  0.00000000000E+00  0.00000000000E+00  0.45593999997E+02  0.45594000000E+02  0.51100000000E-03 0.  1.
         11   -1    0    0    0    0 -0.00000000000E+00 -0.00000000000E+00 -0.45593999997E+02  0.45594000000E+02  0.51100000000E-03 0. -1.
    9900012    2    1    2    0    0  0.27705660903E+01 -0.29706704567E+02 -0.33748320212E+02  0.46142318188E+02  0.10000003896E+02 0.  0.
        -12    1    1    2    0    0 -0.27705660903E+01  0.29706704567E+02  0.33748320212E+02  0.45045681812E+02  0.00000000000E+00 0.  1.
         11    1    3    3    0    0 -0.83432841533E+00 -0.82823083825E+01 -0.12264682373E+02  0.14822792247E+02  0.51100000000E-03 0. -1.
        -11    1    3    3    0    0  0.45764786870E+01 -0.93751962251E+01 -0.12362005458E+02  0.16175835083E+02  0.51100000000E-03 0.  1.
        -12    1    3    3    0    0 -0.97158418130E+00 -0.12049199960E+02 -0.91216323818E+01  0.15143690858E+02  0.00000000000E+00 0.  1.
</event>
<event>
 7    1  0.1519238E-008  0.4614232E+02  0.7816164E-02  0.1320468E+00
        -11   -1    0    0    0    0  0.00000000000E+00  0.00000000000E+00  0.45593999997E+02  0.45594000000E+02  0.51100000000E-03 0. -1.
         11   -1    0    0    0    0 -0.00000000000E+00 -0.00000000000E+00 -0.45593999997E+02  0.45594000000E+02  0.51100000000E-03 0.  1.
    9900012    2    1    2    0    0  0.91542536082E+01  0.15968976121E+02  0.41113316914E+02  0.46142318907E+02  0.10000010445E+02 0.  0.
        -12    1    1    2    0    0 -0.91542536082E+01 -0.15968976121E+02 -0.41113316914E+02  0.45045681093E+02  0.00000000000E+00 0.  1.
         11    1    3    3    0    0  0.20294096894E+01  0.14455092455E+01  0.11265028864E+02  0.11537282012E+02  0.51100000000E-03 0. -1.
        -11    1    3    3    0    0 -0.10744565291E+01  0.31602110278E+01  0.77538295599E+01  0.84417571440E+01  0.51100000000E-03 0.  1.
        -12    1    3    3    0    0  0.81993004479E+01  0.11363255848E+02  0.22094458490E+02  0.26163279750E+02  0.00000000000E+00 0.  1.
</event>
<event>
 7    1  0.1519238E-008  0.4614232E+02  0.7816164E-02  0.1320468E+00
        -11   -1    0    0    0    0  0.00000000000E+00  0.00000000000E+00  0.45593999997E+02  0.45594000000E+02  0.51100000000E-03 0.  1.
         11   -1    0    0    0    0 -0.00000000000E+00 -0.00000000000E+00 -0.45593999997E+02  0.45594000000E+02  0.51100000000E-03 0. -1.
    9900012    2    1    2    0    0 -0.16114415841E+02 -0.33980355526E+02 -0.24794646428E+02  0.46142318175E+02  0.10000003776E+02 0.  0.
        -12    1    1    2    0    0  0.16114415841E+02  0.33980355526E+02  0.24794646428E+02  0.45045681825E+02  0.00000000000E+00 0.  1.
         11    1    3    3    0    0 -0.70053070916E+01 -0.22810408898E+02 -0.16920267869E+02  0.29252086191E+02  0.51100000000E-03 0. -1.
        -11    1    3    3    0    0 -0.16806801674E+01 -0.26679987477E+00 -0.48906320965E+00  0.17706075461E+01  0.51100000000E-03 0.  1.
         12    1    3    3    0    0 -0.74284285819E+01 -0.10903146754E+02 -0.73853153494E+01  0.15119624438E+02  0.00000000000E+00 0. -1.
</event>
<event>
 7    1  0.1519238E-008  0.4614232E+02  0.7816164E-02  0.1320468E+00
        -11   -1    0    0    0    0  0.00000000000E+00  0.00000000000E+00  0.45593999997E+02  0.45594000000E+02  0.51100000000E-03 0.  1.
         11   -1    0    0    0    0 -0.00000000000E+00 -0.00000000000E+00 -0.45593999997E+02  0.45594000000E+02  0.51100000000E-03 0. -1.
    9900012    2    1    2    0    0 -0.30790311876E+01  0.14880914484E+02 -0.42405088007E+02  0.46142317213E+02  0.99999950001E+01 0.  0.
        -12    1    1    2    0    0  0.30790311876E+01 -0.14880914484E+02  0.42405088007E+02  0.45045682787E+02  0.00000000000E+00 0.  1.
         11    1    3    3    0    0  0.10755642363E+01  0.20173748595E+01 -0.14149168034E+02  0.14332675816E+02  0.51100000000E-03 0. -1.
        -11    1    3    3    0    0 -0.47172917150E+01  0.10583268424E+02 -0.18948430293E+02  0.22210389967E+02  0.51100000000E-03 0.  1.
        -12    1    3    3    0    0  0.56269629109E+00  0.22802711998E+01 -0.93074896801E+01  0.95992514294E+01  0.00000000000E+00 0.  1.
</event>
<event>
 7    1  0.1519238E-008  0.4614232E+02  0.7816164E-02  0.1320468E+00
        -11   -1    0    0    0    0  0.00000000000E+00  0.00000000000E+00  0.45593999997E+02  0.45594000000E+02  0.51100000000E-03 0. -1.
         11   -1    0    0    0    0 -0.00000000000E+00 -0.00000000000E+00 -0.45593999997E+02  0.45594000000E+02  0.51100000000E-03 0.  1.
    9900012    2    1    2    0    0  0.22331162781E+02  0.13610283310E+02  0.36676870184E+02  0.46142318193E+02  0.10000003938E+02 0.  0.
        -12    1    1    2    0    0 -0.22331162781E+02 -0.13610283310E+02 -0.36676870184E+02  0.45045681807E+02  0.00000000000E+00 0.  1.
         11    1    3    3    0    0  0.65337523854E+01  0.64419399932E+01  0.13508528479E+02  0.16329998562E+02  0.51100000000E-03 0. -1.
        -11    1    3    3    0    0  0.12401901399E+02  0.76611999157E+01  0.14826704218E+02  0.20792602066E+02  0.51100000000E-03 0.  1.
        -12    1    3    3    0    0  0.33955089964E+01 -0.49285659853E+00  0.83416374870E+01  0.90197175641E+01  0.00000000000E+00 0.  1.
</event>
<event>
 7    1  0.1519238E-008  0.4614232E+02  0.7816164E-02  0.1320468E+00
        -11   -1    0    0    0    0  0.00000000000E+00  0.00000000000E+00  0.45593999997E+02  0.45594000000E+02  0.51100000000E-03 0.  1.
         11   -1    0    0    0    0 -0.00000000000E+00 -0.00000000000E+00 -0.45593999997E+02  0.45594000000E+02  0.51100000000E-03 0. -1.
    9900012    2    1    2    0    0  0.40257330207E+02  0.20201989765E+02  0.58348612123E+00  0.46142317832E+02  0.10000000650E+02 0.  0.
        -12    1    1    2    0    0 -0.40257330207E+02 -0.20201989765E+02 -0.58348612123E+00  0.45045682168E+02  0.00000000000E+00 0.  1.
         11    1    3    3    0    0  0.20738475064E+02  0.14179040402E+02  0.17462899883E+01  0.25182912137E+02  0.51100000000E-03 0. -1.
        -11    1    3    3    0    0  0.13741926172E+02  0.20276228165E+01 -0.11140350658E+01  0.13935309956E+02  0.51100000000E-03 0.  1.
        -12    1    3    3    0    0  0.57769289716E+01  0.39953265462E+01 -0.48768801236E-01  0.70240957389E+01  0.00000000000E+00 0.  1.
</event>
<event>
 7    1  0.1519238E-008  0.4614232E+02  0.7816164E-02  0.1320468E+00
        -11   -1    0    0    0    0  0.00000000000E+00  0.00000000000E+00  0.45593999997E+02  0.45594000000E+02  0.51100000000E-03 0.  1.
         11   -1    0    0    0    0 -0.00000000000E+00 -0.00000000000E+00 -0.45593999997E+02  0.45594000000E+02  0.51100000000E-03 0. -1.
    9900012    2    1    2    0    0 -0.17367656163E+02 -0.26499725727E+02 -0.32019408502E+02  0.46142318021E+02  0.10000002366E+02 0.  0.
        -12    1    1    2    0    0  0.17367656163E+02  0.26499725727E+02  0.32019408502E+02  0.45045681979E+02  0.00000000000E+00 0.  1.
         11    1    3    3    0    0 -0.56499629630E+01 -0.14090274021E+02 -0.10670369039E+02  0.18555718233E+02  0.51100000000E-03 0. -1.
        -11    1    3    3    0    0 -0.73391182881E+01 -0.64692177124E+01 -0.95624855460E+01  0.13680444625E+02  0.51100000000E-03 0.  1.
         12    1    3    3    0    0 -0.43785749116E+01 -0.59402339933E+01 -0.11786553917E+02  0.13906155162E+02  0.00000000000E+00 0. -1.
</event>
<event>
 7    1  0.1519238E-008  0.4614231E+02  0.7816164E-02  0.1320468E+00
        -11   -1    0    0    0    0  0.00000000000E+00  0.00000000000E+00  0.45593999997E+02  0.45594000000E+02  0.51100000000E-03 0. -1.
         11   -1    0    0    0    0 -0.00000000000E+00 -0.00000000000E+00 -0.45593999997E+02  0.45594000000E+02  0.51100000000E-03 0.  1.
    9900012    2    1    2    0    0  0.10619124922E+02  0.33565046064E+02 -0.28102238454E+02  0.46142312775E+02  0.99999545350E+01 0.  0.
        -12    1    1    2    0    0 -0.10619124922E+02 -0.33565046064E+02  0.28102238454E+02  0.45045687225E+02  0.00000000000E+00 0.  1.
         11    1    3    3    0    0 -0.67588179348E+00  0.57765759938E+01 -0.55549886265E+01  0.80426081163E+01  0.51100000000E-03 0. -1.
        -11    1    3    3    0    0  0.51425107243E+01  0.95186338107E+01 -0.11876508478E+02  0.16065530183E+02  0.51100000000E-03 0.  1.
        -12    1    3    3    0    0  0.61524959913E+01  0.18269836260E+02 -0.10670741350E+02  0.22034174476E+02  0.00000000000E+00 0.  1.
</event>
<event>
 7    1  0.1519238E-008  0.4614232E+02  0.7816164E-02  0.1320468E+00
        -11   -1    0    0    0    0  0.00000000000E+00  0.00000000000E+00  0.45593999997E+02  0.45594000000E+02  0.51100000000E-03 0.  1.
         11   -1    0    0    0    0 -0.00000000000E+00 -0.00000000000E+00 -0.45593999997E+02  0.45594000000E+02  0.51100000000E-03 0. -1.
    9900012    2    1    2    0    0 -0.13305209482E+02 -0.35839586270E+02 -0.23824545682E+02  0.46142317407E+02  0.99999967666E+01 0.  0.
        -12    1    1    2    0    0  0.13305209482E+02  0.35839586270E+02  0.23824545682E+02  0.45045682593E+02  0.00000000000E+00 0.  1.
         11    1    3    3    0    0 -0.64747739039E+01 -0.12851516351E+02 -0.13997165133E+02  0.20074979493E+02  0.51100000000E-03 0. -1.
        -11    1    3    3    0    0  0.23868379096E-02 -0.33360623205E+01 -0.12465271860E+01  0.35613407293E+01  0.51100000000E-03 0.  1.
         12    1    3    3    0    0 -0.68328224160E+01 -0.19652007598E+02 -0.85808533632E+01  0.22505997184E+02  0.00000000000E+00 0. -1.
</event>
<event>
 7    1  0.1519238E-008  0.4614232E+02  0.7816164E-02  0.1320468E+00
        -11   -1    0    0    0    0  0.00000000000E+00  0.00000000000E+00  0.45593999997E+02  0.45594000000E+02  0.51100000000E-03 0. -1.
         11   -1    0    0    0    0 -0.00000000000E+00 -0.00000000000E+00 -0.45593999997E+02  0.45594000000E+02  0.51100000000E-03 0.  1.
    9900012    2    1    2    0    0  0.21392170854E+02 -0.36136951464E+02  0.16297521892E+02  0.46142318133E+02  0.10000003396E+02 0.  0.
        -12    1    1    2    0    0 -0.21392170854E+02  0.36136951464E+02 -0.16297521892E+02  0.45045681867E+02  0.00000000000E+00 0.  1.
         11    1    3    3    0    0  0.98700226029E+01 -0.10615997734E+02  0.55211457503E+01  0.15511279919E+02  0.51100000000E-03 0. -1.
        -11    1    3    3    0    0  0.11274190479E+02 -0.23425431740E+02  0.11462578589E+02  0.28412126484E+02  0.51100000000E-03 0.  1.
        -12    1    3    3    0    0  0.24795777208E+00 -0.20955219908E+01 -0.68620244722E+00  0.22189117308E+01  0.00000000000E+00 0.  1.
</event>
<event>
 7    1  0.1519238E-008  0.4614232E+02  0.7816164E-02  0.1320468E+00
        -11   -1    0    0    0    0  0.00000000000E+00  0.00000000000E+00  0.45593999997E+02  0.45594000000E+02  0.51100000000E-03 0.  1.
         11   -1    0    0    0    0 -0.00000000000E+00 -0.00000000000E+00 -0.45593999997E+02  0.45594000000E+02  0.51100000000E-03 0. -1.
    9900012    2    1    2    0    0 -0.40835753698E+02  0.11046152053E+02  0.15476989709E+02  0.46142318013E+02  0.10000002294E+02 0.  0.
        -12    1    1    2    0    0  0.40835753698E+02 -0.11046152053E+02 -0.15476989709E+02  0.45045681987E+02  0.00000000000E+00 0.  1.
         11    1    3    3    0    0 -0.15274392639E+02  0.44623229935E+01  0.51242505590E+01  0.16717575812E+02  0.51100000000E-03 0. -1.
        -11    1    3    3    0    0 -0.18255090598E+02  0.29188970428E+01  0.36269630663E+01  0.18839404290E+02  0.51100000000E-03 0.  1.
        -12    1    3    3    0    0 -0.73062704614E+01  0.36649320168E+01  0.67257760834E+01  0.10585337910E+02  0.00000000000E+00 0.  1.
</event>
<event>
 7    1  0.1519238E-008  0.4614232E+02  0.7816164E-02  0.1320468E+00
        -11   -1    0    0    0    0  0.00000000000E+00  0.00000000000E+00  0.45593999997E+02  0.45594000000E+02  0.51100000000E-03 0. -1.
         11   -1    0    0    0    0 -0.00000000000E+00 -0.00000000000E+00 -0.45593999997E+02  0.45594000000E+02  0.51100000000E-03 0.  1.
    9900012    2    1    2    0    0 -0.25866109112E+02 -0.30149008303E+02  0.21239001924E+02  0.46142317577E+02  0.99999983196E+01 0.  0.
        -12    1    1    2    0    0  0.25866109112E+02  0.30149008303E+02 -0.21239001924E+02  0.45045682423E+02  0.00000000000E+00 0.  1.
         11    1    3    3    0    0 -0.18707846722E+02 -0.18201148302E+02  0.16241688062E+02  0.30741791748E+02  0.51100000000E-03 0. -1.
        -11    1    3    3    0    0  0.46579793396E+00 -0.46583735693E+00  0.70505694855E+00  0.96492368621E+00  0.51100000000E-03 0.  1.
         12    1    3    3    0    0 -0.76240603236E+01 -0.11482022644E+02  0.42922569130E+01  0.14435602143E+02  0.00000000000E+00 0. -1.
</event>
<event>
 7    1  0.1519238E-008  0.4614232E+02  0.7816164E-02  0.1320468E+00
        -11   -1    0    0    0    0  0.00000000000E+00  0.00000000000E+00  0.45593999997E+02  0.45594000000E+02  0.51100000000E-03 0.  1.
         11   -1    0    0    0    0 -0.00000000000E+00 -0.00000000000E+00 -0.45593999997E+02  0.45594000000E+02  0.51100000000E-03 0. -1.
    9900012    2    1    2    0    0  0.35360158685E+02  0.16217707795E+02 -0.22710320011E+02  0.46142317594E+02  0.99999984792E+01 0.  0.
        -12    1    1    2    0    0 -0.35360158685E+02 -0.16217707795E+02  0.22710320011E+02  0.45045682406E+02  0.00000000000E+00 0.  1.
         11    1    3    3    0    0  0.30445739530E+02  0.13847505544E+02 -0.21101256051E+02  0.39546927472E+02  0.51100000000E-03 0. -1.
        -11    1    3    3    0    0  0.16593124418E+01 -0.80522442512E+00 -0.35511674254E+00  0.18782471393E+01  0.51100000000E-03 0.  1.
         12    1    3    3    0    0  0.32551067141E+01  0.31754266763E+01 -0.12539472173E+01  0.47171429828E+01  0.00000000000E+00 0. -1.
</event>
<event>
 7    1  0.1519238E-008  0.4614232E+02  0.7816164E-02  0.1320468E+00
        -11   -1    0    0    0    0  0.00000000000E+00  0.00000000000E+00  0.45593999997E+02  0.45594000000E+02  0.51100000000E-03 0.  1.
         11   -1    0    0    0    0 -0.00000000000E+00 -0.00000000000E+00 -0.45593999997E+02  0.45594000000E+02  0.51100000000E-03 0. -1.
    9900012    2    1    2    0    0 -0.30865347887E+02 -0.32809166668E+02 -0.48760231003E-01  0.46142317685E+02  0.99999993087E+01 0.  0.
        -12    1    1    2    0    0  0.30865347887E+02  0.32809166668E+02  0.48760231003E-01  0.45045682315E+02  0.00000000000E+00 0.  1.
         11    1    3    3    0    0 -0.42337941447E+01 -0.39681663370E+01 -0.21129500964E+00  0.58065482673E+01  0.51100000000E-03 0. -1.
        -11    1    3    3    0    0 -0.90195251219E+01 -0.11547655876E+02  0.43841975305E+01  0.15294488481E+02  0.51100000000E-03 0.  1.
        -12    1    3    3    0    0 -0.17612028621E+02 -0.17293344455E+02 -0.42216627518E+01  0.25041280937E+02  0.00000000000E+00 0.  1.
</event>
<event>
 7    1  0.1519238E-008  0.4614232E+02  0.7816164E-02  0.1320468E+00
        -11   -1    0    0    0    0  0.00000000000E+00  0.00000000000E+00  0.45593999997E+02  0.45594000000E+02  0.51100000000E-03 0.  1.
         11   -1    0    0    0    0 -0.00000000000E+00 -0.00000000000E+00 -0.45593999997E+02  0.45594000000E+02  0.51100000000E-03 0. -1.
    9900012    2    1    2    0    0 -0.16917397185E+02  0.35497609017E+02 -0.21973502791E+02  0.46142318761E+02  0.10000009117E+02 0.  0.
        -12    1    1    2    0    0  0.16917397185E+02 -0.35497609017E+02  0.21973502791E+02  0.45045681239E+02  0.00000000000E+00 0.  1.
         11    1    3    3    0    0 -0.36433656403E+01  0.96234713573E+01 -0.45434558593E+01  0.11248480144E+02  0.51100000000E-03 0. -1.
        -11    1    3    3    0    0 -0.13381219834E+02  0.18418203596E+02 -0.12826670448E+02  0.26130647581E+02  0.51100000000E-03 0.  1.
        -12    1    3    3    0    0  0.10718828871E+00  0.74559340628E+01 -0.46033764834E+01  0.87631910356E+01  0.00000000000E+00 0.  1.
</event>
<event>
 7    1  0.1519238E-008  0.4614232E+02  0.7816164E-02  0.1320468E+00
        -11   -1    0    0    0    0  0.00000000000E+00  0.00000000000E+00  0.45593999997E+02  0.45594000000E+02  0.51100000000E-03 0.  1.
         11   -1    0    0    0    0 -0.00000000000E+00 -0.00000000000E+00 -0.45593999997E+02  0.45594000000E+02  0.51100000000E-03 0. -1.
    9900012    2    1    2    0    0 -0.10050723310E+02 -0.25507490325E+02 -0.35741634397E+02  0.46142317287E+02  0.99999956727E+01 0.  0.
        -12    1    1    2    0    0  0.10050723310E+02  0.25507490325E+02  0.35741634397E+02  0.45045682713E+02  0.00000000000E+00 0.  1.
         11    1    3    3    0    0 -0.49917470758E+01 -0.66321976691E+01 -0.51721958223E+01  0.97803473699E+01  0.51100000000E-03 0.  1.
        -11    1    3    3    0    0 -0.40851258221E+01 -0.10637353153E+02 -0.17732070245E+02  0.21077662359E+02  0.51100000000E-03 0. -1.
         12    1    3    3    0    0 -0.97385041199E+00 -0.82379395036E+01 -0.12837368330E+02  0.15284307558E+02  0.00000000000E+00 0. -1.
</event>
<event>
 7    1  0.1519238E-008  0.4614232E+02  0.7816164E-02  0.1320468E+00
        -11   -1    0    0    0    0  0.00000000000E+00  0.00000000000E+00  0.45593999997E+02  0.45594000000E+02  0.51100000000E-03 0.  1.
         11   -1    0    0    0    0 -0.00000000000E+00 -0.00000000000E+00 -0.45593999997E+02  0.45594000000E+02  0.51100000000E-03 0. -1.
    9900012    2    1    2    0    0  0.28439490624E+02  0.53649586160E+01 -0.34518490501E+02  0.46142316584E+02  0.99999892685E+01 0.  0.
        -12    1    1    2    0    0 -0.28439490624E+02 -0.53649586160E+01  0.34518490501E+02  0.45045683416E+02  0.00000000000E+00 0.  1.
         11    1    3    3    0    0  0.13123833860E+02  0.13837907342E-01 -0.11587267386E+02  0.17507140612E+02  0.51100000000E-03 0. -1.
        -11    1    3    3    0    0  0.13920313753E+02  0.64052943462E+01 -0.21334039599E+02  0.26266788470E+02  0.51100000000E-03 0.  1.
        -12    1    3    3    0    0  0.13953430110E+01 -0.10541736376E+01 -0.15971835163E+01  0.23683875023E+01  0.00000000000E+00 0.  1.
</event>
<event>
 7    1  0.1519238E-008  0.4614232E+02  0.7816164E-02  0.1320468E+00
        -11   -1    0    0    0    0  0.00000000000E+00  0.00000000000E+00  0.45593999997E+02  0.45594000000E+02  0.51100000000E-03 0.  1.
         11   -1    0    0    0    0 -0.00000000000E+00 -0.00000000000E+00 -0.45593999997E+02  0.45594000000E+02  0.51100000000E-03 0. -1.
    9900012    2    1    2    0    0  0.57074473882E+01 -0.31681108332E+02 -0.31509458027E+02  0.46142317343E+02  0.99999961900E+01 0.  0.
        -12    1    1    2    0    0 -0.57074473882E+01  0.31681108332E+02  0.31509458027E+02  0.45045682657E+02  0.00000000000E+00 0.  1.
         11    1    3    3    0    0  0.30245201723E+01 -0.19496385561E+02 -0.15177078343E+02  0.24891775339E+02  0.51100000000E-03 0. -1.
        -11    1    3    3    0    0  0.32358544308E+01 -0.30714371321E+01 -0.56066745705E+01  0.71651434008E+01  0.51100000000E-03 0.  1.
        -12    1    3    3    0    0 -0.55292721492E+00 -0.91132856388E+01 -0.10725705114E+02  0.14085398604E+02  0.00000000000E+00 0.  1.
</event>
<event>
 7    1  0.1519238E-008  0.4614232E+02  0.7816164E-02  0.1320468E+00
        -11   -1    0    0    0    0  0.00000000000E+00  0.00000000000E+00  0.45593999997E+02  0.45594000000E+02  0.51100000000E-03 0.  1.
         11   -1    0    0    0    0 -0.00000000000E+00 -0.00000000000E+00 -0.45593999997E+02  0.45594000000E+02  0.51100000000E-03 0. -1.
    9900012    2    1    2    0    0  0.35593043654E+02  0.10107232189E+02  0.25692267521E+02  0.46142317527E+02  0.99999978616E+01 0.  0.
        -12    1    1    2    0    0 -0.35593043654E+02 -0.10107232189E+02 -0.25692267521E+02  0.45045682473E+02  0.00000000000E+00 0.  1.
         11    1    3    3    0    0  0.29992431003E+02  0.62126962829E+01  0.23326612252E+02  0.38500316258E+02  0.51100000000E-03 0. -1.
        -11    1    3    3    0    0  0.41464071630E+01  0.18444396320E+01  0.61656698840E+00  0.45798258733E+01  0.51100000000E-03 0.  1.
         12    1    3    3    0    0  0.14542054884E+01  0.20500962740E+01  0.17490882812E+01  0.30621753952E+01  0.00000000000E+00 0. -1.
</event>
<event>
 7    1  0.1519238E-008  0.4614232E+02  0.7816164E-02  0.1320468E+00
        -11   -1    0    0    0    0  0.00000000000E+00  0.00000000000E+00  0.45593999997E+02  0.45594000000E+02  0.51100000000E-03 0.  1.
         11   -1    0    0    0    0 -0.00000000000E+00 -0.00000000000E+00 -0.45593999997E+02  0.45594000000E+02  0.51100000000E-03 0. -1.
    9900012    2    1    2    0    0 -0.18489561003E+02  0.32040017828E+02 -0.25703825008E+02  0.46142320645E+02  0.10000026301E+02 0.  0.
        -12    1    1    2    0    0  0.18489561003E+02 -0.32040017828E+02  0.25703825008E+02  0.45045679355E+02  0.00000000000E+00 0.  1.
         11    1    3    3    0    0 -0.12727795123E-01  0.33540623627E+01 -0.32639229888E+01  0.46800737032E+01  0.51100000000E-03 0.  1.
        -11    1    3    3    0    0 -0.15705620573E+02  0.19111296695E+02 -0.14150557205E+02  0.28498183247E+02  0.51100000000E-03 0. -1.
         12    1    3    3    0    0 -0.27712126351E+01  0.95746587705E+01 -0.82893448138E+01  0.12964063695E+02  0.00000000000E+00 0. -1.
</event>
<event>
 7    1  0.1519238E-008  0.4614232E+02  0.7816164E-02  0.1320468E+00
        -11   -1    0    0    0    0  0.00000000000E+00  0.00000000000E+00  0.45593999997E+02  0.45594000000E+02  0.51100000000E-03 0.  1.
         11   -1    0    0    0    0 -0.00000000000E+00 -0.00000000000E+00 -0.45593999997E+02  0.45594000000E+02  0.51100000000E-03 0. -1.
    9900012    2    1    2    0    0  0.88834689988E+01 -0.14713866637E+02 -0.41637718597E+02  0.46142317601E+02  0.99999985380E+01 0.  0.
        -12    1    1    2    0    0 -0.88834689988E+01  0.14713866637E+02  0.41637718597E+02  0.45045682399E+02  0.00000000000E+00 0.  1.
         11    1    3    3    0    0  0.42570906797E+01 -0.11367340490E+02 -0.23068012690E+02  0.26066692552E+02  0.51100000000E-03 0. -1.
        -11    1    3    3    0    0 -0.14220416922E+00 -0.88457574583E+00 -0.94625500241E+01  0.95048697779E+01  0.51100000000E-03 0.  1.
         12    1    3    3    0    0  0.47685824884E+01 -0.24619504015E+01 -0.91071558823E+01  0.10570755271E+02  0.00000000000E+00 0. -1.
</event>
<event>
 7    1  0.1519238E-008  0.4614232E+02  0.7816164E-02  0.1320468E+00
        -11   -1    0    0    0    0  0.00000000000E+00  0.00000000000E+00  0.45593999997E+02  0.45594000000E+02  0.51100000000E-03 0.  1.
         11   -1    0    0    0    0 -0.00000000000E+00 -0.00000000000E+00 -0.45593999997E+02  0.45594000000E+02  0.51100000000E-03 0. -1.
    9900012    2    1    2    0    0  0.42999915851E+02  0.98768470349E+00 -0.13384508830E+02  0.46142319176E+02  0.10000012904E+02 0.  0.
        -12    1    1    2    0    0 -0.42999915851E+02 -0.98768470349E+00  0.13384508830E+02  0.45045680824E+02  0.00000000000E+00 0.  1.
         11    1    3    3    0    0  0.99634545785E+01 -0.42175036155E+00 -0.37241544350E+01  0.10645075247E+02  0.51100000000E-03 0. -1.
        -11    1    3    3    0    0  0.32844377477E+02  0.44067590887E+00 -0.10170241623E+02  0.34385769470E+02  0.51100000000E-03 0.  1.
        -12    1    3    3    0    0  0.19208379513E+00  0.96875915616E+00  0.50988722802E+00  0.11114744587E+01  0.00000000000E+00 0.  1.
</event>
<event>
 7    1  0.1519238E-008  0.4614232E+02  0.7816164E-02  0.1320468E+00
        -11   -1    0    0    0    0  0.00000000000E+00  0.00000000000E+00  0.45593999997E+02  0.45594000000E+02  0.51100000000E-03 0.  1.
         11   -1    0    0    0    0 -0.00000000000E+00 -0.00000000000E+00 -0.45593999997E+02  0.45594000000E+02  0.51100000000E-03 0. -1.
    9900012    2    1    2    0    0 -0.25469631481E+02 -0.34379502915E+02 -0.14087621289E+02  0.46142318497E+02  0.10000006715E+02 0.  0.
        -12    1    1    2    0    0  0.25469631481E+02  0.34379502915E+02  0.14087621289E+02  0.45045681503E+02  0.00000000000E+00 0.  1.
         11    1    3    3    0    0 -0.15122836441E+02 -0.17898841034E+02 -0.11653710723E+02  0.26170167486E+02  0.51100000000E-03 0. -1.
        -11    1    3    3    0    0 -0.95366824298E+01 -0.15955243503E+02 -0.15324583803E+01  0.18651180551E+02  0.51100000000E-03 0.  1.
        -12    1    3    3    0    0 -0.81011261054E+00 -0.52541837756E+00 -0.90145218552E+00  0.13209704599E+01  0.00000000000E+00 0.  1.
</event>
<event>
 7    1  0.1519238E-008  0.4614232E+02  0.7816164E-02  0.1320468E+00
        -11   -1    0    0    0    0  0.00000000000E+00  0.00000000000E+00  0.45593999997E+02  0.45594000000E+02  0.51100000000E-03 0.  1.
         11   -1    0    0    0    0 -0.00000000000E+00 -0.00000000000E+00 -0.45593999997E+02  0.45594000000E+02  0.51100000000E-03 0. -1.
    9900012    2    1    2    0    0 -0.23962847876E+02 -0.89862781840E+01 -0.37069425680E+02  0.46142316587E+02  0.99999892950E+01 0.  0.
        -12    1    1    2    0    0  0.23962847876E+02  0.89862781840E+01  0.37069425680E+02  0.45045683413E+02  0.00000000000E+00 0.  1.
         11    1    3    3    0    0 -0.16509050968E+02 -0.32453606698E+01 -0.17354148895E+02  0.24171214572E+02  0.51100000000E-03 0. -1.
        -11    1    3    3    0    0 -0.19158474857E+01 -0.13534072212E+01 -0.75160461862E+01  0.78735718215E+01  0.51100000000E-03 0.  1.
         12    1    3    3    0    0 -0.55379494216E+01 -0.43875102930E+01 -0.12199230598E+02  0.14097530194E+02  0.00000000000E+00 0. -1.
</event>
<event>
 7    1  0.1519238E-008  0.4614232E+02  0.7816164E-02  0.1320468E+00
        -11   -1    0    0    0    0  0.00000000000E+00  0.00000000000E+00  0.45593999997E+02  0.45594000000E+02  0.51100000000E-03 0.  1.
         11   -1    0    0    0    0 -0.00000000000E+00 -0.00000000000E+00 -0.45593999997E+02  0.45594000000E+02  0.51100000000E-03 0. -1.
    9900012    2    1    2    0    0  0.21711432072E+02 -0.20709147514E+02 -0.33598487398E+02  0.46142318422E+02  0.10000006025E+02 0.  0.
        -12    1    1    2    0    0 -0.21711432072E+02  0.20709147514E+02  0.33598487398E+02  0.45045681578E+02  0.00000000000E+00 0.  1.
         11    1    3    3    0    0  0.32905652264E+01 -0.27998955394E+01 -0.16422888022E+01  0.46221582958E+01  0.51100000000E-03 0. -1.
        -11    1    3    3    0    0 -0.45366963951E+00 -0.30873790860E+00 -0.15165893085E+01  0.16128169859E+01  0.51100000000E-03 0.  1.
         12    1    3    3    0    0  0.18874536485E+02 -0.17600514066E+02 -0.30439609288E+02  0.39907343140E+02  0.00000000000E+00 0. -1.
</event>
<event>
 7    1  0.1519238E-008  0.4614232E+02  0.7816164E-02  0.1320468E+00
        -11   -1    0    0    0    0  0.00000000000E+00  0.00000000000E+00  0.45593999997E+02  0.45594000000E+02  0.51100000000E-03 0.  1.
         11   -1    0    0    0    0 -0.00000000000E+00 -0.00000000000E+00 -0.45593999997E+02  0.45594000000E+02  0.51100000000E-03 0. -1.
    9900012    2    1    2    0    0 -0.39582277410E+02  0.20468458714E+02  0.65877920454E+01  0.46142317731E+02  0.99999997244E+01 0.  0.
        -12    1    1    2    0    0  0.39582277410E+02 -0.20468458714E+02 -0.65877920454E+01  0.45045682269E+02  0.00000000000E+00 0.  1.
         11    1    3    3    0    0 -0.22816498868E+02  0.10493398355E+02  0.80394516361E+01  0.26369239893E+02  0.51100000000E-03 0.  1.
        -11    1    3    3    0    0 -0.15605450411E+02  0.83397610792E+01 -0.10298709589E+01  0.17724060817E+02  0.51100000000E-03 0. -1.
        -12    1    3    3    0    0 -0.11603281304E+01  0.16352992796E+01 -0.42178863173E+00  0.20490170214E+01  0.00000000000E+00 0.  1.
</event>
<event>
 7    1  0.1519238E-008  0.4614232E+02  0.7816164E-02  0.1320468E+00
        -11   -1    0    0    0    0  0.00000000000E+00  0.00000000000E+00  0.45593999997E+02  0.45594000000E+02  0.51100000000E-03 0.  1.
         11   -1    0    0    0    0 -0.00000000000E+00 -0.00000000000E+00 -0.45593999997E+02  0.45594000000E+02  0.51100000000E-03 0. -1.
    9900012    2    1    2    0    0 -0.37394485483E+02 -0.25040881524E+02 -0.19288272098E+01  0.46142315784E+02  0.99999819747E+01 0.  0.
        -12    1    1    2    0    0  0.37394485483E+02  0.25040881524E+02  0.19288272098E+01  0.45045684216E+02  0.00000000000E+00 0.  1.
         11    1    3    3    0    0 -0.21174383219E+02 -0.11880269404E+02 -0.21261164930E+01  0.24372436838E+02  0.51100000000E-03 0. -1.
        -11    1    3    3    0    0 -0.12873758705E+02 -0.10235941344E+02  0.27031909604E+01  0.16667795296E+02  0.51100000000E-03 0.  1.
        -12    1    3    3    0    0 -0.33463435595E+01 -0.29246707755E+01 -0.25059016771E+01  0.51020836507E+01  0.00000000000E+00 0.  1.
</event>
<event>
 7    1  0.1519238E-008  0.4614232E+02  0.7816164E-02  0.1320468E+00
        -11   -1    0    0    0    0  0.00000000000E+00  0.00000000000E+00  0.45593999997E+02  0.45594000000E+02  0.51100000000E-03 0.  1.
         11   -1    0    0    0    0 -0.00000000000E+00 -0.00000000000E+00 -0.45593999997E+02  0.45594000000E+02  0.51100000000E-03 0. -1.
    9900012    2    1    2    0    0 -0.11091778260E+02 -0.26084579744E+02 -0.35009721938E+02  0.46142317904E+02  0.10000001299E+02 0.  0.
        -12    1    1    2    0    0  0.11091778260E+02  0.26084579744E+02  0.35009721938E+02  0.45045682096E+02  0.00000000000E+00 0.  1.
         11    1    3    3    0    0 -0.72349616810E+01 -0.86994434865E+01 -0.12466243594E+02  0.16835445260E+02  0.51100000000E-03 0.  1.
        -11    1    3    3    0    0 -0.22287700210E+01 -0.15325029979E+02 -0.21464952127E+02  0.26468247576E+02  0.51100000000E-03 0. -1.
         12    1    3    3    0    0 -0.16280465585E+01 -0.20601062782E+01 -0.10785262168E+01  0.28386250676E+01  0.00000000000E+00 0. -1.
</event>
<event>
 7    1  0.1519238E-008  0.4614232E+02  0.7816164E-02  0.1320468E+00
        -11   -1    0    0    0    0  0.00000000000E+00  0.00000000000E+00  0.45593999997E+02  0.45594000000E+02  0.51100000000E-03 0.  1.
         11   -1    0    0    0    0 -0.00000000000E+00 -0.00000000000E+00 -0.45593999997E+02  0.45594000000E+02  0.51100000000E-03 0. -1.
    9900012    2    1    2    0    0  0.16650002102E+02 -0.55845900731E+01 -0.41481359378E+02  0.46142318829E+02  0.10000009738E+02 0.  0.
        -12    1    1    2    0    0 -0.16650002102E+02  0.55845900731E+01  0.41481359378E+02  0.45045681171E+02  0.00000000000E+00 0.  1.
         11    1    3    3    0    0  0.18846859456E+01 -0.10669210372E+01 -0.14741706467E+02  0.14899941994E+02  0.51100000000E-03 0. -1.
        -11    1    3    3    0    0  0.86071021520E+01 -0.44446778252E+01 -0.13250415503E+02  0.16413740576E+02  0.51100000000E-03 0.  1.
        -12    1    3    3    0    0  0.61582140042E+01 -0.72991210680E-01 -0.13489237408E+02  0.14828636259E+02  0.00000000000E+00 0.  1.
</event>
<event>
 7    1  0.1519238E-008  0.4614232E+02  0.7816164E-02  0.1320468E+00
        -11   -1    0    0    0    0  0.00000000000E+00  0.00000000000E+00  0.45593999997E+02  0.45594000000E+02  0.51100000000E-03 0. -1.
         11   -1    0    0    0    0 -0.00000000000E+00 -0.00000000000E+00 -0.45593999997E+02  0.45594000000E+02  0.51100000000E-03 0.  1.
    9900012    2    1    2    0    0  0.82005569063E+01  0.19241304787E+00  0.44292519104E+02  0.46142318687E+02  0.10000008442E+02 0.  0.
        -12    1    1    2    0    0 -0.82005569063E+01 -0.19241304787E+00 -0.44292519104E+02  0.45045681313E+02  0.00000000000E+00 0.  1.
         11    1    3    3    0    0  0.17390040329E+01 -0.18042132863E+00  0.25097545689E+02  0.25158368126E+02  0.51100000000E-03 0. -1.
        -11    1    3    3    0    0  0.85961165948E+00 -0.16338902519E+01  0.17186656166E+01  0.25223681974E+01  0.51100000000E-03 0.  1.
        -12    1    3    3    0    0  0.56019412139E+01  0.20067246284E+01  0.17476307799E+02  0.18461582364E+02  0.00000000000E+00 0.  1.
</event>
<event>
 7    1  0.1519238E-008  0.4614232E+02  0.7816164E-02  0.1320468E+00
        -11   -1    0    0    0    0  0.00000000000E+00  0.00000000000E+00  0.45593999997E+02  0.45594000000E+02  0.51100000000E-03 0. -1.
         11   -1    0    0    0    0 -0.00000000000E+00 -0.00000000000E+00 -0.45593999997E+02  0.45594000000E+02  0.51100000000E-03 0.  1.
    9900012    2    1    2    0    0  0.14493165326E+02 -0.41825454218E+02  0.83482402038E+01  0.46142316787E+02  0.99999911132E+01 0.  0.
        -12    1    1    2    0    0 -0.14493165326E+02  0.41825454218E+02 -0.83482402038E+01  0.45045683213E+02  0.00000000000E+00 0.  1.
         11    1    3    3    0    0  0.11697600268E+02 -0.25223555120E+02  0.51392262724E+01  0.28274957681E+02  0.51100000000E-03 0. -1.
        -11    1    3    3    0    0  0.28017505696E+01 -0.15181230384E+02  0.43571802107E+01  0.16040716376E+02  0.51100000000E-03 0.  1.
        -12    1    3    3    0    0 -0.61855118792E-02 -0.14206687139E+01 -0.11481662793E+01  0.18266427292E+01  0.00000000000E+00 0.  1.
</event>
<event>
 7    1  0.1519238E-008  0.4614231E+02  0.7816164E-02  0.1320468E+00
        -11   -1    0    0    0    0  0.00000000000E+00  0.00000000000E+00  0.45593999997E+02  0.45594000000E+02  0.51100000000E-03 0.  1.
         11   -1    0    0    0    0 -0.00000000000E+00 -0.00000000000E+00 -0.45593999997E+02  0.45594000000E+02  0.51100000000E-03 0. -1.
    9900012    2    1    2    0    0  0.17647140362E+02 -0.34137813211E+02 -0.23501105990E+02  0.46142313897E+02  0.99999647619E+01 0.  0.
        -12    1    1    2    0    0 -0.17647140362E+02  0.34137813211E+02  0.23501105990E+02  0.45045686103E+02  0.00000000000E+00 0.  1.
         11    1    3    3    0    0  0.61259036422E+01 -0.15370878312E+02 -0.10275907760E+02  0.19477804704E+02  0.51100000000E-03 0. -1.
        -11    1    3    3    0    0  0.12498714457E+02 -0.16644104798E+02 -0.11782571069E+02  0.23918049019E+02  0.51100000000E-03 0.  1.
         12    1    3    3    0    0 -0.97747773758E+00 -0.21228301006E+01 -0.14426271610E+01  0.27464601743E+01  0.00000000000E+00 0. -1.
</event>
<event>
 7    1  0.1519238E-008  0.4614232E+02  0.7816164E-02  0.1320468E+00
        -11   -1    0    0    0    0  0.00000000000E+00  0.00000000000E+00  0.45593999997E+02  0.45594000000E+02  0.51100000000E-03 0.  1.
         11   -1    0    0    0    0 -0.00000000000E+00 -0.00000000000E+00 -0.45593999997E+02  0.45594000000E+02  0.51100000000E-03 0. -1.
    9900012    2    1    2    0    0  0.33784567889E+02  0.11863410488E+02 -0.27330860738E+02  0.46142317804E+02  0.10000000390E+02 0.  0.
        -12    1    1    2    0    0 -0.33784567889E+02 -0.11863410488E+02  0.27330860738E+02  0.45045682196E+02  0.00000000000E+00 0.  1.
         11    1    3    3    0    0  0.22229216174E+00  0.16076954211E+01 -0.43412010060E+00  0.16800472895E+01  0.51100000000E-03 0.  1.
        -11    1    3    3    0    0  0.17704607445E+02  0.41965176833E+01 -0.16454412528E+02  0.24531848226E+02  0.51100000000E-03 0. -1.
        -12    1    3    3    0    0  0.15857668282E+02  0.60591973835E+01 -0.10442328109E+02  0.19930422289E+02  0.00000000000E+00 0.  1.
</event>
<event>
 7    1  0.1519238E-008  0.4614232E+02  0.7816164E-02  0.1320468E+00
        -11   -1    0    0    0    0  0.00000000000E+00  0.00000000000E+00  0.45593999997E+02  0.45594000000E+02  0.51100000000E-03 0. -1.
         11   -1    0    0    0    0 -0.00000000000E+00 -0.00000000000E+00 -0.45593999997E+02  0.45594000000E+02  0.51100000000E-03 0.  1.
    9900012    2    1    2    0    0  0.53299619113E+01 -0.49088577171E+01  0.44459063192E+02  0.46142315657E+02  0.99999808094E+01 0.  0.
        -12    1    1    2    0    0 -0.53299619113E+01  0.49088577171E+01 -0.44459063192E+02  0.45045684343E+02  0.00000000000E+00 0.  1.
         11    1    3    3    0    0  0.23911581059E+01 -0.52636269833E+01  0.14118091312E+02  0.15255946666E+02  0.51100000000E-03 0. -1.
        -11    1    3    3    0    0  0.42717269082E+01 -0.26823297879E+00  0.21201298165E+02  0.21629023183E+02  0.51100000000E-03 0.  1.
        -12    1    3    3    0    0 -0.13329231028E+01  0.62300224494E+00  0.91396737143E+01  0.92573458074E+01  0.00000000000E+00 0.  1.
</event>
<event>
 7    1  0.1519238E-008  0.4614232E+02  0.7816164E-02  0.1320468E+00
        -11   -1    0    0    0    0  0.00000000000E+00  0.00000000000E+00  0.45593999997E+02  0.45594000000E+02  0.51100000000E-03 0. -1.
         11   -1    0    0    0    0 -0.00000000000E+00 -0.00000000000E+00 -0.45593999997E+02  0.45594000000E+02  0.51100000000E-03 0.  1.
    9900012    2    1    2    0    0 -0.29872344453E+02  0.16351805061E+02  0.29485165510E+02  0.46142317887E+02  0.10000001147E+02 0.  0.
        -12    1    1    2    0    0  0.29872344453E+02 -0.16351805061E+02 -0.29485165510E+02  0.45045682113E+02  0.00000000000E+00 0.  1.
         11    1    3    3    0    0  0.74426032770E+00  0.60738870081E+00  0.80431877258E+00  0.12529059894E+01  0.51100000000E-03 0. -1.
        -11    1    3    3    0    0 -0.26156567179E+01  0.62428616102E+00  0.18339100123E+01  0.32549377062E+01  0.51100000000E-03 0.  1.
         12    1    3    3    0    0 -0.28000948063E+02  0.15120130200E+02  0.26846936725E+02  0.41634474191E+02  0.00000000000E+00 0. -1.
</event>
<event>
 7    1  0.1519238E-008  0.4614232E+02  0.7816164E-02  0.1320468E+00
        -11   -1    0    0    0    0  0.00000000000E+00  0.00000000000E+00  0.45593999997E+02  0.45594000000E+02  0.51100000000E-03 0.  1.
         11   -1    0    0    0    0 -0.00000000000E+00 -0.00000000000E+00 -0.45593999997E+02  0.45594000000E+02  0.51100000000E-03 0. -1.
    9900012    2    1    2    0    0 -0.21975533069E+02  0.22321505696E+02 -0.32371899220E+02  0.46142317307E+02  0.99999958586E+01 0.  0.
        -12    1    1    2    0    0  0.21975533069E+02 -0.22321505696E+02  0.32371899220E+02  0.45045682693E+02  0.00000000000E+00 0.  1.
         11    1    3    3    0    0 -0.83323769344E+01  0.57791641988E+01 -0.12040297917E+02  0.15741537993E+02  0.51100000000E-03 0. -1.
        -11    1    3    3    0    0 -0.11107136357E+02  0.10853793714E+02 -0.10443660040E+02  0.18714789642E+02  0.51100000000E-03 0.  1.
        -12    1    3    3    0    0 -0.25360197774E+01  0.56885477831E+01 -0.98879412629E+01  0.11685989672E+02  0.00000000000E+00 0.  1.
</event>
<event>
 7    1  0.1519238E-008  0.4614232E+02  0.7816164E-02  0.1320468E+00
        -11   -1    0    0    0    0  0.00000000000E+00  0.00000000000E+00  0.45593999997E+02  0.45594000000E+02  0.51100000000E-03 0. -1.
         11   -1    0    0    0    0 -0.00000000000E+00 -0.00000000000E+00 -0.45593999997E+02  0.45594000000E+02  0.51100000000E-03 0.  1.
    9900012    2    1    2    0    0 -0.44280697032E+02  0.73763793070E+01 -0.37312645757E+01  0.46142318335E+02  0.10000005233E+02 0.  0.
        -12    1    1    2    0    0  0.44280697032E+02 -0.73763793070E+01  0.37312645757E+01  0.45045681665E+02  0.00000000000E+00 0.  1.
         11    1    3    3    0    0 -0.39124266556E+02  0.94998733785E+01 -0.43005739001E+01  0.40490131685E+02  0.51100000000E-03 0. -1.
        -11    1    3    3    0    0 -0.16867694461E+01 -0.46665408198E+00 -0.83906182505E-01  0.17521408919E+01  0.51100000000E-03 0.  1.
         12    1    3    3    0    0 -0.34696610301E+01 -0.16568399895E+01  0.65321550696E+00  0.39000457579E+01  0.00000000000E+00 0. -1.
</event>
<event>
 7    1  0.1519238E-008  0.4614232E+02  0.7816164E-02  0.1320468E+00
        -11   -1    0    0    0    0  0.00000000000E+00  0.00000000000E+00  0.45593999997E+02  0.45594000000E+02  0.51100000000E-03 0. -1.
         11   -1    0    0    0    0 -0.00000000000E+00 -0.00000000000E+00 -0.45593999997E+02  0.45594000000E+02  0.51100000000E-03 0.  1.
    9900012    2    1    2    0    0 -0.41668687486E+02  0.10974377424E+02  0.13130007799E+02  0.46142316728E+02  0.99999905765E+01 0.  0.
        -12    1    1    2    0    0  0.41668687486E+02 -0.10974377424E+02 -0.13130007799E+02  0.45045683272E+02  0.00000000000E+00 0.  1.
         11    1    3    3    0    0 -0.87929553991E+01 -0.10766688119E+00  0.55634989606E+01  0.10405776173E+02  0.51100000000E-03 0. -1.
        -11    1    3    3    0    0 -0.28217411954E+02  0.81260247834E+01  0.70262127990E+01  0.30193083359E+02  0.51100000000E-03 0.  1.
        -12    1    3    3    0    0 -0.46583201330E+01  0.29560195217E+01  0.54029603920E+00  0.55434571960E+01  0.00000000000E+00 0.  1.
</event>
<event>
 7    1  0.1519238E-008  0.4614231E+02  0.7816164E-02  0.1320468E+00
        -11   -1    0    0    0    0  0.00000000000E+00  0.00000000000E+00  0.45593999997E+02  0.45594000000E+02  0.51100000000E-03 0. -1.
         11   -1    0    0    0    0 -0.00000000000E+00 -0.00000000000E+00 -0.45593999997E+02  0.45594000000E+02  0.51100000000E-03 0.  1.
    9900012    2    1    2    0    0  0.13792087668E+02 -0.10057216345E+02 -0.41686262443E+02  0.46142314754E+02  0.99999725756E+01 0.  0.
        -12    1    1    2    0    0 -0.13792087668E+02  0.10057216345E+02  0.41686262443E+02  0.45045685246E+02  0.00000000000E+00 0.  1.
         11    1    3    3    0    0  0.85919512521E+00 -0.41111442516E+01 -0.10155950742E+02  0.10990134624E+02  0.51100000000E-03 0. -1.
        -11    1    3    3    0    0  0.97912176706E+01 -0.43843963735E+01 -0.16232828642E+02  0.19457533272E+02  0.51100000000E-03 0.  1.
        -12    1    3    3    0    0  0.31416748717E+01 -0.15616757199E+01 -0.15297483059E+02  0.15694646858E+02  0.00000000000E+00 0.  1.
</event>
<event>
 7    1  0.1519238E-008  0.4614232E+02  0.7816164E-02  0.1320468E+00
        -11   -1    0    0    0    0  0.00000000000E+00  0.00000000000E+00  0.45593999997E+02  0.45594000000E+02  0.51100000000E-03 0. -1.
         11   -1    0    0    0    0 -0.00000000000E+00 -0.00000000000E+00 -0.45593999997E+02  0.45594000000E+02  0.51100000000E-03 0.  1.
    9900012    2    1    2    0    0 -0.42885721257E+02 -0.47818098357E+01 -0.12925271880E+02  0.46142318229E+02  0.10000004266E+02 0.  0.
        -12    1    1    2    0    0  0.42885721257E+02  0.47818098357E+01  0.12925271880E+02  0.45045681771E+02  0.00000000000E+00 0.  1.
         11    1    3    3    0    0 -0.20864564622E+02 -0.25987473393E+01 -0.40924747560E+01  0.21420361680E+02  0.51100000000E-03 0. -1.
        -11    1    3    3    0    0 -0.32354182480E+01 -0.23590699579E+01 -0.10124991125E+00  0.40054205911E+01  0.51100000000E-03 0.  1.
         12    1    3    3    0    0 -0.18785738387E+02  0.17600746154E+00 -0.87315472128E+01  0.20716535958E+02  0.00000000000E+00 0. -1.
</event>
<event>
 7    1  0.1519238E-008  0.4614232E+02  0.7816164E-02  0.1320468E+00
        -11   -1    0    0    0    0  0.00000000000E+00  0.00000000000E+00  0.45593999997E+02  0.45594000000E+02  0.51100000000E-03 0.  1.
         11   -1    0    0    0    0 -0.00000000000E+00 -0.00000000000E+00 -0.45593999997E+02  0.45594000000E+02  0.51100000000E-03 0. -1.
    9900012    2    1    2    0    0  0.34169267893E+02 -0.96945183217E+01 -0.27705429739E+02  0.46142318843E+02  0.10000009867E+02 0.  0.
        -12    1    1    2    0    0 -0.34169267893E+02  0.96945183217E+01  0.27705429739E+02  0.45045681157E+02  0.00000000000E+00 0.  1.
         11    1    3    3    0    0  0.25145967853E+02 -0.90900861728E+01 -0.23081612740E+02  0.35322941735E+02  0.51100000000E-03 0. -1.
        -11    1    3    3    0    0  0.58704006972E+01  0.62725436789E-01 -0.97501501846E+00  0.59511505924E+01  0.51100000000E-03 0.  1.
        -12    1    3    3    0    0  0.31528993432E+01 -0.66715758572E+00 -0.36488019807E+01  0.48682265156E+01  0.00000000000E+00 0.  1.
</event>
<event>
 7    1  0.1519238E-008  0.4614232E+02  0.7816164E-02  0.1320468E+00
        -11   -1    0    0    0    0  0.00000000000E+00  0.00000000000E+00  0.45593999997E+02  0.45594000000E+02  0.51100000000E-03 0.  1.
         11   -1    0    0    0    0 -0.00000000000E+00 -0.00000000000E+00 -0.45593999997E+02  0.45594000000E+02  0.51100000000E-03 0. -1.
    9900012    2    1    2    0    0  0.75742985822E+01 -0.30294697981E+02 -0.32464976429E+02  0.46142318528E+02  0.10000006992E+02 0.  0.
        -12    1    1    2    0    0 -0.75742985822E+01  0.30294697981E+02  0.32464976429E+02  0.45045681472E+02  0.00000000000E+00 0.  1.
         11    1    3    3    0    0  0.50397688842E+01 -0.11443985300E+02 -0.17877420630E+02  0.21816650490E+02  0.51100000000E-03 0. -1.
        -11    1    3    3    0    0  0.16901333733E+01 -0.16018152549E+02 -0.10302652356E+02  0.19120209406E+02  0.51100000000E-03 0.  1.
        -12    1    3    3    0    0  0.84439632476E+00 -0.28325601315E+01 -0.42849034425E+01  0.52054586314E+01  0.00000000000E+00 0.  1.
</event>
<event>
 7    1  0.1519238E-008  0.4614232E+02  0.7816164E-02  0.1320468E+00
        -11   -1    0    0    0    0  0.00000000000E+00  0.00000000000E+00  0.45593999997E+02  0.45594000000E+02  0.51100000000E-03 0.  1.
         11   -1    0    0    0    0 -0.00000000000E+00 -0.00000000000E+00 -0.45593999997E+02  0.45594000000E+02  0.51100000000E-03 0. -1.
    9900012    2    1    2    0    0 -0.43876004788E+02  0.15655668410E+00 -0.10197322220E+02  0.46142315560E+02  0.99999799312E+01 0.  0.
        -12    1    1    2    0    0  0.43876004788E+02 -0.15655668410E+00  0.10197322220E+02  0.45045684440E+02  0.00000000000E+00 0.  1.
         11    1    3    3    0    0 -0.29353916856E+01 -0.21575300497E-01  0.38290494167E+00  0.29603388821E+01  0.51100000000E-03 0. -1.
        -11    1    3    3    0    0 -0.13341551519E+02 -0.92382289876E+00  0.59294624237E+00  0.13386636291E+02  0.51100000000E-03 0.  1.
        -12    1    3    3    0    0 -0.27599061584E+02  0.11019548834E+01 -0.11173173404E+02  0.29795340387E+02  0.00000000000E+00 0.  1.
</event>
<event>
 7    1  0.1519238E-008  0.4614232E+02  0.7816164E-02  0.1320468E+00
        -11   -1    0    0    0    0  0.00000000000E+00  0.00000000000E+00  0.45593999997E+02  0.45594000000E+02  0.51100000000E-03 0.  1.
         11   -1    0    0    0    0 -0.00000000000E+00 -0.00000000000E+00 -0.45593999997E+02  0.45594000000E+02  0.51100000000E-03 0. -1.
    9900012    2    1    2    0    0  0.12615551502E+02 -0.41445485571E+02 -0.12338278905E+02  0.46142317185E+02  0.99999947482E+01 0.  0.
        -12    1    1    2    0    0 -0.12615551502E+02  0.41445485571E+02  0.12338278905E+02  0.45045682815E+02  0.00000000000E+00 0.  1.
         11    1    3    3    0    0  0.10110471633E+02 -0.18614987166E+02 -0.79402392021E+01  0.22622705026E+02  0.51100000000E-03 0. -1.
        -11    1    3    3    0    0  0.26649436584E+01 -0.18526079778E+02 -0.43327913031E+01  0.19211731764E+02  0.51100000000E-03 0.  1.
        -12    1    3    3    0    0 -0.15986378948E+00 -0.43044186265E+01 -0.65248400021E-01  0.43078803949E+01  0.00000000000E+00 0.  1.
</event>
<event>
 7    1  0.1519238E-008  0.4614232E+02  0.7816164E-02  0.1320468E+00
        -11   -1    0    0    0    0  0.00000000000E+00  0.00000000000E+00  0.45593999997E+02  0.45594000000E+02  0.51100000000E-03 0. -1.
         11   -1    0    0    0    0 -0.00000000000E+00 -0.00000000000E+00 -0.45593999997E+02  0.45594000000E+02  0.51100000000E-03 0.  1.
    9900012    2    1    2    0    0  0.34301787120E+02  0.23297381067E+01  0.29104521903E+02  0.46142317915E+02  0.10000001407E+02 0.  0.
        -12    1    1    2    0    0 -0.34301787120E+02 -0.23297381067E+01 -0.29104521903E+02  0.45045682085E+02  0.00000000000E+00 0.  1.
         11    1    3    3    0    0  0.19049072864E+02  0.67258239919E+00  0.20847845455E+02  0.28248047799E+02  0.51100000000E-03 0. -1.
        -11    1    3    3    0    0  0.73170213924E+01  0.11922565087E+01  0.17393477142E+01  0.76148281905E+01  0.51100000000E-03 0.  1.
        -12    1    3    3    0    0  0.79356928636E+01  0.46489919881E+00  0.65173287335E+01  0.10279441926E+02  0.00000000000E+00 0.  1.
</event>
<event>
 7    1  0.1519238E-008  0.4614232E+02  0.7816164E-02  0.1320468E+00
        -11   -1    0    0    0    0  0.00000000000E+00  0.00000000000E+00  0.45593999997E+02  0.45594000000E+02  0.51100000000E-03 0.  1.
         11   -1    0    0    0    0 -0.00000000000E+00 -0.00000000000E+00 -0.45593999997E+02  0.45594000000E+02  0.51100000000E-03 0. -1.
    9900012    2    1    2    0    0 -0.11705407186E+02  0.39933263718E+02 -0.17246199710E+02  0.46142317487E+02  0.99999975031E+01 0.  0.
        -12    1    1    2    0    0  0.11705407186E+02 -0.39933263718E+02  0.17246199710E+02  0.45045682513E+02  0.00000000000E+00 0.  1.
         11    1    3    3    0    0 -0.57317254592E+01  0.20971258239E+02 -0.37464484618E+01  0.22060875440E+02  0.51100000000E-03 0. -1.
        -11    1    3    3    0    0 -0.58020856533E+01  0.17044871916E+02 -0.12432525980E+02  0.21880574925E+02  0.51100000000E-03 0.  1.
        -12    1    3    3    0    0 -0.17159607391E+00  0.19171335637E+01 -0.10672252685E+01  0.22008671218E+01  0.00000000000E+00 0.  1.
</event>
<event>
 7    1  0.1519238E-008  0.4614232E+02  0.7816164E-02  0.1320468E+00
        -11   -1    0    0    0    0  0.00000000000E+00  0.00000000000E+00  0.45593999997E+02  0.45594000000E+02  0.51100000000E-03 0.  1.
         11   -1    0    0    0    0 -0.00000000000E+00 -0.00000000000E+00 -0.45593999997E+02  0.45594000000E+02  0.51100000000E-03 0. -1.
    9900012    2    1    2    0    0  0.35925665200E+02 -0.24275633241E+02 -0.12212851052E+02  0.46142317408E+02  0.99999967842E+01 0.  0.
        -12    1    1    2    0    0 -0.35925665200E+02  0.24275633241E+02  0.12212851052E+02  0.45045682592E+02  0.00000000000E+00 0.  1.
         11    1    3    3    0    0  0.23909209491E+02 -0.13378005396E+02 -0.97329219707E+01  0.29074922136E+02  0.51100000000E-03 0. -1.
        -11    1    3    3    0    0  0.42853474111E+01 -0.14155533974E+01 -0.16487395990E+01  0.48048242821E+01  0.51100000000E-03 0.  1.
        -12    1    3    3    0    0  0.77311082986E+01 -0.94820744473E+01 -0.83118948207E+00  0.12262570991E+02  0.00000000000E+00 0.  1.
</event>
<event>
 7    1  0.1519238E-008  0.4614232E+02  0.7816164E-02  0.1320468E+00
        -11   -1    0    0    0    0  0.00000000000E+00  0.00000000000E+00  0.45593999997E+02  0.45594000000E+02  0.51100000000E-03 0.  1.
         11   -1    0    0    0    0 -0.00000000000E+00 -0.00000000000E+00 -0.45593999997E+02  0.45594000000E+02  0.51100000000E-03 0. -1.
    9900012    2    1    2    0    0  0.30694671017E+02 -0.60261729888E+01 -0.32413513777E+02  0.46142318019E+02  0.10000002355E+02 0.  0.
        -12    1    1    2    0    0 -0.30694671017E+02  0.60261729888E+01  0.32413513777E+02  0.45045681981E+02  0.00000000000E+00 0.  1.
         11    1    3    3    0    0  0.36820551005E+01  0.14053160402E+01 -0.13434252104E+01  0.41638004867E+01  0.51100000000E-03 0.  1.
        -11    1    3    3    0    0  0.25717074300E+02 -0.67507944550E+01 -0.28206979762E+02  0.38763060300E+02  0.51100000000E-03 0. -1.
         12    1    3    3    0    0  0.12955416164E+01 -0.68069457405E+00 -0.28631088052E+01  0.32154572323E+01  0.00000000000E+00 0. -1.
</event>
<event>
 7    1  0.1519238E-008  0.4614232E+02  0.7816164E-02  0.1320468E+00
        -11   -1    0    0    0    0  0.00000000000E+00  0.00000000000E+00  0.45593999997E+02  0.45594000000E+02  0.51100000000E-03 0.  1.
         11   -1    0    0    0    0 -0.00000000000E+00 -0.00000000000E+00 -0.45593999997E+02  0.45594000000E+02  0.51100000000E-03 0. -1.
    9900012    2    1    2    0    0  0.46225096104E+01  0.72176078300E+01 -0.44222754543E+02  0.46142317885E+02  0.10000001129E+02 0.  0.
        -12    1    1    2    0    0 -0.46225096104E+01 -0.72176078300E+01  0.44222754543E+02  0.45045682115E+02  0.00000000000E+00 0.  1.
         11    1    3    3    0    0  0.72953870538E+01  0.25889008774E+01 -0.26894503256E+02  0.27986414306E+02  0.51100000000E-03 0. -1.
        -11    1    3    3    0    0 -0.19396289721E+01  0.28705959239E+01 -0.12311910923E+02  0.12790059904E+02  0.51100000000E-03 0.  1.
         12    1    3    3    0    0 -0.73324847141E+00  0.17581110287E+01 -0.50163403627E+01  0.53658436750E+01  0.00000000000E+00 0. -1.
</event>
<event>
 7    1  0.1519238E-008  0.4614232E+02  0.7816164E-02  0.1320468E+00
        -11   -1    0    0    0    0  0.00000000000E+00  0.00000000000E+00  0.45593999997E+02  0.45594000000E+02  0.51100000000E-03 0.  1.
         11   -1    0    0    0    0 -0.00000000000E+00 -0.00000000000E+00 -0.45593999997E+02  0.45594000000E+02  0.51100000000E-03 0. -1.
    9900012    2    1    2    0    0 -0.24738397587E+02  0.30543017138E+02 -0.22005667749E+02  0.46142316254E+02  0.99999862568E+01 0.  0.
        -12    1    1    2    0    0  0.24738397587E+02 -0.30543017138E+02  0.22005667749E+02  0.45045683746E+02  0.00000000000E+00 0.  1.
         11    1    3    3    0    0 -0.91339658061E+01  0.61343838855E+01 -0.40311086300E+01  0.11717927891E+02  0.51100000000E-03 0. -1.
        -11    1    3    3    0    0 -0.13001095826E+01  0.50951040944E+01 -0.41452341853E+01  0.66957701104E+01  0.51100000000E-03 0.  1.
        -12    1    3    3    0    0 -0.14304322198E+02  0.19313529158E+02 -0.13829324933E+02  0.27728618253E+02  0.00000000000E+00 0.  1.
</event>
<event>
 7    1  0.1519238E-008  0.4614231E+02  0.7816164E-02  0.1320468E+00
        -11   -1    0    0    0    0  0.00000000000E+00  0.00000000000E+00  0.45593999997E+02  0.45594000000E+02  0.51100000000E-03 0.  1.
         11   -1    0    0    0    0 -0.00000000000E+00 -0.00000000000E+00 -0.45593999997E+02  0.45594000000E+02  0.51100000000E-03 0. -1.
    9900012    2    1    2    0    0  0.83442201313E+01  0.27393527387E+02 -0.34771863336E+02  0.46142313945E+02  0.99999652007E+01 0.  0.
        -12    1    1    2    0    0 -0.83442201313E+01 -0.27393527387E+02  0.34771863336E+02  0.45045686055E+02  0.00000000000E+00 0.  1.
         11    1    3    3    0    0  0.23503926733E+01  0.18391237711E+02 -0.23817243280E+02  0.30183158350E+02  0.51100000000E-03 0. -1.
        -11    1    3    3    0    0  0.38865114949E+01  0.79527523208E+01 -0.10158643124E+02  0.13474022097E+02  0.51100000000E-03 0.  1.
         12    1    3    3    0    0  0.21073159631E+01  0.10495373548E+01 -0.79597693240E+00  0.24851334983E+01  0.00000000000E+00 0. -1.
</event>
<event>
 7    1  0.1519238E-008  0.4614232E+02  0.7816164E-02  0.1320468E+00
        -11   -1    0    0    0    0  0.00000000000E+00  0.00000000000E+00  0.45593999997E+02  0.45594000000E+02  0.51100000000E-03 0.  1.
         11   -1    0    0    0    0 -0.00000000000E+00 -0.00000000000E+00 -0.45593999997E+02  0.45594000000E+02  0.51100000000E-03 0. -1.
    9900012    2    1    2    0    0  0.21173824716E+02 -0.39315902437E+02  0.59196650364E+01  0.46142317946E+02  0.10000001688E+02 0.  0.
        -12    1    1    2    0    0 -0.21173824716E+02  0.39315902437E+02 -0.59196650364E+01  0.45045682054E+02  0.00000000000E+00 0.  1.
         11    1    3    3    0    0  0.11853900114E+02 -0.23435581601E+02  0.50057366415E+01  0.26735722031E+02  0.51100000000E-03 0. -1.
        -11    1    3    3    0    0  0.73247945031E+01 -0.75559267469E+01 -0.11931062150E+01  0.10590946427E+02  0.51100000000E-03 0.  1.
        -12    1    3    3    0    0  0.19951300985E+01 -0.83243940890E+01  0.21070346100E+01  0.88156494887E+01  0.00000000000E+00 0.  1.
</event>
<event>
 7    1  0.1519238E-008  0.4614232E+02  0.7816164E-02  0.1320468E+00
        -11   -1    0    0    0    0  0.00000000000E+00  0.00000000000E+00  0.45593999997E+02  0.45594000000E+02  0.51100000000E-03 0. -1.
         11   -1    0    0    0    0 -0.00000000000E+00 -0.00000000000E+00 -0.45593999997E+02  0.45594000000E+02  0.51100000000E-03 0.  1.
    9900012    2    1    2    0    0  0.17912765028E+02 -0.40821671402E+02  0.64681824953E+01  0.46142318833E+02  0.10000009774E+02 0.  0.
        -12    1    1    2    0    0 -0.17912765028E+02  0.40821671402E+02 -0.64681824953E+01  0.45045681167E+02  0.00000000000E+00 0.  1.
         11    1    3    3    0    0  0.21961320670E+01 -0.37795619481E+01 -0.63957755709E+00  0.44178212151E+01  0.51100000000E-03 0. -1.
        -11    1    3    3    0    0  0.28116984350E+01 -0.11350511598E+02  0.55176787130E+01  0.12929986089E+02  0.51100000000E-03 0.  1.
        -12    1    3    3    0    0  0.12904934526E+02 -0.25691597856E+02  0.15900813394E+01  0.28794511529E+02  0.00000000000E+00 0.  1.
</event>
<event>
 7    1  0.1519238E-008  0.4614232E+02  0.7816164E-02  0.1320468E+00
        -11   -1    0    0    0    0  0.00000000000E+00  0.00000000000E+00  0.45593999997E+02  0.45594000000E+02  0.51100000000E-03 0.  1.
         11   -1    0    0    0    0 -0.00000000000E+00 -0.00000000000E+00 -0.45593999997E+02  0.45594000000E+02  0.51100000000E-03 0. -1.
    9900012    2    1    2    0    0 -0.82994692928E+01  0.30471062572E+02 -0.32120812956E+02  0.46142317968E+02  0.10000001883E+02 0.  0.
        -12    1    1    2    0    0  0.82994692928E+01 -0.30471062572E+02  0.32120812956E+02  0.45045682032E+02  0.00000000000E+00 0.  1.
         11    1    3    3    0    0 -0.39959929641E+01  0.15470931438E+02 -0.17487075491E+02  0.23687876409E+02  0.51100000000E-03 0. -1.
        -11    1    3    3    0    0  0.14191179042E+01  0.61535597317E+01 -0.70989848506E+01  0.95013567014E+01  0.51100000000E-03 0.  1.
        -12    1    3    3    0    0 -0.57225942329E+01  0.88465714030E+01 -0.75347526146E+01  0.12953084857E+02  0.00000000000E+00 0.  1.
</event>
<event>
 7    1  0.1519238E-008  0.4614232E+02  0.7816164E-02  0.1320468E+00
        -11   -1    0    0    0    0  0.00000000000E+00  0.00000000000E+00  0.45593999997E+02  0.45594000000E+02  0.51100000000E-03 0.  1.
         11   -1    0    0    0    0 -0.00000000000E+00 -0.00000000000E+00 -0.45593999997E+02  0.45594000000E+02  0.51100000000E-03 0. -1.
    9900012    2    1    2    0    0 -0.16263660295E+02 -0.27903603544E+02 -0.31400570679E+02  0.46142316790E+02  0.99999911429E+01 0.  0.
        -12    1    1    2    0    0  0.16263660295E+02  0.27903603544E+02  0.31400570679E+02  0.45045683210E+02  0.00000000000E+00 0.  1.
         11    1    3    3    0    0 -0.56556162271E+01 -0.32705080195E+01 -0.49969154833E+01  0.82250460316E+01  0.51100000000E-03 0. -1.
        -11    1    3    3    0    0 -0.92743940002E+01 -0.22619260294E+02 -0.25533921223E+02  0.35350055921E+02  0.51100000000E-03 0.  1.
        -12    1    3    3    0    0 -0.13336500678E+01 -0.20138352307E+01 -0.86973397233E+00  0.25672148376E+01  0.00000000000E+00 0.  1.
</event>
<event>
 7    1  0.1519238E-008  0.4614232E+02  0.7816164E-02  0.1320468E+00
        -11   -1    0    0    0    0  0.00000000000E+00  0.00000000000E+00  0.45593999997E+02  0.45594000000E+02  0.51100000000E-03 0. -1.
         11   -1    0    0    0    0 -0.00000000000E+00 -0.00000000000E+00 -0.45593999997E+02  0.45594000000E+02  0.51100000000E-03 0.  1.
    9900012    2    1    2    0    0 -0.32493179529E+01 -0.70332685370E+00  0.44922831702E+02  0.46142317145E+02  0.99999943776E+01 0.  0.
        -12    1    1    2    0    0  0.32493179529E+01  0.70332685370E+00 -0.44922831702E+02  0.45045682855E+02  0.00000000000E+00 0.  1.
         11    1    3    3    0    0 -0.32246031369E+01  0.19485468000E+01  0.90839379349E+01  0.98342680810E+01  0.51100000000E-03 0. -1.
        -11    1    3    3    0    0  0.22506273987E+01 -0.17836429163E+01  0.26563158719E+02  0.26717936057E+02  0.51100000000E-03 0.  1.
         12    1    3    3    0    0 -0.22753422148E+01 -0.86823073742E+00  0.92757350478E+01  0.95901130069E+01  0.00000000000E+00 0. -1.
</event>
<event>
 7    1  0.1519238E-008  0.4614232E+02  0.7816164E-02  0.1320468E+00
        -11   -1    0    0    0    0  0.00000000000E+00  0.00000000000E+00  0.45593999997E+02  0.45594000000E+02  0.51100000000E-03 0.  1.
         11   -1    0    0    0    0 -0.00000000000E+00 -0.00000000000E+00 -0.45593999997E+02  0.45594000000E+02  0.51100000000E-03 0. -1.
    9900012    2    1    2    0    0 -0.32405898112E+02  0.11458481204E+02 -0.29114848538E+02  0.46142318417E+02  0.10000005977E+02 0.  0.
        -12    1    1    2    0    0  0.32405898112E+02 -0.11458481204E+02  0.29114848538E+02  0.45045681583E+02  0.00000000000E+00 0.  1.
         11    1    3    3    0    0 -0.14676401018E+02  0.53305851052E+01 -0.10729226708E+02  0.18945400245E+02  0.51100000000E-03 0. -1.
        -11    1    3    3    0    0 -0.16874063362E+02  0.35736814758E+01 -0.14908076629E+02  0.22798157001E+02  0.51100000000E-03 0.  1.
        -12    1    3    3    0    0 -0.85543373151E+00  0.25542146234E+01 -0.34775452004E+01  0.43987611702E+01  0.00000000000E+00 0.  1.
</event>
<event>
 7    1  0.1519238E-008  0.4614232E+02  0.7816164E-02  0.1320468E+00
        -11   -1    0    0    0    0  0.00000000000E+00  0.00000000000E+00  0.45593999997E+02  0.45594000000E+02  0.51100000000E-03 0. -1.
         11   -1    0    0    0    0 -0.00000000000E+00 -0.00000000000E+00 -0.45593999997E+02  0.45594000000E+02  0.51100000000E-03 0.  1.
    9900012    2    1    2    0    0  0.26011667800E+02  0.29832352132E+02  0.21506682273E+02  0.46142317878E+02  0.10000001065E+02 0.  0.
        -12    1    1    2    0    0 -0.26011667800E+02 -0.29832352132E+02 -0.21506682273E+02  0.45045682122E+02  0.00000000000E+00 0.  1.
         11    1    3    3    0    0  0.12937058112E+01  0.29482456687E+01 -0.37398759861E+00  0.32412488695E+01  0.51100000000E-03 0.  1.
        -11    1    3    3    0    0  0.24096257067E+02  0.24223408773E+02  0.20378840600E+02  0.39783165808E+02  0.51100000000E-03 0. -1.
         12    1    3    3    0    0  0.62170492144E+00  0.26606976898E+01  0.15018292721E+01  0.31179032006E+01  0.00000000000E+00 0. -1.
</event>
<event>
 7    1  0.1519238E-008  0.4614232E+02  0.7816164E-02  0.1320468E+00
        -11   -1    0    0    0    0  0.00000000000E+00  0.00000000000E+00  0.45593999997E+02  0.45594000000E+02  0.51100000000E-03 0. -1.
         11   -1    0    0    0    0 -0.00000000000E+00 -0.00000000000E+00 -0.45593999997E+02  0.45594000000E+02  0.51100000000E-03 0.  1.
    9900012    2    1    2    0    0  0.44832522425E+02  0.53114031931E+00  0.43446869385E+01  0.46142317836E+02  0.10000000681E+02 0.  0.
        -12    1    1    2    0    0 -0.44832522425E+02 -0.53114031931E+00 -0.43446869385E+01  0.45045682164E+02  0.00000000000E+00 0.  1.
         11    1    3    3    0    0  0.15140494979E+02 -0.11274457289E+01 -0.14301218029E+01  0.15249621986E+02  0.51100000000E-03 0. -1.
        -11    1    3    3    0    0  0.28648304507E+02  0.10814016745E+01  0.66296750810E+01  0.29425284581E+02  0.51100000000E-03 0.  1.
        -12    1    3    3    0    0  0.10437229390E+01  0.57718437367E+00 -0.85486633953E+00  0.14674112692E+01  0.00000000000E+00 0.  1.
</event>
<event>
 7    1  0.1519238E-008  0.4614233E+02  0.7816164E-02  0.1320468E+00
        -11   -1    0    0    0    0  0.00000000000E+00  0.00000000000E+00  0.45593999997E+02  0.45594000000E+02  0.51100000000E-03 0.  1.
         11   -1    0    0    0    0 -0.00000000000E+00 -0.00000000000E+00 -0.45593999997E+02  0.45594000000E+02  0.51100000000E-03 0. -1.
    9900012    2    1    2    0    0 -0.36026661504E+02 -0.22006657791E+00 -0.27039675372E+02  0.46142325261E+02  0.10000068392E+02 0.  0.
        -12    1    1    2    0    0  0.36026661504E+02  0.22006657791E+00  0.27039675372E+02  0.45045674739E+02  0.00000000000E+00 0.  1.
         11    1    3    3    0    0 -0.23641407960E+02  0.12580302381E+01 -0.14775845036E+02  0.27907425664E+02  0.51100000000E-03 0. -1.
        -11    1    3    3    0    0 -0.76544633023E+00  0.13139534195E+01 -0.17431258939E+01  0.23131947207E+01  0.51100000000E-03 0.  1.
         12    1    3    3    0    0 -0.11619807214E+02 -0.27920502356E+01 -0.10520704442E+02  0.15921704876E+02  0.00000000000E+00 0. -1.
</event>
<event>
 7    1  0.1519238E-008  0.4614232E+02  0.7816164E-02  0.1320468E+00
        -11   -1    0    0    0    0  0.00000000000E+00  0.00000000000E+00  0.45593999997E+02  0.45594000000E+02  0.51100000000E-03 0.  1.
         11   -1    0    0    0    0 -0.00000000000E+00 -0.00000000000E+00 -0.45593999997E+02  0.45594000000E+02  0.51100000000E-03 0. -1.
    9900012    2    1    2    0    0 -0.19030568512E+02 -0.40670548586E+02  0.35857152209E+01  0.46142318588E+02  0.10000007545E+02 0.  0.
        -12    1    1    2    0    0  0.19030568512E+02  0.40670548586E+02 -0.35857152209E+01  0.45045681412E+02  0.00000000000E+00 0.  1.
         11    1    3    3    0    0 -0.10291721640E+02 -0.19685553834E+02 -0.22072178031E+01  0.22322911431E+02  0.51100000000E-03 0. -1.
        -11    1    3    3    0    0 -0.14721715323E+01 -0.10721221846E+01  0.10346583046E+01  0.20945770618E+01  0.51100000000E-03 0.  1.
         12    1    3    3    0    0 -0.72666753397E+01 -0.19912872568E+02  0.47582747194E+01  0.21724830096E+02  0.00000000000E+00 0. -1.
</event>
<event>
 7    1  0.1519238E-008  0.4614232E+02  0.7816164E-02  0.1320468E+00
        -11   -1    0    0    0    0  0.00000000000E+00  0.00000000000E+00  0.45593999997E+02  0.45594000000E+02  0.51100000000E-03 0.  1.
         11   -1    0    0    0    0 -0.00000000000E+00 -0.00000000000E+00 -0.45593999997E+02  0.45594000000E+02  0.51100000000E-03 0. -1.
    9900012    2    1    2    0    0 -0.38215881925E+02  0.15527939963E+02  0.18098150720E+02  0.46142316408E+02  0.99999876606E+01 0.  0.
        -12    1    1    2    0    0  0.38215881925E+02 -0.15527939963E+02 -0.18098150720E+02  0.45045683592E+02  0.00000000000E+00 0.  1.
         11    1    3    3    0    0 -0.24807125250E+02  0.78483894107E+01  0.11426008199E+02  0.28417324701E+02  0.51100000000E-03 0. -1.
        -11    1    3    3    0    0 -0.10238563742E+01  0.26647995963E+01  0.15559127895E+00  0.28589591936E+01  0.51100000000E-03 0.  1.
        -12    1    3    3    0    0 -0.12384900300E+02  0.50147509563E+01  0.65165512419E+01  0.14866032514E+02  0.00000000000E+00 0.  1.
</event>
<event>
 7    1  0.1519238E-008  0.4614232E+02  0.7816164E-02  0.1320468E+00
        -11   -1    0    0    0    0  0.00000000000E+00  0.00000000000E+00  0.45593999997E+02  0.45594000000E+02  0.51100000000E-03 0. -1.
         11   -1    0    0    0    0 -0.00000000000E+00 -0.00000000000E+00 -0.45593999997E+02  0.45594000000E+02  0.51100000000E-03 0.  1.
    9900012    2    1    2    0    0  0.10683408284E+02 -0.38440403289E+02  0.20912046158E+02  0.46142317720E+02  0.99999996234E+01 0.  0.
        -12    1    1    2    0    0 -0.10683408284E+02  0.38440403289E+02 -0.20912046158E+02  0.45045682280E+02  0.00000000000E+00 0.  1.
         11    1    3    3    0    0  0.61090804082E+00 -0.18489955690E+02  0.68276944598E+01  0.19719763740E+02  0.51100000000E-03 0. -1.
        -11    1    3    3    0    0  0.77022964339E+01 -0.15109719222E+02  0.10954710318E+02  0.20189964432E+02  0.51100000000E-03 0.  1.
         12    1    3    3    0    0  0.23702038090E+01 -0.48407283764E+01  0.31296413799E+01  0.62325895483E+01  0.00000000000E+00 0. -1.
</event>
<event>
 7    1  0.1519238E-008  0.4614232E+02  0.7816164E-02  0.1320468E+00
        -11   -1    0    0    0    0  0.00000000000E+00  0.00000000000E+00  0.45593999997E+02  0.45594000000E+02  0.51100000000E-03 0.  1.
         11   -1    0    0    0    0 -0.00000000000E+00 -0.00000000000E+00 -0.45593999997E+02  0.45594000000E+02  0.51100000000E-03 0. -1.
    9900012    2    1    2    0    0  0.38213517998E+02  0.63694005105E+01 -0.22984152548E+02  0.46142317754E+02  0.99999999371E+01 0.  0.
        -12    1    1    2    0    0 -0.38213517998E+02 -0.63694005105E+01  0.22984152548E+02  0.45045682246E+02  0.00000000000E+00 0.  1.
         11    1    3    3    0    0  0.17022965773E+02  0.39165186720E+01 -0.11517490434E+02  0.20923027228E+02  0.51100000000E-03 0. -1.
        -11    1    3    3    0    0  0.27728018960E+01  0.84137110357E+00  0.83132688639E+00  0.30145381638E+01  0.51100000000E-03 0.  1.
         12    1    3    3    0    0  0.18417750329E+02  0.16115107348E+01 -0.12297989000E+02  0.22204752362E+02  0.00000000000E+00 0. -1.
</event>
<event>
 7    1  0.1519238E-008  0.4614232E+02  0.7816164E-02  0.1320468E+00
        -11   -1    0    0    0    0  0.00000000000E+00  0.00000000000E+00  0.45593999997E+02  0.45594000000E+02  0.51100000000E-03 0. -1.
         11   -1    0    0    0    0 -0.00000000000E+00 -0.00000000000E+00 -0.45593999997E+02  0.45594000000E+02  0.51100000000E-03 0.  1.
    9900012    2    1    2    0    0 -0.44137878688E+02  0.85609432929E+01 -0.27697482842E+01  0.46142316626E+02  0.99999896461E+01 0.  0.
        -12    1    1    2    0    0  0.44137878688E+02 -0.85609432929E+01  0.27697482842E+01  0.45045683374E+02  0.00000000000E+00 0.  1.
         11    1    3    3    0    0 -0.42227429447E+02  0.88884114115E+01 -0.12779258318E+01  0.43171666053E+02  0.51100000000E-03 0. -1.
        -11    1    3    3    0    0 -0.95358926015E+00 -0.97672479761E+00 -0.10888288613E+01  0.17461020467E+01  0.51100000000E-03 0.  1.
         12    1    3    3    0    0 -0.95685998090E+00  0.64925667908E+00 -0.40299359123E+00  0.12245485262E+01  0.00000000000E+00 0. -1.
</event>
<event>
 7    1  0.1519238E-008  0.4614233E+02  0.7816164E-02  0.1320468E+00
        -11   -1    0    0    0    0  0.00000000000E+00  0.00000000000E+00  0.45593999997E+02  0.45594000000E+02  0.51100000000E-03 0.  1.
         11   -1    0    0    0    0 -0.00000000000E+00 -0.00000000000E+00 -0.45593999997E+02  0.45594000000E+02  0.51100000000E-03 0. -1.
    9900012    2    1    2    0    0  0.25622794690E+02 -0.31449377891E+02 -0.19583707097E+02  0.46142328054E+02  0.10000093856E+02 0.  0.
        -12    1    1    2    0    0 -0.25622794690E+02  0.31449377891E+02  0.19583707097E+02  0.45045671946E+02  0.00000000000E+00 0.  1.
         11    1    3    3    0    0  0.23951387078E+02 -0.25114824660E+02 -0.18373842303E+02  0.39268580849E+02  0.51100000000E-03 0. -1.
        -11    1    3    3    0    0  0.42656483851E+00 -0.40767208639E+01 -0.12810657582E+01  0.42945011703E+01  0.51100000000E-03 0.  1.
        -12    1    3    3    0    0  0.12448427727E+01 -0.22578323674E+01  0.71200964478E-01  0.25792460342E+01  0.00000000000E+00 0.  1.
</event>
<event>
 7    1  0.1519238E-008  0.4614232E+02  0.7816164E-02  0.1320468E+00
        -11   -1    0    0    0    0  0.00000000000E+00  0.00000000000E+00  0.45593999997E+02  0.45594000000E+02  0.51100000000E-03 0. -1.
         11   -1    0    0    0    0 -0.00000000000E+00 -0.00000000000E+00 -0.45593999997E+02  0.45594000000E+02  0.51100000000E-03 0.  1.
    9900012    2    1    2    0    0  0.52396486600E+01  0.26335130393E+02  0.36167948769E+02  0.46142317309E+02  0.99999958813E+01 0.  0.
        -12    1    1    2    0    0 -0.52396486600E+01 -0.26335130393E+02 -0.36167948769E+02  0.45045682691E+02  0.00000000000E+00 0.  1.
         11    1    3    3    0    0 -0.21926942342E+01  0.85328532141E+01  0.14761464484E+02  0.17190646467E+02  0.51100000000E-03 0. -1.
        -11    1    3    3    0    0  0.31917423842E+01  0.10685940426E+02  0.13359876129E+02  0.17402954711E+02  0.51100000000E-03 0.  1.
        -12    1    3    3    0    0  0.42406005100E+01  0.71163367525E+01  0.80466081568E+01  0.11548716132E+02  0.00000000000E+00 0.  1.
</event>
<event>
 7    1  0.1519238E-008  0.4614232E+02  0.7816164E-02  0.1320468E+00
        -11   -1    0    0    0    0  0.00000000000E+00  0.00000000000E+00  0.45593999997E+02  0.45594000000E+02  0.51100000000E-03 0. -1.
         11   -1    0    0    0    0 -0.00000000000E+00 -0.00000000000E+00 -0.45593999997E+02  0.45594000000E+02  0.51100000000E-03 0.  1.
    9900012    2    1    2    0    0 -0.43502084842E+02 -0.27531174894E+01  0.11362325881E+02  0.46142317732E+02  0.99999997361E+01 0.  0.
        -12    1    1    2    0    0  0.43502084842E+02  0.27531174894E+01 -0.11362325881E+02  0.45045682268E+02  0.00000000000E+00 0.  1.
         11    1    3    3    0    0 -0.17459225096E+02  0.22149394628E+01  0.70872929660E+01  0.18972617627E+02  0.51100000000E-03 0. -1.
        -11    1    3    3    0    0 -0.12807036565E+02 -0.41297616504E+01  0.33956148081E+01  0.13878231770E+02  0.51100000000E-03 0.  1.
         12    1    3    3    0    0 -0.13235823182E+02 -0.83829530190E+00  0.87941810659E+00  0.13291468335E+02  0.00000000000E+00 0. -1.
</event>
<event>
 7    1  0.1519238E-008  0.4614231E+02  0.7816164E-02  0.1320468E+00
        -11   -1    0    0    0    0  0.00000000000E+00  0.00000000000E+00  0.45593999997E+02  0.45594000000E+02  0.51100000000E-03 0.  1.
         11   -1    0    0    0    0 -0.00000000000E+00 -0.00000000000E+00 -0.45593999997E+02  0.45594000000E+02  0.51100000000E-03 0. -1.
    9900012    2    1    2    0    0 -0.40724125699E+02  0.18998035665E+02 -0.31199359014E+01  0.46142314601E+02  0.99999711832E+01 0.  0.
        -12    1    1    2    0    0  0.40724125699E+02 -0.18998035665E+02  0.31199359014E+01  0.45045685399E+02  0.00000000000E+00 0.  1.
         11    1    3    3    0    0 -0.39993683266E+02  0.19741553469E+02 -0.33306006512E+01  0.44724898384E+02  0.51100000000E-03 0. -1.
        -11    1    3    3    0    0 -0.94879568503E+00 -0.66946563781E+00  0.11189856042E+00  0.11665843480E+01  0.51100000000E-03 0.  1.
         12    1    3    3    0    0  0.21835325207E+00 -0.74052166732E-01  0.98766189392E-01  0.25083186849E+00  0.00000000000E+00 0. -1.
</event>
<event>
 7    1  0.1519238E-008  0.4614232E+02  0.7816164E-02  0.1320468E+00
        -11   -1    0    0    0    0  0.00000000000E+00  0.00000000000E+00  0.45593999997E+02  0.45594000000E+02  0.51100000000E-03 0. -1.
         11   -1    0    0    0    0 -0.00000000000E+00 -0.00000000000E+00 -0.45593999997E+02  0.45594000000E+02  0.51100000000E-03 0.  1.
    9900012    2    1    2    0    0  0.25777172551E+02 -0.14461841930E+02  0.33992733185E+02  0.46142318674E+02  0.10000008329E+02 0.  0.
        -12    1    1    2    0    0 -0.25777172551E+02  0.14461841930E+02 -0.33992733185E+02  0.45045681326E+02  0.00000000000E+00 0.  1.
         11    1    3    3    0    0  0.78172086996E+01 -0.31876188992E+01  0.11108756150E+02  0.13952567131E+02  0.51100000000E-03 0. -1.
        -11    1    3    3    0    0  0.14287912273E+02 -0.91619375629E+01  0.22125906236E+02  0.27886219967E+02  0.51100000000E-03 0.  1.
        -12    1    3    3    0    0  0.36720515778E+01 -0.21122854681E+01  0.75807079895E+00  0.43035315759E+01  0.00000000000E+00 0.  1.
</event>
<event>
 7    1  0.1519238E-008  0.4614231E+02  0.7816164E-02  0.1320468E+00
        -11   -1    0    0    0    0  0.00000000000E+00  0.00000000000E+00  0.45593999997E+02  0.45594000000E+02  0.51100000000E-03 0. -1.
         11   -1    0    0    0    0 -0.00000000000E+00 -0.00000000000E+00 -0.45593999997E+02  0.45594000000E+02  0.51100000000E-03 0.  1.
    9900012    2    1    2    0    0  0.14607673723E+02  0.41101223463E+02  0.11243635423E+02  0.46142311646E+02  0.99999442390E+01 0.  0.
        -12    1    1    2    0    0 -0.14607673723E+02 -0.41101223463E+02 -0.11243635423E+02  0.45045688354E+02  0.00000000000E+00 0.  1.
         11    1    3    3    0    0 -0.27178560418E+00  0.78342173465E+01  0.37979138603E+01  0.87105096750E+01  0.51100000000E-03 0. -1.
        -11    1    3    3    0    0  0.21905840974E+01  0.46564109439E+01 -0.41178931400E+00  0.51624017924E+01  0.51100000000E-03 0.  1.
         12    1    3    3    0    0  0.12688875229E+02  0.28610595173E+02  0.78575108766E+01  0.32269400179E+02  0.00000000000E+00 0. -1.
</event>
<event>
 7    1  0.1519238E-008  0.4614232E+02  0.7816164E-02  0.1320468E+00
        -11   -1    0    0    0    0  0.00000000000E+00  0.00000000000E+00  0.45593999997E+02  0.45594000000E+02  0.51100000000E-03 0. -1.
         11   -1    0    0    0    0 -0.00000000000E+00 -0.00000000000E+00 -0.45593999997E+02  0.45594000000E+02  0.51100000000E-03 0.  1.
    9900012    2    1    2    0    0  0.29160983301E+02 -0.77380171826E+00  0.34324215372E+02  0.46142317886E+02  0.10000001138E+02 0.  0.
        -12    1    1    2    0    0 -0.29160983301E+02  0.77380171826E+00 -0.34324215372E+02  0.45045682114E+02  0.00000000000E+00 0.  1.
         11    1    3    3    0    0  0.87250035433E+01  0.20020758506E+01  0.12422845223E+02  0.15312121938E+02  0.51100000000E-03 0. -1.
        -11    1    3    3    0    0  0.12798144269E+02 -0.16443871908E+01  0.87852437144E+01  0.15610157378E+02  0.51100000000E-03 0.  1.
         12    1    3    3    0    0  0.76378354885E+01 -0.11314903781E+01  0.13116126435E+02  0.15220038570E+02  0.00000000000E+00 0. -1.
</event>
<event>
 7    1  0.1519238E-008  0.4614232E+02  0.7816164E-02  0.1320468E+00
        -11   -1    0    0    0    0  0.00000000000E+00  0.00000000000E+00  0.45593999997E+02  0.45594000000E+02  0.51100000000E-03 0.  1.
         11   -1    0    0    0    0 -0.00000000000E+00 -0.00000000000E+00 -0.45593999997E+02  0.45594000000E+02  0.51100000000E-03 0. -1.
    9900012    2    1    2    0    0  0.26540928499E+02  0.11932168932E+02 -0.34384820126E+02  0.46142318785E+02  0.10000009339E+02 0.  0.
        -12    1    1    2    0    0 -0.26540928499E+02 -0.11932168932E+02  0.34384820126E+02  0.45045681215E+02  0.00000000000E+00 0.  1.
         11    1    3    3    0    0  0.10339654408E+02  0.13330523059E+01 -0.79731336190E+01  0.13124646345E+02  0.51100000000E-03 0. -1.
        -11    1    3    3    0    0  0.12228023585E+02  0.83870001111E+01 -0.22858474189E+02  0.27246580963E+02  0.51100000000E-03 0.  1.
        -12    1    3    3    0    0  0.39732505063E+01  0.22121165149E+01 -0.35532123178E+01  0.57710914771E+01  0.00000000000E+00 0.  1.
</event>
<event>
 7    1  0.1519238E-008  0.4614232E+02  0.7816164E-02  0.1320468E+00
        -11   -1    0    0    0    0  0.00000000000E+00  0.00000000000E+00  0.45593999997E+02  0.45594000000E+02  0.51100000000E-03 0.  1.
         11   -1    0    0    0    0 -0.00000000000E+00 -0.00000000000E+00 -0.45593999997E+02  0.45594000000E+02  0.51100000000E-03 0. -1.
    9900012    2    1    2    0    0  0.25257053196E+02 -0.62310671755E+01 -0.36774564645E+02  0.46142317198E+02  0.99999948655E+01 0.  0.
        -12    1    1    2    0    0 -0.25257053196E+02  0.62310671755E+01  0.36774564645E+02  0.45045682802E+02  0.00000000000E+00 0.  1.
         11    1    3    3    0    0  0.13535614436E+02 -0.81942694466E+01 -0.22784723131E+02  0.27739908406E+02  0.51100000000E-03 0. -1.
        -11    1    3    3    0    0  0.93433817892E+01  0.19366138706E+01 -0.10608446809E+02  0.14268440717E+02  0.51100000000E-03 0.  1.
         12    1    3    3    0    0  0.23780569702E+01  0.26588400500E-01 -0.33813947044E+01  0.41339680748E+01  0.00000000000E+00 0. -1.
</event>
<event>
 7    1  0.1519238E-008  0.4614232E+02  0.7816164E-02  0.1320468E+00
        -11   -1    0    0    0    0  0.00000000000E+00  0.00000000000E+00  0.45593999997E+02  0.45594000000E+02  0.51100000000E-03 0.  1.
         11   -1    0    0    0    0 -0.00000000000E+00 -0.00000000000E+00 -0.45593999997E+02  0.45594000000E+02  0.51100000000E-03 0. -1.
    9900012    2    1    2    0    0  0.35515149620E+01  0.38233689149E+02 -0.23551759344E+02  0.46142316381E+02  0.99999874194E+01 0.  0.
        -12    1    1    2    0    0 -0.35515149620E+01 -0.38233689149E+02  0.23551759344E+02  0.45045683619E+02  0.00000000000E+00 0.  1.
         11    1    3    3    0    0  0.68600843570E+00  0.66828455617E+01 -0.42805828293E+01  0.79658283936E+01  0.51100000000E-03 0. -1.
        -11    1    3    3    0    0 -0.74621203209E+00  0.99512510319E+01 -0.10776206681E+02  0.14687098426E+02  0.51100000000E-03 0.  1.
        -12    1    3    3    0    0  0.36117185584E+01  0.21599592555E+02 -0.84949698340E+01  0.23489389562E+02  0.00000000000E+00 0.  1.
</event>
<event>
 7    1  0.1519238E-008  0.4614232E+02  0.7816164E-02  0.1320468E+00
        -11   -1    0    0    0    0  0.00000000000E+00  0.00000000000E+00  0.45593999997E+02  0.45594000000E+02  0.51100000000E-03 0.  1.
         11   -1    0    0    0    0 -0.00000000000E+00 -0.00000000000E+00 -0.45593999997E+02  0.45594000000E+02  0.51100000000E-03 0. -1.
    9900012    2    1    2    0    0  0.30490710830E+02  0.29609114715E+02 -0.14924154102E+02  0.46142317668E+02  0.99999991485E+01 0.  0.
        -12    1    1    2    0    0 -0.30490710830E+02 -0.29609114715E+02  0.14924154102E+02  0.45045682332E+02  0.00000000000E+00 0.  1.
         11    1    3    3    0    0  0.25558482060E+02  0.23656311500E+02 -0.15277417428E+02  0.38029680021E+02  0.51100000000E-03 0. -1.
        -11    1    3    3    0    0  0.45053573572E+01  0.56242974459E+01  0.99513827229E+00  0.72747004831E+01  0.51100000000E-03 0.  1.
         12    1    3    3    0    0  0.42687141342E+00  0.32850576856E+00 -0.64187494578E+00  0.83793716327E+00  0.00000000000E+00 0. -1.
</event>
<event>
 7    1  0.1519238E-008  0.4614232E+02  0.7816164E-02  0.1320468E+00
        -11   -1    0    0    0    0  0.00000000000E+00  0.00000000000E+00  0.45593999997E+02  0.45594000000E+02  0.51100000000E-03 0. -1.
         11   -1    0    0    0    0 -0.00000000000E+00 -0.00000000000E+00 -0.45593999997E+02  0.45594000000E+02  0.51100000000E-03 0.  1.
    9900012    2    1    2    0    0  0.34338136855E+02 -0.61247040979E+01  0.28504275081E+02  0.46142319398E+02  0.10000014931E+02 0.  0.
        -12    1    1    2    0    0 -0.34338136855E+02  0.61247040979E+01 -0.28504275081E+02  0.45045680602E+02  0.00000000000E+00 0.  1.
         11    1    3    3    0    0  0.12877916390E+02  0.10737958559E+01  0.80184265527E+01  0.15208186372E+02  0.51100000000E-03 0.  1.
        -11    1    3    3    0    0  0.14444093618E+02 -0.69262562337E+01  0.15750474214E+02  0.22465135301E+02  0.51100000000E-03 0. -1.
         12    1    3    3    0    0  0.70161268472E+01 -0.27224372017E+00  0.47353743136E+01  0.84689977252E+01  0.00000000000E+00 0. -1.
</event>
<event>
 7    1  0.1519238E-008  0.4614232E+02  0.7816164E-02  0.1320468E+00
        -11   -1    0    0    0    0  0.00000000000E+00  0.00000000000E+00  0.45593999997E+02  0.45594000000E+02  0.51100000000E-03 0.  1.
         11   -1    0    0    0    0 -0.00000000000E+00 -0.00000000000E+00 -0.45593999997E+02  0.45594000000E+02  0.51100000000E-03 0. -1.
    9900012    2    1    2    0    0 -0.24560997498E+02 -0.25887767424E+02 -0.27489894735E+02  0.46142318600E+02  0.10000007645E+02 0.  0.
        -12    1    1    2    0    0  0.24560997498E+02  0.25887767424E+02  0.27489894735E+02  0.45045681400E+02  0.00000000000E+00 0.  1.
         11    1    3    3    0    0 -0.18986263371E+02 -0.24102715313E+02 -0.24415840492E+02  0.39211635383E+02  0.51100000000E-03 0. -1.
        -11    1    3    3    0    0 -0.11795054092E+01 -0.18170728756E+00 -0.16574128570E+01  0.20423682793E+01  0.51100000000E-03 0.  1.
         12    1    3    3    0    0 -0.43952287180E+01 -0.16033448233E+01 -0.14166413862E+01  0.48883149369E+01  0.00000000000E+00 0. -1.
</event>
<event>
 7    1  0.1519238E-008  0.4614232E+02  0.7816164E-02  0.1320468E+00
        -11   -1    0    0    0    0  0.00000000000E+00  0.00000000000E+00  0.45593999997E+02  0.45594000000E+02  0.51100000000E-03 0.  1.
         11   -1    0    0    0    0 -0.00000000000E+00 -0.00000000000E+00 -0.45593999997E+02  0.45594000000E+02  0.51100000000E-03 0. -1.
    9900012    2    1    2    0    0 -0.41679376589E+02  0.13882927152E+02 -0.99602831932E+01  0.46142319403E+02  0.10000014972E+02 0.  0.
        -12    1    1    2    0    0  0.41679376589E+02 -0.13882927152E+02  0.99602831932E+01  0.45045680597E+02  0.00000000000E+00 0.  1.
         11    1    3    3    0    0 -0.30187285264E+02  0.10823880787E+02 -0.28342133373E+01  0.32194119842E+02  0.51100000000E-03 0. -1.
        -11    1    3    3    0    0 -0.11512956379E+02  0.30109422304E+01 -0.69873279681E+01  0.13799880076E+02  0.51100000000E-03 0.  1.
         12    1    3    3    0    0  0.20865054406E-01  0.48104134658E-01 -0.13874188780E+00  0.14831948522E+00  0.00000000000E+00 0. -1.
</event>
