<event>
 7    1  0.6152255E-013  0.5930196E+02  0.7816164E-02  0.1266605E+00
        -11   -1    0    0    0    0  0.00000000000E+00  0.00000000000E+00  0.45593999997E+02  0.45594000000E+02  0.51100000000E-03 0.  1.
         11   -1    0    0    0    0 -0.00000000000E+00 -0.00000000000E+00 -0.45593999997E+02  0.45594000000E+02  0.51100000000E-03 0. -1.
    9900012    2    1    2    0    0  0.22977017999E+02  0.66160015557E+01 -0.21095128781E+02  0.59301964012E+02  0.50000036447E+02 0.  0.
        -12    1    1    2    0    0 -0.22977017999E+02 -0.66160015557E+01  0.21095128781E+02  0.31886035988E+02  0.00000000000E+00 0.  1.
         11    1    3    3    0    0 -0.48270493220E+01  0.34218247625E+01  0.49151224846E+01  0.76920555875E+01  0.51100000000E-03 0. -1.
        -11    1    3    3    0    0  0.28337788943E+02 -0.17773227790E+01 -0.35672618763E+01  0.28616682477E+02  0.51100000000E-03 0.  1.
         12    1    3    3    0    0 -0.53372162184E+00  0.49714995722E+01 -0.22442989389E+02  0.22993225948E+02  0.00000000000E+00 0. -1.
</event>
<event>
 7    1  0.6152255E-013  0.5930193E+02  0.7816164E-02  0.1266605E+00
        -11   -1    0    0    0    0  0.00000000000E+00  0.00000000000E+00  0.45593999997E+02  0.45594000000E+02  0.51100000000E-03 0.  1.
         11   -1    0    0    0    0 -0.00000000000E+00 -0.00000000000E+00 -0.45593999997E+02  0.45594000000E+02  0.51100000000E-03 0. -1.
    9900012    2    1    2    0    0  0.21904201193E+02 -0.18896561717E+02 -0.13410707821E+02  0.59301934723E+02  0.49999983030E+02 0.  0.
        -12    1    1    2    0    0 -0.21904201193E+02  0.18896561717E+02  0.13410707821E+02  0.31886065277E+02  0.00000000000E+00 0.  1.
         11    1    3    3    0    0  0.29829764900E+02 -0.94549165444E+01 -0.16362318287E+02  0.35311977866E+02  0.51100000000E-03 0. -1.
        -11    1    3    3    0    0  0.33126049037E+01  0.45698651292E+01 -0.61522696503E+00  0.56776335763E+01  0.51100000000E-03 0.  1.
        -12    1    3    3    0    0 -0.11238168611E+02 -0.14011510301E+02  0.35668374315E+01  0.18312323280E+02  0.00000000000E+00 0.  1.
</event>
<event>
 7    1  0.6152255E-013  0.5930196E+02  0.7816164E-02  0.1266605E+00
        -11   -1    0    0    0    0  0.00000000000E+00  0.00000000000E+00  0.45593999997E+02  0.45594000000E+02  0.51100000000E-03 0. -1.
         11   -1    0    0    0    0 -0.00000000000E+00 -0.00000000000E+00 -0.45593999997E+02  0.45594000000E+02  0.51100000000E-03 0.  1.
    9900012    2    1    2    0    0  0.52648630064E+01 -0.15473628735E+01  0.31410295129E+02  0.59301956745E+02  0.50000023194E+02 0.  0.
        -12    1    1    2    0    0 -0.52648630064E+01  0.15473628735E+01 -0.31410295129E+02  0.31886043255E+02  0.00000000000E+00 0.  1.
         11    1    3    3    0    0  0.20828874455E+02 -0.27153019890E+01  0.17361950052E+02  0.27251645562E+02  0.51100000000E-03 0. -1.
        -11    1    3    3    0    0  0.24732219427E+01  0.86419200930E+01  0.23555465671E+01  0.92923737313E+01  0.51100000000E-03 0.  1.
         12    1    3    3    0    0 -0.18037233392E+02 -0.74739809775E+01  0.11692798510E+02  0.22757937452E+02  0.00000000000E+00 0. -1.
</event>
<event>
 7    1  0.6152255E-013  0.5930188E+02  0.7816164E-02  0.1266605E+00
        -11   -1    0    0    0    0  0.00000000000E+00  0.00000000000E+00  0.45593999997E+02  0.45594000000E+02  0.51100000000E-03 0. -1.
         11   -1    0    0    0    0 -0.00000000000E+00 -0.00000000000E+00 -0.45593999997E+02  0.45594000000E+02  0.51100000000E-03 0.  1.
    9900012    2    1    2    0    0 -0.34234642893E+01  0.25705872792E+02  0.18552974667E+02  0.59301876486E+02  0.49999876820E+02 0.  0.
        -12    1    1    2    0    0  0.34234642893E+01 -0.25705872792E+02 -0.18552974667E+02  0.31886123514E+02  0.00000000000E+00 0.  1.
         11    1    3    3    0    0 -0.34906064020E+00 -0.15512803569E+01 -0.39155913950E+01  0.42261294715E+01  0.51100000000E-03 0. -1.
        -11    1    3    3    0    0  0.83651818193E+01  0.12274117372E+02 -0.97357203586E+01  0.17759912029E+02  0.51100000000E-03 0.  1.
         12    1    3    3    0    0 -0.11439585468E+02  0.14983035777E+02  0.32204286421E+02  0.37315834985E+02  0.00000000000E+00 0. -1.
</event>
<event>
 7    1  0.6152255E-013  0.5930192E+02  0.7816164E-02  0.1266605E+00
        -11   -1    0    0    0    0  0.00000000000E+00  0.00000000000E+00  0.45593999997E+02  0.45594000000E+02  0.51100000000E-03 0. -1.
         11   -1    0    0    0    0 -0.00000000000E+00 -0.00000000000E+00 -0.45593999997E+02  0.45594000000E+02  0.51100000000E-03 0.  1.
    9900012    2    1    2    0    0 -0.12966001703E+02  0.28919552649E+01  0.28986914929E+02  0.59301924002E+02  0.49999963478E+02 0.  0.
        -12    1    1    2    0    0  0.12966001703E+02 -0.28919552649E+01 -0.28986914929E+02  0.31886075998E+02  0.00000000000E+00 0.  1.
         11    1    3    3    0    0 -0.25597720185E+01  0.17812987676E+01  0.16753661862E+02  0.17041439027E+02  0.51100000000E-03 0. -1.
        -11    1    3    3    0    0  0.12684187791E+02 -0.79265946610E+01  0.84454841146E+01  0.17176895093E+02  0.51100000000E-03 0.  1.
        -12    1    3    3    0    0 -0.23090417476E+02  0.90372511583E+01  0.37877689530E+01  0.25083589882E+02  0.00000000000E+00 0.  1.
</event>
<event>
 7    1  0.6152255E-013  0.5930196E+02  0.7816164E-02  0.1266605E+00
        -11   -1    0    0    0    0  0.00000000000E+00  0.00000000000E+00  0.45593999997E+02  0.45594000000E+02  0.51100000000E-03 0.  1.
         11   -1    0    0    0    0 -0.00000000000E+00 -0.00000000000E+00 -0.45593999997E+02  0.45594000000E+02  0.51100000000E-03 0. -1.
    9900012    2    1    2    0    0  0.17432087129E+02  0.12447155914E+02 -0.23620121030E+02  0.59301961213E+02  0.50000031343E+02 0.  0.
        -12    1    1    2    0    0 -0.17432087129E+02 -0.12447155914E+02  0.23620121030E+02  0.31886038787E+02  0.00000000000E+00 0.  1.
         11    1    3    3    0    0  0.47627781515E+01  0.29786395380E+01 -0.51405632590E+01  0.76145741902E+01  0.51100000000E-03 0. -1.
        -11    1    3    3    0    0  0.27288815900E+02  0.15496579392E+02 -0.70180494083E+01  0.32157059316E+02  0.51100000000E-03 0.  1.
        -12    1    3    3    0    0 -0.14619506923E+02 -0.60280630153E+01 -0.11461508363E+02  0.19530327707E+02  0.00000000000E+00 0.  1.
</event>
<event>
 7    1  0.6152255E-013  0.5930193E+02  0.7816164E-02  0.1266605E+00
        -11   -1    0    0    0    0  0.00000000000E+00  0.00000000000E+00  0.45593999997E+02  0.45594000000E+02  0.51100000000E-03 0. -1.
         11   -1    0    0    0    0 -0.00000000000E+00 -0.00000000000E+00 -0.45593999997E+02  0.45594000000E+02  0.51100000000E-03 0.  1.
    9900012    2    1    2    0    0 -0.42278480779E+01 -0.23853072333E+02  0.20733498355E+02  0.59301926032E+02  0.49999967179E+02 0.  0.
        -12    1    1    2    0    0  0.42278480779E+01  0.23853072333E+02 -0.20733498355E+02  0.31886073968E+02  0.00000000000E+00 0.  1.
         11    1    3    3    0    0  0.30551487756E+01 -0.81496466089E+01  0.21834584972E+02  0.23505313762E+02  0.51100000000E-03 0. -1.
        -11    1    3    3    0    0  0.93190297066E+01 -0.16086005400E+02 -0.37929742216E+01  0.18973416616E+02  0.51100000000E-03 0.  1.
        -12    1    3    3    0    0 -0.16602026560E+02  0.38257967555E+00  0.26918876042E+01  0.16823195653E+02  0.00000000000E+00 0.  1.
</event>
<event>
 7    1  0.6152255E-013  0.5930192E+02  0.7816164E-02  0.1266605E+00
        -11   -1    0    0    0    0  0.00000000000E+00  0.00000000000E+00  0.45593999997E+02  0.45594000000E+02  0.51100000000E-03 0.  1.
         11   -1    0    0    0    0 -0.00000000000E+00 -0.00000000000E+00 -0.45593999997E+02  0.45594000000E+02  0.51100000000E-03 0. -1.
    9900012    2    1    2    0    0 -0.19936031095E+02 -0.66195150795E+00 -0.24876469090E+02  0.59301917926E+02  0.49999952397E+02 0.  0.
        -12    1    1    2    0    0  0.19936031095E+02  0.66195150795E+00  0.24876469090E+02  0.31886082074E+02  0.00000000000E+00 0.  1.
         11    1    3    3    0    0 -0.16217866164E+02  0.35422327316E+01 -0.12201573374E+02  0.20602062730E+02  0.51100000000E-03 0. -1.
        -11    1    3    3    0    0  0.22274404287E+00  0.10226641680E+02  0.81361347393E+01  0.13070214371E+02  0.51100000000E-03 0.  1.
         12    1    3    3    0    0 -0.39409089740E+01 -0.14430825919E+02 -0.20811030455E+02  0.25629640826E+02  0.00000000000E+00 0. -1.
</event>
<event>
 7    1  0.6152255E-013  0.5930194E+02  0.7816164E-02  0.1266605E+00
        -11   -1    0    0    0    0  0.00000000000E+00  0.00000000000E+00  0.45593999997E+02  0.45594000000E+02  0.51100000000E-03 0. -1.
         11   -1    0    0    0    0 -0.00000000000E+00 -0.00000000000E+00 -0.45593999997E+02  0.45594000000E+02  0.51100000000E-03 0.  1.
    9900012    2    1    2    0    0  0.39269796322E+01 -0.29945205543E+01  0.31501311730E+02  0.59301937793E+02  0.49999988629E+02 0.  0.
        -12    1    1    2    0    0 -0.39269796322E+01  0.29945205543E+01 -0.31501311730E+02  0.31886062207E+02  0.00000000000E+00 0.  1.
         11    1    3    3    0    0  0.16543824344E+02  0.55914573841E+01  0.18934142991E+02  0.25757800579E+02  0.51100000000E-03 0. -1.
        -11    1    3    3    0    0  0.36878191808E+01 -0.10747044693E+02  0.12773414078E+02  0.17095586781E+02  0.51100000000E-03 0.  1.
         12    1    3    3    0    0 -0.16304663893E+02  0.21610667544E+01 -0.20624533851E+00  0.16448550432E+02  0.00000000000E+00 0. -1.
</event>
<event>
 7    1  0.6152255E-013  0.5930194E+02  0.7816164E-02  0.1266605E+00
        -11   -1    0    0    0    0  0.00000000000E+00  0.00000000000E+00  0.45593999997E+02  0.45594000000E+02  0.51100000000E-03 0.  1.
         11   -1    0    0    0    0 -0.00000000000E+00 -0.00000000000E+00 -0.45593999997E+02  0.45594000000E+02  0.51100000000E-03 0. -1.
    9900012    2    1    2    0    0  0.22342340781E+02 -0.27300450839E+01 -0.22585115233E+02  0.59301940855E+02  0.49999994213E+02 0.  0.
        -12    1    1    2    0    0 -0.22342340781E+02  0.27300450839E+01  0.22585115233E+02  0.31886059145E+02  0.00000000000E+00 0.  1.
         11    1    3    3    0    0  0.35355400009E+01  0.20855464137E+02 -0.82475352088E+01  0.22704014287E+02  0.51100000000E-03 0. -1.
        -11    1    3    3    0    0 -0.20628714150E+01 -0.13368232525E+01  0.74430923499E+00  0.25683713480E+01  0.51100000000E-03 0.  1.
        -12    1    3    3    0    0  0.20869672195E+02 -0.22248685968E+02 -0.15081889260E+02  0.34029555220E+02  0.00000000000E+00 0.  1.
</event>
<event>
 7    1  0.6152255E-013  0.5930195E+02  0.7816164E-02  0.1266605E+00
        -11   -1    0    0    0    0  0.00000000000E+00  0.00000000000E+00  0.45593999997E+02  0.45594000000E+02  0.51100000000E-03 0. -1.
         11   -1    0    0    0    0 -0.00000000000E+00 -0.00000000000E+00 -0.45593999997E+02  0.45594000000E+02  0.51100000000E-03 0.  1.
    9900012    2    1    2    0    0  0.25819639876E+02  0.27708429316E+01  0.18503757691E+02  0.59301946269E+02  0.50000004087E+02 0.  0.
        -12    1    1    2    0    0 -0.25819639876E+02 -0.27708429316E+01 -0.18503757691E+02  0.31886053731E+02  0.00000000000E+00 0.  1.
         11    1    3    3    0    0  0.16928553565E+02 -0.10547350718E+02 -0.55335899353E+00  0.19953163644E+02  0.51100000000E-03 0. -1.
        -11    1    3    3    0    0 -0.27937328996E+01  0.41434024970E+01 -0.74450019520E+01  0.89666483199E+01  0.51100000000E-03 0.  1.
        -12    1    3    3    0    0  0.11684819210E+02  0.91747911523E+01  0.26502118637E+02  0.30382134305E+02  0.00000000000E+00 0.  1.
</event>
<event>
 7    1  0.6152255E-013  0.5930195E+02  0.7816164E-02  0.1266605E+00
        -11   -1    0    0    0    0  0.00000000000E+00  0.00000000000E+00  0.45593999997E+02  0.45594000000E+02  0.51100000000E-03 0. -1.
         11   -1    0    0    0    0 -0.00000000000E+00 -0.00000000000E+00 -0.45593999997E+02  0.45594000000E+02  0.51100000000E-03 0.  1.
    9900012    2    1    2    0    0 -0.25776395481E+02  0.25365064027E+01  0.18597409550E+02  0.59301951786E+02  0.50000014150E+02 0.  0.
        -12    1    1    2    0    0  0.25776395481E+02 -0.25365064027E+01 -0.18597409550E+02  0.31886048214E+02  0.00000000000E+00 0.  1.
         11    1    3    3    0    0 -0.15170516297E+02 -0.19486147064E+01  0.17797299761E+02  0.23466690074E+02  0.51100000000E-03 0. -1.
        -11    1    3    3    0    0 -0.41483947776E+01 -0.85695884577E+01  0.13494439015E+02  0.16515051019E+02  0.51100000000E-03 0.  1.
        -12    1    3    3    0    0 -0.64574844063E+01  0.13054709567E+02 -0.12694329226E+02  0.19320210693E+02  0.00000000000E+00 0.  1.
</event>
<event>
 7    1  0.6152255E-013  0.5930215E+02  0.7816164E-02  0.1266604E+00
        -11   -1    0    0    0    0  0.00000000000E+00  0.00000000000E+00  0.45593999997E+02  0.45594000000E+02  0.51100000000E-03 0. -1.
         11   -1    0    0    0    0 -0.00000000000E+00 -0.00000000000E+00 -0.45593999997E+02  0.45594000000E+02  0.51100000000E-03 0.  1.
    9900012    2    1    2    0    0  0.69217335214E+01 -0.31024330607E+02  0.25075655082E+01  0.59302150955E+02  0.50000377383E+02 0.  0.
        -12    1    1    2    0    0 -0.69217335214E+01  0.31024330607E+02 -0.25075655082E+01  0.31885849045E+02  0.00000000000E+00 0.  1.
         11    1    3    3    0    0 -0.35189414463E+01 -0.10024365320E+02 -0.60589193891E+01  0.12230345596E+02  0.51100000000E-03 0. -1.
        -11    1    3    3    0    0 -0.14048311498E+01 -0.15031031376E+01 -0.14490721388E+02  0.14636047151E+02  0.51100000000E-03 0.  1.
        -12    1    3    3    0    0  0.11845506118E+02 -0.19496862149E+02  0.23057206285E+02  0.32435758208E+02  0.00000000000E+00 0.  1.
</event>
<event>
 7    1  0.6152255E-013  0.5930194E+02  0.7816164E-02  0.1266605E+00
        -11   -1    0    0    0    0  0.00000000000E+00  0.00000000000E+00  0.45593999997E+02  0.45594000000E+02  0.51100000000E-03 0.  1.
         11   -1    0    0    0    0 -0.00000000000E+00 -0.00000000000E+00 -0.45593999997E+02  0.45594000000E+02  0.51100000000E-03 0. -1.
    9900012    2    1    2    0    0  0.55847253072E+01 -0.28081288491E+02 -0.14034692207E+02  0.59301944970E+02  0.50000001718E+02 0.  0.
        -12    1    1    2    0    0 -0.55847253072E+01  0.28081288491E+02  0.14034692207E+02  0.31886055030E+02  0.00000000000E+00 0.  1.
         11    1    3    3    0    0 -0.99698165085E+01 -0.64029604113E+01  0.20090533826E+01  0.12017963180E+02  0.51100000000E-03 0. -1.
        -11    1    3    3    0    0 -0.62082106694E+01  0.45339535905E+01  0.30017380089E+01  0.82528205004E+01  0.51100000000E-03 0.  1.
        -12    1    3    3    0    0  0.21762752485E+02 -0.26212281670E+02 -0.19045483598E+02  0.39031161289E+02  0.00000000000E+00 0.  1.
</event>
<event>
 7    1  0.6152255E-013  0.5930194E+02  0.7816164E-02  0.1266605E+00
        -11   -1    0    0    0    0  0.00000000000E+00  0.00000000000E+00  0.45593999997E+02  0.45594000000E+02  0.51100000000E-03 0.  1.
         11   -1    0    0    0    0 -0.00000000000E+00 -0.00000000000E+00 -0.45593999997E+02  0.45594000000E+02  0.51100000000E-03 0. -1.
    9900012    2    1    2    0    0 -0.24754286283E+02 -0.12925593767E+02 -0.15390759043E+02  0.59301935214E+02  0.49999983926E+02 0.  0.
        -12    1    1    2    0    0  0.24754286283E+02  0.12925593767E+02  0.15390759043E+02  0.31886064786E+02  0.00000000000E+00 0.  1.
         11    1    3    3    0    0 -0.13249526846E+02 -0.66310228855E+01  0.15525530353E+00  0.14817035150E+02  0.51100000000E-03 0. -1.
        -11    1    3    3    0    0  0.12196373673E+02  0.40662383831E+01  0.22983877585E+01  0.13060184222E+02  0.51100000000E-03 0.  1.
         12    1    3    3    0    0 -0.23701133110E+02 -0.10360809264E+02 -0.17844402105E+02  0.31424715843E+02  0.00000000000E+00 0. -1.
</event>
<event>
 7    1  0.6152255E-013  0.5930198E+02  0.7816164E-02  0.1266605E+00
        -11   -1    0    0    0    0  0.00000000000E+00  0.00000000000E+00  0.45593999997E+02  0.45594000000E+02  0.51100000000E-03 0.  1.
         11   -1    0    0    0    0 -0.00000000000E+00 -0.00000000000E+00 -0.45593999997E+02  0.45594000000E+02  0.51100000000E-03 0. -1.
    9900012    2    1    2    0    0 -0.37004432722E+01 -0.21621448935E+02 -0.23141695307E+02  0.59301978044E+02  0.50000062038E+02 0.  0.
        -12    1    1    2    0    0  0.37004432722E+01  0.21621448935E+02  0.23141695307E+02  0.31886021956E+02  0.00000000000E+00 0.  1.
         11    1    3    3    0    0  0.41502585015E+01 -0.32860193499E+02 -0.19915832908E+02  0.38647863630E+02  0.51100000000E-03 0. -1.
        -11    1    3    3    0    0  0.55907940074E+00 -0.27196354604E+01  0.21311945550E+01  0.35001396124E+01  0.51100000000E-03 0.  1.
         12    1    3    3    0    0 -0.84097811745E+01  0.13958380024E+02 -0.53570569540E+01  0.17153974802E+02  0.00000000000E+00 0. -1.
</event>
<event>
 7    1  0.6152255E-013  0.5930194E+02  0.7816164E-02  0.1266605E+00
        -11   -1    0    0    0    0  0.00000000000E+00  0.00000000000E+00  0.45593999997E+02  0.45594000000E+02  0.51100000000E-03 0.  1.
         11   -1    0    0    0    0 -0.00000000000E+00 -0.00000000000E+00 -0.45593999997E+02  0.45594000000E+02  0.51100000000E-03 0. -1.
    9900012    2    1    2    0    0 -0.38731385593E+01 -0.11538771143E+02 -0.29471616112E+02  0.59301943517E+02  0.49999999068E+02 0.  0.
        -12    1    1    2    0    0  0.38731385593E+01  0.11538771143E+02  0.29471616112E+02  0.31886056483E+02  0.00000000000E+00 0.  1.
         11    1    3    3    0    0  0.95645452943E+00 -0.99087455364E+01 -0.97484201702E+01  0.13933044874E+02  0.51100000000E-03 0. -1.
        -11    1    3    3    0    0 -0.20068444548E+02 -0.85200751277E+01 -0.35230062347E+01  0.22084965926E+02  0.51100000000E-03 0.  1.
         12    1    3    3    0    0  0.15238851460E+02  0.68900495211E+01 -0.16200189707E+02  0.23283932717E+02  0.00000000000E+00 0. -1.
</event>
<event>
 7    1  0.6152255E-013  0.5930195E+02  0.7816164E-02  0.1266605E+00
        -11   -1    0    0    0    0  0.00000000000E+00  0.00000000000E+00  0.45593999997E+02  0.45594000000E+02  0.51100000000E-03 0.  1.
         11   -1    0    0    0    0 -0.00000000000E+00 -0.00000000000E+00 -0.45593999997E+02  0.45594000000E+02  0.51100000000E-03 0. -1.
    9900012    2    1    2    0    0  0.41063486537E+00 -0.35638733555E+01 -0.31683600383E+02  0.59301947445E+02  0.50000006233E+02 0.  0.
        -12    1    1    2    0    0 -0.41063486537E+00  0.35638733555E+01  0.31683600383E+02  0.31886052555E+02  0.00000000000E+00 0.  1.
         11    1    3    3    0    0  0.39394999061E+01  0.65730614697E+01 -0.27314023924E+02  0.28368656996E+02  0.51100000000E-03 0. -1.
        -11    1    3    3    0    0  0.34826247314E+01 -0.99644278097E+01 -0.14912720808E+02  0.18270406092E+02  0.51100000000E-03 0.  1.
        -12    1    3    3    0    0 -0.70114897722E+01 -0.17250701553E+00  0.10543144348E+02  0.12662884357E+02  0.00000000000E+00 0.  1.
</event>
<event>
 7    1  0.6152255E-013  0.5930196E+02  0.7816164E-02  0.1266605E+00
        -11   -1    0    0    0    0  0.00000000000E+00  0.00000000000E+00  0.45593999997E+02  0.45594000000E+02  0.51100000000E-03 0.  1.
         11   -1    0    0    0    0 -0.00000000000E+00 -0.00000000000E+00 -0.45593999997E+02  0.45594000000E+02  0.51100000000E-03 0. -1.
    9900012    2    1    2    0    0  0.22050768367E+02 -0.12717135501E+02 -0.19203059040E+02  0.59301962344E+02  0.50000033404E+02 0.  0.
        -12    1    1    2    0    0 -0.22050768367E+02  0.12717135501E+02  0.19203059040E+02  0.31886037656E+02  0.00000000000E+00 0.  1.
         11    1    3    3    0    0 -0.33172775102E+01  0.86254822708E+01 -0.13230793784E+02  0.16138685786E+02  0.51100000000E-03 0. -1.
        -11    1    3    3    0    0  0.75072033483E+01 -0.59525715398E+01  0.10642997287E+02  0.14320076870E+02  0.51100000000E-03 0.  1.
        -12    1    3    3    0    0  0.17860842529E+02 -0.15390046232E+02 -0.16615262543E+02  0.28843199688E+02  0.00000000000E+00 0.  1.
</event>
<event>
 7    1  0.6152255E-013  0.5930194E+02  0.7816164E-02  0.1266605E+00
        -11   -1    0    0    0    0  0.00000000000E+00  0.00000000000E+00  0.45593999997E+02  0.45594000000E+02  0.51100000000E-03 0. -1.
         11   -1    0    0    0    0 -0.00000000000E+00 -0.00000000000E+00 -0.45593999997E+02  0.45594000000E+02  0.51100000000E-03 0.  1.
    9900012    2    1    2    0    0 -0.11318506074E+02  0.14595848385E+02  0.25991796441E+02  0.59301939534E+02  0.49999991804E+02 0.  0.
        -12    1    1    2    0    0  0.11318506074E+02 -0.14595848385E+02 -0.25991796441E+02  0.31886060466E+02  0.00000000000E+00 0.  1.
         11    1    3    3    0    0  0.74217620064E+01  0.15588584671E+02  0.24477659312E+02  0.29954003555E+02  0.51100000000E-03 0. -1.
        -11    1    3    3    0    0 -0.36850357489E+01  0.38134558687E+01  0.10066912584E+02  0.11378253969E+02  0.51100000000E-03 0.  1.
        -12    1    3    3    0    0 -0.15055232331E+02 -0.48061921541E+01 -0.85527754549E+01  0.17969682010E+02  0.00000000000E+00 0.  1.
</event>
<event>
 7    1  0.6152255E-013  0.5930191E+02  0.7816164E-02  0.1266605E+00
        -11   -1    0    0    0    0  0.00000000000E+00  0.00000000000E+00  0.45593999997E+02  0.45594000000E+02  0.51100000000E-03 0. -1.
         11   -1    0    0    0    0 -0.00000000000E+00 -0.00000000000E+00 -0.45593999997E+02  0.45594000000E+02  0.51100000000E-03 0.  1.
    9900012    2    1    2    0    0  0.28103260490E+01 -0.22503106491E+02  0.22415058779E+02  0.59301912213E+02  0.49999941978E+02 0.  0.
        -12    1    1    2    0    0 -0.28103260490E+01  0.22503106491E+02 -0.22415058779E+02  0.31886087787E+02  0.00000000000E+00 0.  1.
         11    1    3    3    0    0  0.11577813628E+01 -0.23019310899E+02  0.87471967989E+01  0.24652435662E+02  0.51100000000E-03 0. -1.
        -11    1    3    3    0    0 -0.77745438902E+00  0.18722871815E+01  0.23930514219E+02  0.24016232129E+02  0.51100000000E-03 0.  1.
         12    1    3    3    0    0  0.24299990752E+01 -0.13560827734E+01 -0.10262652238E+02  0.10633244423E+02  0.00000000000E+00 0. -1.
</event>
<event>
 7    1  0.6152255E-013  0.5930194E+02  0.7816164E-02  0.1266605E+00
        -11   -1    0    0    0    0  0.00000000000E+00  0.00000000000E+00  0.45593999997E+02  0.45594000000E+02  0.51100000000E-03 0.  1.
         11   -1    0    0    0    0 -0.00000000000E+00 -0.00000000000E+00 -0.45593999997E+02  0.45594000000E+02  0.51100000000E-03 0. -1.
    9900012    2    1    2    0    0  0.11802481143E+01  0.17584572840E+02 -0.26572736609E+02  0.59301944765E+02  0.50000001344E+02 0.  0.
        -12    1    1    2    0    0 -0.11802481143E+01 -0.17584572840E+02  0.26572736609E+02  0.31886055235E+02  0.00000000000E+00 0.  1.
         11    1    3    3    0    0 -0.67869856106E+01  0.18198813016E+02 -0.28909650758E+01  0.19637149696E+02  0.51100000000E-03 0. -1.
        -11    1    3    3    0    0  0.12664805850E+02 -0.44702438357E+01  0.17253102342E+01  0.13540940988E+02  0.51100000000E-03 0.  1.
         12    1    3    3    0    0 -0.46975721250E+01  0.38560036602E+01 -0.25407081767E+02  0.26123854081E+02  0.00000000000E+00 0. -1.
</event>
<event>
 7    1  0.6152255E-013  0.5930194E+02  0.7816164E-02  0.1266605E+00
        -11   -1    0    0    0    0  0.00000000000E+00  0.00000000000E+00  0.45593999997E+02  0.45594000000E+02  0.51100000000E-03 0.  1.
         11   -1    0    0    0    0 -0.00000000000E+00 -0.00000000000E+00 -0.45593999997E+02  0.45594000000E+02  0.51100000000E-03 0. -1.
    9900012    2    1    2    0    0  0.19110773404E+02  0.19719755476E+02 -0.16205874312E+02  0.59301940690E+02  0.49999993913E+02 0.  0.
        -12    1    1    2    0    0 -0.19110773404E+02 -0.19719755476E+02  0.16205874312E+02  0.31886059310E+02  0.00000000000E+00 0.  1.
         11    1    3    3    0    0  0.94151573554E+01 -0.52364651114E+01 -0.15371455016E+02  0.18770918583E+02  0.51100000000E-03 0. -1.
        -11    1    3    3    0    0  0.93403500576E+01 -0.42748048223E+01  0.37607358558E+01  0.10938886136E+02  0.51100000000E-03 0.  1.
        -12    1    3    3    0    0  0.35526599088E+00  0.29231025409E+02 -0.45951551518E+01  0.29592135970E+02  0.00000000000E+00 0.  1.
</event>
<event>
 7    1  0.6152255E-013  0.5930196E+02  0.7816164E-02  0.1266605E+00
        -11   -1    0    0    0    0  0.00000000000E+00  0.00000000000E+00  0.45593999997E+02  0.45594000000E+02  0.51100000000E-03 0.  1.
         11   -1    0    0    0    0 -0.00000000000E+00 -0.00000000000E+00 -0.45593999997E+02  0.45594000000E+02  0.51100000000E-03 0. -1.
    9900012    2    1    2    0    0  0.26383957578E+02 -0.91801103382E+01 -0.15373093685E+02  0.59301958341E+02  0.50000026103E+02 0.  0.
        -12    1    1    2    0    0 -0.26383957578E+02  0.91801103382E+01  0.15373093685E+02  0.31886041659E+02  0.00000000000E+00 0.  1.
         11    1    3    3    0    0  0.16708035204E+02  0.88092277675E+01  0.45737464274E+01  0.19433993179E+02  0.51100000000E-03 0. -1.
        -11    1    3    3    0    0 -0.79912522535E+01  0.84501204386E+00 -0.16082097273E+01  0.81951508053E+01  0.51100000000E-03 0.  1.
        -12    1    3    3    0    0  0.17667174627E+02 -0.18834350150E+02 -0.18338630385E+02  0.31672814356E+02  0.00000000000E+00 0.  1.
</event>
<event>
 7    1  0.6152255E-013  0.5930192E+02  0.7816164E-02  0.1266605E+00
        -11   -1    0    0    0    0  0.00000000000E+00  0.00000000000E+00  0.45593999997E+02  0.45594000000E+02  0.51100000000E-03 0.  1.
         11   -1    0    0    0    0 -0.00000000000E+00 -0.00000000000E+00 -0.45593999997E+02  0.45594000000E+02  0.51100000000E-03 0. -1.
    9900012    2    1    2    0    0 -0.11393215172E+02  0.27008287348E+02 -0.12548673753E+02  0.59301919175E+02  0.49999954674E+02 0.  0.
        -12    1    1    2    0    0  0.11393215172E+02 -0.27008287348E+02  0.12548673753E+02  0.31886080825E+02  0.00000000000E+00 0.  1.
         11    1    3    3    0    0 -0.18956680037E+02  0.18571169093E+02 -0.14052037426E+02  0.30028383166E+02  0.51100000000E-03 0. -1.
        -11    1    3    3    0    0  0.46845883276E+01 -0.46800927042E+01  0.10990403746E+02  0.12831118824E+02  0.51100000000E-03 0.  1.
         12    1    3    3    0    0  0.28788765378E+01  0.13117210960E+02 -0.94870400735E+01  0.16442417184E+02  0.00000000000E+00 0. -1.
</event>
<event>
 7    1  0.6152255E-013  0.5930193E+02  0.7816164E-02  0.1266605E+00
        -11   -1    0    0    0    0  0.00000000000E+00  0.00000000000E+00  0.45593999997E+02  0.45594000000E+02  0.51100000000E-03 0.  1.
         11   -1    0    0    0    0 -0.00000000000E+00 -0.00000000000E+00 -0.45593999997E+02  0.45594000000E+02  0.51100000000E-03 0. -1.
    9900012    2    1    2    0    0 -0.23493249613E+02 -0.20929727074E+02  0.51705839242E+01  0.59301934220E+02  0.49999982113E+02 0.  0.
        -12    1    1    2    0    0  0.23493249613E+02  0.20929727074E+02 -0.51705839242E+01  0.31886065780E+02  0.00000000000E+00 0.  1.
         11    1    3    3    0    0 -0.85032523667E+01 -0.26845992027E+02  0.73614373606E+01  0.29106757789E+02  0.51100000000E-03 0. -1.
        -11    1    3    3    0    0 -0.86577088611E+01  0.37415425014E+01  0.11548975097E+02  0.14910864799E+02  0.51100000000E-03 0.  1.
         12    1    3    3    0    0 -0.63322883857E+01  0.21747224514E+01 -0.13739828533E+02  0.15284311632E+02  0.00000000000E+00 0. -1.
</event>
<event>
 7    1  0.6152255E-013  0.5930194E+02  0.7816164E-02  0.1266605E+00
        -11   -1    0    0    0    0  0.00000000000E+00  0.00000000000E+00  0.45593999997E+02  0.45594000000E+02  0.51100000000E-03 0. -1.
         11   -1    0    0    0    0 -0.00000000000E+00 -0.00000000000E+00 -0.45593999997E+02  0.45594000000E+02  0.51100000000E-03 0.  1.
    9900012    2    1    2    0    0 -0.15050627255E+02  0.15994552930E+02  0.23116525236E+02  0.59301939673E+02  0.49999992058E+02 0.  0.
        -12    1    1    2    0    0  0.15050627255E+02 -0.15994552930E+02 -0.23116525236E+02  0.31886060327E+02  0.00000000000E+00 0.  1.
         11    1    3    3    0    0  0.35053774377E+01 -0.64883746411E+01  0.11065719996E+02  0.13298001194E+02  0.51100000000E-03 0. -1.
        -11    1    3    3    0    0  0.88906747719E+01  0.11698875321E+02  0.18980177528E+01  0.14815878419E+02  0.51100000000E-03 0.  1.
        -12    1    3    3    0    0 -0.27446679464E+02  0.10784052250E+02  0.10152787487E+02  0.31188060060E+02  0.00000000000E+00 0.  1.
</event>
<event>
 7    1  0.6152255E-013  0.5930203E+02  0.7816164E-02  0.1266604E+00
        -11   -1    0    0    0    0  0.00000000000E+00  0.00000000000E+00  0.45593999997E+02  0.45594000000E+02  0.51100000000E-03 0.  1.
         11   -1    0    0    0    0 -0.00000000000E+00 -0.00000000000E+00 -0.45593999997E+02  0.45594000000E+02  0.51100000000E-03 0. -1.
    9900012    2    1    2    0    0  0.81079455928E+01 -0.81294206111E+01 -0.29747081164E+02  0.59302029747E+02  0.50000156330E+02 0.  0.
        -12    1    1    2    0    0 -0.81079455928E+01  0.81294206111E+01  0.29747081164E+02  0.31885970253E+02  0.00000000000E+00 0.  1.
         11    1    3    3    0    0 -0.90600981969E+00  0.18694051681E+01 -0.90283404469E+01  0.92642571727E+01  0.51100000000E-03 0. -1.
        -11    1    3    3    0    0 -0.16464155779E+02 -0.45437054582E+01 -0.55038672218E+00  0.17088493515E+02  0.51100000000E-03 0.  1.
        -12    1    3    3    0    0  0.25478111192E+02 -0.54551203210E+01 -0.20168353995E+02  0.32949279059E+02  0.00000000000E+00 0.  1.
</event>
<event>
 7    1  0.6152255E-013  0.5930194E+02  0.7816164E-02  0.1266605E+00
        -11   -1    0    0    0    0  0.00000000000E+00  0.00000000000E+00  0.45593999997E+02  0.45594000000E+02  0.51100000000E-03 0. -1.
         11   -1    0    0    0    0 -0.00000000000E+00 -0.00000000000E+00 -0.45593999997E+02  0.45594000000E+02  0.51100000000E-03 0.  1.
    9900012    2    1    2    0    0 -0.23730815199E+02  0.13443399856E+02  0.16518004204E+02  0.59301936389E+02  0.49999986069E+02 0.  0.
        -12    1    1    2    0    0  0.23730815199E+02 -0.13443399856E+02 -0.16518004204E+02  0.31886063611E+02  0.00000000000E+00 0.  1.
         11    1    3    3    0    0 -0.64138016075E+01  0.10353108909E+02  0.27196118367E+02  0.29798533011E+02  0.51100000000E-03 0. -1.
        -11    1    3    3    0    0 -0.77788419085E+01  0.11245048648E+02 -0.99928745777E+01  0.16935732731E+02  0.51100000000E-03 0.  1.
        -12    1    3    3    0    0 -0.95381716832E+01 -0.81547577008E+01 -0.68523958484E+00  0.12567670648E+02  0.00000000000E+00 0.  1.
</event>
<event>
 7    1  0.6152255E-013  0.5930187E+02  0.7816164E-02  0.1266605E+00
        -11   -1    0    0    0    0  0.00000000000E+00  0.00000000000E+00  0.45593999997E+02  0.45594000000E+02  0.51100000000E-03 0.  1.
         11   -1    0    0    0    0 -0.00000000000E+00 -0.00000000000E+00 -0.45593999997E+02  0.45594000000E+02  0.51100000000E-03 0. -1.
    9900012    2    1    2    0    0 -0.11583403660E+02  0.15154377278E+02 -0.25551811077E+02  0.59301867586E+02  0.49999860589E+02 0.  0.
        -12    1    1    2    0    0  0.11583403660E+02 -0.15154377278E+02  0.25551811077E+02  0.31886132414E+02  0.00000000000E+00 0.  1.
         11    1    3    3    0    0  0.99515933232E+01 -0.85671566462E-01 -0.16117681054E+02  0.18942576174E+02  0.51100000000E-03 0. -1.
        -11    1    3    3    0    0 -0.88487075892E+01  0.55622787664E+01 -0.19050555048E+02  0.21729294028E+02  0.51100000000E-03 0.  1.
        -12    1    3    3    0    0 -0.12686289394E+02  0.96777700778E+01  0.96164250252E+01  0.18629997384E+02  0.00000000000E+00 0.  1.
</event>
<event>
 7    1  0.6152255E-013  0.5930194E+02  0.7816164E-02  0.1266605E+00
        -11   -1    0    0    0    0  0.00000000000E+00  0.00000000000E+00  0.45593999997E+02  0.45594000000E+02  0.51100000000E-03 0. -1.
         11   -1    0    0    0    0 -0.00000000000E+00 -0.00000000000E+00 -0.45593999997E+02  0.45594000000E+02  0.51100000000E-03 0.  1.
    9900012    2    1    2    0    0 -0.93571847693E+01 -0.23201522494E+02  0.19770002927E+02  0.59301943979E+02  0.49999999910E+02 0.  0.
        -12    1    1    2    0    0  0.93571847693E+01  0.23201522494E+02 -0.19770002927E+02  0.31886056021E+02  0.00000000000E+00 0.  1.
         11    1    3    3    0    0 -0.49559836519E+01 -0.44419997170E+01 -0.15779592581E+01  0.68398166002E+01  0.51100000000E-03 0. -1.
        -11    1    3    3    0    0 -0.24142978407E+02 -0.10034635717E+02  0.14027555674E+02  0.29670686523E+02  0.51100000000E-03 0.  1.
         12    1    3    3    0    0  0.19741777289E+02 -0.87248870603E+01  0.73204065112E+01  0.22791440855E+02  0.00000000000E+00 0. -1.
</event>
<event>
 7    1  0.6152255E-013  0.5930213E+02  0.7816164E-02  0.1266604E+00
        -11   -1    0    0    0    0  0.00000000000E+00  0.00000000000E+00  0.45593999997E+02  0.45594000000E+02  0.51100000000E-03 0. -1.
         11   -1    0    0    0    0 -0.00000000000E+00 -0.00000000000E+00 -0.45593999997E+02  0.45594000000E+02  0.51100000000E-03 0.  1.
    9900012    2    1    2    0    0 -0.18104108901E+02  0.53257861569E+01  0.25701860750E+02  0.59302134741E+02  0.50000347814E+02 0.  0.
        -12    1    1    2    0    0  0.18104108901E+02 -0.53257861569E+01 -0.25701860750E+02  0.31885865259E+02  0.00000000000E+00 0.  1.
         11    1    3    3    0    0 -0.10584600142E+02  0.10667942289E+02  0.15050281800E+02  0.21268515119E+02  0.51100000000E-03 0. -1.
        -11    1    3    3    0    0 -0.95240532003E+01  0.13914764270E+02  0.25833064596E+01  0.17058772716E+02  0.51100000000E-03 0.  1.
        -12    1    3    3    0    0  0.20045444409E+01 -0.19256920402E+02  0.80682724904E+01  0.20974846907E+02  0.00000000000E+00 0.  1.
</event>
<event>
 7    1  0.6152255E-013  0.5930195E+02  0.7816164E-02  0.1266605E+00
        -11   -1    0    0    0    0  0.00000000000E+00  0.00000000000E+00  0.45593999997E+02  0.45594000000E+02  0.51100000000E-03 0. -1.
         11   -1    0    0    0    0 -0.00000000000E+00 -0.00000000000E+00 -0.45593999997E+02  0.45594000000E+02  0.51100000000E-03 0.  1.
    9900012    2    1    2    0    0  0.27471556806E+02  0.29476359432E+01 -0.15916818940E+02  0.59301951073E+02  0.50000012850E+02 0.  0.
        -12    1    1    2    0    0 -0.27471556806E+02 -0.29476359432E+01  0.15916818940E+02  0.31886048927E+02  0.00000000000E+00 0.  1.
         11    1    3    3    0    0  0.11617267662E+02 -0.61544933377E+01  0.41371982508E+01  0.13782420172E+02  0.51100000000E-03 0. -1.
        -11    1    3    3    0    0  0.18787915132E+02 -0.10024129293E+02 -0.81499615099E+01  0.22801113920E+02  0.51100000000E-03 0.  1.
         12    1    3    3    0    0 -0.29336259888E+01  0.19126258574E+02 -0.11904055681E+02  0.22718416982E+02  0.00000000000E+00 0. -1.
</event>
<event>
 7    1  0.6152255E-013  0.5930195E+02  0.7816164E-02  0.1266605E+00
        -11   -1    0    0    0    0  0.00000000000E+00  0.00000000000E+00  0.45593999997E+02  0.45594000000E+02  0.51100000000E-03 0.  1.
         11   -1    0    0    0    0 -0.00000000000E+00 -0.00000000000E+00 -0.45593999997E+02  0.45594000000E+02  0.51100000000E-03 0. -1.
    9900012    2    1    2    0    0  0.13693621170E+02  0.28452330914E+02  0.44350736096E+01  0.59301948612E+02  0.50000008361E+02 0.  0.
        -12    1    1    2    0    0 -0.13693621170E+02 -0.28452330914E+02 -0.44350736096E+01  0.31886051388E+02  0.00000000000E+00 0.  1.
         11    1    3    3    0    0  0.13014707361E+02  0.11494502430E+02 -0.19596213962E+00  0.17365039454E+02  0.51100000000E-03 0. -1.
        -11    1    3    3    0    0  0.14511599084E+02  0.14632483149E+02  0.14138297697E+02  0.24991749301E+02  0.51100000000E-03 0.  1.
        -12    1    3    3    0    0 -0.13832685275E+02  0.23253453348E+01 -0.95072619481E+01  0.16945159857E+02  0.00000000000E+00 0.  1.
</event>
<event>
 7    1  0.6379790E-013  0.5930199E+02  0.7816164E-02  0.1266605E+00
        -11   -1    0    0    0    0  0.00000000000E+00  0.00000000000E+00  0.45593999997E+02  0.45594000000E+02  0.51100000000E-03 0. -1.
         11   -1    0    0    0    0 -0.00000000000E+00 -0.00000000000E+00 -0.45593999997E+02  0.45594000000E+02  0.51100000000E-03 0.  1.
    9900012    2    1    2    0    0 -0.17850660103E+02 -0.25311727533E+02  0.75755007680E+01  0.59301986943E+02  0.50000078267E+02 0.  0.
        -12    1    1    2    0    0  0.17850660103E+02  0.25311727533E+02 -0.75755007680E+01  0.31886013057E+02  0.00000000000E+00 0.  1.
         11    1    3    3    0    0  0.42581876244E+01  0.95268433444E-01 -0.10312871376E+02  0.11157802391E+02  0.51100000000E-03 0. -1.
        -11    1    3    3    0    0 -0.10476101082E+02  0.34145903348E+01 -0.20643483238E+01  0.11210247780E+02  0.51100000000E-03 0.  1.
         12    1    3    3    0    0 -0.11632746645E+02 -0.28821586301E+02  0.19952720468E+02  0.36933936772E+02  0.00000000000E+00 0. -1.
</event>
<event>
 7    1  0.6152255E-013  0.5930194E+02  0.7816164E-02  0.1266605E+00
        -11   -1    0    0    0    0  0.00000000000E+00  0.00000000000E+00  0.45593999997E+02  0.45594000000E+02  0.51100000000E-03 0.  1.
         11   -1    0    0    0    0 -0.00000000000E+00 -0.00000000000E+00 -0.45593999997E+02  0.45594000000E+02  0.51100000000E-03 0. -1.
    9900012    2    1    2    0    0  0.11565185879E+02 -0.24899413335E+02 -0.16216865296E+02  0.59301936761E+02  0.49999986748E+02 0.  0.
        -12    1    1    2    0    0 -0.11565185879E+02  0.24899413335E+02  0.16216865296E+02  0.31886063239E+02  0.00000000000E+00 0.  1.
         11    1    3    3    0    0 -0.80205903661E+01 -0.10390177560E+02 -0.10833643731E+02  0.17019209627E+02  0.51100000000E-03 0. -1.
        -11    1    3    3    0    0  0.13558789295E+02 -0.25461040757E+02 -0.69849261312E+01  0.29679867872E+02  0.51100000000E-03 0.  1.
        -12    1    3    3    0    0  0.60269869505E+01  0.10951804983E+02  0.16017045662E+01  0.12602859263E+02  0.00000000000E+00 0.  1.
</event>
<event>
 7    1  0.6152255E-013  0.5930195E+02  0.7816164E-02  0.1266605E+00
        -11   -1    0    0    0    0  0.00000000000E+00  0.00000000000E+00  0.45593999997E+02  0.45594000000E+02  0.51100000000E-03 0.  1.
         11   -1    0    0    0    0 -0.00000000000E+00 -0.00000000000E+00 -0.45593999997E+02  0.45594000000E+02  0.51100000000E-03 0. -1.
    9900012    2    1    2    0    0  0.26294590225E+02  0.39497573056E+01 -0.17598703717E+02  0.59301946146E+02  0.50000003863E+02 0.  0.
        -12    1    1    2    0    0 -0.26294590225E+02 -0.39497573056E+01  0.17598703717E+02  0.31886053854E+02  0.00000000000E+00 0.  1.
         11    1    3    3    0    0  0.42768848096E+01  0.19992653136E+02 -0.66532594445E+01  0.21500320570E+02  0.51100000000E-03 0. -1.
        -11    1    3    3    0    0  0.11434982527E+02  0.35535255677E+01  0.18497013716E+01  0.12116425413E+02  0.51100000000E-03 0.  1.
        -12    1    3    3    0    0  0.10582722888E+02 -0.19596421399E+02 -0.12795145644E+02  0.25685200163E+02  0.00000000000E+00 0.  1.
</event>
<event>
 7    1  0.6152255E-013  0.5930195E+02  0.7816164E-02  0.1266605E+00
        -11   -1    0    0    0    0  0.00000000000E+00  0.00000000000E+00  0.45593999997E+02  0.45594000000E+02  0.51100000000E-03 0.  1.
         11   -1    0    0    0    0 -0.00000000000E+00 -0.00000000000E+00 -0.45593999997E+02  0.45594000000E+02  0.51100000000E-03 0. -1.
    9900012    2    1    2    0    0  0.25465638273E+02 -0.77838578564E+01 -0.17539470686E+02  0.59301949637E+02  0.50000010230E+02 0.  0.
        -12    1    1    2    0    0 -0.25465638273E+02  0.77838578564E+01  0.17539470686E+02  0.31886050363E+02  0.00000000000E+00 0.  1.
         11    1    3    3    0    0  0.25072098064E+01 -0.11023810720E+02 -0.18720065703E+02  0.21868958914E+02  0.51100000000E-03 0. -1.
        -11    1    3    3    0    0 -0.37767753326E+00  0.25770685746E+01 -0.10858166622E+02  0.11166185804E+02  0.51100000000E-03 0.  1.
        -12    1    3    3    0    0  0.23336106000E+02  0.66288428868E+00  0.12038761639E+02  0.26266804919E+02  0.00000000000E+00 0.  1.
</event>
<event>
 7    1  0.6152255E-013  0.5930195E+02  0.7816164E-02  0.1266605E+00
        -11   -1    0    0    0    0  0.00000000000E+00  0.00000000000E+00  0.45593999997E+02  0.45594000000E+02  0.51100000000E-03 0.  1.
         11   -1    0    0    0    0 -0.00000000000E+00 -0.00000000000E+00 -0.45593999997E+02  0.45594000000E+02  0.51100000000E-03 0. -1.
    9900012    2    1    2    0    0 -0.15878407578E+02  0.22066758130E+02  0.16662977686E+02  0.59301945573E+02  0.50000002817E+02 0.  0.
        -12    1    1    2    0    0  0.15878407578E+02 -0.22066758130E+02 -0.16662977686E+02  0.31886054427E+02  0.00000000000E+00 0.  1.
         11    1    3    3    0    0  0.17516617992E+01  0.77155523402E+01  0.37489712679E+00  0.79207711171E+01  0.51100000000E-03 0. -1.
        -11    1    3    3    0    0  0.56389652703E+01 -0.12131091982E+02  0.59707700249E+01  0.14649621734E+02  0.51100000000E-03 0.  1.
        -12    1    3    3    0    0 -0.23269034647E+02  0.26482297772E+02  0.10317310534E+02  0.36731552722E+02  0.00000000000E+00 0.  1.
</event>
<event>
 7    1  0.6152255E-013  0.5930196E+02  0.7816164E-02  0.1266605E+00
        -11   -1    0    0    0    0  0.00000000000E+00  0.00000000000E+00  0.45593999997E+02  0.45594000000E+02  0.51100000000E-03 0.  1.
         11   -1    0    0    0    0 -0.00000000000E+00 -0.00000000000E+00 -0.45593999997E+02  0.45594000000E+02  0.51100000000E-03 0. -1.
    9900012    2    1    2    0    0  0.65307200033E+01  0.11135801425E+02 -0.29155842071E+02  0.59301960672E+02  0.50000030355E+02 0.  0.
        -12    1    1    2    0    0 -0.65307200033E+01 -0.11135801425E+02  0.29155842071E+02  0.31886039328E+02  0.00000000000E+00 0.  1.
         11    1    3    3    0    0  0.75949306190E+01 -0.75742166690E+01 -0.13810375533E+02  0.17486514858E+02  0.51100000000E-03 0. -1.
        -11    1    3    3    0    0  0.75470295896E+01  0.13100785106E+02  0.74170671002E+01  0.16840460524E+02  0.51100000000E-03 0.  1.
         12    1    3    3    0    0 -0.86112402053E+01  0.56092329880E+01 -0.22762533639E+02  0.24974985290E+02  0.00000000000E+00 0. -1.
</event>
<event>
 7    1  0.6152255E-013  0.5930208E+02  0.7816164E-02  0.1266604E+00
        -11   -1    0    0    0    0  0.00000000000E+00  0.00000000000E+00  0.45593999997E+02  0.45594000000E+02  0.51100000000E-03 0.  1.
         11   -1    0    0    0    0 -0.00000000000E+00 -0.00000000000E+00 -0.45593999997E+02  0.45594000000E+02  0.51100000000E-03 0. -1.
    9900012    2    1    2    0    0 -0.25978472296E+02  0.18080450966E+02 -0.38636732921E+01  0.59302083026E+02  0.50000253499E+02 0.  0.
        -12    1    1    2    0    0  0.25978472296E+02 -0.18080450966E+02  0.38636732921E+01  0.31885916974E+02  0.00000000000E+00 0.  1.
         11    1    3    3    0    0 -0.11484716595E+02  0.22157910290E+02 -0.97227404900E+01  0.26784386993E+02  0.51100000000E-03 0. -1.
        -11    1    3    3    0    0 -0.74498745766E+01  0.10672242477E+02  0.90648916892E+01  0.15860947396E+02  0.51100000000E-03 0.  1.
         12    1    3    3    0    0 -0.70438811243E+01 -0.14749701801E+02 -0.32058244914E+01  0.16656748638E+02  0.00000000000E+00 0. -1.
</event>
<event>
 7    1  0.6152255E-013  0.5930196E+02  0.7816164E-02  0.1266605E+00
        -11   -1    0    0    0    0  0.00000000000E+00  0.00000000000E+00  0.45593999997E+02  0.45594000000E+02  0.51100000000E-03 0. -1.
         11   -1    0    0    0    0 -0.00000000000E+00 -0.00000000000E+00 -0.45593999997E+02  0.45594000000E+02  0.51100000000E-03 0.  1.
    9900012    2    1    2    0    0 -0.22813726758E+01  0.30938943677E+00  0.31802819654E+02  0.59301957269E+02  0.50000024148E+02 0.  0.
        -12    1    1    2    0    0  0.22813726758E+01 -0.30938943677E+00 -0.31802819654E+02  0.31886042731E+02  0.00000000000E+00 0.  1.
         11    1    3    3    0    0  0.23759673309E+01  0.30015542375E+01  0.18579492507E+02  0.18969767808E+02  0.51100000000E-03 0. -1.
        -11    1    3    3    0    0 -0.85888073285E+01  0.15869077083E+02  0.16771108478E+01  0.18122028579E+02  0.51100000000E-03 0.  1.
         12    1    3    3    0    0  0.39314673218E+01 -0.18561241883E+02  0.11546216299E+02  0.22210160881E+02  0.00000000000E+00 0. -1.
</event>
<event>
 7    1  0.6152255E-013  0.5930195E+02  0.7816164E-02  0.1266605E+00
        -11   -1    0    0    0    0  0.00000000000E+00  0.00000000000E+00  0.45593999997E+02  0.45594000000E+02  0.51100000000E-03 0. -1.
         11   -1    0    0    0    0 -0.00000000000E+00 -0.00000000000E+00 -0.45593999997E+02  0.45594000000E+02  0.51100000000E-03 0.  1.
    9900012    2    1    2    0    0 -0.29159410802E+02 -0.12122563452E+02  0.44150242702E+01  0.59301949409E+02  0.50000009814E+02 0.  0.
        -12    1    1    2    0    0  0.29159410802E+02  0.12122563452E+02 -0.44150242702E+01  0.31886050591E+02  0.00000000000E+00 0.  1.
         11    1    3    3    0    0 -0.24379851177E+02 -0.18797318239E+02 -0.12933462197E+02  0.33391477372E+02  0.51100000000E-03 0. -1.
        -11    1    3    3    0    0 -0.60867211629E+01  0.92415605050E+00 -0.13511147426E+01  0.63029953379E+01  0.51100000000E-03 0.  1.
         12    1    3    3    0    0  0.13071615378E+01  0.57505987368E+01  0.18699601210E+02  0.19607476699E+02  0.00000000000E+00 0. -1.
</event>
<event>
 7    1  0.6152255E-013  0.5930194E+02  0.7816164E-02  0.1266605E+00
        -11   -1    0    0    0    0  0.00000000000E+00  0.00000000000E+00  0.45593999997E+02  0.45594000000E+02  0.51100000000E-03 0.  1.
         11   -1    0    0    0    0 -0.00000000000E+00 -0.00000000000E+00 -0.45593999997E+02  0.45594000000E+02  0.51100000000E-03 0. -1.
    9900012    2    1    2    0    0  0.59563087685E+01 -0.24679536396E+02  0.19291546241E+02  0.59301938982E+02  0.49999990799E+02 0.  0.
        -12    1    1    2    0    0 -0.59563087685E+01  0.24679536396E+02 -0.19291546241E+02  0.31886061018E+02  0.00000000000E+00 0.  1.
         11    1    3    3    0    0 -0.14028622822E+01 -0.82718060011E+01  0.25818011755E+02  0.27147016933E+02  0.51100000000E-03 0. -1.
        -11    1    3    3    0    0 -0.74590921906E+01  0.17978776961E+01  0.39192291979E+00  0.76827094410E+01  0.51100000000E-03 0.  1.
         12    1    3    3    0    0  0.14818263241E+02 -0.18205608091E+02 -0.69183884340E+01  0.24472212609E+02  0.00000000000E+00 0. -1.
</event>
<event>
 7    1  0.6152255E-013  0.5930195E+02  0.7816164E-02  0.1266605E+00
        -11   -1    0    0    0    0  0.00000000000E+00  0.00000000000E+00  0.45593999997E+02  0.45594000000E+02  0.51100000000E-03 0.  1.
         11   -1    0    0    0    0 -0.00000000000E+00 -0.00000000000E+00 -0.45593999997E+02  0.45594000000E+02  0.51100000000E-03 0. -1.
    9900012    2    1    2    0    0  0.20609048412E+02  0.19082371071E+02 -0.15094720689E+02  0.59301947331E+02  0.50000006025E+02 0.  0.
        -12    1    1    2    0    0 -0.20609048412E+02 -0.19082371071E+02  0.15094720689E+02  0.31886052669E+02  0.00000000000E+00 0.  1.
         11    1    3    3    0    0 -0.18789328094E+01  0.21971038972E+02 -0.45818279411E+01  0.22522213247E+02  0.51100000000E-03 0. -1.
        -11    1    3    3    0    0 -0.15903224139E+01  0.81243277851E+01  0.35299557994E-01  0.82785912848E+01  0.51100000000E-03 0.  1.
        -12    1    3    3    0    0  0.24078303635E+02 -0.11012995687E+02 -0.10548192306E+02  0.28501142799E+02  0.00000000000E+00 0.  1.
</event>
<event>
 7    1  0.6152255E-013  0.5930191E+02  0.7816164E-02  0.1266605E+00
        -11   -1    0    0    0    0  0.00000000000E+00  0.00000000000E+00  0.45593999997E+02  0.45594000000E+02  0.51100000000E-03 0. -1.
         11   -1    0    0    0    0 -0.00000000000E+00 -0.00000000000E+00 -0.45593999997E+02  0.45594000000E+02  0.51100000000E-03 0.  1.
    9900012    2    1    2    0    0 -0.20150446175E+02 -0.19634398808E+02  0.15005760382E+02  0.59301906758E+02  0.49999932029E+02 0.  0.
        -12    1    1    2    0    0  0.20150446175E+02  0.19634398808E+02 -0.15005760382E+02  0.31886093242E+02  0.00000000000E+00 0.  1.
         11    1    3    3    0    0  0.80705655410E+01  0.17897770395E+01  0.65624398278E+01  0.10554759436E+02  0.51100000000E-03 0. -1.
        -11    1    3    3    0    0  0.11246666115E+01 -0.10341434821E+02  0.13426883734E+02  0.16985033300E+02  0.51100000000E-03 0.  1.
         12    1    3    3    0    0 -0.29345678327E+02 -0.11082741026E+02 -0.49835631798E+01  0.31762114021E+02  0.00000000000E+00 0. -1.
</event>
<event>
 7    1  0.6152255E-013  0.5930196E+02  0.7816164E-02  0.1266605E+00
        -11   -1    0    0    0    0  0.00000000000E+00  0.00000000000E+00  0.45593999997E+02  0.45594000000E+02  0.51100000000E-03 0.  1.
         11   -1    0    0    0    0 -0.00000000000E+00 -0.00000000000E+00 -0.45593999997E+02  0.45594000000E+02  0.51100000000E-03 0. -1.
    9900012    2    1    2    0    0 -0.23740799284E+02  0.21145703304E+02 -0.24399830579E+01  0.59301955463E+02  0.50000020856E+02 0.  0.
        -12    1    1    2    0    0  0.23740799284E+02 -0.21145703304E+02  0.24399830579E+01  0.31886044537E+02  0.00000000000E+00 0.  1.
         11    1    3    3    0    0 -0.21934907787E+02  0.18065427399E+02 -0.10670964476E+02  0.30354066117E+02  0.51100000000E-03 0. -1.
        -11    1    3    3    0    0 -0.31673632307E+00 -0.46286136659E+01 -0.89371522058E+01  0.10069611521E+02  0.51100000000E-03 0.  1.
        -12    1    3    3    0    0 -0.14891551741E+01  0.77088895709E+01  0.17168133624E+02  0.18878277826E+02  0.00000000000E+00 0.  1.
</event>
<event>
 7    1  0.6152255E-013  0.5930194E+02  0.7816164E-02  0.1266605E+00
        -11   -1    0    0    0    0  0.00000000000E+00  0.00000000000E+00  0.45593999997E+02  0.45594000000E+02  0.51100000000E-03 0. -1.
         11   -1    0    0    0    0 -0.00000000000E+00 -0.00000000000E+00 -0.45593999997E+02  0.45594000000E+02  0.51100000000E-03 0.  1.
    9900012    2    1    2    0    0 -0.11114614929E+02 -0.71830517662E+01  0.29010169727E+02  0.59301939640E+02  0.49999991997E+02 0.  0.
        -12    1    1    2    0    0  0.11114614929E+02  0.71830517662E+01 -0.29010169727E+02  0.31886060360E+02  0.00000000000E+00 0.  1.
         11    1    3    3    0    0 -0.16280863741E+02  0.12452905833E+02  0.13807233750E+02  0.24713985756E+02  0.51100000000E-03 0. -1.
        -11    1    3    3    0    0  0.79259552491E+01  0.72580973536E+00  0.11060659643E+02  0.13626656170E+02  0.51100000000E-03 0.  1.
        -12    1    3    3    0    0 -0.27597064377E+01 -0.20361767335E+02  0.41422763340E+01  0.20961297714E+02  0.00000000000E+00 0.  1.
</event>
<event>
 7    1  0.6152255E-013  0.5930195E+02  0.7816164E-02  0.1266605E+00
        -11   -1    0    0    0    0  0.00000000000E+00  0.00000000000E+00  0.45593999997E+02  0.45594000000E+02  0.51100000000E-03 0.  1.
         11   -1    0    0    0    0 -0.00000000000E+00 -0.00000000000E+00 -0.45593999997E+02  0.45594000000E+02  0.51100000000E-03 0. -1.
    9900012    2    1    2    0    0  0.51525765979E+01 -0.29499622777E+02 -0.10951861776E+02  0.59301951860E+02  0.50000014285E+02 0.  0.
        -12    1    1    2    0    0 -0.51525765979E+01  0.29499622777E+02  0.10951861776E+02  0.31886048140E+02  0.00000000000E+00 0.  1.
         11    1    3    3    0    0  0.15135200183E+02 -0.23602260636E+01  0.58268460345E+01  0.16388931833E+02  0.51100000000E-03 0.  1.
        -11    1    3    3    0    0  0.10481428708E+01 -0.28281689721E+02 -0.13449281230E+02  0.31334258293E+02  0.51100000000E-03 0. -1.
        -12    1    3    3    0    0 -0.11030766456E+02  0.11422930072E+01 -0.33294265814E+01  0.11578761734E+02  0.00000000000E+00 0.  1.
</event>
<event>
 7    1  0.6152255E-013  0.5930195E+02  0.7816164E-02  0.1266605E+00
        -11   -1    0    0    0    0  0.00000000000E+00  0.00000000000E+00  0.45593999997E+02  0.45594000000E+02  0.51100000000E-03 0. -1.
         11   -1    0    0    0    0 -0.00000000000E+00 -0.00000000000E+00 -0.45593999997E+02  0.45594000000E+02  0.51100000000E-03 0.  1.
    9900012    2    1    2    0    0  0.13234618874E+02 -0.27880844358E+02  0.80139408039E+01  0.59301954995E+02  0.50000020001E+02 0.  0.
        -12    1    1    2    0    0 -0.13234618874E+02  0.27880844358E+02 -0.80139408039E+01  0.31886045005E+02  0.00000000000E+00 0.  1.
         11    1    3    3    0    0  0.12228877947E+02 -0.13466892178E+02 -0.74680621854E+00  0.18206052856E+02  0.51100000000E-03 0. -1.
        -11    1    3    3    0    0  0.33352013569E+01 -0.11804320659E+02  0.23197717871E+02  0.26241182691E+02  0.51100000000E-03 0.  1.
        -12    1    3    3    0    0 -0.23294604303E+01 -0.26096315207E+01 -0.14436970849E+02  0.14854719448E+02  0.00000000000E+00 0.  1.
</event>
<event>
 7    1  0.6152255E-013  0.5930181E+02  0.7816164E-02  0.1266605E+00
        -11   -1    0    0    0    0  0.00000000000E+00  0.00000000000E+00  0.45593999997E+02  0.45594000000E+02  0.51100000000E-03 0.  1.
         11   -1    0    0    0    0 -0.00000000000E+00 -0.00000000000E+00 -0.45593999997E+02  0.45594000000E+02  0.51100000000E-03 0. -1.
    9900012    2    1    2    0    0  0.27320723337E+02  0.75554214412E+01 -0.14602144533E+02  0.59301812680E+02  0.49999760453E+02 0.  0.
        -12    1    1    2    0    0 -0.27320723337E+02 -0.75554214412E+01  0.14602144533E+02  0.31886187320E+02  0.00000000000E+00 0.  1.
         11    1    3    3    0    0  0.35139028038E+01  0.11895188789E+02  0.56270353481E+01  0.13620079159E+02  0.51100000000E-03 0. -1.
        -11    1    3    3    0    0  0.11032027523E+02 -0.11881235513E+02  0.45160653282E+01  0.16830455576E+02  0.51100000000E-03 0.  1.
         12    1    3    3    0    0  0.12774793011E+02  0.75414681662E+01 -0.24745245209E+02  0.28851277945E+02  0.00000000000E+00 0. -1.
</event>
<event>
 7    1  0.6152255E-013  0.5930194E+02  0.7816164E-02  0.1266605E+00
        -11   -1    0    0    0    0  0.00000000000E+00  0.00000000000E+00  0.45593999997E+02  0.45594000000E+02  0.51100000000E-03 0.  1.
         11   -1    0    0    0    0 -0.00000000000E+00 -0.00000000000E+00 -0.45593999997E+02  0.45594000000E+02  0.51100000000E-03 0. -1.
    9900012    2    1    2    0    0  0.18689447962E+02 -0.12101058463E+02 -0.22825201213E+02  0.59301938916E+02  0.49999990677E+02 0.  0.
        -12    1    1    2    0    0 -0.18689447962E+02  0.12101058463E+02  0.22825201213E+02  0.31886061084E+02  0.00000000000E+00 0.  1.
         11    1    3    3    0    0 -0.55363594604E+01 -0.15602424426E+02 -0.11620103341E+02  0.20226559914E+02  0.51100000000E-03 0. -1.
        -11    1    3    3    0    0 -0.17719618459E+01 -0.49275595776E+00  0.69018222922E+01  0.71426751593E+01  0.51100000000E-03 0.  1.
         12    1    3    3    0    0  0.25997769268E+02  0.39941219204E+01 -0.18106920165E+02  0.31932703843E+02  0.00000000000E+00 0. -1.
</event>
<event>
 7    1  0.6152255E-013  0.5930195E+02  0.7816164E-02  0.1266605E+00
        -11   -1    0    0    0    0  0.00000000000E+00  0.00000000000E+00  0.45593999997E+02  0.45594000000E+02  0.51100000000E-03 0.  1.
         11   -1    0    0    0    0 -0.00000000000E+00 -0.00000000000E+00 -0.45593999997E+02  0.45594000000E+02  0.51100000000E-03 0. -1.
    9900012    2    1    2    0    0 -0.20490055308E+02  0.13130076778E+01 -0.24395769256E+02  0.59301954255E+02  0.50000018652E+02 0.  0.
        -12    1    1    2    0    0  0.20490055308E+02 -0.13130076778E+01  0.24395769256E+02  0.31886045745E+02  0.00000000000E+00 0.  1.
         11    1    3    3    0    0 -0.37279806659E+01  0.19415459013E+02 -0.18492775758E+02  0.27071029608E+02  0.51100000000E-03 0. -1.
        -11    1    3    3    0    0 -0.66867005063E+01  0.29079368530E+01  0.21092723997E+01  0.75905922509E+01  0.51100000000E-03 0.  1.
         12    1    3    3    0    0 -0.10075374136E+02 -0.21010388188E+02 -0.80122658969E+01  0.24640332396E+02  0.00000000000E+00 0. -1.
</event>
<event>
 7    1  0.6152255E-013  0.5930199E+02  0.7816164E-02  0.1266605E+00
        -11   -1    0    0    0    0  0.00000000000E+00  0.00000000000E+00  0.45593999997E+02  0.45594000000E+02  0.51100000000E-03 0. -1.
         11   -1    0    0    0    0 -0.00000000000E+00 -0.00000000000E+00 -0.45593999997E+02  0.45594000000E+02  0.51100000000E-03 0.  1.
    9900012    2    1    2    0    0 -0.79255477737E+01  0.29660425627E+02 -0.86117757476E+01  0.59301986806E+02  0.50000078017E+02 0.  0.
        -12    1    1    2    0    0  0.79255477737E+01 -0.29660425627E+02  0.86117757476E+01  0.31886013194E+02  0.00000000000E+00 0.  1.
         11    1    3    3    0    0 -0.18617509998E+02  0.93512241883E+01  0.14012476804E+02  0.25107898733E+02  0.51100000000E-03 0. -1.
        -11    1    3    3    0    0  0.11038460012E+01 -0.11420559826E+01 -0.36924434165E+01  0.40195654624E+01  0.51100000000E-03 0.  1.
        -12    1    3    3    0    0  0.95881162226E+01  0.21451257422E+02 -0.18931809135E+02  0.30174522611E+02  0.00000000000E+00 0.  1.
</event>
<event>
 7    1  0.6152255E-013  0.5930195E+02  0.7816164E-02  0.1266605E+00
        -11   -1    0    0    0    0  0.00000000000E+00  0.00000000000E+00  0.45593999997E+02  0.45594000000E+02  0.51100000000E-03 0.  1.
         11   -1    0    0    0    0 -0.00000000000E+00 -0.00000000000E+00 -0.45593999997E+02  0.45594000000E+02  0.51100000000E-03 0. -1.
    9900012    2    1    2    0    0 -0.22535454078E+01  0.10039143045E+02 -0.30180410710E+02  0.59301952101E+02  0.50000014723E+02 0.  0.
        -12    1    1    2    0    0  0.22535454078E+01 -0.10039143045E+02  0.30180410710E+02  0.31886047899E+02  0.00000000000E+00 0.  1.
         11    1    3    3    0    0  0.30226630927E+01 -0.81807722078E+01 -0.12674463661E+02  0.15385173234E+02  0.51100000000E-03 0. -1.
        -11    1    3    3    0    0 -0.20146320386E+02  0.12762858011E+02 -0.68035352127E+01  0.24800259300E+02  0.51100000000E-03 0.  1.
         12    1    3    3    0    0  0.14870111885E+02  0.54570572421E+01 -0.10702411836E+02  0.19116519566E+02  0.00000000000E+00 0. -1.
</event>
<event>
 7    1  0.6152255E-013  0.5930193E+02  0.7816164E-02  0.1266605E+00
        -11   -1    0    0    0    0  0.00000000000E+00  0.00000000000E+00  0.45593999997E+02  0.45594000000E+02  0.51100000000E-03 0.  1.
         11   -1    0    0    0    0 -0.00000000000E+00 -0.00000000000E+00 -0.45593999997E+02  0.45594000000E+02  0.51100000000E-03 0. -1.
    9900012    2    1    2    0    0  0.22628825292E+02 -0.14521967600E+02 -0.17139718606E+02  0.59301933592E+02  0.49999980969E+02 0.  0.
        -12    1    1    2    0    0 -0.22628825292E+02  0.14521967600E+02  0.17139718606E+02  0.31886066408E+02  0.00000000000E+00 0.  1.
         11    1    3    3    0    0 -0.83280002374E+01 -0.77058690998E+01 -0.62020981314E+01  0.12930662320E+02  0.51100000000E-03 0. -1.
        -11    1    3    3    0    0  0.99290444085E+01 -0.17044628763E+02  0.16863317429E+01  0.19797702077E+02  0.51100000000E-03 0.  1.
         12    1    3    3    0    0  0.21027781121E+02  0.10228530263E+02 -0.12623952217E+02  0.26573569195E+02  0.00000000000E+00 0. -1.
</event>
<event>
 7    1  0.6152255E-013  0.5930205E+02  0.7816164E-02  0.1266604E+00
        -11   -1    0    0    0    0  0.00000000000E+00  0.00000000000E+00  0.45593999997E+02  0.45594000000E+02  0.51100000000E-03 0.  1.
         11   -1    0    0    0    0 -0.00000000000E+00 -0.00000000000E+00 -0.45593999997E+02  0.45594000000E+02  0.51100000000E-03 0. -1.
    9900012    2    1    2    0    0  0.11542818091E+02  0.19932934768E+02 -0.22048928900E+02  0.59302050060E+02  0.50000193377E+02 0.  0.
        -12    1    1    2    0    0 -0.11542818091E+02 -0.19932934768E+02  0.22048928900E+02  0.31885949940E+02  0.00000000000E+00 0.  1.
         11    1    3    3    0    0 -0.39974257201E+01  0.11619162268E+01  0.77650002075E+01  0.88104875115E+01  0.51100000000E-03 0.  1.
        -11    1    3    3    0    0 -0.21554451604E+01  0.19641850915E+02 -0.56938670833E+01  0.20563763611E+02  0.51100000000E-03 0. -1.
        -12    1    3    3    0    0  0.17695688972E+02 -0.87083237396E+00 -0.24120062024E+02  0.29927798938E+02  0.00000000000E+00 0.  1.
</event>
<event>
 7    1  0.6152255E-013  0.5930192E+02  0.7816164E-02  0.1266605E+00
        -11   -1    0    0    0    0  0.00000000000E+00  0.00000000000E+00  0.45593999997E+02  0.45594000000E+02  0.51100000000E-03 0.  1.
         11   -1    0    0    0    0 -0.00000000000E+00 -0.00000000000E+00 -0.45593999997E+02  0.45594000000E+02  0.51100000000E-03 0. -1.
    9900012    2    1    2    0    0 -0.30382811363E+02 -0.94627032062E+01  0.20160117410E+01  0.59301917116E+02  0.49999950920E+02 0.  0.
        -12    1    1    2    0    0  0.30382811363E+02  0.94627032062E+01 -0.20160117410E+01  0.31886082884E+02  0.00000000000E+00 0.  1.
         11    1    3    3    0    0  0.34104360929E+01 -0.10450500876E+01  0.68340954604E+01  0.77089600500E+01  0.51100000000E-03 0. -1.
        -11    1    3    3    0    0  0.66756195166E+01  0.31318770600E+01  0.42942364557E+01  0.85330543680E+01  0.51100000000E-03 0.  1.
         12    1    3    3    0    0 -0.40468866973E+02 -0.11549530179E+02 -0.91123201751E+01  0.43059902698E+02  0.00000000000E+00 0. -1.
</event>
<event>
 7    1  0.6152255E-013  0.5930197E+02  0.7816164E-02  0.1266605E+00
        -11   -1    0    0    0    0  0.00000000000E+00  0.00000000000E+00  0.45593999997E+02  0.45594000000E+02  0.51100000000E-03 0. -1.
         11   -1    0    0    0    0 -0.00000000000E+00 -0.00000000000E+00 -0.45593999997E+02  0.45594000000E+02  0.51100000000E-03 0.  1.
    9900012    2    1    2    0    0 -0.56425832669E+01 -0.28267299151E+02  0.13632321274E+02  0.59301966529E+02  0.50000041037E+02 0.  0.
        -12    1    1    2    0    0  0.56425832669E+01  0.28267299151E+02 -0.13632321274E+02  0.31886033471E+02  0.00000000000E+00 0.  1.
         11    1    3    3    0    0  0.77308482201E+01 -0.13266140186E+02 -0.64374943098E+01  0.16649258929E+02  0.51100000000E-03 0.  1.
        -11    1    3    3    0    0 -0.44686314613E+01 -0.18853449521E+02 -0.10569239793E+01  0.19404595191E+02  0.51100000000E-03 0. -1.
         12    1    3    3    0    0 -0.89048000257E+01  0.38522905556E+01  0.21126739563E+02  0.23248112409E+02  0.00000000000E+00 0. -1.
</event>
<event>
 7    1  0.6152255E-013  0.5930202E+02  0.7816164E-02  0.1266605E+00
        -11   -1    0    0    0    0  0.00000000000E+00  0.00000000000E+00  0.45593999997E+02  0.45594000000E+02  0.51100000000E-03 0.  1.
         11   -1    0    0    0    0 -0.00000000000E+00 -0.00000000000E+00 -0.45593999997E+02  0.45594000000E+02  0.51100000000E-03 0. -1.
    9900012    2    1    2    0    0 -0.29536767780E+02  0.13806664758E+01 -0.11932690109E+02  0.59302015868E+02  0.50000131020E+02 0.  0.
        -12    1    1    2    0    0  0.29536767780E+02 -0.13806664758E+01  0.11932690109E+02  0.31885984132E+02  0.00000000000E+00 0.  1.
         11    1    3    3    0    0 -0.39885057312E+01  0.13475416130E+02 -0.98230741582E+01  0.17146072554E+02  0.51100000000E-03 0. -1.
        -11    1    3    3    0    0  0.18877419862E+00 -0.13387157962E+02  0.66360588872E+01  0.14942854875E+02  0.51100000000E-03 0.  1.
         12    1    3    3    0    0 -0.25737036248E+02  0.12924083085E+01 -0.87456748380E+01  0.27213088439E+02  0.00000000000E+00 0. -1.
</event>
<event>
 7    1  0.6152255E-013  0.5930180E+02  0.7816164E-02  0.1266605E+00
        -11   -1    0    0    0    0  0.00000000000E+00  0.00000000000E+00  0.45593999997E+02  0.45594000000E+02  0.51100000000E-03 0. -1.
         11   -1    0    0    0    0 -0.00000000000E+00 -0.00000000000E+00 -0.45593999997E+02  0.45594000000E+02  0.51100000000E-03 0.  1.
    9900012    2    1    2    0    0 -0.27557925792E+02  0.38679228250E+01  0.15566948804E+02  0.59301796150E+02  0.49999730305E+02 0.  0.
        -12    1    1    2    0    0  0.27557925792E+02 -0.38679228250E+01 -0.15566948804E+02  0.31886203850E+02  0.00000000000E+00 0.  1.
         11    1    3    3    0    0  0.88025653524E+00 -0.72736356106E+01  0.23410275096E+02  0.24530014409E+02  0.51100000000E-03 0. -1.
        -11    1    3    3    0    0 -0.10504575877E+02 -0.24093210222E+01  0.51717188130E+00  0.10789736288E+02  0.51100000000E-03 0.  1.
        -12    1    3    3    0    0 -0.17933606449E+02  0.13550879458E+02 -0.83604981735E+01  0.23982045452E+02  0.00000000000E+00 0.  1.
</event>
<event>
 7    1  0.6152255E-013  0.5930194E+02  0.7816164E-02  0.1266605E+00
        -11   -1    0    0    0    0  0.00000000000E+00  0.00000000000E+00  0.45593999997E+02  0.45594000000E+02  0.51100000000E-03 0.  1.
         11   -1    0    0    0    0 -0.00000000000E+00 -0.00000000000E+00 -0.45593999997E+02  0.45594000000E+02  0.51100000000E-03 0. -1.
    9900012    2    1    2    0    0 -0.45195579620E+01  0.12489349503E+02 -0.28988107399E+02  0.59301943082E+02  0.49999998276E+02 0.  0.
        -12    1    1    2    0    0  0.45195579620E+01 -0.12489349503E+02  0.28988107399E+02  0.31886056918E+02  0.00000000000E+00 0.  1.
         11    1    3    3    0    0 -0.25076304881E+01 -0.56027504756E+01  0.22818725342E+01  0.65487377471E+01  0.51100000000E-03 0. -1.
        -11    1    3    3    0    0  0.12316165634E+02  0.98376959647E+01  0.17146366738E+01  0.15855856237E+02  0.51100000000E-03 0.  1.
         12    1    3    3    0    0 -0.14328093108E+02  0.82544040142E+01 -0.32984616607E+02  0.36897349098E+02  0.00000000000E+00 0. -1.
</event>
<event>
 7    1  0.6152255E-013  0.5930195E+02  0.7816164E-02  0.1266605E+00
        -11   -1    0    0    0    0  0.00000000000E+00  0.00000000000E+00  0.45593999997E+02  0.45594000000E+02  0.51100000000E-03 0. -1.
         11   -1    0    0    0    0 -0.00000000000E+00 -0.00000000000E+00 -0.45593999997E+02  0.45594000000E+02  0.51100000000E-03 0.  1.
    9900012    2    1    2    0    0  0.24054641046E+02 -0.84453070885E+01  0.19151277151E+02  0.59301946870E+02  0.50000005184E+02 0.  0.
        -12    1    1    2    0    0 -0.24054641046E+02  0.84453070885E+01 -0.19151277151E+02  0.31886053130E+02  0.00000000000E+00 0.  1.
         11    1    3    3    0    0  0.41160494911E+01  0.76575127004E+01  0.11454248462E+02  0.14379818228E+02  0.51100000000E-03 0. -1.
        -11    1    3    3    0    0  0.11241144185E+02  0.67575005885E+01 -0.84607683331E+01  0.15608066435E+02  0.51100000000E-03 0.  1.
        -12    1    3    3    0    0  0.86974473702E+01 -0.22860320377E+02  0.16157797021E+02  0.29314062207E+02  0.00000000000E+00 0.  1.
</event>
<event>
 7    1  0.6152255E-013  0.5930194E+02  0.7816164E-02  0.1266605E+00
        -11   -1    0    0    0    0  0.00000000000E+00  0.00000000000E+00  0.45593999997E+02  0.45594000000E+02  0.51100000000E-03 0.  1.
         11   -1    0    0    0    0 -0.00000000000E+00 -0.00000000000E+00 -0.45593999997E+02  0.45594000000E+02  0.51100000000E-03 0. -1.
    9900012    2    1    2    0    0  0.55893284760E+01  0.68126627832E+01 -0.30644216889E+02  0.59301937280E+02  0.49999987694E+02 0.  0.
        -12    1    1    2    0    0 -0.55893284760E+01 -0.68126627832E+01  0.30644216889E+02  0.31886062720E+02  0.00000000000E+00 0.  1.
         11    1    3    3    0    0  0.18203698697E+02  0.21046980081E+01 -0.22735644545E+02  0.29201265950E+02  0.51100000000E-03 0. -1.
        -11    1    3    3    0    0 -0.38347484033E+01 -0.76802289182E+01 -0.11641883540E+02  0.14464600381E+02  0.51100000000E-03 0.  1.
        -12    1    3    3    0    0 -0.87796218179E+01  0.12388193693E+02  0.37333111959E+01  0.15636070949E+02  0.00000000000E+00 0.  1.
</event>
<event>
 7    1  0.6152255E-013  0.5930193E+02  0.7816164E-02  0.1266605E+00
        -11   -1    0    0    0    0  0.00000000000E+00  0.00000000000E+00  0.45593999997E+02  0.45594000000E+02  0.51100000000E-03 0. -1.
         11   -1    0    0    0    0 -0.00000000000E+00 -0.00000000000E+00 -0.45593999997E+02  0.45594000000E+02  0.51100000000E-03 0.  1.
    9900012    2    1    2    0    0 -0.21980048932E+02  0.17161355364E+02  0.15462428081E+02  0.59301931708E+02  0.49999977531E+02 0.  0.
        -12    1    1    2    0    0  0.21980048932E+02 -0.17161355364E+02 -0.15462428081E+02  0.31886068292E+02  0.00000000000E+00 0.  1.
         11    1    3    3    0    0 -0.14497258298E+02 -0.18250838770E+00  0.13652040638E+01  0.14562540639E+02  0.51100000000E-03 0. -1.
        -11    1    3    3    0    0 -0.78325124151E+01 -0.99865957427E+01 -0.22522483080E+01  0.12890033668E+02  0.51100000000E-03 0.  1.
         12    1    3    3    0    0  0.34972178096E+00  0.27330459494E+02  0.16349472325E+02  0.31849357400E+02  0.00000000000E+00 0. -1.
</event>
<event>
 7    1  0.6152255E-013  0.5930194E+02  0.7816164E-02  0.1266605E+00
        -11   -1    0    0    0    0  0.00000000000E+00  0.00000000000E+00  0.45593999997E+02  0.45594000000E+02  0.51100000000E-03 0.  1.
         11   -1    0    0    0    0 -0.00000000000E+00 -0.00000000000E+00 -0.45593999997E+02  0.45594000000E+02  0.51100000000E-03 0. -1.
    9900012    2    1    2    0    0 -0.10520378090E+02 -0.96163526262E+01 -0.28523113271E+02  0.59301943742E+02  0.49999999479E+02 0.  0.
        -12    1    1    2    0    0  0.10520378090E+02  0.96163526262E+01  0.28523113271E+02  0.31886056258E+02  0.00000000000E+00 0.  1.
         11    1    3    3    0    0  0.16823565458E+02 -0.11998132284E+02 -0.72483026448E+01  0.21898068967E+02  0.51100000000E-03 0. -1.
        -11    1    3    3    0    0 -0.58514595873E+00 -0.29410164538E+01 -0.34689748956E+00  0.30186605811E+01  0.51100000000E-03 0.  1.
         12    1    3    3    0    0 -0.26758797589E+02  0.53227961113E+01 -0.20927913137E+02  0.34385214194E+02  0.00000000000E+00 0. -1.
</event>
<event>
 7    1  0.6152255E-013  0.5930195E+02  0.7816164E-02  0.1266605E+00
        -11   -1    0    0    0    0  0.00000000000E+00  0.00000000000E+00  0.45593999997E+02  0.45594000000E+02  0.51100000000E-03 0. -1.
         11   -1    0    0    0    0 -0.00000000000E+00 -0.00000000000E+00 -0.45593999997E+02  0.45594000000E+02  0.51100000000E-03 0.  1.
    9900012    2    1    2    0    0  0.68179548334E+01  0.31147810346E+02  0.22327978053E+00  0.59301945817E+02  0.50000003264E+02 0.  0.
        -12    1    1    2    0    0 -0.68179548334E+01 -0.31147810346E+02 -0.22327978053E+00  0.31886054183E+02  0.00000000000E+00 0.  1.
         11    1    3    3    0    0  0.92661585559E+01  0.13052107522E+02 -0.11717668407E+01  0.16049680462E+02  0.51100000000E-03 0. -1.
        -11    1    3    3    0    0  0.69262682274E+01  0.90475587151E+01 -0.17148708932E+02  0.20589068181E+02  0.51100000000E-03 0.  1.
         12    1    3    3    0    0 -0.93744719499E+01  0.90481441094E+01  0.18543755553E+02  0.22663197175E+02  0.00000000000E+00 0. -1.
</event>
<event>
 7    1  0.6152255E-013  0.5930192E+02  0.7816164E-02  0.1266605E+00
        -11   -1    0    0    0    0  0.00000000000E+00  0.00000000000E+00  0.45593999997E+02  0.45594000000E+02  0.51100000000E-03 0. -1.
         11   -1    0    0    0    0 -0.00000000000E+00 -0.00000000000E+00 -0.45593999997E+02  0.45594000000E+02  0.51100000000E-03 0.  1.
    9900012    2    1    2    0    0 -0.99431020015E+01  0.26224869366E+02  0.15169472436E+02  0.59301922401E+02  0.49999960558E+02 0.  0.
        -12    1    1    2    0    0  0.99431020015E+01 -0.26224869366E+02 -0.15169472436E+02  0.31886077599E+02  0.00000000000E+00 0.  1.
         11    1    3    3    0    0 -0.24136199065E+02  0.15825487224E+02  0.48681949889E+01  0.29269463164E+02  0.51100000000E-03 0. -1.
        -11    1    3    3    0    0 -0.15726361218E+01  0.75282362902E+01 -0.38975581470E+01  0.86219769069E+01  0.51100000000E-03 0.  1.
         12    1    3    3    0    0  0.15765733186E+02  0.28711458512E+01  0.14198835594E+02  0.21410482330E+02  0.00000000000E+00 0. -1.
</event>
<event>
 7    1  0.6152255E-013  0.5930196E+02  0.7816164E-02  0.1266605E+00
        -11   -1    0    0    0    0  0.00000000000E+00  0.00000000000E+00  0.45593999997E+02  0.45594000000E+02  0.51100000000E-03 0.  1.
         11   -1    0    0    0    0 -0.00000000000E+00 -0.00000000000E+00 -0.45593999997E+02  0.45594000000E+02  0.51100000000E-03 0. -1.
    9900012    2    1    2    0    0 -0.17534420230E+02 -0.13221288426E+02 -0.23118415888E+02  0.59301960522E+02  0.50000030082E+02 0.  0.
        -12    1    1    2    0    0  0.17534420230E+02  0.13221288426E+02  0.23118415888E+02  0.31886039478E+02  0.00000000000E+00 0.  1.
         11    1    3    3    0    0 -0.19849982665E+02 -0.76260022867E+01 -0.14757896584E+01  0.21315620518E+02  0.51100000000E-03 0. -1.
        -11    1    3    3    0    0 -0.55822507664E+01  0.10881487340E+02 -0.48061839958E+01  0.13140308033E+02  0.51100000000E-03 0.  1.
         12    1    3    3    0    0  0.78978132017E+01 -0.16476773479E+02 -0.16836442233E+02  0.24846031971E+02  0.00000000000E+00 0. -1.
</event>
<event>
 7    1  0.6152255E-013  0.5930194E+02  0.7816164E-02  0.1266605E+00
        -11   -1    0    0    0    0  0.00000000000E+00  0.00000000000E+00  0.45593999997E+02  0.45594000000E+02  0.51100000000E-03 0.  1.
         11   -1    0    0    0    0 -0.00000000000E+00 -0.00000000000E+00 -0.45593999997E+02  0.45594000000E+02  0.51100000000E-03 0. -1.
    9900012    2    1    2    0    0  0.95245814026E+00 -0.18748125894E+02 -0.25774439423E+02  0.59301935197E+02  0.49999983895E+02 0.  0.
        -12    1    1    2    0    0 -0.95245814026E+00  0.18748125894E+02  0.25774439423E+02  0.31886064803E+02  0.00000000000E+00 0.  1.
         11    1    3    3    0    0  0.73596967342E+01  0.12350990110E+00 -0.66591179284E+01  0.99259378681E+01  0.51100000000E-03 0. -1.
        -11    1    3    3    0    0  0.13183215963E+02  0.41790805051E+01 -0.11974938702E+02  0.18293743580E+02  0.51100000000E-03 0.  1.
         12    1    3    3    0    0 -0.19590454557E+02 -0.23050716300E+02 -0.71403827931E+01  0.31082253749E+02  0.00000000000E+00 0. -1.
</event>
<event>
 7    1  0.6152255E-013  0.5930196E+02  0.7816164E-02  0.1266605E+00
        -11   -1    0    0    0    0  0.00000000000E+00  0.00000000000E+00  0.45593999997E+02  0.45594000000E+02  0.51100000000E-03 0.  1.
         11   -1    0    0    0    0 -0.00000000000E+00 -0.00000000000E+00 -0.45593999997E+02  0.45594000000E+02  0.51100000000E-03 0. -1.
    9900012    2    1    2    0    0 -0.80731188705E+01  0.26882586970E+02 -0.15128476558E+02  0.59301960210E+02  0.50000029512E+02 0.  0.
        -12    1    1    2    0    0  0.80731188705E+01 -0.26882586970E+02  0.15128476558E+02  0.31886039790E+02  0.00000000000E+00 0.  1.
         11    1    3    3    0    0  0.20021331900E+01 -0.30527219064E+00 -0.23018906817E+01  0.30660119688E+01  0.51100000000E-03 0. -1.
        -11    1    3    3    0    0  0.55773045942E+01  0.36157413238E+01  0.15088714515E+02  0.16487850612E+02  0.51100000000E-03 0.  1.
         12    1    3    3    0    0 -0.15652556655E+02  0.23572117837E+02 -0.27915300391E+02  0.39748097629E+02  0.00000000000E+00 0. -1.
</event>
<event>
 7    1  0.6152255E-013  0.5930194E+02  0.7816164E-02  0.1266605E+00
        -11   -1    0    0    0    0  0.00000000000E+00  0.00000000000E+00  0.45593999997E+02  0.45594000000E+02  0.51100000000E-03 0.  1.
         11   -1    0    0    0    0 -0.00000000000E+00 -0.00000000000E+00 -0.45593999997E+02  0.45594000000E+02  0.51100000000E-03 0. -1.
    9900012    2    1    2    0    0  0.26300139236E+02 -0.17427647174E+02 -0.46152250242E+01  0.59301944868E+02  0.50000001533E+02 0.  0.
        -12    1    1    2    0    0 -0.26300139236E+02  0.17427647174E+02  0.46152250242E+01  0.31886055132E+02  0.00000000000E+00 0.  1.
         11    1    3    3    0    0  0.55874142511E+01 -0.55022380223E+00  0.12033378999E+02  0.13278710579E+02  0.51100000000E-03 0. -1.
        -11    1    3    3    0    0  0.51886057557E+01  0.75031759173E+01  0.45355607691E+01  0.10187766698E+02  0.51100000000E-03 0.  1.
         12    1    3    3    0    0  0.15524119229E+02 -0.24380599289E+02 -0.21184164793E+02  0.35835467591E+02  0.00000000000E+00 0. -1.
</event>
<event>
 7    1  0.6152255E-013  0.5930195E+02  0.7816164E-02  0.1266605E+00
        -11   -1    0    0    0    0  0.00000000000E+00  0.00000000000E+00  0.45593999997E+02  0.45594000000E+02  0.51100000000E-03 0.  1.
         11   -1    0    0    0    0 -0.00000000000E+00 -0.00000000000E+00 -0.45593999997E+02  0.45594000000E+02  0.51100000000E-03 0. -1.
    9900012    2    1    2    0    0 -0.29117774632E+02  0.91602270944E+01  0.92176784745E+01  0.59301950442E+02  0.50000011698E+02 0.  0.
        -12    1    1    2    0    0  0.29117774632E+02 -0.91602270944E+01 -0.92176784745E+01  0.31886049558E+02  0.00000000000E+00 0.  1.
         11    1    3    3    0    0 -0.10236062809E+01  0.15445049902E+02 -0.70053208843E+01  0.16990346001E+02  0.51100000000E-03 0. -1.
        -11    1    3    3    0    0 -0.33717345797E+01  0.14190528867E+01  0.16002922716E+02  0.16415719323E+02  0.51100000000E-03 0.  1.
        -12    1    3    3    0    0 -0.24722433772E+02 -0.77038756939E+01  0.22007664256E+00  0.25895885118E+02  0.00000000000E+00 0.  1.
</event>
<event>
 7    1  0.6152255E-013  0.5930195E+02  0.7816164E-02  0.1266605E+00
        -11   -1    0    0    0    0  0.00000000000E+00  0.00000000000E+00  0.45593999997E+02  0.45594000000E+02  0.51100000000E-03 0. -1.
         11   -1    0    0    0    0 -0.00000000000E+00 -0.00000000000E+00 -0.45593999997E+02  0.45594000000E+02  0.51100000000E-03 0.  1.
    9900012    2    1    2    0    0 -0.14035655925E+02 -0.27628185542E+02 -0.75102442164E+01  0.59301952240E+02  0.50000014977E+02 0.  0.
        -12    1    1    2    0    0  0.14035655925E+02  0.27628185542E+02  0.75102442164E+01  0.31886047760E+02  0.00000000000E+00 0.  1.
         11    1    3    3    0    0  0.45411432833E+01 -0.91372804350E+00  0.84295906329E+01  0.96184655614E+01  0.51100000000E-03 0. -1.
        -11    1    3    3    0    0  0.97125645122E+01 -0.31924006630E+01 -0.43442485742E+01  0.11108457469E+02  0.51100000000E-03 0.  1.
        -12    1    3    3    0    0 -0.28289363721E+02 -0.23522056835E+02 -0.11595586275E+02  0.38575029210E+02  0.00000000000E+00 0.  1.
</event>
<event>
 7    1  0.6152255E-013  0.5930196E+02  0.7816164E-02  0.1266605E+00
        -11   -1    0    0    0    0  0.00000000000E+00  0.00000000000E+00  0.45593999997E+02  0.45594000000E+02  0.51100000000E-03 0.  1.
         11   -1    0    0    0    0 -0.00000000000E+00 -0.00000000000E+00 -0.45593999997E+02  0.45594000000E+02  0.51100000000E-03 0. -1.
    9900012    2    1    2    0    0 -0.18583626493E+02  0.24114541956E+02  0.94793090349E+01  0.59301959055E+02  0.50000027406E+02 0.  0.
        -12    1    1    2    0    0  0.18583626493E+02 -0.24114541956E+02 -0.94793090349E+01  0.31886040945E+02  0.00000000000E+00 0.  1.
         11    1    3    3    0    0 -0.21977311102E+02  0.38626061289E+01  0.68972942971E+00  0.22324821530E+02  0.51100000000E-03 0. -1.
        -11    1    3    3    0    0 -0.91892441259E+01  0.20493566042E+02  0.94680795176E+01  0.24373612509E+02  0.51100000000E-03 0.  1.
        -12    1    3    3    0    0  0.12582928734E+02 -0.24163021567E+00 -0.67849991242E+00  0.12603525016E+02  0.00000000000E+00 0.  1.
</event>
<event>
 7    1  0.6152255E-013  0.5930193E+02  0.7816164E-02  0.1266605E+00
        -11   -1    0    0    0    0  0.00000000000E+00  0.00000000000E+00  0.45593999997E+02  0.45594000000E+02  0.51100000000E-03 0. -1.
         11   -1    0    0    0    0 -0.00000000000E+00 -0.00000000000E+00 -0.45593999997E+02  0.45594000000E+02  0.51100000000E-03 0.  1.
    9900012    2    1    2    0    0  0.88898777180E+00  0.26649290088E+02  0.17485609846E+02  0.59301929168E+02  0.49999972899E+02 0.  0.
        -12    1    1    2    0    0 -0.88898777180E+00 -0.26649290088E+02 -0.17485609846E+02  0.31886070832E+02  0.00000000000E+00 0.  1.
         11    1    3    3    0    0  0.25072884275E+01 -0.59897318938E+01 -0.63663429024E+01  0.90936079545E+01  0.51100000000E-03 0. -1.
        -11    1    3    3    0    0 -0.63745303540E+01 -0.36922298239E+01  0.23919126507E+01  0.77452207648E+01  0.51100000000E-03 0.  1.
         12    1    3    3    0    0  0.47562296982E+01  0.36331251806E+02  0.21460040097E+02  0.42463100448E+02  0.00000000000E+00 0. -1.
</event>
<event>
 7    1  0.6152255E-013  0.5930193E+02  0.7816164E-02  0.1266605E+00
        -11   -1    0    0    0    0  0.00000000000E+00  0.00000000000E+00  0.45593999997E+02  0.45594000000E+02  0.51100000000E-03 0. -1.
         11   -1    0    0    0    0 -0.00000000000E+00 -0.00000000000E+00 -0.45593999997E+02  0.45594000000E+02  0.51100000000E-03 0.  1.
    9900012    2    1    2    0    0  0.20534856976E+02 -0.13635307859E+02  0.20226707721E+02  0.59301926603E+02  0.49999968222E+02 0.  0.
        -12    1    1    2    0    0 -0.20534856976E+02  0.13635307859E+02 -0.20226707721E+02  0.31886073397E+02  0.00000000000E+00 0.  1.
         11    1    3    3    0    0 -0.32710300356E+01  0.56232994693E+01 -0.62822693817E+00  0.65357328405E+01  0.51100000000E-03 0. -1.
        -11    1    3    3    0    0 -0.48832284862E+01  0.72834267334E+01  0.72637357540E+01  0.11386662496E+02  0.51100000000E-03 0.  1.
        -12    1    3    3    0    0  0.28689115497E+02 -0.26542034062E+02  0.13591198905E+02  0.41379531267E+02  0.00000000000E+00 0.  1.
</event>
<event>
 7    1  0.6152255E-013  0.5930197E+02  0.7816164E-02  0.1266605E+00
        -11   -1    0    0    0    0  0.00000000000E+00  0.00000000000E+00  0.45593999997E+02  0.45594000000E+02  0.51100000000E-03 0.  1.
         11   -1    0    0    0    0 -0.00000000000E+00 -0.00000000000E+00 -0.45593999997E+02  0.45594000000E+02  0.51100000000E-03 0. -1.
    9900012    2    1    2    0    0  0.16733431827E+02  0.15227528976E+02 -0.22468503170E+02  0.59301968354E+02  0.50000044365E+02 0.  0.
        -12    1    1    2    0    0 -0.16733431827E+02 -0.15227528976E+02  0.22468503170E+02  0.31886031646E+02  0.00000000000E+00 0.  1.
         11    1    3    3    0    0  0.74727724972E+01  0.20986281119E+02 -0.16485064256E+02  0.27713239936E+02  0.51100000000E-03 0. -1.
        -11    1    3    3    0    0  0.12795077314E+02  0.74422743265E+00  0.84615624732E+01  0.15357926868E+02  0.51100000000E-03 0.  1.
        -12    1    3    3    0    0 -0.35344179839E+01 -0.65029795757E+01 -0.14445001388E+02  0.16230801549E+02  0.00000000000E+00 0.  1.
</event>
<event>
 7    1  0.6152255E-013  0.5930197E+02  0.7816164E-02  0.1266605E+00
        -11   -1    0    0    0    0  0.00000000000E+00  0.00000000000E+00  0.45593999997E+02  0.45594000000E+02  0.51100000000E-03 0.  1.
         11   -1    0    0    0    0 -0.00000000000E+00 -0.00000000000E+00 -0.45593999997E+02  0.45594000000E+02  0.51100000000E-03 0. -1.
    9900012    2    1    2    0    0 -0.15827145660E+02  0.16394707351E+02 -0.22303232442E+02  0.59301966283E+02  0.50000040588E+02 0.  0.
        -12    1    1    2    0    0  0.15827145660E+02 -0.16394707351E+02  0.22303232442E+02  0.31886033717E+02  0.00000000000E+00 0.  1.
         11    1    3    3    0    0  0.41462110369E+01  0.45800995336E+01 -0.11417045589E+02  0.12981421646E+02  0.51100000000E-03 0. -1.
        -11    1    3    3    0    0 -0.22203459514E+02 -0.82191585585E+01 -0.58432431005E+00  0.23683108262E+02  0.51100000000E-03 0.  1.
         12    1    3    3    0    0  0.22301028168E+01  0.20033766376E+02 -0.10301862542E+02  0.22637436375E+02  0.00000000000E+00 0. -1.
</event>
<event>
 7    1  0.6152255E-013  0.5930191E+02  0.7816164E-02  0.1266605E+00
        -11   -1    0    0    0    0  0.00000000000E+00  0.00000000000E+00  0.45593999997E+02  0.45594000000E+02  0.51100000000E-03 0.  1.
         11   -1    0    0    0    0 -0.00000000000E+00 -0.00000000000E+00 -0.45593999997E+02  0.45594000000E+02  0.51100000000E-03 0. -1.
    9900012    2    1    2    0    0 -0.10784535271E+02  0.90935525481E+01 -0.28595869906E+02  0.59301910954E+02  0.49999939681E+02 0.  0.
        -12    1    1    2    0    0  0.10784535271E+02 -0.90935525481E+01  0.28595869906E+02  0.31886089046E+02  0.00000000000E+00 0.  1.
         11    1    3    3    0    0 -0.11345035816E+02  0.13500989544E+02 -0.30447171924E+02  0.35185463402E+02  0.51100000000E-03 0. -1.
        -11    1    3    3    0    0  0.71045159349E+01 -0.11430876560E+01 -0.86926599271E+01  0.11284641462E+02  0.51100000000E-03 0.  1.
        -12    1    3    3    0    0 -0.65440153895E+01 -0.32643493399E+01  0.10543961945E+02  0.12831806090E+02  0.00000000000E+00 0.  1.
</event>
<event>
 7    1  0.6152255E-013  0.5930182E+02  0.7816164E-02  0.1266605E+00
        -11   -1    0    0    0    0  0.00000000000E+00  0.00000000000E+00  0.45593999997E+02  0.45594000000E+02  0.51100000000E-03 0. -1.
         11   -1    0    0    0    0 -0.00000000000E+00 -0.00000000000E+00 -0.45593999997E+02  0.45594000000E+02  0.51100000000E-03 0.  1.
    9900012    2    1    2    0    0 -0.13296432961E+02 -0.20730878882E+02  0.20252506280E+02  0.59301819932E+02  0.49999773678E+02 0.  0.
        -12    1    1    2    0    0  0.13296432961E+02  0.20730878882E+02 -0.20252506280E+02  0.31886180068E+02  0.00000000000E+00 0.  1.
         11    1    3    3    0    0  0.12251106606E+02 -0.18744562318E+02  0.18414484406E+02  0.28992093159E+02  0.51100000000E-03 0. -1.
        -11    1    3    3    0    0  0.34014544741E+00 -0.13455587178E+01 -0.35921104368E+01  0.38509070152E+01  0.51100000000E-03 0.  1.
         12    1    3    3    0    0 -0.25887685015E+02 -0.64075784658E+00  0.54301323116E+01  0.26458819757E+02  0.00000000000E+00 0. -1.
</event>
<event>
 7    1  0.6152255E-013  0.5930194E+02  0.7816164E-02  0.1266605E+00
        -11   -1    0    0    0    0  0.00000000000E+00  0.00000000000E+00  0.45593999997E+02  0.45594000000E+02  0.51100000000E-03 0.  1.
         11   -1    0    0    0    0 -0.00000000000E+00 -0.00000000000E+00 -0.45593999997E+02  0.45594000000E+02  0.51100000000E-03 0. -1.
    9900012    2    1    2    0    0  0.21274497167E+02  0.20587598187E+02 -0.11843443836E+02  0.59301943631E+02  0.49999999277E+02 0.  0.
        -12    1    1    2    0    0 -0.21274497167E+02 -0.20587598187E+02  0.11843443836E+02  0.31886056369E+02  0.00000000000E+00 0.  1.
         11    1    3    3    0    0  0.72547030717E+01  0.19825051075E+02 -0.51920200044E+01  0.21739835297E+02  0.51100000000E-03 0. -1.
        -11    1    3    3    0    0  0.14701628009E+02  0.10244129279E+02 -0.16150827764E+02  0.24123210577E+02  0.51100000000E-03 0.  1.
        -12    1    3    3    0    0 -0.68183391352E+00 -0.94815821660E+01  0.94994039326E+01  0.13438897757E+02  0.00000000000E+00 0.  1.
</event>
<event>
 7    1  0.6152255E-013  0.5930211E+02  0.7816164E-02  0.1266604E+00
        -11   -1    0    0    0    0  0.00000000000E+00  0.00000000000E+00  0.45593999997E+02  0.45594000000E+02  0.51100000000E-03 0.  1.
         11   -1    0    0    0    0 -0.00000000000E+00 -0.00000000000E+00 -0.45593999997E+02  0.45594000000E+02  0.51100000000E-03 0. -1.
    9900012    2    1    2    0    0  0.53989574765E+01 -0.22139253329E+02 -0.22302791064E+02  0.59302113325E+02  0.50000308757E+02 0.  0.
        -12    1    1    2    0    0 -0.53989574765E+01  0.22139253329E+02  0.22302791064E+02  0.31885886675E+02  0.00000000000E+00 0.  1.
         11    1    3    3    0    0  0.62741364530E+01 -0.27270819828E+01 -0.18995702858E+02  0.20190059230E+02  0.51100000000E-03 0. -1.
        -11    1    3    3    0    0  0.16043005680E+02 -0.11317923092E+02 -0.50614553272E+01  0.20275397522E+02  0.51100000000E-03 0.  1.
        -12    1    3    3    0    0 -0.16918184657E+02 -0.80942482536E+01  0.17543671210E+01  0.18836656574E+02  0.00000000000E+00 0.  1.
</event>
<event>
 7    1  0.6152255E-013  0.5930196E+02  0.7816164E-02  0.1266605E+00
        -11   -1    0    0    0    0  0.00000000000E+00  0.00000000000E+00  0.45593999997E+02  0.45594000000E+02  0.51100000000E-03 0.  1.
         11   -1    0    0    0    0 -0.00000000000E+00 -0.00000000000E+00 -0.45593999997E+02  0.45594000000E+02  0.51100000000E-03 0. -1.
    9900012    2    1    2    0    0  0.12120739243E+02 -0.29397474749E+02 -0.23654803124E+01  0.59301963268E+02  0.50000035089E+02 0.  0.
        -12    1    1    2    0    0 -0.12120739243E+02  0.29397474749E+02  0.23654803124E+01  0.31886036732E+02  0.00000000000E+00 0.  1.
         11    1    3    3    0    0  0.74814063899E+01 -0.41295801046E+01 -0.17661877385E+02  0.19620570492E+02  0.51100000000E-03 0. -1.
        -11    1    3    3    0    0  0.10880569401E+02 -0.32337302148E+01 -0.12624767547E+01  0.11420930321E+02  0.51100000000E-03 0.  1.
         12    1    3    3    0    0 -0.62412365477E+01 -0.22034164429E+02  0.16558873827E+02  0.28260462455E+02  0.00000000000E+00 0. -1.
</event>
<event>
 7    1  0.6152255E-013  0.5930196E+02  0.7816164E-02  0.1266605E+00
        -11   -1    0    0    0    0  0.00000000000E+00  0.00000000000E+00  0.45593999997E+02  0.45594000000E+02  0.51100000000E-03 0. -1.
         11   -1    0    0    0    0 -0.00000000000E+00 -0.00000000000E+00 -0.45593999997E+02  0.45594000000E+02  0.51100000000E-03 0.  1.
    9900012    2    1    2    0    0  0.27993580667E+02 -0.29192985885E+01  0.14985219107E+02  0.59301958312E+02  0.50000026052E+02 0.  0.
        -12    1    1    2    0    0 -0.27993580667E+02  0.29192985885E+01 -0.14985219107E+02  0.31886041688E+02  0.00000000000E+00 0.  1.
         11    1    3    3    0    0  0.97592553185E+01  0.14949329074E+02 -0.31116171306E+01  0.18122021564E+02  0.51100000000E-03 0. -1.
        -11    1    3    3    0    0 -0.38584859012E+01 -0.67286510270E+01 -0.33377579719E+01  0.84441273459E+01  0.51100000000E-03 0.  1.
         12    1    3    3    0    0  0.22092811250E+02 -0.11139976635E+02  0.21434594209E+02  0.32735809403E+02  0.00000000000E+00 0. -1.
</event>
<event>
 7    1  0.6152255E-013  0.5930194E+02  0.7816164E-02  0.1266605E+00
        -11   -1    0    0    0    0  0.00000000000E+00  0.00000000000E+00  0.45593999997E+02  0.45594000000E+02  0.51100000000E-03 0.  1.
         11   -1    0    0    0    0 -0.00000000000E+00 -0.00000000000E+00 -0.45593999997E+02  0.45594000000E+02  0.51100000000E-03 0. -1.
    9900012    2    1    2    0    0 -0.15688955877E+02 -0.26261139874E+02  0.89961147062E+01  0.59301939036E+02  0.49999990897E+02 0.  0.
        -12    1    1    2    0    0  0.15688955877E+02  0.26261139874E+02 -0.89961147062E+01  0.31886060964E+02  0.00000000000E+00 0.  1.
         11    1    3    3    0    0 -0.74157152121E+01 -0.13912043844E-02  0.16317840319E+02  0.17923859712E+02  0.51100000000E-03 0. -1.
        -11    1    3    3    0    0 -0.11479235465E+02 -0.64895640764E+01  0.86418640119E+01  0.15766074420E+02  0.51100000000E-03 0.  1.
         12    1    3    3    0    0  0.32059948003E+01 -0.19770184593E+02 -0.15963589625E+02  0.25612004904E+02  0.00000000000E+00 0. -1.
</event>
<event>
 7    1  0.6152255E-013  0.5930193E+02  0.7816164E-02  0.1266605E+00
        -11   -1    0    0    0    0  0.00000000000E+00  0.00000000000E+00  0.45593999997E+02  0.45594000000E+02  0.51100000000E-03 0. -1.
         11   -1    0    0    0    0 -0.00000000000E+00 -0.00000000000E+00 -0.45593999997E+02  0.45594000000E+02  0.51100000000E-03 0.  1.
    9900012    2    1    2    0    0  0.19800342125E+02 -0.19550549066E+02  0.15570603846E+02  0.59301933746E+02  0.49999981249E+02 0.  0.
        -12    1    1    2    0    0 -0.19800342125E+02  0.19550549066E+02 -0.15570603846E+02  0.31886066254E+02  0.00000000000E+00 0.  1.
         11    1    3    3    0    0  0.17978598151E+02 -0.15555867531E+02 -0.62357262415E-01  0.23774332689E+02  0.51100000000E-03 0. -1.
        -11    1    3    3    0    0 -0.38804756770E+01 -0.17104240937E+02  0.97658272502E+01  0.20074474630E+02  0.51100000000E-03 0.  1.
         12    1    3    3    0    0  0.57022196512E+01  0.13109559403E+02  0.58671338578E+01  0.15453126427E+02  0.00000000000E+00 0. -1.
</event>
<event>
 7    1  0.6152255E-013  0.5930185E+02  0.7816164E-02  0.1266605E+00
        -11   -1    0    0    0    0  0.00000000000E+00  0.00000000000E+00  0.45593999997E+02  0.45594000000E+02  0.51100000000E-03 0.  1.
         11   -1    0    0    0    0 -0.00000000000E+00 -0.00000000000E+00 -0.45593999997E+02  0.45594000000E+02  0.51100000000E-03 0. -1.
    9900012    2    1    2    0    0 -0.29402669788E+02  0.82493693330E+01 -0.91737364429E+01  0.59301850571E+02  0.49999829557E+02 0.  0.
        -12    1    1    2    0    0  0.29402669788E+02 -0.82493693330E+01  0.91737364429E+01  0.31886149429E+02  0.00000000000E+00 0.  1.
         11    1    3    3    0    0 -0.26663331955E+02 -0.14032796105E+02 -0.51441738878E+01  0.30566569364E+02  0.51100000000E-03 0. -1.
        -11    1    3    3    0    0 -0.79709035215E+01  0.30742931701E+01 -0.11282185926E+01  0.86173928132E+01  0.51100000000E-03 0.  1.
        -12    1    3    3    0    0  0.52315656877E+01  0.19207872268E+02 -0.29013439625E+01  0.20117888393E+02  0.00000000000E+00 0.  1.
</event>
<event>
 7    1  0.6152255E-013  0.5930195E+02  0.7816164E-02  0.1266605E+00
        -11   -1    0    0    0    0  0.00000000000E+00  0.00000000000E+00  0.45593999997E+02  0.45594000000E+02  0.51100000000E-03 0.  1.
         11   -1    0    0    0    0 -0.00000000000E+00 -0.00000000000E+00 -0.45593999997E+02  0.45594000000E+02  0.51100000000E-03 0. -1.
    9900012    2    1    2    0    0 -0.18883537641E+02 -0.20913820281E+02 -0.14924623988E+02  0.59301948602E+02  0.50000008342E+02 0.  0.
        -12    1    1    2    0    0  0.18883537641E+02  0.20913820281E+02  0.14924623988E+02  0.31886051398E+02  0.00000000000E+00 0.  1.
         11    1    3    3    0    0 -0.16637765256E+02 -0.21853507824E+02 -0.84925372853E+01  0.28749160453E+02  0.51100000000E-03 0. -1.
        -11    1    3    3    0    0 -0.71604121922E+01 -0.88536478075E+01  0.68856300391E+01  0.13306783366E+02  0.51100000000E-03 0.  1.
         12    1    3    3    0    0  0.49146398078E+01  0.97933353510E+01 -0.13317716742E+02  0.17246004783E+02  0.00000000000E+00 0. -1.
</event>
<event>
 7    1  0.6152255E-013  0.5930174E+02  0.7816164E-02  0.1266605E+00
        -11   -1    0    0    0    0  0.00000000000E+00  0.00000000000E+00  0.45593999997E+02  0.45594000000E+02  0.51100000000E-03 0. -1.
         11   -1    0    0    0    0 -0.00000000000E+00 -0.00000000000E+00 -0.45593999997E+02  0.45594000000E+02  0.51100000000E-03 0.  1.
    9900012    2    1    2    0    0 -0.22691406712E+02  0.22149176080E+02  0.33537508577E+01  0.59301739880E+02  0.49999627683E+02 0.  0.
        -12    1    1    2    0    0  0.22691406712E+02 -0.22149176080E+02 -0.33537508577E+01  0.31886260120E+02  0.00000000000E+00 0.  1.
         11    1    3    3    0    0 -0.10577202634E+02  0.23595346097E+02  0.94389787340E+01  0.27526567036E+02  0.51100000000E-03 0. -1.
        -11    1    3    3    0    0 -0.45619812273E+01  0.81898597498E+01 -0.14251616836E+02  0.17058547949E+02  0.51100000000E-03 0.  1.
        -12    1    3    3    0    0 -0.75522228514E+01 -0.96360297666E+01  0.81663889599E+01  0.14716624895E+02  0.00000000000E+00 0.  1.
</event>
<event>
 7    1  0.6152255E-013  0.5930192E+02  0.7816164E-02  0.1266605E+00
        -11   -1    0    0    0    0  0.00000000000E+00  0.00000000000E+00  0.45593999997E+02  0.45594000000E+02  0.51100000000E-03 0. -1.
         11   -1    0    0    0    0 -0.00000000000E+00 -0.00000000000E+00 -0.45593999997E+02  0.45594000000E+02  0.51100000000E-03 0.  1.
    9900012    2    1    2    0    0  0.11203757643E+02 -0.19245566051E+02 -0.22821176091E+02  0.59301920340E+02  0.49999956799E+02 0.  0.
        -12    1    1    2    0    0 -0.11203757643E+02  0.19245566051E+02  0.22821176091E+02  0.31886079660E+02  0.00000000000E+00 0.  1.
         11    1    3    3    0    0 -0.13966516723E+02 -0.16842361873E+02 -0.12795186708E+02  0.25346509543E+02  0.51100000000E-03 0. -1.
        -11    1    3    3    0    0 -0.45582130348E+00 -0.23634770256E+01  0.40549272972E+01  0.47155309731E+01  0.51100000000E-03 0.  1.
        -12    1    3    3    0    0  0.25626095670E+02 -0.39727151408E-01 -0.14080916680E+02  0.29239879824E+02  0.00000000000E+00 0.  1.
</event>
<event>
 7    1  0.6152255E-013  0.5930190E+02  0.7816164E-02  0.1266605E+00
        -11   -1    0    0    0    0  0.00000000000E+00  0.00000000000E+00  0.45593999997E+02  0.45594000000E+02  0.51100000000E-03 0.  1.
         11   -1    0    0    0    0 -0.00000000000E+00 -0.00000000000E+00 -0.45593999997E+02  0.45594000000E+02  0.51100000000E-03 0. -1.
    9900012    2    1    2    0    0 -0.64598883877E+01  0.81148196548E+01 -0.30151992606E+02  0.59301904063E+02  0.49999927113E+02 0.  0.
        -12    1    1    2    0    0  0.64598883877E+01 -0.81148196548E+01  0.30151992606E+02  0.31886095937E+02  0.00000000000E+00 0.  1.
         11    1    3    3    0    0 -0.49385264450E+01 -0.30521928325E+01 -0.11854380192E+02  0.13199668728E+02  0.51100000000E-03 0. -1.
        -11    1    3    3    0    0 -0.15353966459E+02 -0.74158382345E+00  0.53084333977E+01  0.16262647324E+02  0.51100000000E-03 0.  1.
         12    1    3    3    0    0  0.13832604516E+02  0.11908596311E+02 -0.23606045812E+02  0.29839588011E+02  0.00000000000E+00 0. -1.
</event>
<event>
 7    1  0.6152255E-013  0.5930194E+02  0.7816164E-02  0.1266605E+00
        -11   -1    0    0    0    0  0.00000000000E+00  0.00000000000E+00  0.45593999997E+02  0.45594000000E+02  0.51100000000E-03 0. -1.
         11   -1    0    0    0    0 -0.00000000000E+00 -0.00000000000E+00 -0.45593999997E+02  0.45594000000E+02  0.51100000000E-03 0.  1.
    9900012    2    1    2    0    0  0.42174825571E+01 -0.31514568670E+02  0.24011362828E+01  0.59301942655E+02  0.49999997496E+02 0.  0.
        -12    1    1    2    0    0 -0.42174825571E+01  0.31514568670E+02 -0.24011362828E+01  0.31886057345E+02  0.00000000000E+00 0.  1.
         11    1    3    3    0    0  0.70621855468E+01 -0.26463690321E+02  0.71024545863E+01  0.28295692809E+02  0.51100000000E-03 0. -1.
        -11    1    3    3    0    0 -0.56313626036E+01 -0.17221398588E+02 -0.19700643469E+01  0.18225530662E+02  0.51100000000E-03 0.  1.
         12    1    3    3    0    0  0.27866596140E+01  0.12170520239E+02 -0.27312539567E+01  0.12780719185E+02  0.00000000000E+00 0. -1.
</event>
<event>
 7    1  0.6152255E-013  0.5930194E+02  0.7816164E-02  0.1266605E+00
        -11   -1    0    0    0    0  0.00000000000E+00  0.00000000000E+00  0.45593999997E+02  0.45594000000E+02  0.51100000000E-03 0. -1.
         11   -1    0    0    0    0 -0.00000000000E+00 -0.00000000000E+00 -0.45593999997E+02  0.45594000000E+02  0.51100000000E-03 0.  1.
    9900012    2    1    2    0    0  0.17865744390E+02 -0.22675389501E+02  0.13541140545E+02  0.59301943504E+02  0.49999999045E+02 0.  0.
        -12    1    1    2    0    0 -0.17865744390E+02  0.22675389501E+02 -0.13541140545E+02  0.31886056496E+02  0.00000000000E+00 0.  1.
         11    1    3    3    0    0 -0.85175789786E+01 -0.13023134760E+02  0.62427795714E+01  0.16766737538E+02  0.51100000000E-03 0. -1.
        -11    1    3    3    0    0 -0.49664641313E+01  0.29655317839E+01 -0.38516989560E+01  0.69495129209E+01  0.51100000000E-03 0.  1.
        -12    1    3    3    0    0  0.31349787500E+02 -0.12617786525E+02  0.11150059929E+02  0.35585693045E+02  0.00000000000E+00 0.  1.
</event>
<event>
 7    1  0.6152255E-013  0.5930195E+02  0.7816164E-02  0.1266605E+00
        -11   -1    0    0    0    0  0.00000000000E+00  0.00000000000E+00  0.45593999997E+02  0.45594000000E+02  0.51100000000E-03 0.  1.
         11   -1    0    0    0    0 -0.00000000000E+00 -0.00000000000E+00 -0.45593999997E+02  0.45594000000E+02  0.51100000000E-03 0. -1.
    9900012    2    1    2    0    0  0.11961137169E+02  0.12597243907E+02 -0.26738754158E+02  0.59301947714E+02  0.50000006723E+02 0.  0.
        -12    1    1    2    0    0 -0.11961137169E+02 -0.12597243907E+02  0.26738754158E+02  0.31886052286E+02  0.00000000000E+00 0.  1.
         11    1    3    3    0    0  0.71820512587E+00  0.15427250821E+02 -0.26903621852E+02  0.31021295194E+02  0.51100000000E-03 0. -1.
        -11    1    3    3    0    0 -0.48286865768E+01 -0.86162089019E+01 -0.40689312908E+01  0.10682297132E+02  0.51100000000E-03 0.  1.
         12    1    3    3    0    0  0.16071618620E+02  0.57862019882E+01  0.42337989848E+01  0.17598355388E+02  0.00000000000E+00 0. -1.
</event>
<event>
 7    1  0.6152255E-013  0.5930194E+02  0.7816164E-02  0.1266605E+00
        -11   -1    0    0    0    0  0.00000000000E+00  0.00000000000E+00  0.45593999997E+02  0.45594000000E+02  0.51100000000E-03 0.  1.
         11   -1    0    0    0    0 -0.00000000000E+00 -0.00000000000E+00 -0.45593999997E+02  0.45594000000E+02  0.51100000000E-03 0. -1.
    9900012    2    1    2    0    0 -0.31345783512E+02  0.44982444479E+01 -0.37320472476E+01  0.59301944681E+02  0.50000001192E+02 0.  0.
        -12    1    1    2    0    0  0.31345783512E+02 -0.44982444479E+01  0.37320472476E+01  0.31886055319E+02  0.00000000000E+00 0.  1.
         11    1    3    3    0    0 -0.92510242630E+01  0.13662377727E+02  0.66270401192E+00  0.16513061253E+02  0.51100000000E-03 0. -1.
        -11    1    3    3    0    0  0.66904251589E+01 -0.30023390792E+01  0.79965340126E+01  0.10849902545E+02  0.51100000000E-03 0.  1.
        -12    1    3    3    0    0 -0.28785184408E+02 -0.61617942002E+01 -0.12391285272E+02  0.31938980884E+02  0.00000000000E+00 0.  1.
</event>
<event>
 7    1  0.6152255E-013  0.5930195E+02  0.7816164E-02  0.1266605E+00
        -11   -1    0    0    0    0  0.00000000000E+00  0.00000000000E+00  0.45593999997E+02  0.45594000000E+02  0.51100000000E-03 0. -1.
         11   -1    0    0    0    0 -0.00000000000E+00 -0.00000000000E+00 -0.45593999997E+02  0.45594000000E+02  0.51100000000E-03 0.  1.
    9900012    2    1    2    0    0 -0.20715702205E+02 -0.10186063012E+02  0.21996004571E+02  0.59301946394E+02  0.50000004315E+02 0.  0.
        -12    1    1    2    0    0  0.20715702205E+02  0.10186063012E+02 -0.21996004571E+02  0.31886053606E+02  0.00000000000E+00 0.  1.
         11    1    3    3    0    0 -0.24693212424E+02  0.12709987329E+01  0.22575881592E+02  0.33481944500E+02  0.51100000000E-03 0. -1.
        -11    1    3    3    0    0 -0.88936483753E+01 -0.75835977464E+01  0.26750227448E+01  0.11990149421E+02  0.51100000000E-03 0.  1.
        -12    1    3    3    0    0  0.12871158595E+02 -0.38734639982E+01 -0.32548997662E+01  0.13829852472E+02  0.00000000000E+00 0.  1.
</event>
<event>
 7    1  0.6152255E-013  0.5930194E+02  0.7816164E-02  0.1266605E+00
        -11   -1    0    0    0    0  0.00000000000E+00  0.00000000000E+00  0.45593999997E+02  0.45594000000E+02  0.51100000000E-03 0. -1.
         11   -1    0    0    0    0 -0.00000000000E+00 -0.00000000000E+00 -0.45593999997E+02  0.45594000000E+02  0.51100000000E-03 0.  1.
    9900012    2    1    2    0    0 -0.77385253765E+01 -0.18889826433E+02  0.24495114642E+02  0.59301937857E+02  0.49999988746E+02 0.  0.
        -12    1    1    2    0    0  0.77385253765E+01  0.18889826433E+02 -0.24495114642E+02  0.31886062143E+02  0.00000000000E+00 0.  1.
         11    1    3    3    0    0 -0.72725840326E+01 -0.27674436151E+02  0.33809474411E+02  0.44292724628E+02  0.51100000000E-03 0.  1.
        -11    1    3    3    0    0  0.15838827642E+01  0.25010271444E+01  0.67012864779E+00  0.30352749552E+01  0.51100000000E-03 0. -1.
        -12    1    3    3    0    0 -0.20498241082E+01  0.62835825734E+01 -0.99844884171E+01  0.11973938274E+02  0.00000000000E+00 0.  1.
</event>
<event>
 7    1  0.6152255E-013  0.5930197E+02  0.7816164E-02  0.1266605E+00
        -11   -1    0    0    0    0  0.00000000000E+00  0.00000000000E+00  0.45593999997E+02  0.45594000000E+02  0.51100000000E-03 0.  1.
         11   -1    0    0    0    0 -0.00000000000E+00 -0.00000000000E+00 -0.45593999997E+02  0.45594000000E+02  0.51100000000E-03 0. -1.
    9900012    2    1    2    0    0  0.24146739685E+02  0.16445313899E+02  0.12775184933E+02  0.59301972704E+02  0.50000052298E+02 0.  0.
        -12    1    1    2    0    0 -0.24146739685E+02 -0.16445313899E+02 -0.12775184933E+02  0.31886027296E+02  0.00000000000E+00 0.  1.
         11    1    3    3    0    0 -0.33766099918E+01  0.17418045442E+02 -0.59018904721E+01  0.18698184764E+02  0.51100000000E-03 0. -1.
        -11    1    3    3    0    0 -0.18070055757E+01 -0.33507954838E+01 -0.23162533622E+01  0.44562461135E+01  0.51100000000E-03 0.  1.
        -12    1    3    3    0    0  0.29330355253E+02  0.23780639406E+01  0.20993328767E+02  0.36147541826E+02  0.00000000000E+00 0.  1.
</event>
<event>
 7    1  0.6152255E-013  0.5930197E+02  0.7816164E-02  0.1266605E+00
        -11   -1    0    0    0    0  0.00000000000E+00  0.00000000000E+00  0.45593999997E+02  0.45594000000E+02  0.51100000000E-03 0.  1.
         11   -1    0    0    0    0 -0.00000000000E+00 -0.00000000000E+00 -0.45593999997E+02  0.45594000000E+02  0.51100000000E-03 0. -1.
    9900012    2    1    2    0    0 -0.15161084548E+02  0.18314518461E+02 -0.21247096957E+02  0.59301965436E+02  0.50000039044E+02 0.  0.
        -12    1    1    2    0    0  0.15161084548E+02 -0.18314518461E+02  0.21247096957E+02  0.31886034564E+02  0.00000000000E+00 0.  1.
         11    1    3    3    0    0 -0.24732989146E+02  0.95609235023E+01  0.30865473542E+01  0.26695669782E+02  0.51100000000E-03 0.  1.
        -11    1    3    3    0    0 -0.90529065653E+00  0.50826923638E+01 -0.20054678627E+02  0.20708535630E+02  0.51100000000E-03 0. -1.
        -12    1    3    3    0    0  0.10477195255E+02  0.36709025946E+01 -0.42789656838E+01  0.11897760024E+02  0.00000000000E+00 0.  1.
</event>
<event>
 7    1  0.6152255E-013  0.5930205E+02  0.7816164E-02  0.1266604E+00
        -11   -1    0    0    0    0  0.00000000000E+00  0.00000000000E+00  0.45593999997E+02  0.45594000000E+02  0.51100000000E-03 0.  1.
         11   -1    0    0    0    0 -0.00000000000E+00 -0.00000000000E+00 -0.45593999997E+02  0.45594000000E+02  0.51100000000E-03 0. -1.
    9900012    2    1    2    0    0 -0.11316906500E+02  0.14359229325E+02 -0.26123821157E+02  0.59302048997E+02  0.50000191439E+02 0.  0.
        -12    1    1    2    0    0  0.11316906500E+02 -0.14359229325E+02  0.26123821157E+02  0.31885951003E+02  0.00000000000E+00 0.  1.
         11    1    3    3    0    0  0.90324596067E+01 -0.87990799669E+01 -0.20361306894E+02  0.23949779821E+02  0.51100000000E-03 0.  1.
        -11    1    3    3    0    0 -0.72885767611E+01  0.72562127473E+01 -0.99971569851E+01  0.14342911932E+02  0.51100000000E-03 0. -1.
        -12    1    3    3    0    0 -0.13060789345E+02  0.15902096545E+02  0.42346427221E+01  0.21009357244E+02  0.00000000000E+00 0.  1.
</event>
<event>
 7    1  0.6152255E-013  0.5930196E+02  0.7816164E-02  0.1266605E+00
        -11   -1    0    0    0    0  0.00000000000E+00  0.00000000000E+00  0.45593999997E+02  0.45594000000E+02  0.51100000000E-03 0.  1.
         11   -1    0    0    0    0 -0.00000000000E+00 -0.00000000000E+00 -0.45593999997E+02  0.45594000000E+02  0.51100000000E-03 0. -1.
    9900012    2    1    2    0    0 -0.10745679465E+02  0.28147252242E+02 -0.10439449683E+02  0.59301960020E+02  0.50000029166E+02 0.  0.
        -12    1    1    2    0    0  0.10745679465E+02 -0.28147252242E+02  0.10439449683E+02  0.31886039980E+02  0.00000000000E+00 0.  1.
         11    1    3    3    0    0  0.14011820218E+01  0.10540499673E+02 -0.35385793562E+01  0.11206560067E+02  0.51100000000E-03 0. -1.
        -11    1    3    3    0    0  0.37381263790E+01  0.11386449845E+02 -0.22169193152E+02  0.25201149859E+02  0.51100000000E-03 0.  1.
        -12    1    3    3    0    0 -0.15884987866E+02  0.62203027237E+01  0.15268322826E+02  0.22894250094E+02  0.00000000000E+00 0.  1.
</event>
<event>
 7    1  0.6152255E-013  0.5930188E+02  0.7816164E-02  0.1266605E+00
        -11   -1    0    0    0    0  0.00000000000E+00  0.00000000000E+00  0.45593999997E+02  0.45594000000E+02  0.51100000000E-03 0. -1.
         11   -1    0    0    0    0 -0.00000000000E+00 -0.00000000000E+00 -0.45593999997E+02  0.45594000000E+02  0.51100000000E-03 0.  1.
    9900012    2    1    2    0    0 -0.41220360058E+01  0.21595861233E+02  0.23094423262E+02  0.59301877798E+02  0.49999879213E+02 0.  0.
        -12    1    1    2    0    0  0.41220360058E+01 -0.21595861233E+02 -0.23094423262E+02  0.31886122202E+02  0.00000000000E+00 0.  1.
         11    1    3    3    0    0 -0.95676352642E+01  0.96003732144E+01  0.32970398642E+01  0.13949096119E+02  0.51100000000E-03 0.  1.
        -11    1    3    3    0    0 -0.19478551115E+01  0.25397341590E+02  0.13143491582E+02  0.28663050616E+02  0.51100000000E-03 0. -1.
         12    1    3    3    0    0  0.73934543699E+01 -0.13401853571E+02  0.66538918166E+01  0.16689731064E+02  0.00000000000E+00 0. -1.
</event>
<event>
 7    1  0.6152255E-013  0.5930194E+02  0.7816164E-02  0.1266605E+00
        -11   -1    0    0    0    0  0.00000000000E+00  0.00000000000E+00  0.45593999997E+02  0.45594000000E+02  0.51100000000E-03 0. -1.
         11   -1    0    0    0    0 -0.00000000000E+00 -0.00000000000E+00 -0.45593999997E+02  0.45594000000E+02  0.51100000000E-03 0.  1.
    9900012    2    1    2    0    0 -0.12210678932E+01 -0.29679836310E+02  0.11590399919E+02  0.59301936265E+02  0.49999985843E+02 0.  0.
        -12    1    1    2    0    0  0.12210678932E+01  0.29679836310E+02 -0.11590399919E+02  0.31886063735E+02  0.00000000000E+00 0.  1.
         11    1    3    3    0    0  0.55732896634E+01  0.49141164551E+00  0.52200020401E+01  0.76518928793E+01  0.51100000000E-03 0. -1.
        -11    1    3    3    0    0  0.67172375855E+01 -0.74494537563E+01  0.19653190462E+02  0.22064984425E+02  0.51100000000E-03 0.  1.
        -12    1    3    3    0    0 -0.13511595142E+02 -0.22721794200E+02 -0.13282792584E+02  0.29585058962E+02  0.00000000000E+00 0.  1.
</event>
<event>
 7    1  0.6152255E-013  0.5930195E+02  0.7816164E-02  0.1266605E+00
        -11   -1    0    0    0    0  0.00000000000E+00  0.00000000000E+00  0.45593999997E+02  0.45594000000E+02  0.51100000000E-03 0.  1.
         11   -1    0    0    0    0 -0.00000000000E+00 -0.00000000000E+00 -0.45593999997E+02  0.45594000000E+02  0.51100000000E-03 0. -1.
    9900012    2    1    2    0    0 -0.17229680090E+02  0.47023633007E+01 -0.26414882298E+02  0.59301951273E+02  0.50000013213E+02 0.  0.
        -12    1    1    2    0    0  0.17229680090E+02 -0.47023633007E+01  0.26414882298E+02  0.31886048727E+02  0.00000000000E+00 0.  1.
         11    1    3    3    0    0 -0.61558791083E+01 -0.72946084174E+01  0.56696728048E+01  0.11101862435E+02  0.51100000000E-03 0. -1.
        -11    1    3    3    0    0  0.10535529481E+02  0.24608801026E+01 -0.40756485140E+01  0.11561324466E+02  0.51100000000E-03 0.  1.
         12    1    3    3    0    0 -0.21609330463E+02  0.95360916154E+01 -0.28008906589E+02  0.36638764372E+02  0.00000000000E+00 0. -1.
</event>
<event>
 7    1  0.6152255E-013  0.5930195E+02  0.7816164E-02  0.1266605E+00
        -11   -1    0    0    0    0  0.00000000000E+00  0.00000000000E+00  0.45593999997E+02  0.45594000000E+02  0.51100000000E-03 0.  1.
         11   -1    0    0    0    0 -0.00000000000E+00 -0.00000000000E+00 -0.45593999997E+02  0.45594000000E+02  0.51100000000E-03 0. -1.
    9900012    2    1    2    0    0 -0.25490633281E+02 -0.10125301421E+02 -0.16261179522E+02  0.59301951744E+02  0.50000014073E+02 0.  0.
        -12    1    1    2    0    0  0.25490633281E+02  0.10125301421E+02  0.16261179522E+02  0.31886048256E+02  0.00000000000E+00 0.  1.
         11    1    3    3    0    0 -0.25996961059E+02 -0.12133337434E+01 -0.22058527413E+02  0.34115873065E+02  0.51100000000E-03 0. -1.
        -11    1    3    3    0    0  0.31511807123E+01 -0.13196065084E+02 -0.40224267848E+01  0.14150830050E+02  0.51100000000E-03 0.  1.
        -12    1    3    3    0    0 -0.26448529342E+01  0.42840974072E+01  0.98197746757E+01  0.11035248630E+02  0.00000000000E+00 0.  1.
</event>
<event>
 7    1  0.6152255E-013  0.5930194E+02  0.7816164E-02  0.1266605E+00
        -11   -1    0    0    0    0  0.00000000000E+00  0.00000000000E+00  0.45593999997E+02  0.45594000000E+02  0.51100000000E-03 0. -1.
         11   -1    0    0    0    0 -0.00000000000E+00 -0.00000000000E+00 -0.45593999997E+02  0.45594000000E+02  0.51100000000E-03 0.  1.
    9900012    2    1    2    0    0  0.15089001456E+02  0.25188398126E+02  0.12433313389E+02  0.59301942750E+02  0.49999997670E+02 0.  0.
        -12    1    1    2    0    0 -0.15089001456E+02 -0.25188398126E+02 -0.12433313389E+02  0.31886057250E+02  0.00000000000E+00 0.  1.
         11    1    3    3    0    0 -0.90405124165E+00  0.30335076718E+01  0.14443137111E+02  0.14785928693E+02  0.51100000000E-03 0. -1.
        -11    1    3    3    0    0  0.38032751969E+01 -0.96691223102E+01 -0.63354332795E+00  0.10409524767E+02  0.51100000000E-03 0.  1.
         12    1    3    3    0    0  0.12189777501E+02  0.31824012764E+02 -0.13762803945E+01  0.34106489290E+02  0.00000000000E+00 0. -1.
</event>
<event>
 7    1  0.6152255E-013  0.5930188E+02  0.7816164E-02  0.1266605E+00
        -11   -1    0    0    0    0  0.00000000000E+00  0.00000000000E+00  0.45593999997E+02  0.45594000000E+02  0.51100000000E-03 0.  1.
         11   -1    0    0    0    0 -0.00000000000E+00 -0.00000000000E+00 -0.45593999997E+02  0.45594000000E+02  0.51100000000E-03 0. -1.
    9900012    2    1    2    0    0 -0.21586132189E+02  0.64822838572E+01 -0.22555345244E+02  0.59301879102E+02  0.49999881590E+02 0.  0.
        -12    1    1    2    0    0  0.21586132189E+02 -0.64822838572E+01  0.22555345244E+02  0.31886120898E+02  0.00000000000E+00 0.  1.
         11    1    3    3    0    0 -0.62376689439E+01 -0.92964771791E+00 -0.12150787489E+02  0.13689937750E+02  0.51100000000E-03 0. -1.
        -11    1    3    3    0    0 -0.15380486694E+02 -0.12887992564E+02 -0.14684741908E+02  0.24865666459E+02  0.51100000000E-03 0.  1.
        -12    1    3    3    0    0  0.32023449192E-01  0.20299924139E+02  0.42801841535E+01  0.20746274893E+02  0.00000000000E+00 0.  1.
</event>
<event>
 7    1  0.6152255E-013  0.5930195E+02  0.7816164E-02  0.1266605E+00
        -11   -1    0    0    0    0  0.00000000000E+00  0.00000000000E+00  0.45593999997E+02  0.45594000000E+02  0.51100000000E-03 0.  1.
         11   -1    0    0    0    0 -0.00000000000E+00 -0.00000000000E+00 -0.45593999997E+02  0.45594000000E+02  0.51100000000E-03 0. -1.
    9900012    2    1    2    0    0 -0.19759411938E+02  0.21810349675E+02 -0.12271705147E+02  0.59301945677E+02  0.50000003008E+02 0.  0.
        -12    1    1    2    0    0  0.19759411938E+02 -0.21810349675E+02  0.12271705147E+02  0.31886054323E+02  0.00000000000E+00 0.  1.
         11    1    3    3    0    0 -0.12161027145E+02  0.25907012060E+01  0.12268164723E+01  0.12494294413E+02  0.51100000000E-03 0. -1.
        -11    1    3    3    0    0 -0.52074005356E+01  0.16341345324E+02  0.12066408596E+02  0.20970331519E+02  0.51100000000E-03 0.  1.
        -12    1    3    3    0    0 -0.23909842573E+01  0.28783031443E+01 -0.25564930216E+02  0.25837319746E+02  0.00000000000E+00 0.  1.
</event>
<event>
 7    1  0.6152255E-013  0.5930194E+02  0.7816164E-02  0.1266605E+00
        -11   -1    0    0    0    0  0.00000000000E+00  0.00000000000E+00  0.45593999997E+02  0.45594000000E+02  0.51100000000E-03 0.  1.
         11   -1    0    0    0    0 -0.00000000000E+00 -0.00000000000E+00 -0.45593999997E+02  0.45594000000E+02  0.51100000000E-03 0. -1.
    9900012    2    1    2    0    0 -0.14573798908E+02  0.19302591909E+02 -0.20778231073E+02  0.59301944183E+02  0.50000000283E+02 0.  0.
        -12    1    1    2    0    0  0.14573798908E+02 -0.19302591909E+02  0.20778231073E+02  0.31886055817E+02  0.00000000000E+00 0.  1.
         11    1    3    3    0    0 -0.67455631829E+01 -0.68021928434E+01 -0.18902744067E+01  0.97645065276E+01  0.51100000000E-03 0. -1.
        -11    1    3    3    0    0  0.14248546884E+01 -0.96258393940E+00  0.92524221502E+01  0.94108498357E+01  0.51100000000E-03 0.  1.
        -12    1    3    3    0    0 -0.92530904135E+01  0.27067368692E+02 -0.28140378817E+02  0.40126587820E+02  0.00000000000E+00 0.  1.
</event>
<event>
 7    1  0.6152255E-013  0.5930203E+02  0.7816164E-02  0.1266604E+00
        -11   -1    0    0    0    0  0.00000000000E+00  0.00000000000E+00  0.45593999997E+02  0.45594000000E+02  0.51100000000E-03 0.  1.
         11   -1    0    0    0    0 -0.00000000000E+00 -0.00000000000E+00 -0.45593999997E+02  0.45594000000E+02  0.51100000000E-03 0. -1.
    9900012    2    1    2    0    0 -0.43359073849E+01 -0.30958585276E+02  0.62833804647E+01  0.59302031845E+02  0.50000160156E+02 0.  0.
        -12    1    1    2    0    0  0.43359073849E+01  0.30958585276E+02 -0.62833804647E+01  0.31885968155E+02  0.00000000000E+00 0.  1.
         11    1    3    3    0    0  0.52277669642E+01  0.67645719764E+00  0.46527695187E+00  0.52918451107E+01  0.51100000000E-03 0. -1.
        -11    1    3    3    0    0 -0.62816277777E+01  0.98890937742E+01 -0.11724413695E+01  0.11774024046E+02  0.51100000000E-03 0.  1.
        -12    1    3    3    0    0 -0.32820465714E+01 -0.41524136248E+02  0.69905448823E+01  0.42236162688E+02  0.00000000000E+00 0.  1.
</event>
<event>
 7    1  0.6152255E-013  0.5930196E+02  0.7816164E-02  0.1266605E+00
        -11   -1    0    0    0    0  0.00000000000E+00  0.00000000000E+00  0.45593999997E+02  0.45594000000E+02  0.51100000000E-03 0.  1.
         11   -1    0    0    0    0 -0.00000000000E+00 -0.00000000000E+00 -0.45593999997E+02  0.45594000000E+02  0.51100000000E-03 0. -1.
    9900012    2    1    2    0    0  0.25927204798E+02 -0.46081748934E+01 -0.17979550608E+02  0.59301961291E+02  0.50000031484E+02 0.  0.
        -12    1    1    2    0    0 -0.25927204798E+02  0.46081748934E+01  0.17979550608E+02  0.31886038709E+02  0.00000000000E+00 0.  1.
         11    1    3    3    0    0 -0.10328087821E+01 -0.87392709809E+01 -0.17776790977E+02  0.19835721538E+02  0.51100000000E-03 0. -1.
        -11    1    3    3    0    0  0.10357488517E+02 -0.11959985616E+01 -0.13841807580E+02  0.17329270564E+02  0.51100000000E-03 0.  1.
        -12    1    3    3    0    0  0.16602525064E+02  0.53270946491E+01  0.13639047949E+02  0.22136969188E+02  0.00000000000E+00 0.  1.
</event>
<event>
 7    1  0.6152255E-013  0.5930196E+02  0.7816164E-02  0.1266605E+00
        -11   -1    0    0    0    0  0.00000000000E+00  0.00000000000E+00  0.45593999997E+02  0.45594000000E+02  0.51100000000E-03 0.  1.
         11   -1    0    0    0    0 -0.00000000000E+00 -0.00000000000E+00 -0.45593999997E+02  0.45594000000E+02  0.51100000000E-03 0. -1.
    9900012    2    1    2    0    0 -0.18134911855E+02  0.20678831565E+02 -0.16131668266E+02  0.59301955655E+02  0.50000021205E+02 0.  0.
        -12    1    1    2    0    0  0.18134911855E+02 -0.20678831565E+02  0.16131668266E+02  0.31886044345E+02  0.00000000000E+00 0.  1.
         11    1    3    3    0    0 -0.35881338190E+01  0.14223838288E+02  0.12884941054E+02  0.19524701948E+02  0.51100000000E-03 0. -1.
        -11    1    3    3    0    0 -0.37581186559E+01 -0.58220841619E+01 -0.54876481081E+00  0.69513497178E+01  0.51100000000E-03 0.  1.
         12    1    3    3    0    0 -0.10788659380E+02  0.12277077440E+02 -0.28467844510E+02  0.32825903989E+02  0.00000000000E+00 0. -1.
</event>
<event>
 7    1  0.6152255E-013  0.5930195E+02  0.7816164E-02  0.1266605E+00
        -11   -1    0    0    0    0  0.00000000000E+00  0.00000000000E+00  0.45593999997E+02  0.45594000000E+02  0.51100000000E-03 0.  1.
         11   -1    0    0    0    0 -0.00000000000E+00 -0.00000000000E+00 -0.45593999997E+02  0.45594000000E+02  0.51100000000E-03 0. -1.
    9900012    2    1    2    0    0 -0.18939304418E+02 -0.54621282218E+01 -0.25063680411E+02  0.59301950193E+02  0.50000011244E+02 0.  0.
        -12    1    1    2    0    0  0.18939304418E+02  0.54621282218E+01  0.25063680411E+02  0.31886049807E+02  0.00000000000E+00 0.  1.
         11    1    3    3    0    0 -0.14326981201E+01 -0.18095616280E+02 -0.16860575402E+02  0.24774643400E+02  0.51100000000E-03 0. -1.
        -11    1    3    3    0    0 -0.32473338904E+01 -0.69810273686E+01  0.23942032051E+01  0.80630099693E+01  0.51100000000E-03 0.  1.
         12    1    3    3    0    0 -0.14259272407E+02  0.19614515426E+02 -0.10597308214E+02  0.26464296824E+02  0.00000000000E+00 0. -1.
</event>
<event>
 7    1  0.6152255E-013  0.5930205E+02  0.7816164E-02  0.1266604E+00
        -11   -1    0    0    0    0  0.00000000000E+00  0.00000000000E+00  0.45593999997E+02  0.45594000000E+02  0.51100000000E-03 0.  1.
         11   -1    0    0    0    0 -0.00000000000E+00 -0.00000000000E+00 -0.45593999997E+02  0.45594000000E+02  0.51100000000E-03 0. -1.
    9900012    2    1    2    0    0  0.64870637335E+00 -0.22005802324E+02 -0.23065936224E+02  0.59302053726E+02  0.50000200063E+02 0.  0.
        -12    1    1    2    0    0 -0.64870637335E+00  0.22005802324E+02  0.23065936224E+02  0.31885946274E+02  0.00000000000E+00 0.  1.
         11    1    3    3    0    0  0.97874115686E+01 -0.21418699962E+02 -0.22252621290E+02  0.32399587773E+02  0.51100000000E-03 0. -1.
        -11    1    3    3    0    0  0.44058005046E+01  0.89344667803E+01  0.18534869563E+01  0.10132679255E+02  0.51100000000E-03 0.  1.
        -12    1    3    3    0    0 -0.13544505700E+02 -0.95215691421E+01 -0.26668018903E+01  0.16769786698E+02  0.00000000000E+00 0.  1.
</event>
<event>
 7    1  0.6152255E-013  0.5930196E+02  0.7816164E-02  0.1266605E+00
        -11   -1    0    0    0    0  0.00000000000E+00  0.00000000000E+00  0.45593999997E+02  0.45594000000E+02  0.51100000000E-03 0.  1.
         11   -1    0    0    0    0 -0.00000000000E+00 -0.00000000000E+00 -0.45593999997E+02  0.45594000000E+02  0.51100000000E-03 0. -1.
    9900012    2    1    2    0    0 -0.26757862252E+02  0.17260116853E+02  0.16807217171E+01  0.59301958358E+02  0.50000026136E+02 0.  0.
        -12    1    1    2    0    0  0.26757862252E+02 -0.17260116853E+02 -0.16807217171E+01  0.31886041642E+02  0.00000000000E+00 0.  1.
         11    1    3    3    0    0  0.88159376367E+01 -0.20509642931E+01 -0.85192515234E+01  0.12429998300E+02  0.51100000000E-03 0. -1.
        -11    1    3    3    0    0  0.19441207109E+01  0.48495305645E+01  0.29971271863E+01  0.60233150064E+01  0.51100000000E-03 0.  1.
         12    1    3    3    0    0 -0.37517920599E+02  0.14461550582E+02  0.72028460542E+01  0.40848645052E+02  0.00000000000E+00 0. -1.
</event>
<event>
 7    1  0.6152255E-013  0.5930194E+02  0.7816164E-02  0.1266605E+00
        -11   -1    0    0    0    0  0.00000000000E+00  0.00000000000E+00  0.45593999997E+02  0.45594000000E+02  0.51100000000E-03 0.  1.
         11   -1    0    0    0    0 -0.00000000000E+00 -0.00000000000E+00 -0.45593999997E+02  0.45594000000E+02  0.51100000000E-03 0. -1.
    9900012    2    1    2    0    0  0.49551162422E+01  0.24240808056E+02 -0.20113449667E+02  0.59301940198E+02  0.49999993015E+02 0.  0.
        -12    1    1    2    0    0 -0.49551162422E+01 -0.24240808056E+02  0.20113449667E+02  0.31886059802E+02  0.00000000000E+00 0.  1.
         11    1    3    3    0    0  0.19654763458E+02  0.18785165744E+02 -0.88692029278E+01  0.28598163218E+02  0.51100000000E-03 0. -1.
        -11    1    3    3    0    0  0.55965115397E+01 -0.63707269730E+00  0.16858628053E+01  0.58795354149E+01  0.51100000000E-03 0.  1.
        -12    1    3    3    0    0 -0.20296158756E+02  0.60927150095E+01 -0.12930109545E+02  0.24824241565E+02  0.00000000000E+00 0.  1.
</event>
<event>
 7    1  0.6152255E-013  0.5930203E+02  0.7816164E-02  0.1266604E+00
        -11   -1    0    0    0    0  0.00000000000E+00  0.00000000000E+00  0.45593999997E+02  0.45594000000E+02  0.51100000000E-03 0.  1.
         11   -1    0    0    0    0 -0.00000000000E+00 -0.00000000000E+00 -0.45593999997E+02  0.45594000000E+02  0.51100000000E-03 0. -1.
    9900012    2    1    2    0    0  0.89304053229E+01 -0.53882779258E+01 -0.30131868993E+02  0.59302028049E+02  0.50000153235E+02 0.  0.
        -12    1    1    2    0    0 -0.89304053229E+01  0.53882779258E+01  0.30131868993E+02  0.31885971951E+02  0.00000000000E+00 0.  1.
         11    1    3    3    0    0  0.16919439590E+02  0.13597227190E+01 -0.78513466583E+01  0.18701869600E+02  0.51100000000E-03 0. -1.
        -11    1    3    3    0    0 -0.59241564487E+01  0.12810151891E+02 -0.73845408855E+01  0.15928812431E+02  0.51100000000E-03 0.  1.
        -12    1    3    3    0    0 -0.20648778187E+01 -0.19558152536E+02 -0.14895981449E+02  0.24671346019E+02  0.00000000000E+00 0.  1.
</event>
<event>
 7    1  0.6152255E-013  0.5930195E+02  0.7816164E-02  0.1266605E+00
        -11   -1    0    0    0    0  0.00000000000E+00  0.00000000000E+00  0.45593999997E+02  0.45594000000E+02  0.51100000000E-03 0. -1.
         11   -1    0    0    0    0 -0.00000000000E+00 -0.00000000000E+00 -0.45593999997E+02  0.45594000000E+02  0.51100000000E-03 0.  1.
    9900012    2    1    2    0    0 -0.13280528200E+02 -0.71896436567E+01  0.28083039206E+02  0.59301945114E+02  0.50000001981E+02 0.  0.
        -12    1    1    2    0    0  0.13280528200E+02  0.71896436567E+01 -0.28083039206E+02  0.31886054886E+02  0.00000000000E+00 0.  1.
         11    1    3    3    0    0 -0.43861903964E+01  0.29316357103E+01  0.12755263190E+02  0.13803256624E+02  0.51100000000E-03 0. -1.
        -11    1    3    3    0    0  0.95118506576E+01  0.10521173991E+02  0.67362560365E+00  0.14199442834E+02  0.51100000000E-03 0.  1.
        -12    1    3    3    0    0 -0.18406188461E+02 -0.20642453358E+02  0.14654150412E+02  0.31299245655E+02  0.00000000000E+00 0.  1.
</event>
<event>
 7    1  0.6152255E-013  0.5930193E+02  0.7816164E-02  0.1266605E+00
        -11   -1    0    0    0    0  0.00000000000E+00  0.00000000000E+00  0.45593999997E+02  0.45594000000E+02  0.51100000000E-03 0.  1.
         11   -1    0    0    0    0 -0.00000000000E+00 -0.00000000000E+00 -0.45593999997E+02  0.45594000000E+02  0.51100000000E-03 0. -1.
    9900012    2    1    2    0    0  0.67223868733E+01 -0.87880787196E+01 -0.29904854984E+02  0.59301934635E+02  0.49999982870E+02 0.  0.
        -12    1    1    2    0    0 -0.67223868733E+01  0.87880787196E+01  0.29904854984E+02  0.31886065365E+02  0.00000000000E+00 0.  1.
         11    1    3    3    0    0  0.71543676203E+01 -0.72884672959E+01  0.28474405172E+01  0.10602577485E+02  0.51100000000E-03 0. -1.
        -11    1    3    3    0    0 -0.62918355822E+01  0.15060447643E+02 -0.75608231561E+01  0.17988060631E+02  0.51100000000E-03 0.  1.
        -12    1    3    3    0    0  0.58598548352E+01 -0.16560059067E+02 -0.25191472345E+02  0.30711296519E+02  0.00000000000E+00 0.  1.
</event>
<event>
 7    1  0.6152255E-013  0.5930199E+02  0.7816164E-02  0.1266605E+00
        -11   -1    0    0    0    0  0.00000000000E+00  0.00000000000E+00  0.45593999997E+02  0.45594000000E+02  0.51100000000E-03 0.  1.
         11   -1    0    0    0    0 -0.00000000000E+00 -0.00000000000E+00 -0.45593999997E+02  0.45594000000E+02  0.51100000000E-03 0. -1.
    9900012    2    1    2    0    0  0.26310714792E+01 -0.23749812399E+02 -0.21112586672E+02  0.59301993005E+02  0.50000089323E+02 0.  0.
        -12    1    1    2    0    0 -0.26310714792E+01  0.23749812399E+02  0.21112586672E+02  0.31886006995E+02  0.00000000000E+00 0.  1.
         11    1    3    3    0    0  0.68239438638E+01  0.35503112846E+01 -0.37855913337E+01  0.85733087009E+01  0.51100000000E-03 0. -1.
        -11    1    3    3    0    0 -0.10151418393E+02 -0.27898993764E+02  0.27138251672E+01  0.29812245735E+02  0.51100000000E-03 0.  1.
         12    1    3    3    0    0  0.59585460085E+01  0.59887008046E+00 -0.20040820505E+02  0.20916438570E+02  0.00000000000E+00 0. -1.
</event>
<event>
 7    1  0.6152255E-013  0.5930194E+02  0.7816164E-02  0.1266605E+00
        -11   -1    0    0    0    0  0.00000000000E+00  0.00000000000E+00  0.45593999997E+02  0.45594000000E+02  0.51100000000E-03 0. -1.
         11   -1    0    0    0    0 -0.00000000000E+00 -0.00000000000E+00 -0.45593999997E+02  0.45594000000E+02  0.51100000000E-03 0.  1.
    9900012    2    1    2    0    0 -0.34059070181E+01  0.10427524270E+02  0.29939725956E+02  0.59301942619E+02  0.49999997430E+02 0.  0.
        -12    1    1    2    0    0  0.34059070181E+01 -0.10427524270E+02 -0.29939725956E+02  0.31886057381E+02  0.00000000000E+00 0.  1.
         11    1    3    3    0    0  0.22205390665E+01  0.21118847158E+01  0.85125901524E+01  0.90473776401E+01  0.51100000000E-03 0. -1.
        -11    1    3    3    0    0  0.69093039114E+01  0.16188979847E+02 -0.64047527432E+01  0.18730787677E+02  0.51100000000E-03 0.  1.
         12    1    3    3    0    0 -0.12535749996E+02 -0.78733402926E+01  0.27831888546E+02  0.31523777302E+02  0.00000000000E+00 0. -1.
</event>
<event>
 7    1  0.6152255E-013  0.5930193E+02  0.7816164E-02  0.1266605E+00
        -11   -1    0    0    0    0  0.00000000000E+00  0.00000000000E+00  0.45593999997E+02  0.45594000000E+02  0.51100000000E-03 0. -1.
         11   -1    0    0    0    0 -0.00000000000E+00 -0.00000000000E+00 -0.45593999997E+02  0.45594000000E+02  0.51100000000E-03 0.  1.
    9900012    2    1    2    0    0 -0.32333994793E+01  0.29769556549E+02  0.10956274576E+02  0.59301932166E+02  0.49999978367E+02 0.  0.
        -12    1    1    2    0    0  0.32333994793E+01 -0.29769556549E+02 -0.10956274576E+02  0.31886067834E+02  0.00000000000E+00 0.  1.
         11    1    3    3    0    0  0.30244749738E+01 -0.50537831275E+01  0.80378624217E+00  0.59442615480E+01  0.51100000000E-03 0. -1.
        -11    1    3    3    0    0 -0.93252749285E+01 -0.77662032332E+00 -0.88564746350E+01  0.12884138886E+02  0.51100000000E-03 0.  1.
        -12    1    3    3    0    0  0.30674004754E+01  0.35599960000E+02  0.19008962969E+02  0.40473531732E+02  0.00000000000E+00 0.  1.
</event>
<event>
 7    1  0.6152255E-013  0.5930194E+02  0.7816164E-02  0.1266605E+00
        -11   -1    0    0    0    0  0.00000000000E+00  0.00000000000E+00  0.45593999997E+02  0.45594000000E+02  0.51100000000E-03 0.  1.
         11   -1    0    0    0    0 -0.00000000000E+00 -0.00000000000E+00 -0.45593999997E+02  0.45594000000E+02  0.51100000000E-03 0. -1.
    9900012    2    1    2    0    0  0.10831988445E+02  0.26331769445E+02 -0.14353638654E+02  0.59301937239E+02  0.49999987619E+02 0.  0.
        -12    1    1    2    0    0 -0.10831988445E+02 -0.26331769445E+02  0.14353638654E+02  0.31886062761E+02  0.00000000000E+00 0.  1.
         11    1    3    3    0    0 -0.15656676103E+02  0.18670792334E+02 -0.44671908666E+01  0.24772682283E+02  0.51100000000E-03 0. -1.
        -11    1    3    3    0    0  0.50032957351E+01  0.77189855631E+00  0.53018402508E+01  0.73306415749E+01  0.51100000000E-03 0.  1.
        -12    1    3    3    0    0  0.21485368813E+02  0.68890785546E+01 -0.15188288038E+02  0.27198613381E+02  0.00000000000E+00 0.  1.
</event>
<event>
 7    1  0.6152255E-013  0.5930185E+02  0.7816164E-02  0.1266605E+00
        -11   -1    0    0    0    0  0.00000000000E+00  0.00000000000E+00  0.45593999997E+02  0.45594000000E+02  0.51100000000E-03 0.  1.
         11   -1    0    0    0    0 -0.00000000000E+00 -0.00000000000E+00 -0.45593999997E+02  0.45594000000E+02  0.51100000000E-03 0. -1.
    9900012    2    1    2    0    0 -0.26964554709E+01 -0.19541156249E+02 -0.25051923606E+02  0.59301850404E+02  0.49999829253E+02 0.  0.
        -12    1    1    2    0    0  0.26964554709E+01  0.19541156249E+02  0.25051923606E+02  0.31886149596E+02  0.00000000000E+00 0.  1.
         11    1    3    3    0    0 -0.41601094402E+01 -0.70749449287E+00  0.32576068391E+01  0.53309531597E+01  0.51100000000E-03 0. -1.
        -11    1    3    3    0    0  0.79527064186E+01 -0.14227220871E+01  0.91196086916E+01  0.12183469968E+02  0.51100000000E-03 0.  1.
         12    1    3    3    0    0 -0.64890524493E+01 -0.17410939669E+02 -0.37429139137E+02  0.41787427276E+02  0.00000000000E+00 0. -1.
</event>
<event>
 7    1  0.6152255E-013  0.5930205E+02  0.7816164E-02  0.1266604E+00
        -11   -1    0    0    0    0  0.00000000000E+00  0.00000000000E+00  0.45593999997E+02  0.45594000000E+02  0.51100000000E-03 0. -1.
         11   -1    0    0    0    0 -0.00000000000E+00 -0.00000000000E+00 -0.45593999997E+02  0.45594000000E+02  0.51100000000E-03 0.  1.
    9900012    2    1    2    0    0 -0.25600458560E+02  0.15208459162E+02  0.11403214291E+02  0.59302046906E+02  0.50000187624E+02 0.  0.
        -12    1    1    2    0    0  0.25600458560E+02 -0.15208459162E+02 -0.11403214291E+02  0.31885953094E+02  0.00000000000E+00 0.  1.
         11    1    3    3    0    0  0.42822721640E+01  0.71269288749E+01 -0.91429606343E+01  0.12358183503E+02  0.51100000000E-03 0. -1.
        -11    1    3    3    0    0 -0.16346344859E+02 -0.89858677949E+01  0.28327226226E+01  0.18867250144E+02  0.51100000000E-03 0.  1.
        -12    1    3    3    0    0 -0.13536385865E+02  0.17067398082E+02  0.17713452303E+02  0.28076613258E+02  0.00000000000E+00 0.  1.
</event>
<event>
 7    1  0.6152255E-013  0.5930193E+02  0.7816164E-02  0.1266605E+00
        -11   -1    0    0    0    0  0.00000000000E+00  0.00000000000E+00  0.45593999997E+02  0.45594000000E+02  0.51100000000E-03 0. -1.
         11   -1    0    0    0    0 -0.00000000000E+00 -0.00000000000E+00 -0.45593999997E+02  0.45594000000E+02  0.51100000000E-03 0.  1.
    9900012    2    1    2    0    0 -0.87561106988E+01  0.65756697370E+00  0.30653213355E+02  0.59301931602E+02  0.49999977339E+02 0.  0.
        -12    1    1    2    0    0  0.87561106988E+01 -0.65756697370E+00 -0.30653213355E+02  0.31886068398E+02  0.00000000000E+00 0.  1.
         11    1    3    3    0    0 -0.14430963726E+02  0.39853414462E+01  0.16353520723E+02  0.22171452384E+02  0.51100000000E-03 0. -1.
        -11    1    3    3    0    0 -0.12934781275E+02 -0.37598502286E+01 -0.29989244502E+00  0.13473491608E+02  0.51100000000E-03 0.  1.
        -12    1    3    3    0    0  0.18609634303E+02  0.43207575610E+00  0.14599585077E+02  0.23656987610E+02  0.00000000000E+00 0.  1.
</event>
<event>
 7    1  0.6152255E-013  0.5930199E+02  0.7816164E-02  0.1266605E+00
        -11   -1    0    0    0    0  0.00000000000E+00  0.00000000000E+00  0.45593999997E+02  0.45594000000E+02  0.51100000000E-03 0. -1.
         11   -1    0    0    0    0 -0.00000000000E+00 -0.00000000000E+00 -0.45593999997E+02  0.45594000000E+02  0.51100000000E-03 0.  1.
    9900012    2    1    2    0    0 -0.66094625589E+01  0.28601191508E+02  0.12450071823E+02  0.59301993047E+02  0.50000089400E+02 0.  0.
        -12    1    1    2    0    0  0.66094625589E+01 -0.28601191508E+02 -0.12450071823E+02  0.31886006953E+02  0.00000000000E+00 0.  1.
         11    1    3    3    0    0  0.10499892813E+02 -0.22894427577E+01  0.30956044481E+01  0.11183562240E+02  0.51100000000E-03 0. -1.
        -11    1    3    3    0    0 -0.14284143677E+02  0.23783800551E+01 -0.59261335522E+01  0.15646485593E+02  0.51100000000E-03 0.  1.
         12    1    3    3    0    0 -0.28252116942E+01  0.28512254211E+02  0.15280600927E+02  0.32471945214E+02  0.00000000000E+00 0. -1.
</event>
<event>
 7    1  0.6152255E-013  0.5930193E+02  0.7816164E-02  0.1266605E+00
        -11   -1    0    0    0    0  0.00000000000E+00  0.00000000000E+00  0.45593999997E+02  0.45594000000E+02  0.51100000000E-03 0.  1.
         11   -1    0    0    0    0 -0.00000000000E+00 -0.00000000000E+00 -0.45593999997E+02  0.45594000000E+02  0.51100000000E-03 0. -1.
    9900012    2    1    2    0    0  0.80973405836E+01  0.11683923454E+02 -0.28541902203E+02  0.59301934498E+02  0.49999982621E+02 0.  0.
        -12    1    1    2    0    0 -0.80973405836E+01 -0.11683923454E+02  0.28541902203E+02  0.31886065502E+02  0.00000000000E+00 0.  1.
         11    1    3    3    0    0  0.26782125263E+01  0.18224946346E+02 -0.19131709228E+02  0.26558309244E+02  0.51100000000E-03 0. -1.
        -11    1    3    3    0    0 -0.14875133437E+01 -0.66511951751E+01 -0.19420314470E+02  0.20581538027E+02  0.51100000000E-03 0.  1.
        -12    1    3    3    0    0  0.69066414010E+01  0.11017228322E+00  0.10010121495E+02  0.12162087227E+02  0.00000000000E+00 0.  1.
</event>
<event>
 7    1  0.6152255E-013  0.5930192E+02  0.7816164E-02  0.1266605E+00
        -11   -1    0    0    0    0  0.00000000000E+00  0.00000000000E+00  0.45593999997E+02  0.45594000000E+02  0.51100000000E-03 0.  1.
         11   -1    0    0    0    0 -0.00000000000E+00 -0.00000000000E+00 -0.45593999997E+02  0.45594000000E+02  0.51100000000E-03 0. -1.
    9900012    2    1    2    0    0 -0.46394906192E+01  0.29220232437E+01 -0.31411133459E+02  0.59301915288E+02  0.49999947586E+02 0.  0.
        -12    1    1    2    0    0  0.46394906192E+01 -0.29220232437E+01  0.31411133459E+02  0.31886084712E+02  0.00000000000E+00 0.  1.
         11    1    3    3    0    0 -0.17467451163E+02 -0.15801604373E+02 -0.20108797902E+02  0.30970410140E+02  0.51100000000E-03 0. -1.
        -11    1    3    3    0    0  0.91253138341E+00 -0.25779881487E+00 -0.49460570146E+01  0.50361348282E+01  0.51100000000E-03 0.  1.
         12    1    3    3    0    0  0.11915429161E+02  0.18981426432E+02 -0.63562785431E+01  0.23295370321E+02  0.00000000000E+00 0. -1.
</event>
<event>
 7    1  0.6152255E-013  0.5930197E+02  0.7816164E-02  0.1266605E+00
        -11   -1    0    0    0    0  0.00000000000E+00  0.00000000000E+00  0.45593999997E+02  0.45594000000E+02  0.51100000000E-03 0. -1.
         11   -1    0    0    0    0 -0.00000000000E+00 -0.00000000000E+00 -0.45593999997E+02  0.45594000000E+02  0.51100000000E-03 0.  1.
    9900012    2    1    2    0    0  0.46812338702E+01  0.27359785869E+02  0.15692269007E+02  0.59301966381E+02  0.50000040768E+02 0.  0.
        -12    1    1    2    0    0 -0.46812338702E+01 -0.27359785869E+02 -0.15692269007E+02  0.31886033619E+02  0.00000000000E+00 0.  1.
         11    1    3    3    0    0 -0.64588607889E+01  0.51152980355E+01 -0.41606890726E+01  0.92300861590E+01  0.51100000000E-03 0. -1.
        -11    1    3    3    0    0 -0.54913853898E+01  0.22626519377E+02 -0.11102525075E+01  0.23309812387E+02  0.51100000000E-03 0.  1.
         12    1    3    3    0    0  0.16631480049E+02 -0.38203154373E+00  0.20963210587E+02  0.26762067836E+02  0.00000000000E+00 0. -1.
</event>
<event>
 7    1  0.6152255E-013  0.5930194E+02  0.7816164E-02  0.1266605E+00
        -11   -1    0    0    0    0  0.00000000000E+00  0.00000000000E+00  0.45593999997E+02  0.45594000000E+02  0.51100000000E-03 0.  1.
         11   -1    0    0    0    0 -0.00000000000E+00 -0.00000000000E+00 -0.45593999997E+02  0.45594000000E+02  0.51100000000E-03 0. -1.
    9900012    2    1    2    0    0 -0.30110983112E+02  0.64829458002E+01 -0.82474637570E+01  0.59301944292E+02  0.50000000481E+02 0.  0.
        -12    1    1    2    0    0  0.30110983112E+02 -0.64829458002E+01  0.82474637570E+01  0.31886055708E+02  0.00000000000E+00 0.  1.
         11    1    3    3    0    0 -0.27603052734E+02  0.40298486104E+01 -0.12258470105E+02  0.30470285356E+02  0.51100000000E-03 0. -1.
        -11    1    3    3    0    0 -0.14295878881E+02  0.67803837301E+01  0.66450049381E+00  0.15836265901E+02  0.51100000000E-03 0.  1.
        -12    1    3    3    0    0  0.11787948503E+02 -0.43272865403E+01  0.33465058539E+01  0.12995393036E+02  0.00000000000E+00 0.  1.
</event>
<event>
 7    1  0.6152255E-013  0.5930195E+02  0.7816164E-02  0.1266605E+00
        -11   -1    0    0    0    0  0.00000000000E+00  0.00000000000E+00  0.45593999997E+02  0.45594000000E+02  0.51100000000E-03 0.  1.
         11   -1    0    0    0    0 -0.00000000000E+00 -0.00000000000E+00 -0.45593999997E+02  0.45594000000E+02  0.51100000000E-03 0. -1.
    9900012    2    1    2    0    0  0.60990172262E+01  0.24786034065E+02 -0.19109538159E+02  0.59301953766E+02  0.50000017760E+02 0.  0.
        -12    1    1    2    0    0 -0.60990172262E+01 -0.24786034065E+02  0.19109538159E+02  0.31886046234E+02  0.00000000000E+00 0.  1.
         11    1    3    3    0    0  0.70474500323E+01 -0.44623778823E+01 -0.12916586975E+00  0.83424248516E+01  0.51100000000E-03 0. -1.
        -11    1    3    3    0    0  0.17438666191E+02  0.79988821295E+01 -0.72729734959E+01  0.20517927224E+02  0.51100000000E-03 0.  1.
         12    1    3    3    0    0 -0.18387098997E+02  0.21249529817E+02 -0.11707398793E+02  0.30441601691E+02  0.00000000000E+00 0. -1.
</event>
<event>
 7    1  0.6152255E-013  0.5930192E+02  0.7816164E-02  0.1266605E+00
        -11   -1    0    0    0    0  0.00000000000E+00  0.00000000000E+00  0.45593999997E+02  0.45594000000E+02  0.51100000000E-03 0. -1.
         11   -1    0    0    0    0 -0.00000000000E+00 -0.00000000000E+00 -0.45593999997E+02  0.45594000000E+02  0.51100000000E-03 0.  1.
    9900012    2    1    2    0    0 -0.68285048033E+01  0.24551785436E+01  0.31049403649E+02  0.59301923940E+02  0.49999963364E+02 0.  0.
        -12    1    1    2    0    0  0.68285048033E+01 -0.24551785436E+01 -0.31049403649E+02  0.31886076060E+02  0.00000000000E+00 0.  1.
         11    1    3    3    0    0 -0.47579551977E+00  0.37790678910E+01  0.17238873200E+01  0.41808519771E+01  0.51100000000E-03 0. -1.
        -11    1    3    3    0    0 -0.23875485357E+02  0.84148252571E+01  0.22715119159E+02  0.34012126129E+02  0.51100000000E-03 0.  1.
        -12    1    3    3    0    0  0.17522776073E+02 -0.97387146045E+01  0.66103971705E+01  0.21108945834E+02  0.00000000000E+00 0.  1.
</event>
<event>
 7    1  0.6152255E-013  0.5930191E+02  0.7816164E-02  0.1266605E+00
        -11   -1    0    0    0    0  0.00000000000E+00  0.00000000000E+00  0.45593999997E+02  0.45594000000E+02  0.51100000000E-03 0.  1.
         11   -1    0    0    0    0 -0.00000000000E+00 -0.00000000000E+00 -0.45593999997E+02  0.45594000000E+02  0.51100000000E-03 0. -1.
    9900012    2    1    2    0    0 -0.46149776708E+01  0.17850027387E+02 -0.26015405498E+02  0.59301908677E+02  0.49999935529E+02 0.  0.
        -12    1    1    2    0    0  0.46149776708E+01 -0.17850027387E+02  0.26015405498E+02  0.31886091323E+02  0.00000000000E+00 0.  1.
         11    1    3    3    0    0 -0.48902903225E+01 -0.45880353997E+01  0.38863675665E+01  0.77504104014E+01  0.51100000000E-03 0.  1.
        -11    1    3    3    0    0  0.13242616657E+02 -0.26366300046E+01 -0.70505288236E+01  0.15232487343E+02  0.51100000000E-03 0. -1.
         12    1    3    3    0    0 -0.12967304006E+02  0.25074692791E+02 -0.22851244241E+02  0.36319010932E+02  0.00000000000E+00 0. -1.
</event>
<event>
 7    1  0.6152255E-013  0.5930194E+02  0.7816164E-02  0.1266605E+00
        -11   -1    0    0    0    0  0.00000000000E+00  0.00000000000E+00  0.45593999997E+02  0.45594000000E+02  0.51100000000E-03 0.  1.
         11   -1    0    0    0    0 -0.00000000000E+00 -0.00000000000E+00 -0.45593999997E+02  0.45594000000E+02  0.51100000000E-03 0. -1.
    9900012    2    1    2    0    0  0.21000449531E+02 -0.17988558137E+02 -0.15878085071E+02  0.59301942077E+02  0.49999996442E+02 0.  0.
        -12    1    1    2    0    0 -0.21000449531E+02  0.17988558137E+02  0.15878085071E+02  0.31886057923E+02  0.00000000000E+00 0.  1.
         11    1    3    3    0    0  0.22335704499E+02 -0.24815059189E+01 -0.10428898304E+02  0.24775057764E+02  0.51100000000E-03 0. -1.
        -11    1    3    3    0    0 -0.63799744126E+00 -0.23752442579E+02  0.13755090823E+01  0.23800789791E+02  0.51100000000E-03 0.  1.
         12    1    3    3    0    0 -0.69725752725E+00  0.82453903607E+01 -0.68246958486E+01  0.10726094522E+02  0.00000000000E+00 0. -1.
</event>
<event>
 7    1  0.6152255E-013  0.5930173E+02  0.7816164E-02  0.1266606E+00
        -11   -1    0    0    0    0  0.00000000000E+00  0.00000000000E+00  0.45593999997E+02  0.45594000000E+02  0.51100000000E-03 0. -1.
         11   -1    0    0    0    0 -0.00000000000E+00 -0.00000000000E+00 -0.45593999997E+02  0.45594000000E+02  0.51100000000E-03 0.  1.
    9900012    2    1    2    0    0  0.13505919089E+02 -0.25674392977E+02  0.13234432206E+02  0.59301725508E+02  0.49999601470E+02 0.  0.
        -12    1    1    2    0    0 -0.13505919089E+02  0.25674392977E+02 -0.13234432206E+02  0.31886274492E+02  0.00000000000E+00 0.  1.
         11    1    3    3    0    0  0.16069361539E+02 -0.11941853773E+02  0.22232299198E+02  0.29918345203E+02  0.51100000000E-03 0. -1.
        -11    1    3    3    0    0  0.37181982945E+01  0.60542627343E+01 -0.11908409682E+01  0.72039710082E+01  0.51100000000E-03 0.  1.
         12    1    3    3    0    0 -0.62816407442E+01 -0.19786801938E+02 -0.78070260241E+01  0.22179409296E+02  0.00000000000E+00 0. -1.
</event>
<event>
 7    1  0.6152255E-013  0.5930197E+02  0.7816164E-02  0.1266605E+00
        -11   -1    0    0    0    0  0.00000000000E+00  0.00000000000E+00  0.45593999997E+02  0.45594000000E+02  0.51100000000E-03 0. -1.
         11   -1    0    0    0    0 -0.00000000000E+00 -0.00000000000E+00 -0.45593999997E+02  0.45594000000E+02  0.51100000000E-03 0.  1.
    9900012    2    1    2    0    0 -0.53946721835E+01 -0.22454666016E+02  0.21986461075E+02  0.59301968819E+02  0.50000045213E+02 0.  0.
        -12    1    1    2    0    0  0.53946721835E+01  0.22454666016E+02 -0.21986461075E+02  0.31886031181E+02  0.00000000000E+00 0.  1.
         11    1    3    3    0    0  0.12626824547E+02 -0.25709322576E+02  0.42885840963E+01  0.28962008205E+02  0.51100000000E-03 0. -1.
        -11    1    3    3    0    0 -0.33854825410E+01  0.34814988837E+01 -0.24475586202E+01  0.54380943328E+01  0.51100000000E-03 0.  1.
         12    1    3    3    0    0 -0.14636014189E+02 -0.22684232390E+00  0.20145435599E+02  0.24901866281E+02  0.00000000000E+00 0. -1.
</event>
<event>
 7    1  0.6152255E-013  0.5930196E+02  0.7816164E-02  0.1266605E+00
        -11   -1    0    0    0    0  0.00000000000E+00  0.00000000000E+00  0.45593999997E+02  0.45594000000E+02  0.51100000000E-03 0.  1.
         11   -1    0    0    0    0 -0.00000000000E+00 -0.00000000000E+00 -0.45593999997E+02  0.45594000000E+02  0.51100000000E-03 0. -1.
    9900012    2    1    2    0    0  0.10860878946E+01 -0.17348761124E+02 -0.26731261113E+02  0.59301961987E+02  0.50000032753E+02 0.  0.
        -12    1    1    2    0    0 -0.10860878946E+01  0.17348761124E+02  0.26731261113E+02  0.31886038013E+02  0.00000000000E+00 0.  1.
         11    1    3    3    0    0 -0.31607547356E+01  0.30121955159E+01 -0.19018796394E+02  0.19513541679E+02  0.51100000000E-03 0. -1.
        -11    1    3    3    0    0 -0.25960120093E+01  0.86441610175E+01 -0.83025115380E-01  0.90259454618E+01  0.51100000000E-03 0.  1.
        -12    1    3    3    0    0  0.68428546395E+01 -0.29005117658E+02 -0.76294396038E+01  0.30762474846E+02  0.00000000000E+00 0.  1.
</event>
<event>
 7    1  0.6152255E-013  0.5930195E+02  0.7816164E-02  0.1266605E+00
        -11   -1    0    0    0    0  0.00000000000E+00  0.00000000000E+00  0.45593999997E+02  0.45594000000E+02  0.51100000000E-03 0. -1.
         11   -1    0    0    0    0 -0.00000000000E+00 -0.00000000000E+00 -0.45593999997E+02  0.45594000000E+02  0.51100000000E-03 0.  1.
    9900012    2    1    2    0    0  0.20327378938E+01 -0.29427890350E+02  0.12107328038E+02  0.59301950605E+02  0.50000011996E+02 0.  0.
        -12    1    1    2    0    0 -0.20327378938E+01  0.29427890350E+02 -0.12107328038E+02  0.31886049395E+02  0.00000000000E+00 0.  1.
         11    1    3    3    0    0 -0.10273663915E+02 -0.30138816455E+02  0.53585330340E+01  0.32289476677E+02  0.51100000000E-03 0. -1.
        -11    1    3    3    0    0  0.65893487565E+00 -0.28438238126E+01  0.13000119144E+02  0.13323836799E+02  0.51100000000E-03 0.  1.
        -12    1    3    3    0    0  0.11647466933E+02  0.35547499171E+01 -0.62513241400E+01  0.13688637129E+02  0.00000000000E+00 0.  1.
</event>
<event>
 7    1  0.6152255E-013  0.5930193E+02  0.7816164E-02  0.1266605E+00
        -11   -1    0    0    0    0  0.00000000000E+00  0.00000000000E+00  0.45593999997E+02  0.45594000000E+02  0.51100000000E-03 0.  1.
         11   -1    0    0    0    0 -0.00000000000E+00 -0.00000000000E+00 -0.45593999997E+02  0.45594000000E+02  0.51100000000E-03 0. -1.
    9900012    2    1    2    0    0 -0.95752245769E+01 -0.28385841094E+02  0.10921549554E+02  0.59301934940E+02  0.49999983427E+02 0.  0.
        -12    1    1    2    0    0  0.95752245769E+01  0.28385841094E+02 -0.10921549554E+02  0.31886065060E+02  0.00000000000E+00 0.  1.
         11    1    3    3    0    0 -0.32852082737E+01 -0.56440833928E+01  0.45311265089E+01  0.79485456813E+01  0.51100000000E-03 0. -1.
        -11    1    3    3    0    0  0.26159347742E+01  0.13120873191E+01  0.21423847986E+02  0.21622810887E+02  0.51100000000E-03 0.  1.
         12    1    3    3    0    0 -0.89059510774E+01 -0.24053845020E+02 -0.15033424941E+02  0.29730578372E+02  0.00000000000E+00 0. -1.
</event>
<event>
 7    1  0.6152255E-013  0.5930195E+02  0.7816164E-02  0.1266605E+00
        -11   -1    0    0    0    0  0.00000000000E+00  0.00000000000E+00  0.45593999997E+02  0.45594000000E+02  0.51100000000E-03 0. -1.
         11   -1    0    0    0    0 -0.00000000000E+00 -0.00000000000E+00 -0.45593999997E+02  0.45594000000E+02  0.51100000000E-03 0.  1.
    9900012    2    1    2    0    0  0.13892553983E+02  0.22199346778E+02 -0.18190822749E+02  0.59301951549E+02  0.50000013717E+02 0.  0.
        -12    1    1    2    0    0 -0.13892553983E+02 -0.22199346778E+02  0.18190822749E+02  0.31886048451E+02  0.00000000000E+00 0.  1.
         11    1    3    3    0    0  0.70051933382E+01 -0.24686165949E+01  0.49882656158E+01  0.89470439650E+01  0.51100000000E-03 0. -1.
        -11    1    3    3    0    0  0.17739704851E+02  0.47196319174E+01 -0.65295071761E+00  0.18368407621E+02  0.51100000000E-03 0.  1.
        -12    1    3    3    0    0 -0.10852344206E+02  0.19948331455E+02 -0.22526137647E+02  0.31986499963E+02  0.00000000000E+00 0.  1.
</event>
<event>
 7    1  0.6546799E-013  0.5930195E+02  0.7816164E-02  0.1266605E+00
        -11   -1    0    0    0    0  0.00000000000E+00  0.00000000000E+00  0.45593999997E+02  0.45594000000E+02  0.51100000000E-03 0. -1.
         11   -1    0    0    0    0 -0.00000000000E+00 -0.00000000000E+00 -0.45593999997E+02  0.45594000000E+02  0.51100000000E-03 0.  1.
    9900012    2    1    2    0    0 -0.18259819205E+00  0.29457201402E+02  0.12204928957E+02  0.59301947447E+02  0.50000006236E+02 0.  0.
        -12    1    1    2    0    0  0.18259819205E+00 -0.29457201402E+02 -0.12204928957E+02  0.31886052553E+02  0.00000000000E+00 0.  1.
         11    1    3    3    0    0 -0.41691490576E+01  0.69042791652E+00 -0.11604797252E+01  0.43823747017E+01  0.51100000000E-03 0. -1.
        -11    1    3    3    0    0  0.48113829536E+00 -0.12163797249E+02  0.35993037051E+01  0.12694268195E+02  0.51100000000E-03 0.  1.
         12    1    3    3    0    0  0.35054125702E+01  0.40930570735E+02  0.97661049776E+01  0.42225304551E+02  0.00000000000E+00 0. -1.
</event>
<event>
 7    1  0.6152255E-013  0.5930193E+02  0.7816164E-02  0.1266605E+00
        -11   -1    0    0    0    0  0.00000000000E+00  0.00000000000E+00  0.45593999997E+02  0.45594000000E+02  0.51100000000E-03 0. -1.
         11   -1    0    0    0    0 -0.00000000000E+00 -0.00000000000E+00 -0.45593999997E+02  0.45594000000E+02  0.51100000000E-03 0.  1.
    9900012    2    1    2    0    0 -0.69033488021E+01  0.86351570382E+01  0.29908177438E+02  0.59301933460E+02  0.49999980727E+02 0.  0.
        -12    1    1    2    0    0  0.69033488021E+01 -0.86351570382E+01 -0.29908177438E+02  0.31886066540E+02  0.00000000000E+00 0.  1.
         11    1    3    3    0    0 -0.21476599926E+01 -0.65264813665E+01  0.16394971413E+02  0.17776458882E+02  0.51100000000E-03 0. -1.
        -11    1    3    3    0    0  0.39118691289E+01  0.17371144604E+02  0.22602005275E+02  0.28773425720E+02  0.51100000000E-03 0.  1.
        -12    1    3    3    0    0 -0.86675579384E+01 -0.22095061994E+01 -0.90887992509E+01  0.12752048858E+02  0.00000000000E+00 0.  1.
</event>
<event>
 7    1  0.6152255E-013  0.5930195E+02  0.7816164E-02  0.1266605E+00
        -11   -1    0    0    0    0  0.00000000000E+00  0.00000000000E+00  0.45593999997E+02  0.45594000000E+02  0.51100000000E-03 0. -1.
         11   -1    0    0    0    0 -0.00000000000E+00 -0.00000000000E+00 -0.45593999997E+02  0.45594000000E+02  0.51100000000E-03 0.  1.
    9900012    2    1    2    0    0 -0.62623870694E+01 -0.31252000845E+02  0.90297639596E+00  0.59301946387E+02  0.50000004304E+02 0.  0.
        -12    1    1    2    0    0  0.62623870694E+01  0.31252000845E+02 -0.90297639596E+00  0.31886053613E+02  0.00000000000E+00 0.  1.
         11    1    3    3    0    0 -0.10724526857E+02 -0.63586547646E+01  0.15891082985E+02  0.20198378287E+02  0.51100000000E-03 0. -1.
        -11    1    3    3    0    0  0.52433233422E+01 -0.15365136351E+01  0.56974143143E+01  0.78939118282E+01  0.51100000000E-03 0.  1.
        -12    1    3    3    0    0 -0.78118355490E+00 -0.23356832445E+02 -0.20685520903E+02  0.31209656273E+02  0.00000000000E+00 0.  1.
</event>
<event>
 7    1  0.6152255E-013  0.5930208E+02  0.7816164E-02  0.1266604E+00
        -11   -1    0    0    0    0  0.00000000000E+00  0.00000000000E+00  0.45593999997E+02  0.45594000000E+02  0.51100000000E-03 0. -1.
         11   -1    0    0    0    0 -0.00000000000E+00 -0.00000000000E+00 -0.45593999997E+02  0.45594000000E+02  0.51100000000E-03 0.  1.
    9900012    2    1    2    0    0  0.27970127330E-01 -0.19803400912E+02  0.24990721176E+02  0.59302084381E+02  0.50000255970E+02 0.  0.
        -12    1    1    2    0    0 -0.27970127330E-01  0.19803400912E+02 -0.24990721176E+02  0.31885915619E+02  0.00000000000E+00 0.  1.
         11    1    3    3    0    0 -0.15542576323E+02  0.18761269417E+01 -0.28512308616E+00  0.15657995609E+02  0.51100000000E-03 0. -1.
        -11    1    3    3    0    0  0.18025383867E+01 -0.15246138983E+02  0.14986835551E+01  0.15425302305E+02  0.51100000000E-03 0.  1.
        -12    1    3    3    0    0  0.13768008064E+02 -0.64333888702E+01  0.23777160707E+02  0.28218786467E+02  0.00000000000E+00 0.  1.
</event>
<event>
 7    1  0.6152255E-013  0.5930196E+02  0.7816164E-02  0.1266605E+00
        -11   -1    0    0    0    0  0.00000000000E+00  0.00000000000E+00  0.45593999997E+02  0.45594000000E+02  0.51100000000E-03 0. -1.
         11   -1    0    0    0    0 -0.00000000000E+00 -0.00000000000E+00 -0.45593999997E+02  0.45594000000E+02  0.51100000000E-03 0.  1.
    9900012    2    1    2    0    0 -0.24780984298E+02 -0.19921695300E+02  0.23976393371E+01  0.59301956019E+02  0.50000021869E+02 0.  0.
        -12    1    1    2    0    0  0.24780984298E+02  0.19921695300E+02 -0.23976393371E+01  0.31886043981E+02  0.00000000000E+00 0.  1.
         11    1    3    3    0    0 -0.41153691990E+01  0.11989259850E+02  0.80874432312E+01  0.15036134931E+02  0.51100000000E-03 0. -1.
        -11    1    3    3    0    0  0.45918050677E+01 -0.35165006344E+01 -0.18382604431E+01  0.60687438740E+01  0.51100000000E-03 0.  1.
         12    1    3    3    0    0 -0.25257420166E+02 -0.28394454516E+02 -0.38515434509E+01  0.38197077213E+02  0.00000000000E+00 0. -1.
</event>
<event>
 7    1  0.6152255E-013  0.5930196E+02  0.7816164E-02  0.1266605E+00
        -11   -1    0    0    0    0  0.00000000000E+00  0.00000000000E+00  0.45593999997E+02  0.45594000000E+02  0.51100000000E-03 0. -1.
         11   -1    0    0    0    0 -0.00000000000E+00 -0.00000000000E+00 -0.45593999997E+02  0.45594000000E+02  0.51100000000E-03 0.  1.
    9900012    2    1    2    0    0  0.93619450918E+01 -0.23275878697E+01  0.30391712307E+02  0.59301955119E+02  0.50000020229E+02 0.  0.
        -12    1    1    2    0    0 -0.93619450918E+01  0.23275878697E+01 -0.30391712307E+02  0.31886044881E+02  0.00000000000E+00 0.  1.
         11    1    3    3    0    0 -0.89254357139E+01  0.57159230651E+01  0.14429707471E+02  0.17903955907E+02  0.51100000000E-03 0. -1.
        -11    1    3    3    0    0 -0.41756465272E+01 -0.36791219010E+01 -0.70253878280E+01  0.89625909355E+01  0.51100000000E-03 0.  1.
        -12    1    3    3    0    0  0.22463027333E+02 -0.43643890339E+01  0.22987392664E+02  0.32435408277E+02  0.00000000000E+00 0.  1.
</event>
<event>
 7    1  0.6152255E-013  0.5930199E+02  0.7816164E-02  0.1266605E+00
        -11   -1    0    0    0    0  0.00000000000E+00  0.00000000000E+00  0.45593999997E+02  0.45594000000E+02  0.51100000000E-03 0.  1.
         11   -1    0    0    0    0 -0.00000000000E+00 -0.00000000000E+00 -0.45593999997E+02  0.45594000000E+02  0.51100000000E-03 0. -1.
    9900012    2    1    2    0    0  0.37706665710E+01  0.18059166239E+02 -0.26007038377E+02  0.59301992774E+02  0.50000088902E+02 0.  0.
        -12    1    1    2    0    0 -0.37706665710E+01 -0.18059166239E+02  0.26007038377E+02  0.31886007226E+02  0.00000000000E+00 0.  1.
         11    1    3    3    0    0 -0.16580797531E+01  0.65043011347E+01 -0.63924181465E+01  0.92692055614E+01  0.51100000000E-03 0. -1.
        -11    1    3    3    0    0  0.13397486788E+02  0.25918375440E+02 -0.15759731702E+02  0.33160578723E+02  0.51100000000E-03 0.  1.
        -12    1    3    3    0    0 -0.79687404639E+01 -0.14363510336E+02 -0.38548885291E+01  0.16872208490E+02  0.00000000000E+00 0.  1.
</event>
<event>
 7    1  0.6152255E-013  0.5930189E+02  0.7816164E-02  0.1266605E+00
        -11   -1    0    0    0    0  0.00000000000E+00  0.00000000000E+00  0.45593999997E+02  0.45594000000E+02  0.51100000000E-03 0. -1.
         11   -1    0    0    0    0 -0.00000000000E+00 -0.00000000000E+00 -0.45593999997E+02  0.45594000000E+02  0.51100000000E-03 0.  1.
    9900012    2    1    2    0    0  0.77981736338E+01  0.30917523172E+02  0.13803114162E+00  0.59301893250E+02  0.49999907393E+02 0.  0.
        -12    1    1    2    0    0 -0.77981736338E+01 -0.30917523172E+02 -0.13803114162E+00  0.31886106750E+02  0.00000000000E+00 0.  1.
         11    1    3    3    0    0  0.82366069139E+01  0.70508546793E+01  0.41399529478E+01  0.11605837145E+02  0.51100000000E-03 0. -1.
        -11    1    3    3    0    0  0.10855744993E+02  0.24481412380E+02 -0.16008881565E+02  0.31200497443E+02  0.51100000000E-03 0.  1.
         12    1    3    3    0    0 -0.11294178273E+02 -0.61474388754E+00  0.12006959759E+02  0.16495558662E+02  0.00000000000E+00 0. -1.
</event>
<event>
 7    1  0.6152255E-013  0.5930194E+02  0.7816164E-02  0.1266605E+00
        -11   -1    0    0    0    0  0.00000000000E+00  0.00000000000E+00  0.45593999997E+02  0.45594000000E+02  0.51100000000E-03 0.  1.
         11   -1    0    0    0    0 -0.00000000000E+00 -0.00000000000E+00 -0.45593999997E+02  0.45594000000E+02  0.51100000000E-03 0. -1.
    9900012    2    1    2    0    0  0.46251416745E+01 -0.11186685392E+00 -0.31548639451E+02  0.59301935632E+02  0.49999984687E+02 0.  0.
        -12    1    1    2    0    0 -0.46251416745E+01  0.11186685392E+00  0.31548639451E+02  0.31886064368E+02  0.00000000000E+00 0.  1.
         11    1    3    3    0    0  0.13865908727E+01  0.14014966002E+00  0.70390782910E+00  0.15613336185E+01  0.51100000000E-03 0. -1.
        -11    1    3    3    0    0 -0.21525503371E+01 -0.91625322773E+01  0.10288026937E+02  0.13943778871E+02  0.51100000000E-03 0.  1.
         12    1    3    3    0    0  0.53911011390E+01  0.89105157633E+01 -0.42540574217E+02  0.43796823142E+02  0.00000000000E+00 0. -1.
</event>
<event>
 7    1  0.6152255E-013  0.5930193E+02  0.7816164E-02  0.1266605E+00
        -11   -1    0    0    0    0  0.00000000000E+00  0.00000000000E+00  0.45593999997E+02  0.45594000000E+02  0.51100000000E-03 0. -1.
         11   -1    0    0    0    0 -0.00000000000E+00 -0.00000000000E+00 -0.45593999997E+02  0.45594000000E+02  0.51100000000E-03 0.  1.
    9900012    2    1    2    0    0  0.26199876656E+02  0.16347552825E+02 -0.79401192299E+01  0.59301929161E+02  0.49999972887E+02 0.  0.
        -12    1    1    2    0    0 -0.26199876656E+02 -0.16347552825E+02  0.79401192299E+01  0.31886070839E+02  0.00000000000E+00 0.  1.
         11    1    3    3    0    0 -0.60125088527E+01 -0.20127522135E+01  0.21501356271E+01  0.66951114742E+01  0.51100000000E-03 0. -1.
        -11    1    3    3    0    0 -0.67168915895E+01  0.81760986757E+01 -0.59898024400E+01  0.12159068867E+02  0.51100000000E-03 0.  1.
        -12    1    3    3    0    0  0.38929277098E+02  0.10184206363E+02 -0.41004524169E+01  0.40447748820E+02  0.00000000000E+00 0.  1.
</event>
<event>
 7    1  0.6152255E-013  0.5930196E+02  0.7816164E-02  0.1266605E+00
        -11   -1    0    0    0    0  0.00000000000E+00  0.00000000000E+00  0.45593999997E+02  0.45594000000E+02  0.51100000000E-03 0.  1.
         11   -1    0    0    0    0 -0.00000000000E+00 -0.00000000000E+00 -0.45593999997E+02  0.45594000000E+02  0.51100000000E-03 0. -1.
    9900012    2    1    2    0    0 -0.11441481797E+02 -0.14592264379E+02 -0.25939886857E+02  0.59301962059E+02  0.50000032884E+02 0.  0.
        -12    1    1    2    0    0  0.11441481797E+02  0.14592264379E+02  0.25939886857E+02  0.31886037941E+02  0.00000000000E+00 0.  1.
         11    1    3    3    0    0 -0.32978786510E+01 -0.47873114252E+01 -0.41136504799E+01  0.71215500287E+01  0.51100000000E-03 0. -1.
        -11    1    3    3    0    0 -0.19373753061E+02 -0.29904952054E+01 -0.30630855983E+02  0.36366670287E+02  0.51100000000E-03 0.  1.
        -12    1    3    3    0    0  0.11230149915E+02 -0.68144577484E+01  0.88046196058E+01  0.15813741743E+02  0.00000000000E+00 0.  1.
</event>
<event>
 7    1  0.6152255E-013  0.5930180E+02  0.7816164E-02  0.1266605E+00
        -11   -1    0    0    0    0  0.00000000000E+00  0.00000000000E+00  0.45593999997E+02  0.45594000000E+02  0.51100000000E-03 0.  1.
         11   -1    0    0    0    0 -0.00000000000E+00 -0.00000000000E+00 -0.45593999997E+02  0.45594000000E+02  0.51100000000E-03 0. -1.
    9900012    2    1    2    0    0  0.31661479862E+02 -0.36515902919E+01 -0.97272616530E+00  0.59301802125E+02  0.49999741203E+02 0.  0.
        -12    1    1    2    0    0 -0.31661479862E+02  0.36515902919E+01  0.97272616530E+00  0.31886197875E+02  0.00000000000E+00 0.  1.
         11    1    3    3    0    0  0.65525033635E+01  0.93606255361E+00 -0.73824829714E+01  0.99152694627E+01  0.51100000000E-03 0. -1.
        -11    1    3    3    0    0 -0.20689211527E+01  0.10529110932E+02 -0.96092754493E+01  0.14404193372E+02  0.51100000000E-03 0.  1.
        -12    1    3    3    0    0  0.27177897651E+02 -0.15116763778E+02  0.16019032255E+02  0.34982339291E+02  0.00000000000E+00 0.  1.
</event>
<event>
 7    1  0.6152255E-013  0.5930194E+02  0.7816164E-02  0.1266605E+00
        -11   -1    0    0    0    0  0.00000000000E+00  0.00000000000E+00  0.45593999997E+02  0.45594000000E+02  0.51100000000E-03 0.  1.
         11   -1    0    0    0    0 -0.00000000000E+00 -0.00000000000E+00 -0.45593999997E+02  0.45594000000E+02  0.51100000000E-03 0. -1.
    9900012    2    1    2    0    0  0.41952076263E+01 -0.87901971182E+01 -0.30362041572E+02  0.59301938769E+02  0.49999990409E+02 0.  0.
        -12    1    1    2    0    0 -0.41952076263E+01  0.87901971182E+01  0.30362041572E+02  0.31886061231E+02  0.00000000000E+00 0.  1.
         11    1    3    3    0    0  0.19573291828E+02  0.11398553037E+02 -0.20679979851E+02  0.30670871055E+02  0.51100000000E-03 0. -1.
        -11    1    3    3    0    0 -0.24621362029E+01 -0.62717111431E+01  0.10529359709E+01  0.68194684370E+01  0.51100000000E-03 0.  1.
        -12    1    3    3    0    0 -0.12915947999E+02 -0.13917039012E+02 -0.10734997692E+02  0.21811599277E+02  0.00000000000E+00 0.  1.
</event>
<event>
 7    1  0.6152255E-013  0.5930196E+02  0.7816164E-02  0.1266605E+00
        -11   -1    0    0    0    0  0.00000000000E+00  0.00000000000E+00  0.45593999997E+02  0.45594000000E+02  0.51100000000E-03 0. -1.
         11   -1    0    0    0    0 -0.00000000000E+00 -0.00000000000E+00 -0.45593999997E+02  0.45594000000E+02  0.51100000000E-03 0.  1.
    9900012    2    1    2    0    0  0.32400963244E+01 -0.10666658997E+02  0.29873798571E+02  0.59301957922E+02  0.50000025340E+02 0.  0.
        -12    1    1    2    0    0 -0.32400963244E+01  0.10666658997E+02 -0.29873798571E+02  0.31886042078E+02  0.00000000000E+00 0.  1.
         11    1    3    3    0    0 -0.13033497571E+02  0.25273286072E+01  0.17449318324E+02  0.21925741927E+02  0.51100000000E-03 0. -1.
        -11    1    3    3    0    0 -0.28050874955E+01 -0.18324705278E+01  0.14679099156E+02  0.15056640275E+02  0.51100000000E-03 0.  1.
        -12    1    3    3    0    0  0.19078681390E+02 -0.11361517077E+02 -0.22546189091E+01  0.22319575720E+02  0.00000000000E+00 0.  1.
</event>
<event>
 7    1  0.6152255E-013  0.5930203E+02  0.7816164E-02  0.1266604E+00
        -11   -1    0    0    0    0  0.00000000000E+00  0.00000000000E+00  0.45593999997E+02  0.45594000000E+02  0.51100000000E-03 0.  1.
         11   -1    0    0    0    0 -0.00000000000E+00 -0.00000000000E+00 -0.45593999997E+02  0.45594000000E+02  0.51100000000E-03 0. -1.
    9900012    2    1    2    0    0 -0.15106543068E+02 -0.17527928288E+02 -0.21938073204E+02  0.59302031778E+02  0.50000160036E+02 0.  0.
        -12    1    1    2    0    0  0.15106543068E+02  0.17527928288E+02  0.21938073204E+02  0.31885968222E+02  0.00000000000E+00 0.  1.
         11    1    3    3    0    0 -0.83143726712E+01  0.88192084496E+01 -0.12390231166E+02  0.17332774135E+02  0.51100000000E-03 0. -1.
        -11    1    3    3    0    0 -0.90515179524E+00 -0.21054220114E+02 -0.19867828846E+02  0.28962563901E+02  0.51100000000E-03 0.  1.
        -12    1    3    3    0    0 -0.58870186017E+01 -0.52929166235E+01  0.10319986808E+02  0.13006693743E+02  0.00000000000E+00 0.  1.
</event>
<event>
 7    1  0.6152255E-013  0.5930185E+02  0.7816164E-02  0.1266605E+00
        -11   -1    0    0    0    0  0.00000000000E+00  0.00000000000E+00  0.45593999997E+02  0.45594000000E+02  0.51100000000E-03 0.  1.
         11   -1    0    0    0    0 -0.00000000000E+00 -0.00000000000E+00 -0.45593999997E+02  0.45594000000E+02  0.51100000000E-03 0. -1.
    9900012    2    1    2    0    0 -0.30274851215E+02 -0.82535437410E+01  0.56602819595E+01  0.59301852660E+02  0.49999833366E+02 0.  0.
        -12    1    1    2    0    0  0.30274851215E+02  0.82535437410E+01 -0.56602819595E+01  0.31886147340E+02  0.00000000000E+00 0.  1.
         11    1    3    3    0    0  0.54337568230E+01  0.72761257895E+01  0.64429545765E+01  0.11134602986E+02  0.51100000000E-03 0. -1.
        -11    1    3    3    0    0 -0.14319044484E+02  0.26824971724E+01  0.10432818278E+02  0.17918552495E+02  0.51100000000E-03 0.  1.
         12    1    3    3    0    0 -0.21389563553E+02 -0.18212166703E+02 -0.11215490895E+02  0.30248697179E+02  0.00000000000E+00 0. -1.
</event>
<event>
 7    1  0.6152255E-013  0.5930196E+02  0.7816164E-02  0.1266605E+00
        -11   -1    0    0    0    0  0.00000000000E+00  0.00000000000E+00  0.45593999997E+02  0.45594000000E+02  0.51100000000E-03 0. -1.
         11   -1    0    0    0    0 -0.00000000000E+00 -0.00000000000E+00 -0.45593999997E+02  0.45594000000E+02  0.51100000000E-03 0.  1.
    9900012    2    1    2    0    0 -0.18262276522E+02  0.20064223527E+02  0.16752182815E+02  0.59301961698E+02  0.50000032227E+02 0.  0.
        -12    1    1    2    0    0  0.18262276522E+02 -0.20064223527E+02 -0.16752182815E+02  0.31886038302E+02  0.00000000000E+00 0.  1.
         11    1    3    3    0    0 -0.26834151276E+01  0.18624287119E+02  0.12957200790E+02  0.22846309112E+02  0.51100000000E-03 0. -1.
        -11    1    3    3    0    0  0.11130510712E+01  0.14389620612E+02  0.50542400268E+01  0.15292004662E+02  0.51100000000E-03 0.  1.
        -12    1    3    3    0    0 -0.16691912466E+02 -0.12949684205E+02 -0.12592580021E+01  0.21163647925E+02  0.00000000000E+00 0.  1.
</event>
<event>
 7    1  0.6152255E-013  0.5930199E+02  0.7816164E-02  0.1266605E+00
        -11   -1    0    0    0    0  0.00000000000E+00  0.00000000000E+00  0.45593999997E+02  0.45594000000E+02  0.51100000000E-03 0.  1.
         11   -1    0    0    0    0 -0.00000000000E+00 -0.00000000000E+00 -0.45593999997E+02  0.45594000000E+02  0.51100000000E-03 0. -1.
    9900012    2    1    2    0    0  0.13369452934E+02 -0.10480811557E+02 -0.26983844853E+02  0.59301991067E+02  0.50000085788E+02 0.  0.
        -12    1    1    2    0    0 -0.13369452934E+02  0.10480811557E+02  0.26983844853E+02  0.31886008933E+02  0.00000000000E+00 0.  1.
         11    1    3    3    0    0 -0.80423329109E+01 -0.40016009896E+01 -0.24515710256E+02  0.26109614680E+02  0.51100000000E-03 0.  1.
        -11    1    3    3    0    0  0.31007540034E+01 -0.47308464145E+01 -0.11413503160E+02  0.12738274523E+02  0.51100000000E-03 0. -1.
        -12    1    3    3    0    0  0.18311031841E+02 -0.17483641531E+01  0.89453685633E+01  0.20454101863E+02  0.00000000000E+00 0.  1.
</event>
<event>
 7    1  0.6152255E-013  0.5930194E+02  0.7816164E-02  0.1266605E+00
        -11   -1    0    0    0    0  0.00000000000E+00  0.00000000000E+00  0.45593999997E+02  0.45594000000E+02  0.51100000000E-03 0.  1.
         11   -1    0    0    0    0 -0.00000000000E+00 -0.00000000000E+00 -0.45593999997E+02  0.45594000000E+02  0.51100000000E-03 0. -1.
    9900012    2    1    2    0    0 -0.17079826909E+02 -0.26901291424E+02  0.11491500450E+01  0.59301944845E+02  0.50000001490E+02 0.  0.
        -12    1    1    2    0    0  0.17079826909E+02  0.26901291424E+02 -0.11491500450E+01  0.31886055155E+02  0.00000000000E+00 0.  1.
         11    1    3    3    0    0  0.82444403711E+01 -0.13935808741E+00 -0.24147687245E+01  0.85919337732E+01  0.51100000000E-03 0. -1.
        -11    1    3    3    0    0 -0.91075020988E+01 -0.60271371728E+00  0.15262605511E+02  0.17783615649E+02  0.51100000000E-03 0.  1.
         12    1    3    3    0    0 -0.16216765182E+02 -0.26159219619E+02 -0.11698686741E+02  0.32926395423E+02  0.00000000000E+00 0. -1.
</event>
<event>
 7    1  0.6152255E-013  0.5930193E+02  0.7816164E-02  0.1266605E+00
        -11   -1    0    0    0    0  0.00000000000E+00  0.00000000000E+00  0.45593999997E+02  0.45594000000E+02  0.51100000000E-03 0.  1.
         11   -1    0    0    0    0 -0.00000000000E+00 -0.00000000000E+00 -0.45593999997E+02  0.45594000000E+02  0.51100000000E-03 0. -1.
    9900012    2    1    2    0    0  0.45117148155E+01 -0.24671786146E+02 -0.19689302892E+02  0.59301933285E+02  0.49999980408E+02 0.  0.
        -12    1    1    2    0    0 -0.45117148155E+01  0.24671786146E+02  0.19689302892E+02  0.31886066715E+02  0.00000000000E+00 0.  1.
         11    1    3    3    0    0  0.17295969199E+01 -0.86296788420E+01  0.32706652080E+00  0.88073739100E+01  0.51100000000E-03 0. -1.
        -11    1    3    3    0    0  0.10345315815E+02 -0.81683662582E+01  0.11279723059E+02  0.17348772844E+02  0.51100000000E-03 0.  1.
         12    1    3    3    0    0 -0.75631979191E+01 -0.78737410454E+01 -0.31296092471E+02  0.33145786531E+02  0.00000000000E+00 0. -1.
</event>
<event>
 7    1  0.6152255E-013  0.5930197E+02  0.7816164E-02  0.1266605E+00
        -11   -1    0    0    0    0  0.00000000000E+00  0.00000000000E+00  0.45593999997E+02  0.45594000000E+02  0.51100000000E-03 0.  1.
         11   -1    0    0    0    0 -0.00000000000E+00 -0.00000000000E+00 -0.45593999997E+02  0.45594000000E+02  0.51100000000E-03 0. -1.
    9900012    2    1    2    0    0 -0.23039688015E+02  0.12050663858E+02 -0.18457330737E+02  0.59301972006E+02  0.50000051026E+02 0.  0.
        -12    1    1    2    0    0  0.23039688015E+02 -0.12050663858E+02  0.18457330737E+02  0.31886027994E+02  0.00000000000E+00 0.  1.
         11    1    3    3    0    0  0.70381304086E+01 -0.18389934154E+01  0.24628850458E+01  0.76800377238E+01  0.51100000000E-03 0. -1.
        -11    1    3    3    0    0 -0.31330898532E+02  0.13875510416E+02 -0.38226554710E+01  0.34478510514E+02  0.51100000000E-03 0.  1.
         12    1    3    3    0    0  0.12530801082E+01  0.14146857722E-01 -0.17097560312E+02  0.17143423769E+02  0.00000000000E+00 0. -1.
</event>
<event>
 7    1  0.6152255E-013  0.5930215E+02  0.7816164E-02  0.1266604E+00
        -11   -1    0    0    0    0  0.00000000000E+00  0.00000000000E+00  0.45593999997E+02  0.45594000000E+02  0.51100000000E-03 0.  1.
         11   -1    0    0    0    0 -0.00000000000E+00 -0.00000000000E+00 -0.45593999997E+02  0.45594000000E+02  0.51100000000E-03 0. -1.
    9900012    2    1    2    0    0  0.14011182700E+02  0.82008707914E+01 -0.27443391716E+02  0.59302152493E+02  0.50000380188E+02 0.  0.
        -12    1    1    2    0    0 -0.14011182700E+02 -0.82008707914E+01  0.27443391716E+02  0.31885847507E+02  0.00000000000E+00 0.  1.
         11    1    3    3    0    0 -0.12097068794E+02  0.61761563329E+01 -0.15757434030E+02  0.20803382127E+02  0.51100000000E-03 0. -1.
        -11    1    3    3    0    0  0.59586184329E+01 -0.25723602617E+01  0.77633703953E+01  0.10118897722E+02  0.51100000000E-03 0.  1.
         12    1    3    3    0    0  0.20149633061E+02  0.45970747202E+01 -0.19449328081E+02  0.28379872644E+02  0.00000000000E+00 0. -1.
</event>
<event>
 7    1  0.6152255E-013  0.5930197E+02  0.7816164E-02  0.1266605E+00
        -11   -1    0    0    0    0  0.00000000000E+00  0.00000000000E+00  0.45593999997E+02  0.45594000000E+02  0.51100000000E-03 0.  1.
         11   -1    0    0    0    0 -0.00000000000E+00 -0.00000000000E+00 -0.45593999997E+02  0.45594000000E+02  0.51100000000E-03 0. -1.
    9900012    2    1    2    0    0 -0.10695065519E+02 -0.16223578699E+02 -0.25281014019E+02  0.59301974815E+02  0.50000056149E+02 0.  0.
        -12    1    1    2    0    0  0.10695065519E+02  0.16223578699E+02  0.25281014019E+02  0.31886025185E+02  0.00000000000E+00 0.  1.
         11    1    3    3    0    0  0.10151200175E+01 -0.12668406117E+02 -0.10297596342E+02  0.16357245272E+02  0.51100000000E-03 0. -1.
        -11    1    3    3    0    0 -0.21720441464E+02 -0.13200415504E+02 -0.13978888622E+02  0.29007548574E+02  0.51100000000E-03 0.  1.
         12    1    3    3    0    0  0.10010255927E+02  0.96452429226E+01 -0.10045290555E+01  0.13937180970E+02  0.00000000000E+00 0. -1.
</event>
<event>
 7    1  0.6152255E-013  0.5930194E+02  0.7816164E-02  0.1266605E+00
        -11   -1    0    0    0    0  0.00000000000E+00  0.00000000000E+00  0.45593999997E+02  0.45594000000E+02  0.51100000000E-03 0.  1.
         11   -1    0    0    0    0 -0.00000000000E+00 -0.00000000000E+00 -0.45593999997E+02  0.45594000000E+02  0.51100000000E-03 0. -1.
    9900012    2    1    2    0    0 -0.52102603689E+01  0.21384136601E+02 -0.23071468933E+02  0.59301940507E+02  0.49999993579E+02 0.  0.
        -12    1    1    2    0    0  0.52102603689E+01 -0.21384136601E+02  0.23071468933E+02  0.31886059493E+02  0.00000000000E+00 0.  1.
         11    1    3    3    0    0 -0.66690045725E+01  0.11237688029E+02  0.21109006495E+00  0.13069269815E+02  0.51100000000E-03 0. -1.
        -11    1    3    3    0    0 -0.97945855853E+01  0.24481494568E+01  0.74925909182E+01  0.12572440554E+02  0.51100000000E-03 0.  1.
         12    1    3    3    0    0  0.11253329789E+02  0.76982991151E+01 -0.30775149916E+02  0.33660230138E+02  0.00000000000E+00 0. -1.
</event>
<event>
 7    1  0.6152255E-013  0.5930189E+02  0.7816164E-02  0.1266605E+00
        -11   -1    0    0    0    0  0.00000000000E+00  0.00000000000E+00  0.45593999997E+02  0.45594000000E+02  0.51100000000E-03 0.  1.
         11   -1    0    0    0    0 -0.00000000000E+00 -0.00000000000E+00 -0.45593999997E+02  0.45594000000E+02  0.51100000000E-03 0. -1.
    9900012    2    1    2    0    0  0.10621749282E+02 -0.27836710577E+02 -0.11358699950E+02  0.59301888947E+02  0.49999899545E+02 0.  0.
        -12    1    1    2    0    0 -0.10621749282E+02  0.27836710577E+02  0.11358699950E+02  0.31886111053E+02  0.00000000000E+00 0.  1.
         11    1    3    3    0    0  0.79769882241E+01  0.88698311225E+01 -0.47274199078E+01  0.12831786490E+02  0.51100000000E-03 0.  1.
        -11    1    3    3    0    0 -0.25698814542E+01 -0.64127853945E+01 -0.13325899645E+02  0.15010253456E+02  0.51100000000E-03 0. -1.
        -12    1    3    3    0    0  0.52146425123E+01 -0.30293756305E+02  0.66946196023E+01  0.31459849001E+02  0.00000000000E+00 0.  1.
</event>
<event>
 7    1  0.6152255E-013  0.5930195E+02  0.7816164E-02  0.1266605E+00
        -11   -1    0    0    0    0  0.00000000000E+00  0.00000000000E+00  0.45593999997E+02  0.45594000000E+02  0.51100000000E-03 0.  1.
         11   -1    0    0    0    0 -0.00000000000E+00 -0.00000000000E+00 -0.45593999997E+02  0.45594000000E+02  0.51100000000E-03 0. -1.
    9900012    2    1    2    0    0 -0.81494750910E+01  0.26684806666E+02 -0.15434606610E+02  0.59301953957E+02  0.50000018108E+02 0.  0.
        -12    1    1    2    0    0  0.81494750910E+01 -0.26684806666E+02  0.15434606610E+02  0.31886046043E+02  0.00000000000E+00 0.  1.
         11    1    3    3    0    0 -0.71879204815E+01  0.17841340678E+02  0.15272774610E+01  0.19295393614E+02  0.51100000000E-03 0.  1.
        -11    1    3    3    0    0 -0.42103843128E+01  0.22143023346E+02 -0.10325759422E+02  0.24792380420E+02  0.51100000000E-03 0. -1.
        -12    1    3    3    0    0  0.32488297032E+01 -0.13299557358E+02 -0.66361246484E+01  0.15214179922E+02  0.00000000000E+00 0.  1.
</event>
<event>
 7    1  0.6152255E-013  0.5930195E+02  0.7816164E-02  0.1266605E+00
        -11   -1    0    0    0    0  0.00000000000E+00  0.00000000000E+00  0.45593999997E+02  0.45594000000E+02  0.51100000000E-03 0.  1.
         11   -1    0    0    0    0 -0.00000000000E+00 -0.00000000000E+00 -0.45593999997E+02  0.45594000000E+02  0.51100000000E-03 0. -1.
    9900012    2    1    2    0    0 -0.29171117037E+02  0.12866515456E+02 -0.46775939949E+00  0.59301951515E+02  0.50000013655E+02 0.  0.
        -12    1    1    2    0    0  0.29171117037E+02 -0.12866515456E+02  0.46775939949E+00  0.31886048485E+02  0.00000000000E+00 0.  1.
         11    1    3    3    0    0  0.10255871957E+01  0.23412306361E+01  0.14958029372E+02  0.15174842106E+02  0.51100000000E-03 0.  1.
        -11    1    3    3    0    0 -0.15359183251E+02  0.16812827548E+01  0.60268039224E+01  0.16584739600E+02  0.51100000000E-03 0. -1.
         12    1    3    3    0    0 -0.14837520982E+02  0.88440020651E+01 -0.21452592694E+02  0.27542369809E+02  0.00000000000E+00 0. -1.
</event>
<event>
 7    1  0.6152255E-013  0.5930197E+02  0.7816164E-02  0.1266605E+00
        -11   -1    0    0    0    0  0.00000000000E+00  0.00000000000E+00  0.45593999997E+02  0.45594000000E+02  0.51100000000E-03 0.  1.
         11   -1    0    0    0    0 -0.00000000000E+00 -0.00000000000E+00 -0.45593999997E+02  0.45594000000E+02  0.51100000000E-03 0. -1.
    9900012    2    1    2    0    0 -0.18583128433E+02 -0.32849455660E+01 -0.25702050926E+02  0.59301969336E+02  0.50000046156E+02 0.  0.
        -12    1    1    2    0    0  0.18583128433E+02  0.32849455660E+01  0.25702050926E+02  0.31886030664E+02  0.00000000000E+00 0.  1.
         11    1    3    3    0    0  0.39222022751E+01  0.31712028385E+01 -0.51486613101E+01  0.72075593425E+01  0.51100000000E-03 0. -1.
        -11    1    3    3    0    0 -0.38340177041E+01  0.16950426198E+02 -0.38168174011E+01  0.17792828201E+02  0.51100000000E-03 0.  1.
         12    1    3    3    0    0 -0.18671313004E+02 -0.23406574603E+02 -0.16736572214E+02  0.34301581792E+02  0.00000000000E+00 0. -1.
</event>
<event>
 7    1  0.6152255E-013  0.5930195E+02  0.7816164E-02  0.1266605E+00
        -11   -1    0    0    0    0  0.00000000000E+00  0.00000000000E+00  0.45593999997E+02  0.45594000000E+02  0.51100000000E-03 0. -1.
         11   -1    0    0    0    0 -0.00000000000E+00 -0.00000000000E+00 -0.45593999997E+02  0.45594000000E+02  0.51100000000E-03 0.  1.
    9900012    2    1    2    0    0 -0.29834023295E+02 -0.25420478549E+01 -0.10963093044E+02  0.59301947213E+02  0.50000005810E+02 0.  0.
        -12    1    1    2    0    0  0.29834023295E+02  0.25420478549E+01  0.10963093044E+02  0.31886052787E+02  0.00000000000E+00 0.  1.
         11    1    3    3    0    0  0.14684883752E+01  0.65700604640E+01 -0.29940623979E+01  0.73679415384E+01  0.51100000000E-03 0. -1.
        -11    1    3    3    0    0 -0.47961359812E+01  0.46820379565E+01 -0.18949134478E+02  0.20099604412E+02  0.51100000000E-03 0.  1.
        -12    1    3    3    0    0 -0.26506375689E+02 -0.13794146275E+02  0.10980103832E+02  0.31834401263E+02  0.00000000000E+00 0.  1.
</event>
<event>
 7    1  0.6152255E-013  0.5930193E+02  0.7816164E-02  0.1266605E+00
        -11   -1    0    0    0    0  0.00000000000E+00  0.00000000000E+00  0.45593999997E+02  0.45594000000E+02  0.51100000000E-03 0.  1.
         11   -1    0    0    0    0 -0.00000000000E+00 -0.00000000000E+00 -0.45593999997E+02  0.45594000000E+02  0.51100000000E-03 0. -1.
    9900012    2    1    2    0    0  0.62283635218E-01 -0.30437456095E+02 -0.95015077806E+01  0.59301933091E+02  0.49999980055E+02 0.  0.
        -12    1    1    2    0    0 -0.62283635218E-01  0.30437456095E+02  0.95015077806E+01  0.31886066909E+02  0.00000000000E+00 0.  1.
         11    1    3    3    0    0 -0.93722650038E+01 -0.15087345649E+02 -0.44690540133E+01  0.18315015535E+02  0.51100000000E-03 0. -1.
        -11    1    3    3    0    0 -0.14916448492E+01  0.43447592903E+01 -0.15488615035E+02  0.16155467608E+02  0.51100000000E-03 0.  1.
        -12    1    3    3    0    0  0.10926193488E+02 -0.19694869737E+02  0.10456161268E+02  0.24831449948E+02  0.00000000000E+00 0.  1.
</event>
<event>
 7    1  0.6152255E-013  0.5930195E+02  0.7816164E-02  0.1266605E+00
        -11   -1    0    0    0    0  0.00000000000E+00  0.00000000000E+00  0.45593999997E+02  0.45594000000E+02  0.51100000000E-03 0.  1.
         11   -1    0    0    0    0 -0.00000000000E+00 -0.00000000000E+00 -0.45593999997E+02  0.45594000000E+02  0.51100000000E-03 0. -1.
    9900012    2    1    2    0    0  0.15661999742E+01  0.18099860198E+02 -0.26204235697E+02  0.59301954620E+02  0.50000019317E+02 0.  0.
        -12    1    1    2    0    0 -0.15661999742E+01 -0.18099860198E+02  0.26204235697E+02  0.31886045380E+02  0.00000000000E+00 0.  1.
         11    1    3    3    0    0  0.14804757494E+02  0.47396798039E+01 -0.16813491767E+01  0.15635611418E+02  0.51100000000E-03 0. -1.
        -11    1    3    3    0    0  0.21174192180E+01  0.84046158765E+01  0.50113335951E+01  0.10011717976E+02  0.51100000000E-03 0.  1.
         12    1    3    3    0    0 -0.15355976737E+02  0.49555645172E+01 -0.29534220115E+02  0.33654625226E+02  0.00000000000E+00 0. -1.
</event>
<event>
 7    1  0.6152255E-013  0.5930214E+02  0.7816164E-02  0.1266604E+00
        -11   -1    0    0    0    0  0.00000000000E+00  0.00000000000E+00  0.45593999997E+02  0.45594000000E+02  0.51100000000E-03 0.  1.
         11   -1    0    0    0    0 -0.00000000000E+00 -0.00000000000E+00 -0.45593999997E+02  0.45594000000E+02  0.51100000000E-03 0. -1.
    9900012    2    1    2    0    0 -0.17022323710E+02 -0.26067295009E+02  0.68880060219E+01  0.59302141057E+02  0.50000359334E+02 0.  0.
        -12    1    1    2    0    0  0.17022323710E+02  0.26067295009E+02 -0.68880060219E+01  0.31885858943E+02  0.00000000000E+00 0.  1.
         11    1    3    3    0    0 -0.10921957829E+02  0.83755234772E+01 -0.10908518921E+01  0.13806828544E+02  0.51100000000E-03 0. -1.
        -11    1    3    3    0    0  0.62305636772E+01 -0.17834976206E+02  0.14490781982E+02  0.23809432221E+02  0.51100000000E-03 0.  1.
        -12    1    3    3    0    0 -0.12330929558E+02 -0.16607842280E+02 -0.65119240679E+01  0.21685880292E+02  0.00000000000E+00 0.  1.
</event>
<event>
 7    1  0.6152255E-013  0.5930195E+02  0.7816164E-02  0.1266605E+00
        -11   -1    0    0    0    0  0.00000000000E+00  0.00000000000E+00  0.45593999997E+02  0.45594000000E+02  0.51100000000E-03 0.  1.
         11   -1    0    0    0    0 -0.00000000000E+00 -0.00000000000E+00 -0.45593999997E+02  0.45594000000E+02  0.51100000000E-03 0. -1.
    9900012    2    1    2    0    0  0.29250291890E+02  0.32499807011E+01 -0.12271033948E+02  0.59301949376E+02  0.50000009754E+02 0.  0.
        -12    1    1    2    0    0 -0.29250291890E+02 -0.32499807011E+01  0.12271033948E+02  0.31886050624E+02  0.00000000000E+00 0.  1.
         11    1    3    3    0    0  0.96784728429E+01  0.13451818446E+02 -0.24215672069E+02  0.29343193931E+02  0.51100000000E-03 0. -1.
        -11    1    3    3    0    0  0.66997306946E+01 -0.32174521514E+01 -0.38911360239E+01  0.83892389133E+01  0.51100000000E-03 0.  1.
        -12    1    3    3    0    0  0.12872088353E+02 -0.69843855932E+01  0.15835774144E+02  0.21569516532E+02  0.00000000000E+00 0.  1.
</event>
<event>
 7    1  0.6152255E-013  0.5930197E+02  0.7816164E-02  0.1266605E+00
        -11   -1    0    0    0    0  0.00000000000E+00  0.00000000000E+00  0.45593999997E+02  0.45594000000E+02  0.51100000000E-03 0.  1.
         11   -1    0    0    0    0 -0.00000000000E+00 -0.00000000000E+00 -0.45593999997E+02  0.45594000000E+02  0.51100000000E-03 0. -1.
    9900012    2    1    2    0    0 -0.92986799406E+01  0.18365808899E+02 -0.24350581787E+02  0.59301965149E+02  0.50000038519E+02 0.  0.
        -12    1    1    2    0    0  0.92986799406E+01 -0.18365808899E+02  0.24350581787E+02  0.31886034851E+02  0.00000000000E+00 0.  1.
         11    1    3    3    0    0  0.92066321104E+01 -0.24942674314E+01 -0.22595179339E+02  0.24526018316E+02  0.51100000000E-03 0. -1.
        -11    1    3    3    0    0 -0.12939749509E+02 -0.72339220875E-01 -0.21241299921E+01  0.13113133828E+02  0.51100000000E-03 0.  1.
         12    1    3    3    0    0 -0.55655625420E+01  0.20932415552E+02  0.36872754368E+00  0.21662813004E+02  0.00000000000E+00 0. -1.
</event>
<event>
 7    1  0.6152255E-013  0.5930190E+02  0.7816164E-02  0.1266605E+00
        -11   -1    0    0    0    0  0.00000000000E+00  0.00000000000E+00  0.45593999997E+02  0.45594000000E+02  0.51100000000E-03 0. -1.
         11   -1    0    0    0    0 -0.00000000000E+00 -0.00000000000E+00 -0.45593999997E+02  0.45594000000E+02  0.51100000000E-03 0.  1.
    9900012    2    1    2    0    0  0.80599477164E+01 -0.13582184378E+02  0.27699905238E+02  0.59301902091E+02  0.49999923518E+02 0.  0.
        -12    1    1    2    0    0 -0.80599477164E+01  0.13582184378E+02 -0.27699905238E+02  0.31886097909E+02  0.00000000000E+00 0.  1.
         11    1    3    3    0    0  0.45793356079E+01 -0.87150151535E+01  0.53888472473E+01  0.11223256152E+02  0.51100000000E-03 0. -1.
        -11    1    3    3    0    0  0.71965897377E+01  0.43822920926E+01 -0.10686312124E+02  0.13608550801E+02  0.51100000000E-03 0.  1.
         12    1    3    3    0    0 -0.37159776292E+01 -0.92494613169E+01  0.32997370114E+02  0.34470095138E+02  0.00000000000E+00 0. -1.
</event>
<event>
 7    1  0.6152255E-013  0.5930193E+02  0.7816164E-02  0.1266605E+00
        -11   -1    0    0    0    0  0.00000000000E+00  0.00000000000E+00  0.45593999997E+02  0.45594000000E+02  0.51100000000E-03 0. -1.
         11   -1    0    0    0    0 -0.00000000000E+00 -0.00000000000E+00 -0.45593999997E+02  0.45594000000E+02  0.51100000000E-03 0.  1.
    9900012    2    1    2    0    0  0.11745339323E+02  0.11742263598E+02  0.27219253392E+02  0.59301929288E+02  0.49999973119E+02 0.  0.
        -12    1    1    2    0    0 -0.11745339323E+02 -0.11742263598E+02 -0.27219253392E+02  0.31886070712E+02  0.00000000000E+00 0.  1.
         11    1    3    3    0    0 -0.15943647765E+01  0.11196805997E+01 -0.78212056117E+01  0.80602072658E+01  0.51100000000E-03 0.  1.
        -11    1    3    3    0    0 -0.47430664960E+01  0.40276760487E+01  0.30943173680E+02  0.31562617949E+02  0.51100000000E-03 0. -1.
         12    1    3    3    0    0  0.18082770596E+02  0.65949069499E+01  0.40972853232E+01  0.19679104073E+02  0.00000000000E+00 0. -1.
</event>
<event>
 7    1  0.6152255E-013  0.5930194E+02  0.7816164E-02  0.1266605E+00
        -11   -1    0    0    0    0  0.00000000000E+00  0.00000000000E+00  0.45593999997E+02  0.45594000000E+02  0.51100000000E-03 0. -1.
         11   -1    0    0    0    0 -0.00000000000E+00 -0.00000000000E+00 -0.45593999997E+02  0.45594000000E+02  0.51100000000E-03 0.  1.
    9900012    2    1    2    0    0 -0.19423961276E+02  0.25279808659E+02  0.60135158934E+00  0.59301943153E+02  0.49999998405E+02 0.  0.
        -12    1    1    2    0    0  0.19423961276E+02 -0.25279808659E+02 -0.60135158934E+00  0.31886056847E+02  0.00000000000E+00 0.  1.
         11    1    3    3    0    0 -0.53266005881E+01  0.24070928884E+02 -0.20009792350E+01  0.24734312388E+02  0.51100000000E-03 0. -1.
        -11    1    3    3    0    0  0.64665850985E+01 -0.51909261174E+01 -0.71279179210E+01  0.10934790850E+02  0.51100000000E-03 0.  1.
         12    1    3    3    0    0 -0.20563945787E+02  0.63998058929E+01  0.97302487453E+01  0.23632839915E+02  0.00000000000E+00 0. -1.
</event>
<event>
 7    1  0.6152255E-013  0.5930201E+02  0.7816164E-02  0.1266605E+00
        -11   -1    0    0    0    0  0.00000000000E+00  0.00000000000E+00  0.45593999997E+02  0.45594000000E+02  0.51100000000E-03 0.  1.
         11   -1    0    0    0    0 -0.00000000000E+00 -0.00000000000E+00 -0.45593999997E+02  0.45594000000E+02  0.51100000000E-03 0. -1.
    9900012    2    1    2    0    0 -0.45195655832E+01 -0.28508839434E+02 -0.13547547134E+02  0.59302008840E+02  0.50000118201E+02 0.  0.
        -12    1    1    2    0    0  0.45195655832E+01  0.28508839434E+02  0.13547547134E+02  0.31885991160E+02  0.00000000000E+00 0.  1.
         11    1    3    3    0    0  0.60314942585E+01  0.53249103557E+01 -0.29244558941E+01  0.85607263608E+01  0.51100000000E-03 0. -1.
        -11    1    3    3    0    0 -0.26647240395E+01  0.58167129817E+01  0.42322495046E+01  0.76711694186E+01  0.51100000000E-03 0.  1.
        -12    1    3    3    0    0 -0.78863358022E+01 -0.39650462771E+02 -0.14855340745E+02  0.43070113060E+02  0.00000000000E+00 0.  1.
</event>
<event>
 7    1  0.6152255E-013  0.5930191E+02  0.7816164E-02  0.1266605E+00
        -11   -1    0    0    0    0  0.00000000000E+00  0.00000000000E+00  0.45593999997E+02  0.45594000000E+02  0.51100000000E-03 0. -1.
         11   -1    0    0    0    0 -0.00000000000E+00 -0.00000000000E+00 -0.45593999997E+02  0.45594000000E+02  0.51100000000E-03 0.  1.
    9900012    2    1    2    0    0  0.22119752312E+02  0.20660159540E+02 -0.10029797896E+02  0.59301914000E+02  0.49999945237E+02 0.  0.
        -12    1    1    2    0    0 -0.22119752312E+02 -0.20660159540E+02  0.10029797896E+02  0.31886086000E+02  0.00000000000E+00 0.  1.
         11    1    3    3    0    0  0.49062797879E+01  0.18235262162E+01  0.53726604613E+01  0.75008206159E+01  0.51100000000E-03 0. -1.
        -11    1    3    3    0    0  0.20690551722E+02 -0.63606879534E+01  0.76853734569E+00  0.21659822984E+02  0.51100000000E-03 0.  1.
         12    1    3    3    0    0 -0.34770791981E+01  0.25197321277E+02 -0.16170995703E+02  0.30141270400E+02  0.00000000000E+00 0. -1.
</event>
<event>
 7    1  0.6152255E-013  0.5930190E+02  0.7816164E-02  0.1266605E+00
        -11   -1    0    0    0    0  0.00000000000E+00  0.00000000000E+00  0.45593999997E+02  0.45594000000E+02  0.51100000000E-03 0. -1.
         11   -1    0    0    0    0 -0.00000000000E+00 -0.00000000000E+00 -0.45593999997E+02  0.45594000000E+02  0.51100000000E-03 0.  1.
    9900012    2    1    2    0    0  0.10156147454E+02  0.88594352291E+01  0.28897860805E+02  0.59301901418E+02  0.49999922290E+02 0.  0.
        -12    1    1    2    0    0 -0.10156147454E+02 -0.88594352291E+01 -0.28897860805E+02  0.31886098582E+02  0.00000000000E+00 0.  1.
         11    1    3    3    0    0  0.25786723658E+01  0.19945890549E+01  0.81392484791E+01  0.87678562222E+01  0.51100000000E-03 0. -1.
        -11    1    3    3    0    0 -0.92737263920E+01 -0.25483248015E+01  0.28240023524E+02  0.29832782126E+02  0.51100000000E-03 0.  1.
         12    1    3    3    0    0  0.16851201481E+02  0.94131709758E+01 -0.74814111986E+01  0.20701263070E+02  0.00000000000E+00 0. -1.
</event>
<event>
 7    1  0.6152255E-013  0.5930194E+02  0.7816164E-02  0.1266605E+00
        -11   -1    0    0    0    0  0.00000000000E+00  0.00000000000E+00  0.45593999997E+02  0.45594000000E+02  0.51100000000E-03 0. -1.
         11   -1    0    0    0    0 -0.00000000000E+00 -0.00000000000E+00 -0.45593999997E+02  0.45594000000E+02  0.51100000000E-03 0.  1.
    9900012    2    1    2    0    0 -0.13884379969E+02 -0.92282433417E+01  0.27180583019E+02  0.59301943870E+02  0.49999999712E+02 0.  0.
        -12    1    1    2    0    0  0.13884379969E+02  0.92282433417E+01 -0.27180583019E+02  0.31886056130E+02  0.00000000000E+00 0.  1.
         11    1    3    3    0    0 -0.57786595886E+01 -0.15635017453E+02  0.31617288313E+02  0.35742126376E+02  0.51100000000E-03 0. -1.
        -11    1    3    3    0    0 -0.94707784219E+01 -0.55137706018E+01 -0.65058984528E+00  0.10978186443E+02  0.51100000000E-03 0.  1.
         12    1    3    3    0    0  0.13650580416E+01  0.11920544713E+02 -0.37861154489E+01  0.12581631051E+02  0.00000000000E+00 0. -1.
</event>
<event>
 7    1  0.6152255E-013  0.5930193E+02  0.7816164E-02  0.1266605E+00
        -11   -1    0    0    0    0  0.00000000000E+00  0.00000000000E+00  0.45593999997E+02  0.45594000000E+02  0.51100000000E-03 0. -1.
         11   -1    0    0    0    0 -0.00000000000E+00 -0.00000000000E+00 -0.45593999997E+02  0.45594000000E+02  0.51100000000E-03 0.  1.
    9900012    2    1    2    0    0  0.23530865033E+02 -0.18793606637E+02 -0.10479503948E+02  0.59301933096E+02  0.49999980063E+02 0.  0.
        -12    1    1    2    0    0 -0.23530865033E+02  0.18793606637E+02  0.10479503948E+02  0.31886066904E+02  0.00000000000E+00 0.  1.
         11    1    3    3    0    0  0.16923625757E+02  0.22132303738E+01 -0.12876855776E+02  0.21380386161E+02  0.51100000000E-03 0. -1.
        -11    1    3    3    0    0  0.16960667687E+02 -0.89159850099E+01 -0.57958087499E+01  0.20018752119E+02  0.51100000000E-03 0.  1.
        -12    1    3    3    0    0 -0.10353428410E+02 -0.12090852001E+02  0.81931605784E+01  0.17902794816E+02  0.00000000000E+00 0.  1.
</event>
<event>
 7    1  0.6152255E-013  0.5930198E+02  0.7816164E-02  0.1266605E+00
        -11   -1    0    0    0    0  0.00000000000E+00  0.00000000000E+00  0.45593999997E+02  0.45594000000E+02  0.51100000000E-03 0. -1.
         11   -1    0    0    0    0 -0.00000000000E+00 -0.00000000000E+00 -0.45593999997E+02  0.45594000000E+02  0.51100000000E-03 0.  1.
    9900012    2    1    2    0    0  0.16771959665E+02 -0.63458927471E+01  0.26365689304E+02  0.59301975503E+02  0.50000057403E+02 0.  0.
        -12    1    1    2    0    0 -0.16771959665E+02  0.63458927471E+01 -0.26365689304E+02  0.31886024497E+02  0.00000000000E+00 0.  1.
         11    1    3    3    0    0  0.21724800928E+02  0.69062783181E+01  0.28033112236E+02  0.36131966975E+02  0.51100000000E-03 0. -1.
        -11    1    3    3    0    0  0.60309513788E+01 -0.11414490017E+01  0.19200763925E+01  0.64313275434E+01  0.51100000000E-03 0.  1.
        -12    1    3    3    0    0 -0.10983792642E+02 -0.12110722064E+02 -0.35874993246E+01  0.16738680985E+02  0.00000000000E+00 0.  1.
</event>
<event>
 7    1  0.6152255E-013  0.5930192E+02  0.7816164E-02  0.1266605E+00
        -11   -1    0    0    0    0  0.00000000000E+00  0.00000000000E+00  0.45593999997E+02  0.45594000000E+02  0.51100000000E-03 0. -1.
         11   -1    0    0    0    0 -0.00000000000E+00 -0.00000000000E+00 -0.45593999997E+02  0.45594000000E+02  0.51100000000E-03 0.  1.
    9900012    2    1    2    0    0 -0.51788178777E+01 -0.31111494595E+02 -0.46879246366E+01  0.59301923290E+02  0.49999962180E+02 0.  0.
        -12    1    1    2    0    0  0.51788178777E+01  0.31111494595E+02  0.46879246366E+01  0.31886076710E+02  0.00000000000E+00 0.  1.
         11    1    3    3    0    0 -0.75865911177E+01 -0.37136979995E+02  0.78001805459E+01  0.38698248859E+02  0.51100000000E-03 0. -1.
        -11    1    3    3    0    0 -0.22267594080E+01  0.29097065664E+01  0.26148117690E+01  0.45013432009E+01  0.51100000000E-03 0.  1.
         12    1    3    3    0    0  0.46345326480E+01  0.31157788339E+01 -0.15102916952E+02  0.16102331230E+02  0.00000000000E+00 0. -1.
</event>
<event>
 7    1  0.6152255E-013  0.5930195E+02  0.7816164E-02  0.1266605E+00
        -11   -1    0    0    0    0  0.00000000000E+00  0.00000000000E+00  0.45593999997E+02  0.45594000000E+02  0.51100000000E-03 0.  1.
         11   -1    0    0    0    0 -0.00000000000E+00 -0.00000000000E+00 -0.45593999997E+02  0.45594000000E+02  0.51100000000E-03 0. -1.
    9900012    2    1    2    0    0 -0.16999849969E+02  0.88378095304E+01 -0.25487610885E+02  0.59301951564E+02  0.50000013744E+02 0.  0.
        -12    1    1    2    0    0  0.16999849969E+02 -0.88378095304E+01  0.25487610885E+02  0.31886048436E+02  0.00000000000E+00 0.  1.
         11    1    3    3    0    0  0.31616417259E+01  0.89421118635E+01 -0.90073118755E+01  0.13080099788E+02  0.51100000000E-03 0. -1.
        -11    1    3    3    0    0  0.26889023735E+01  0.11027625762E+02  0.55048916752E+01  0.12615171760E+02  0.51100000000E-03 0.  1.
        -12    1    3    3    0    0 -0.22850394068E+02 -0.11131928095E+02 -0.21985190685E+02  0.33606680015E+02  0.00000000000E+00 0.  1.
</event>
<event>
 7    1  0.6152255E-013  0.5930194E+02  0.7816164E-02  0.1266605E+00
        -11   -1    0    0    0    0  0.00000000000E+00  0.00000000000E+00  0.45593999997E+02  0.45594000000E+02  0.51100000000E-03 0. -1.
         11   -1    0    0    0    0 -0.00000000000E+00 -0.00000000000E+00 -0.45593999997E+02  0.45594000000E+02  0.51100000000E-03 0.  1.
    9900012    2    1    2    0    0 -0.43021417821E+01 -0.26389203010E+02  0.17373038007E+02  0.59301938641E+02  0.49999990176E+02 0.  0.
        -12    1    1    2    0    0  0.43021417821E+01  0.26389203010E+02 -0.17373038007E+02  0.31886061359E+02  0.00000000000E+00 0.  1.
         11    1    3    3    0    0 -0.14601365970E+02  0.56575642698E+01  0.92905544672E+01  0.18207754508E+02  0.51100000000E-03 0. -1.
        -11    1    3    3    0    0  0.20610798504E+01  0.32160704085E+01  0.21972604150E+01  0.44067122228E+01  0.51100000000E-03 0.  1.
         12    1    3    3    0    0  0.82381443372E+01 -0.35262837688E+02  0.58852231246E+01  0.36687471910E+02  0.00000000000E+00 0. -1.
</event>
<event>
 7    1  0.6152255E-013  0.5930192E+02  0.7816164E-02  0.1266605E+00
        -11   -1    0    0    0    0  0.00000000000E+00  0.00000000000E+00  0.45593999997E+02  0.45594000000E+02  0.51100000000E-03 0.  1.
         11   -1    0    0    0    0 -0.00000000000E+00 -0.00000000000E+00 -0.45593999997E+02  0.45594000000E+02  0.51100000000E-03 0. -1.
    9900012    2    1    2    0    0 -0.18866784461E+02 -0.10011225261E+02 -0.23675765237E+02  0.59301920801E+02  0.49999957640E+02 0.  0.
        -12    1    1    2    0    0  0.18866784461E+02  0.10011225261E+02  0.23675765237E+02  0.31886079199E+02  0.00000000000E+00 0.  1.
         11    1    3    3    0    0 -0.28885091618E+02 -0.15766454231E+02 -0.12952736461E+02  0.35365279285E+02  0.51100000000E-03 0. -1.
        -11    1    3    3    0    0  0.15519728041E+01 -0.44225607586E+00  0.48766397080E+01  0.51367134555E+01  0.51100000000E-03 0.  1.
        -12    1    3    3    0    0  0.84663343536E+01  0.61974850457E+01 -0.15599668484E+02  0.18799928061E+02  0.00000000000E+00 0.  1.
</event>
<event>
 7    1  0.6152255E-013  0.5930193E+02  0.7816164E-02  0.1266605E+00
        -11   -1    0    0    0    0  0.00000000000E+00  0.00000000000E+00  0.45593999997E+02  0.45594000000E+02  0.51100000000E-03 0.  1.
         11   -1    0    0    0    0 -0.00000000000E+00 -0.00000000000E+00 -0.45593999997E+02  0.45594000000E+02  0.51100000000E-03 0. -1.
    9900012    2    1    2    0    0  0.18267701863E+02 -0.26008566076E+02 -0.25626147970E+01  0.59301930388E+02  0.49999975125E+02 0.  0.
        -12    1    1    2    0    0 -0.18267701863E+02  0.26008566076E+02  0.25626147970E+01  0.31886069612E+02  0.00000000000E+00 0.  1.
         11    1    3    3    0    0 -0.11054754369E+00 -0.11810501741E+02 -0.23896679921E+01  0.12050339643E+02  0.51100000000E-03 0. -1.
        -11    1    3    3    0    0  0.15586046665E+02  0.52159160069E+01 -0.15321089792E+02  0.22469232811E+02  0.51100000000E-03 0.  1.
         12    1    3    3    0    0  0.27922027422E+01 -0.19413980341E+02  0.15148142987E+02  0.24782357935E+02  0.00000000000E+00 0. -1.
</event>
<event>
 7    1  0.6152255E-013  0.5930194E+02  0.7816164E-02  0.1266605E+00
        -11   -1    0    0    0    0  0.00000000000E+00  0.00000000000E+00  0.45593999997E+02  0.45594000000E+02  0.51100000000E-03 0.  1.
         11   -1    0    0    0    0 -0.00000000000E+00 -0.00000000000E+00 -0.45593999997E+02  0.45594000000E+02  0.51100000000E-03 0. -1.
    9900012    2    1    2    0    0 -0.30612381433E+02  0.89216722102E+01  0.82222304335E-01  0.59301938899E+02  0.49999990646E+02 0.  0.
        -12    1    1    2    0    0  0.30612381433E+02 -0.89216722102E+01 -0.82222304335E-01  0.31886061101E+02  0.00000000000E+00 0.  1.
         11    1    3    3    0    0 -0.12704094831E+02 -0.51940294600E+00  0.21664870903E+02  0.25120319194E+02  0.51100000000E-03 0. -1.
        -11    1    3    3    0    0 -0.72182409673E+01  0.34563210008E+01  0.14122133622E+01  0.81267154721E+01  0.51100000000E-03 0.  1.
        -12    1    3    3    0    0 -0.10690045635E+02  0.59847541554E+01 -0.22994861961E+02  0.26054904233E+02  0.00000000000E+00 0.  1.
</event>
<event>
 7    1  0.6152255E-013  0.5930194E+02  0.7816164E-02  0.1266605E+00
        -11   -1    0    0    0    0  0.00000000000E+00  0.00000000000E+00  0.45593999997E+02  0.45594000000E+02  0.51100000000E-03 0. -1.
         11   -1    0    0    0    0 -0.00000000000E+00 -0.00000000000E+00 -0.45593999997E+02  0.45594000000E+02  0.51100000000E-03 0.  1.
    9900012    2    1    2    0    0 -0.29696766755E+02  0.14285835708E+01  0.11523118540E+02  0.59301936154E+02  0.49999985641E+02 0.  0.
        -12    1    1    2    0    0  0.29696766755E+02 -0.14285835708E+01 -0.11523118540E+02  0.31886063846E+02  0.00000000000E+00 0.  1.
         11    1    3    3    0    0 -0.72078054952E+01  0.16894238509E+01  0.23793548676E+02  0.24918659111E+02  0.51100000000E-03 0. -1.
        -11    1    3    3    0    0 -0.99985985561E+01  0.11020904670E+02 -0.30425346298E+01  0.15188460424E+02  0.51100000000E-03 0.  1.
        -12    1    3    3    0    0 -0.12490362703E+02 -0.11281744950E+02 -0.92278955065E+01  0.19194816619E+02  0.00000000000E+00 0.  1.
</event>
<event>
 7    1  0.6152255E-013  0.5930193E+02  0.7816164E-02  0.1266605E+00
        -11   -1    0    0    0    0  0.00000000000E+00  0.00000000000E+00  0.45593999997E+02  0.45594000000E+02  0.51100000000E-03 0.  1.
         11   -1    0    0    0    0 -0.00000000000E+00 -0.00000000000E+00 -0.45593999997E+02  0.45594000000E+02  0.51100000000E-03 0. -1.
    9900012    2    1    2    0    0  0.29817979247E+02 -0.10912921913E+02  0.29185484425E+01  0.59301926612E+02  0.49999968238E+02 0.  0.
        -12    1    1    2    0    0 -0.29817979247E+02  0.10912921913E+02 -0.29185484425E+01  0.31886073388E+02  0.00000000000E+00 0.  1.
         11    1    3    3    0    0  0.30570043996E+02 -0.61952461005E+01  0.10288666484E+01  0.31208448071E+02  0.51100000000E-03 0. -1.
        -11    1    3    3    0    0  0.12306734679E+02  0.29785591923E+01 -0.84736055434E+00  0.12690372472E+02  0.51100000000E-03 0.  1.
        -12    1    3    3    0    0 -0.13058799428E+02 -0.76962350051E+01  0.27370423484E+01  0.15403106069E+02  0.00000000000E+00 0.  1.
</event>
<event>
 7    1  0.6152255E-013  0.5930174E+02  0.7816164E-02  0.1266605E+00
        -11   -1    0    0    0    0  0.00000000000E+00  0.00000000000E+00  0.45593999997E+02  0.45594000000E+02  0.51100000000E-03 0. -1.
         11   -1    0    0    0    0 -0.00000000000E+00 -0.00000000000E+00 -0.45593999997E+02  0.45594000000E+02  0.51100000000E-03 0.  1.
    9900012    2    1    2    0    0  0.11682254690E+02 -0.16353732509E+02  0.24755076583E+02  0.59301741859E+02  0.49999631291E+02 0.  0.
        -12    1    1    2    0    0 -0.11682254690E+02  0.16353732509E+02 -0.24755076583E+02  0.31886258141E+02  0.00000000000E+00 0.  1.
         11    1    3    3    0    0  0.55027606077E+01 -0.16669928248E+02  0.69176427504E+01  0.18868509840E+02  0.51100000000E-03 0. -1.
        -11    1    3    3    0    0 -0.11697421969E+02 -0.90300401504E+01  0.13016160567E+02  0.19692428546E+02  0.51100000000E-03 0.  1.
         12    1    3    3    0    0  0.17876916052E+02  0.93462358895E+01  0.48212732654E+01  0.20740803473E+02  0.00000000000E+00 0. -1.
</event>
<event>
 7    1  0.6152255E-013  0.5930198E+02  0.7816164E-02  0.1266605E+00
        -11   -1    0    0    0    0  0.00000000000E+00  0.00000000000E+00  0.45593999997E+02  0.45594000000E+02  0.51100000000E-03 0. -1.
         11   -1    0    0    0    0 -0.00000000000E+00 -0.00000000000E+00 -0.45593999997E+02  0.45594000000E+02  0.51100000000E-03 0.  1.
    9900012    2    1    2    0    0  0.62625628008E+00  0.58561340021E+01  0.31337386920E+02  0.59301979218E+02  0.50000064178E+02 0.  0.
        -12    1    1    2    0    0 -0.62625628008E+00 -0.58561340021E+01 -0.31337386920E+02  0.31886020782E+02  0.00000000000E+00 0.  1.
         11    1    3    3    0    0 -0.63054473854E+01 -0.58665706011E+01  0.19597613074E+02  0.21406582067E+02  0.51100000000E-03 0. -1.
        -11    1    3    3    0    0  0.68283095648E+01 -0.92707614532E+01 -0.34074722113E+01  0.12007651584E+02  0.51100000000E-03 0.  1.
         12    1    3    3    0    0  0.10339410070E+00  0.20993466056E+02  0.15147246057E+02  0.25887745567E+02  0.00000000000E+00 0. -1.
</event>
<event>
 7    1  0.6152255E-013  0.5930188E+02  0.7816164E-02  0.1266605E+00
        -11   -1    0    0    0    0  0.00000000000E+00  0.00000000000E+00  0.45593999997E+02  0.45594000000E+02  0.51100000000E-03 0. -1.
         11   -1    0    0    0    0 -0.00000000000E+00 -0.00000000000E+00 -0.45593999997E+02  0.45594000000E+02  0.51100000000E-03 0.  1.
    9900012    2    1    2    0    0 -0.10288690967E+02  0.28668220300E+02  0.94340100331E+01  0.59301881354E+02  0.49999885698E+02 0.  0.
        -12    1    1    2    0    0  0.10288690967E+02 -0.28668220300E+02 -0.94340100331E+01  0.31886118646E+02  0.00000000000E+00 0.  1.
         11    1    3    3    0    0 -0.85548179159E+01  0.71201628065E+01  0.80070697444E+01  0.13711119361E+02  0.51100000000E-03 0. -1.
        -11    1    3    3    0    0 -0.57677069274E+01 -0.11039321181E+02  0.26412876885E+01  0.12732221183E+02  0.51100000000E-03 0.  1.
        -12    1    3    3    0    0  0.40338338760E+01  0.32587378674E+02 -0.12143473998E+01  0.32858540811E+02  0.00000000000E+00 0.  1.
</event>
<event>
 7    1  0.6152255E-013  0.5930196E+02  0.7816164E-02  0.1266605E+00
        -11   -1    0    0    0    0  0.00000000000E+00  0.00000000000E+00  0.45593999997E+02  0.45594000000E+02  0.51100000000E-03 0. -1.
         11   -1    0    0    0    0 -0.00000000000E+00 -0.00000000000E+00 -0.45593999997E+02  0.45594000000E+02  0.51100000000E-03 0.  1.
    9900012    2    1    2    0    0 -0.20472046664E+02  0.21143739852E+02  0.12270181179E+02  0.59301956412E+02  0.50000022585E+02 0.  0.
        -12    1    1    2    0    0  0.20472046664E+02 -0.21143739852E+02 -0.12270181179E+02  0.31886043588E+02  0.00000000000E+00 0.  1.
         11    1    3    3    0    0 -0.33274527747E+01  0.28572087450E+02  0.10099916152E+02  0.30486791070E+02  0.51100000000E-03 0. -1.
        -11    1    3    3    0    0 -0.79975524254E+01  0.76509034462E+01  0.20941651351E+00  0.11069824925E+02  0.51100000000E-03 0.  1.
         12    1    3    3    0    0 -0.91470414640E+01 -0.15079251044E+02  0.19608485136E+01  0.17745340416E+02  0.00000000000E+00 0. -1.
</event>
<event>
 7    1  0.6152255E-013  0.5930186E+02  0.7816164E-02  0.1266605E+00
        -11   -1    0    0    0    0  0.00000000000E+00  0.00000000000E+00  0.45593999997E+02  0.45594000000E+02  0.51100000000E-03 0. -1.
         11   -1    0    0    0    0 -0.00000000000E+00 -0.00000000000E+00 -0.45593999997E+02  0.45594000000E+02  0.51100000000E-03 0.  1.
    9900012    2    1    2    0    0  0.11242161626E+02  0.26747460222E+02  0.13225462462E+02  0.59301863770E+02  0.49999853629E+02 0.  0.
        -12    1    1    2    0    0 -0.11242161626E+02 -0.26747460222E+02 -0.13225462462E+02  0.31886136230E+02  0.00000000000E+00 0.  1.
         11    1    3    3    0    0  0.39532003718E+01  0.38245303679E+01 -0.38545099303E+00  0.55139276785E+01  0.51100000000E-03 0. -1.
        -11    1    3    3    0    0 -0.10359462873E+02 -0.81770998903E+01 -0.41854277003E+01  0.13845621652E+02  0.51100000000E-03 0.  1.
         12    1    3    3    0    0  0.17648424127E+02  0.31100029744E+02  0.17796341155E+02  0.39942314439E+02  0.00000000000E+00 0. -1.
</event>
<event>
 7    1  0.6152255E-013  0.5930201E+02  0.7816164E-02  0.1266605E+00
        -11   -1    0    0    0    0  0.00000000000E+00  0.00000000000E+00  0.45593999997E+02  0.45594000000E+02  0.51100000000E-03 0. -1.
         11   -1    0    0    0    0 -0.00000000000E+00 -0.00000000000E+00 -0.45593999997E+02  0.45594000000E+02  0.51100000000E-03 0.  1.
    9900012    2    1    2    0    0 -0.92110309386E+01  0.23019849656E+02  0.20048934683E+02  0.59302010113E+02  0.50000120523E+02 0.  0.
        -12    1    1    2    0    0  0.92110309386E+01 -0.23019849656E+02 -0.20048934683E+02  0.31885989887E+02  0.00000000000E+00 0.  1.
         11    1    3    3    0    0 -0.15418060493E+02  0.22031076446E+02 -0.47741099622E+01  0.27310749622E+02  0.51100000000E-03 0. -1.
        -11    1    3    3    0    0  0.80868567119E+01 -0.16206533700E+01  0.14208814376E+01  0.83691500850E+01  0.51100000000E-03 0.  1.
        -12    1    3    3    0    0 -0.18798271576E+01  0.26094265802E+01  0.23402163208E+02  0.23622110406E+02  0.00000000000E+00 0.  1.
</event>
<event>
 7    1  0.6152255E-013  0.5930193E+02  0.7816164E-02  0.1266605E+00
        -11   -1    0    0    0    0  0.00000000000E+00  0.00000000000E+00  0.45593999997E+02  0.45594000000E+02  0.51100000000E-03 0.  1.
         11   -1    0    0    0    0 -0.00000000000E+00 -0.00000000000E+00 -0.45593999997E+02  0.45594000000E+02  0.51100000000E-03 0. -1.
    9900012    2    1    2    0    0  0.54377042038E+01 -0.12776811581E+02 -0.28703766870E+02  0.59301925082E+02  0.49999965447E+02 0.  0.
        -12    1    1    2    0    0 -0.54377042038E+01  0.12776811581E+02  0.28703766870E+02  0.31886074918E+02  0.00000000000E+00 0.  1.
         11    1    3    3    0    0  0.17052663664E+01  0.10501098253E+02  0.16395032770E+01  0.10764244941E+02  0.51100000000E-03 0. -1.
        -11    1    3    3    0    0  0.71731802434E+01  0.63828765422E-01  0.29294756959E+01  0.77485751613E+01  0.51100000000E-03 0.  1.
         12    1    3    3    0    0 -0.34407424060E+01 -0.23341738599E+02 -0.33272745843E+02  0.40789104980E+02  0.00000000000E+00 0. -1.
</event>
<event>
 7    1  0.6152255E-013  0.5930195E+02  0.7816164E-02  0.1266605E+00
        -11   -1    0    0    0    0  0.00000000000E+00  0.00000000000E+00  0.45593999997E+02  0.45594000000E+02  0.51100000000E-03 0. -1.
         11   -1    0    0    0    0 -0.00000000000E+00 -0.00000000000E+00 -0.45593999997E+02  0.45594000000E+02  0.51100000000E-03 0.  1.
    9900012    2    1    2    0    0 -0.19902021256E+02  0.24878137598E+02 -0.13069877215E+01  0.59301946665E+02  0.50000004809E+02 0.  0.
        -12    1    1    2    0    0  0.19902021256E+02 -0.24878137598E+02  0.13069877215E+01  0.31886053335E+02  0.00000000000E+00 0.  1.
         11    1    3    3    0    0 -0.10186978128E+02  0.13783119812E+02 -0.59037458354E+01  0.18127413778E+02  0.51100000000E-03 0.  1.
        -11    1    3    3    0    0 -0.21934155851E+02  0.10135054319E+02 -0.60843592966E+01  0.24916780435E+02  0.51100000000E-03 0. -1.
         12    1    3    3    0    0  0.12219112724E+02  0.95996346671E+00  0.10681117410E+02  0.16257752451E+02  0.00000000000E+00 0. -1.
</event>
<event>
 7    1  0.6152255E-013  0.5930191E+02  0.7816164E-02  0.1266605E+00
        -11   -1    0    0    0    0  0.00000000000E+00  0.00000000000E+00  0.45593999997E+02  0.45594000000E+02  0.51100000000E-03 0. -1.
         11   -1    0    0    0    0 -0.00000000000E+00 -0.00000000000E+00 -0.45593999997E+02  0.45594000000E+02  0.51100000000E-03 0.  1.
    9900012    2    1    2    0    0  0.71524622190E+01  0.27036338216E+02  0.15316711139E+02  0.59301906792E+02  0.49999932091E+02 0.  0.
        -12    1    1    2    0    0 -0.71524622190E+01 -0.27036338216E+02 -0.15316711139E+02  0.31886093208E+02  0.00000000000E+00 0.  1.
         11    1    3    3    0    0 -0.17969693555E+00  0.22033275237E+00  0.12499952576E+02  0.12503185681E+02  0.51100000000E-03 0. -1.
        -11    1    3    3    0    0 -0.12764964182E+02  0.15161014465E+01  0.62731921088E+01  0.14303699300E+02  0.51100000000E-03 0.  1.
         12    1    3    3    0    0  0.20097123337E+02  0.25299904018E+02 -0.34564335455E+01  0.32495021812E+02  0.00000000000E+00 0. -1.
</event>
<event>
 7    1  0.6152255E-013  0.5930193E+02  0.7816164E-02  0.1266605E+00
        -11   -1    0    0    0    0  0.00000000000E+00  0.00000000000E+00  0.45593999997E+02  0.45594000000E+02  0.51100000000E-03 0.  1.
         11   -1    0    0    0    0 -0.00000000000E+00 -0.00000000000E+00 -0.45593999997E+02  0.45594000000E+02  0.51100000000E-03 0. -1.
    9900012    2    1    2    0    0  0.31064705979E+02 -0.50813011484E+01 -0.50878471920E+01  0.59301925171E+02  0.49999965610E+02 0.  0.
        -12    1    1    2    0    0 -0.31064705979E+02  0.50813011484E+01  0.50878471920E+01  0.31886074829E+02  0.00000000000E+00 0.  1.
         11    1    3    3    0    0  0.31109273782E+01 -0.11590664258E+02 -0.20970772606E+01  0.12182737803E+02  0.51100000000E-03 0. -1.
        -11    1    3    3    0    0 -0.90117926424E+01  0.31231710070E+01  0.17515608055E+01  0.96971423257E+01  0.51100000000E-03 0.  1.
        -12    1    3    3    0    0  0.36965571244E+02  0.33861921022E+01 -0.47423307369E+01  0.37422045042E+02  0.00000000000E+00 0.  1.
</event>
<event>
 7    1  0.6152255E-013  0.5930194E+02  0.7816164E-02  0.1266605E+00
        -11   -1    0    0    0    0  0.00000000000E+00  0.00000000000E+00  0.45593999997E+02  0.45594000000E+02  0.51100000000E-03 0.  1.
         11   -1    0    0    0    0 -0.00000000000E+00 -0.00000000000E+00 -0.45593999997E+02  0.45594000000E+02  0.51100000000E-03 0. -1.
    9900012    2    1    2    0    0 -0.16626651934E+02  0.36579779748E+00 -0.27205535326E+02  0.59301944820E+02  0.50000001445E+02 0.  0.
        -12    1    1    2    0    0  0.16626651934E+02 -0.36579779748E+00  0.27205535326E+02  0.31886055180E+02  0.00000000000E+00 0.  1.
         11    1    3    3    0    0 -0.31173800485E+02  0.10779643051E+02 -0.11254497972E+02  0.34852119962E+02  0.51100000000E-03 0. -1.
        -11    1    3    3    0    0  0.46419029144E+01 -0.77093007458E+00 -0.41339671270E+01  0.62634878714E+01  0.51100000000E-03 0.  1.
        -12    1    3    3    0    0  0.99052456359E+01 -0.96429151790E+01 -0.11817070227E+02  0.18186336987E+02  0.00000000000E+00 0.  1.
</event>
<event>
 7    1  0.6152255E-013  0.5930191E+02  0.7816164E-02  0.1266605E+00
        -11   -1    0    0    0    0  0.00000000000E+00  0.00000000000E+00  0.45593999997E+02  0.45594000000E+02  0.51100000000E-03 0. -1.
         11   -1    0    0    0    0 -0.00000000000E+00 -0.00000000000E+00 -0.45593999997E+02  0.45594000000E+02  0.51100000000E-03 0.  1.
    9900012    2    1    2    0    0  0.30307535007E+02 -0.68930610051E+01  0.71177102233E+01  0.59301909506E+02  0.49999937040E+02 0.  0.
        -12    1    1    2    0    0 -0.30307535007E+02  0.68930610051E+01 -0.71177102233E+01  0.31886090494E+02  0.00000000000E+00 0.  1.
         11    1    3    3    0    0  0.35669883944E+01  0.10350845737E+01 -0.33804105079E+01  0.50221491160E+01  0.51100000000E-03 0. -1.
        -11    1    3    3    0    0 -0.90978368704E+01  0.22858148673E+01 -0.83144430195E+01  0.12534973008E+02  0.51100000000E-03 0.  1.
         12    1    3    3    0    0  0.35838383483E+02 -0.10213960446E+02  0.18812563751E+02  0.41744787381E+02  0.00000000000E+00 0. -1.
</event>
<event>
 7    1  0.6152255E-013  0.5930189E+02  0.7816164E-02  0.1266605E+00
        -11   -1    0    0    0    0  0.00000000000E+00  0.00000000000E+00  0.45593999997E+02  0.45594000000E+02  0.51100000000E-03 0.  1.
         11   -1    0    0    0    0 -0.00000000000E+00 -0.00000000000E+00 -0.45593999997E+02  0.45594000000E+02  0.51100000000E-03 0. -1.
    9900012    2    1    2    0    0  0.30735712094E+02  0.13327402322E+01 -0.83823444407E+01  0.59301891853E+02  0.49999904845E+02 0.  0.
        -12    1    1    2    0    0 -0.30735712094E+02 -0.13327402322E+01  0.83823444407E+01  0.31886108147E+02  0.00000000000E+00 0.  1.
         11    1    3    3    0    0  0.41054631944E+01  0.45367815997E+01  0.27873091626E+01  0.67235636350E+01  0.51100000000E-03 0. -1.
        -11    1    3    3    0    0  0.79882303217E+01 -0.46190370892E+01  0.16664228337E+02  0.19048460138E+02  0.51100000000E-03 0.  1.
         12    1    3    3    0    0  0.18642018578E+02  0.14149957216E+01 -0.27833881940E+02  0.33529868080E+02  0.00000000000E+00 0. -1.
</event>
<event>
 7    1  0.6152255E-013  0.5930194E+02  0.7816164E-02  0.1266605E+00
        -11   -1    0    0    0    0  0.00000000000E+00  0.00000000000E+00  0.45593999997E+02  0.45594000000E+02  0.51100000000E-03 0. -1.
         11   -1    0    0    0    0 -0.00000000000E+00 -0.00000000000E+00 -0.45593999997E+02  0.45594000000E+02  0.51100000000E-03 0.  1.
    9900012    2    1    2    0    0  0.13343884180E+02 -0.95516575144E+01  0.27339123278E+02  0.59301936149E+02  0.49999985631E+02 0.  0.
        -12    1    1    2    0    0 -0.13343884180E+02  0.95516575144E+01 -0.27339123278E+02  0.31886063851E+02  0.00000000000E+00 0.  1.
         11    1    3    3    0    0 -0.72527099637E+01  0.17372406227E+01 -0.40880936073E+01  0.85048407628E+01  0.51100000000E-03 0. -1.
        -11    1    3    3    0    0  0.92784236591E+01 -0.15164869092E+02  0.66513304685E+00  0.17790581846E+02  0.51100000000E-03 0.  1.
         12    1    3    3    0    0  0.11318170485E+02  0.38759709552E+01  0.30762083839E+02  0.33006513540E+02  0.00000000000E+00 0. -1.
</event>
<event>
 7    1  0.6152255E-013  0.5930211E+02  0.7816164E-02  0.1266604E+00
        -11   -1    0    0    0    0  0.00000000000E+00  0.00000000000E+00  0.45593999997E+02  0.45594000000E+02  0.51100000000E-03 0.  1.
         11   -1    0    0    0    0 -0.00000000000E+00 -0.00000000000E+00 -0.45593999997E+02  0.45594000000E+02  0.51100000000E-03 0. -1.
    9900012    2    1    2    0    0  0.93145715864E+01  0.25249241727E+00 -0.30494017122E+02  0.59302108504E+02  0.50000299965E+02 0.  0.
        -12    1    1    2    0    0 -0.93145715864E+01 -0.25249241727E+00  0.30494017122E+02  0.31885891496E+02  0.00000000000E+00 0.  1.
         11    1    3    3    0    0  0.18767035278E+02  0.11393471017E+02 -0.77768384036E+01  0.23291457892E+02  0.51100000000E-03 0. -1.
        -11    1    3    3    0    0  0.27583053041E+00  0.55933500975E+01  0.68356847134E+00  0.56417119663E+01  0.51100000000E-03 0.  1.
        -12    1    3    3    0    0 -0.97282942216E+01 -0.16734328698E+02 -0.23400747190E+02  0.30368938645E+02  0.00000000000E+00 0.  1.
</event>
<event>
 7    1  0.6152255E-013  0.5930195E+02  0.7816164E-02  0.1266605E+00
        -11   -1    0    0    0    0  0.00000000000E+00  0.00000000000E+00  0.45593999997E+02  0.45594000000E+02  0.51100000000E-03 0.  1.
         11   -1    0    0    0    0 -0.00000000000E+00 -0.00000000000E+00 -0.45593999997E+02  0.45594000000E+02  0.51100000000E-03 0. -1.
    9900012    2    1    2    0    0 -0.13406703535E+02 -0.86528773612E+01 -0.27606309025E+02  0.59301948437E+02  0.50000008041E+02 0.  0.
        -12    1    1    2    0    0  0.13406703535E+02  0.86528773612E+01  0.27606309025E+02  0.31886051563E+02  0.00000000000E+00 0.  1.
         11    1    3    3    0    0  0.62374145995E+01 -0.55675636946E+01 -0.74773871480E+00  0.83941777338E+01  0.51100000000E-03 0. -1.
        -11    1    3    3    0    0 -0.15912611006E+00  0.91496111492E+01  0.58916579289E+01  0.10883581153E+02  0.51100000000E-03 0.  1.
         12    1    3    3    0    0 -0.19484992025E+02 -0.12234924816E+02 -0.32750228239E+02  0.40024189550E+02  0.00000000000E+00 0. -1.
</event>
<event>
 7    1  0.6152255E-013  0.5930194E+02  0.7816164E-02  0.1266605E+00
        -11   -1    0    0    0    0  0.00000000000E+00  0.00000000000E+00  0.45593999997E+02  0.45594000000E+02  0.51100000000E-03 0.  1.
         11   -1    0    0    0    0 -0.00000000000E+00 -0.00000000000E+00 -0.45593999997E+02  0.45594000000E+02  0.51100000000E-03 0. -1.
    9900012    2    1    2    0    0 -0.28050537800E+02 -0.10691393855E+02 -0.10750911669E+02  0.59301942308E+02  0.49999996864E+02 0.  0.
        -12    1    1    2    0    0  0.28050537800E+02  0.10691393855E+02  0.10750911669E+02  0.31886057692E+02  0.00000000000E+00 0.  1.
         11    1    3    3    0    0 -0.15120889292E+02  0.39910730922E+01 -0.59776090926E+01  0.16742215151E+02  0.51100000000E-03 0. -1.
        -11    1    3    3    0    0 -0.21324718606E+02 -0.14812204894E+02 -0.14477263762E+02  0.29727700950E+02  0.51100000000E-03 0.  1.
        -12    1    3    3    0    0  0.83950700987E+01  0.12973794666E+00  0.97039611861E+01  0.12832026208E+02  0.00000000000E+00 0.  1.
</event>
<event>
 7    1  0.6152255E-013  0.5930194E+02  0.7816164E-02  0.1266605E+00
        -11   -1    0    0    0    0  0.00000000000E+00  0.00000000000E+00  0.45593999997E+02  0.45594000000E+02  0.51100000000E-03 0.  1.
         11   -1    0    0    0    0 -0.00000000000E+00 -0.00000000000E+00 -0.45593999997E+02  0.45594000000E+02  0.51100000000E-03 0. -1.
    9900012    2    1    2    0    0  0.99477447806E+01  0.25349094170E+02 -0.16588753315E+02  0.59301938186E+02  0.49999989346E+02 0.  0.
        -12    1    1    2    0    0 -0.99477447806E+01 -0.25349094170E+02  0.16588753315E+02  0.31886061814E+02  0.00000000000E+00 0.  1.
         11    1    3    3    0    0  0.10777629790E+02  0.56690566114E+01 -0.18411878733E+02  0.22074709182E+02  0.51100000000E-03 0. -1.
        -11    1    3    3    0    0  0.13526023153E+02  0.29185556450E+01  0.54316345596E+01  0.14865191679E+02  0.51100000000E-03 0.  1.
         12    1    3    3    0    0 -0.14355908162E+02  0.16761481914E+02 -0.36085091416E+01  0.22362037325E+02  0.00000000000E+00 0. -1.
</event>
<event>
 7    1  0.6152255E-013  0.5930194E+02  0.7816164E-02  0.1266605E+00
        -11   -1    0    0    0    0  0.00000000000E+00  0.00000000000E+00  0.45593999997E+02  0.45594000000E+02  0.51100000000E-03 0. -1.
         11   -1    0    0    0    0 -0.00000000000E+00 -0.00000000000E+00 -0.45593999997E+02  0.45594000000E+02  0.51100000000E-03 0.  1.
    9900012    2    1    2    0    0 -0.14284987320E+02  0.16167136964E+02  0.23479428918E+02  0.59301940936E+02  0.49999994361E+02 0.  0.
        -12    1    1    2    0    0  0.14284987320E+02 -0.16167136964E+02 -0.23479428918E+02  0.31886059064E+02  0.00000000000E+00 0.  1.
         11    1    3    3    0    0  0.97487470568E+01 -0.24558392279E+01  0.18552175260E+02  0.21101005252E+02  0.51100000000E-03 0. -1.
        -11    1    3    3    0    0 -0.51689729325E+01  0.17103986911E+02 -0.21463318739E+01  0.17996427151E+02  0.51100000000E-03 0.  1.
        -12    1    3    3    0    0 -0.18864761444E+02  0.15189892803E+01  0.70735855315E+01  0.20204508533E+02  0.00000000000E+00 0.  1.
</event>
<event>
 7    1  0.6152255E-013  0.5930197E+02  0.7816164E-02  0.1266605E+00
        -11   -1    0    0    0    0  0.00000000000E+00  0.00000000000E+00  0.45593999997E+02  0.45594000000E+02  0.51100000000E-03 0. -1.
         11   -1    0    0    0    0 -0.00000000000E+00 -0.00000000000E+00 -0.45593999997E+02  0.45594000000E+02  0.51100000000E-03 0.  1.
    9900012    2    1    2    0    0  0.14715352765E+02  0.40739569714E+00  0.28284467771E+02  0.59301973354E+02  0.50000053483E+02 0.  0.
        -12    1    1    2    0    0 -0.14715352765E+02 -0.40739569714E+00 -0.28284467771E+02  0.31886026646E+02  0.00000000000E+00 0.  1.
         11    1    3    3    0    0  0.12504882825E+02 -0.10853859223E+02  0.13057974384E+01  0.16609739965E+02  0.51100000000E-03 0. -1.
        -11    1    3    3    0    0 -0.98277730948E+01 -0.47545878916E-01 -0.13299355557E+01  0.99174650722E+01  0.51100000000E-03 0.  1.
         12    1    3    3    0    0  0.12038243034E+02  0.11308800799E+02  0.28308605888E+02  0.32774768316E+02  0.00000000000E+00 0. -1.
</event>
<event>
 7    1  0.6152255E-013  0.5930194E+02  0.7816164E-02  0.1266605E+00
        -11   -1    0    0    0    0  0.00000000000E+00  0.00000000000E+00  0.45593999997E+02  0.45594000000E+02  0.51100000000E-03 0.  1.
         11   -1    0    0    0    0 -0.00000000000E+00 -0.00000000000E+00 -0.45593999997E+02  0.45594000000E+02  0.51100000000E-03 0. -1.
    9900012    2    1    2    0    0 -0.51309292249E+01  0.22480883275E+02 -0.22022810462E+02  0.59301941476E+02  0.49999995347E+02 0.  0.
        -12    1    1    2    0    0  0.51309292249E+01 -0.22480883275E+02  0.22022810462E+02  0.31886058524E+02  0.00000000000E+00 0.  1.
         11    1    3    3    0    0 -0.32270641162E+00  0.10435402423E+01  0.38481607835E+01  0.40001821636E+01  0.51100000000E-03 0. -1.
        -11    1    3    3    0    0  0.40528076613E+01 -0.12017846773E+02 -0.10775475125E+01  0.12728511299E+02  0.51100000000E-03 0.  1.
         12    1    3    3    0    0 -0.88610304746E+01  0.33455189806E+02 -0.24793423733E+02  0.42573248013E+02  0.00000000000E+00 0. -1.
</event>
<event>
 7    1  0.6152255E-013  0.5930191E+02  0.7816164E-02  0.1266605E+00
        -11   -1    0    0    0    0  0.00000000000E+00  0.00000000000E+00  0.45593999997E+02  0.45594000000E+02  0.51100000000E-03 0.  1.
         11   -1    0    0    0    0 -0.00000000000E+00 -0.00000000000E+00 -0.45593999997E+02  0.45594000000E+02  0.51100000000E-03 0. -1.
    9900012    2    1    2    0    0 -0.16050638100E+02  0.14676674338E+02  0.23317269264E+02  0.59301909005E+02  0.49999936126E+02 0.  0.
        -12    1    1    2    0    0  0.16050638100E+02 -0.14676674338E+02 -0.23317269264E+02  0.31886090995E+02  0.00000000000E+00 0.  1.
         11    1    3    3    0    0 -0.11545333626E+02  0.10539699422E+02 -0.13110512472E+02  0.20402586355E+02  0.51100000000E-03 0. -1.
        -11    1    3    3    0    0  0.36577476413E+01 -0.63161880916E+00  0.61848872650E+01  0.72132441293E+01  0.51100000000E-03 0.  1.
        -12    1    3    3    0    0 -0.81630521150E+01  0.47685937252E+01  0.30242894472E+02  0.31686078520E+02  0.00000000000E+00 0.  1.
</event>
<event>
 7    1  0.6152255E-013  0.5930187E+02  0.7816164E-02  0.1266605E+00
        -11   -1    0    0    0    0  0.00000000000E+00  0.00000000000E+00  0.45593999997E+02  0.45594000000E+02  0.51100000000E-03 0. -1.
         11   -1    0    0    0    0 -0.00000000000E+00 -0.00000000000E+00 -0.45593999997E+02  0.45594000000E+02  0.51100000000E-03 0.  1.
    9900012    2    1    2    0    0  0.30348760814E+02 -0.97813964723E+01  0.49915103495E-01  0.59301866785E+02  0.49999859127E+02 0.  0.
        -12    1    1    2    0    0 -0.30348760814E+02  0.97813964723E+01 -0.49915103495E-01  0.31886133215E+02  0.00000000000E+00 0.  1.
         11    1    3    3    0    0  0.21331325593E+02  0.78844431057E+00  0.10565218342E+02  0.23817450218E+02  0.51100000000E-03 0. -1.
        -11    1    3    3    0    0  0.17332552398E+02 -0.10214762615E+02  0.22516868974E+01  0.20244229846E+02  0.51100000000E-03 0.  1.
        -12    1    3    3    0    0 -0.83151171766E+01 -0.35507816739E+00 -0.12766990136E+02  0.15240186721E+02  0.00000000000E+00 0.  1.
</event>
<event>
 7    1  0.6152255E-013  0.5930195E+02  0.7816164E-02  0.1266605E+00
        -11   -1    0    0    0    0  0.00000000000E+00  0.00000000000E+00  0.45593999997E+02  0.45594000000E+02  0.51100000000E-03 0. -1.
         11   -1    0    0    0    0 -0.00000000000E+00 -0.00000000000E+00 -0.45593999997E+02  0.45594000000E+02  0.51100000000E-03 0.  1.
    9900012    2    1    2    0    0  0.30236121023E+02  0.38886778031E+01  0.93474846297E+01  0.59301948214E+02  0.50000007635E+02 0.  0.
        -12    1    1    2    0    0 -0.30236121023E+02 -0.38886778031E+01 -0.93474846297E+01  0.31886051786E+02  0.00000000000E+00 0.  1.
         11    1    3    3    0    0  0.28647094154E+01 -0.10036799821E+02  0.96214044809E+01  0.14195609713E+02  0.51100000000E-03 0. -1.
        -11    1    3    3    0    0  0.26716378703E+02 -0.33719023742E+00  0.88690778334E+01  0.28152071507E+02  0.51100000000E-03 0.  1.
        -12    1    3    3    0    0  0.65503290524E+00  0.14262667862E+02 -0.91429976847E+01  0.16954266994E+02  0.00000000000E+00 0.  1.
</event>
<event>
 7    1  0.6152255E-013  0.5930193E+02  0.7816164E-02  0.1266605E+00
        -11   -1    0    0    0    0  0.00000000000E+00  0.00000000000E+00  0.45593999997E+02  0.45594000000E+02  0.51100000000E-03 0. -1.
         11   -1    0    0    0    0 -0.00000000000E+00 -0.00000000000E+00 -0.45593999997E+02  0.45594000000E+02  0.51100000000E-03 0.  1.
    9900012    2    1    2    0    0 -0.11305428480E+02 -0.81812805218E-01  0.29814456933E+02  0.59301933315E+02  0.49999980463E+02 0.  0.
        -12    1    1    2    0    0  0.11305428480E+02  0.81812805218E-01 -0.29814456933E+02  0.31886066685E+02  0.00000000000E+00 0.  1.
         11    1    3    3    0    0  0.13169225599E+01  0.74741116199E+01 -0.43088948078E+01  0.87271532736E+01  0.51100000000E-03 0. -1.
        -11    1    3    3    0    0  0.69955911867E+01 -0.43470148104E+01 -0.27510238876E+01  0.86834881531E+01  0.51100000000E-03 0.  1.
         12    1    3    3    0    0 -0.19617942226E+02 -0.32089096148E+01  0.36874375628E+02  0.41891291888E+02  0.00000000000E+00 0. -1.
</event>
<event>
 7    1  0.6152255E-013  0.5930194E+02  0.7816164E-02  0.1266605E+00
        -11   -1    0    0    0    0  0.00000000000E+00  0.00000000000E+00  0.45593999997E+02  0.45594000000E+02  0.51100000000E-03 0.  1.
         11   -1    0    0    0    0 -0.00000000000E+00 -0.00000000000E+00 -0.45593999997E+02  0.45594000000E+02  0.51100000000E-03 0. -1.
    9900012    2    1    2    0    0 -0.12294430564E+02 -0.20208424968E+02 -0.21381940194E+02  0.59301939894E+02  0.49999992462E+02 0.  0.
        -12    1    1    2    0    0  0.12294430564E+02  0.20208424968E+02  0.21381940194E+02  0.31886060106E+02  0.00000000000E+00 0.  1.
         11    1    3    3    0    0 -0.68589001079E+01 -0.61828839384E+01  0.21273351950E+01  0.94761869853E+01  0.51100000000E-03 0.  1.
        -11    1    3    3    0    0 -0.32818615610E+00  0.59616709838E+01 -0.28070176737E+02  0.28698154111E+02  0.51100000000E-03 0. -1.
         12    1    3    3    0    0 -0.51073442995E+01 -0.19987212014E+02  0.45609013475E+01  0.21127598798E+02  0.00000000000E+00 0. -1.
</event>
<event>
 7    1  0.6152255E-013  0.5930207E+02  0.7816164E-02  0.1266604E+00
        -11   -1    0    0    0    0  0.00000000000E+00  0.00000000000E+00  0.45593999997E+02  0.45594000000E+02  0.51100000000E-03 0. -1.
         11   -1    0    0    0    0 -0.00000000000E+00 -0.00000000000E+00 -0.45593999997E+02  0.45594000000E+02  0.51100000000E-03 0.  1.
    9900012    2    1    2    0    0  0.57946441498E+01 -0.31339107906E+02 -0.99754074755E+00  0.59302067793E+02  0.50000225718E+02 0.  0.
        -12    1    1    2    0    0 -0.57946441498E+01  0.31339107906E+02  0.99754074755E+00  0.31885932207E+02  0.00000000000E+00 0.  1.
         11    1    3    3    0    0  0.58564375096E+01 -0.94402091386E+01 -0.66419779321E+01  0.12943387501E+02  0.51100000000E-03 0. -1.
        -11    1    3    3    0    0  0.10351316360E+02 -0.29738553372E+02 -0.14438413287E+01  0.31521674846E+02  0.51100000000E-03 0.  1.
        -12    1    3    3    0    0 -0.10413109720E+02  0.78396546047E+01  0.70882785132E+01  0.14837005447E+02  0.00000000000E+00 0.  1.
</event>
<event>
 7    1  0.6152255E-013  0.5930195E+02  0.7816164E-02  0.1266605E+00
        -11   -1    0    0    0    0  0.00000000000E+00  0.00000000000E+00  0.45593999997E+02  0.45594000000E+02  0.51100000000E-03 0. -1.
         11   -1    0    0    0    0 -0.00000000000E+00 -0.00000000000E+00 -0.45593999997E+02  0.45594000000E+02  0.51100000000E-03 0.  1.
    9900012    2    1    2    0    0  0.94223234632E+01  0.14434770153E+02  0.26824935204E+02  0.59301954188E+02  0.50000018530E+02 0.  0.
        -12    1    1    2    0    0 -0.94223234632E+01 -0.14434770153E+02 -0.26824935204E+02  0.31886045812E+02  0.00000000000E+00 0.  1.
         11    1    3    3    0    0 -0.16095936802E+01  0.47706048120E+01  0.25777571694E+02  0.26264665709E+02  0.51100000000E-03 0. -1.
        -11    1    3    3    0    0 -0.63665877576E+01 -0.53401975904E+01  0.50392991156E+01  0.97183170259E+01  0.51100000000E-03 0.  1.
        -12    1    3    3    0    0  0.17398504901E+02  0.15004362932E+02 -0.39919356054E+01  0.23318971454E+02  0.00000000000E+00 0.  1.
</event>
<event>
 7    1  0.6152255E-013  0.5930193E+02  0.7816164E-02  0.1266605E+00
        -11   -1    0    0    0    0  0.00000000000E+00  0.00000000000E+00  0.45593999997E+02  0.45594000000E+02  0.51100000000E-03 0.  1.
         11   -1    0    0    0    0 -0.00000000000E+00 -0.00000000000E+00 -0.45593999997E+02  0.45594000000E+02  0.51100000000E-03 0. -1.
    9900012    2    1    2    0    0  0.10669285586E+02  0.30042942355E+02  0.55599494238E+00  0.59301934539E+02  0.49999982694E+02 0.  0.
        -12    1    1    2    0    0 -0.10669285586E+02 -0.30042942355E+02 -0.55599494238E+00  0.31886065461E+02  0.00000000000E+00 0.  1.
         11    1    3    3    0    0  0.31786383825E+01  0.72555523580E+01 -0.68281474682E+01  0.10458029456E+02  0.51100000000E-03 0. -1.
        -11    1    3    3    0    0  0.32876463622E+01 -0.19315483943E+00 -0.15675870759E+02  0.16018078902E+02  0.51100000000E-03 0.  1.
        -12    1    3    3    0    0  0.42030008409E+01  0.22980544836E+02  0.23060013170E+02  0.32825826181E+02  0.00000000000E+00 0.  1.
</event>
<event>
 7    1  0.6152255E-013  0.5930196E+02  0.7816164E-02  0.1266605E+00
        -11   -1    0    0    0    0  0.00000000000E+00  0.00000000000E+00  0.45593999997E+02  0.45594000000E+02  0.51100000000E-03 0.  1.
         11   -1    0    0    0    0 -0.00000000000E+00 -0.00000000000E+00 -0.45593999997E+02  0.45594000000E+02  0.51100000000E-03 0. -1.
    9900012    2    1    2    0    0 -0.11685898270E+02  0.14572512317E+02 -0.25841852310E+02  0.59301958157E+02  0.50000025769E+02 0.  0.
        -12    1    1    2    0    0  0.11685898270E+02 -0.14572512317E+02  0.25841852310E+02  0.31886041843E+02  0.00000000000E+00 0.  1.
         11    1    3    3    0    0 -0.10298734800E+02  0.25122388105E+01  0.66770419847E+01  0.12528294866E+02  0.51100000000E-03 0. -1.
        -11    1    3    3    0    0  0.30547516836E+01  0.31111838325E+01  0.57533541777E+01  0.72188681414E+01  0.51100000000E-03 0.  1.
         12    1    3    3    0    0 -0.44419151529E+01  0.89490896736E+01 -0.38272248472E+02  0.39554795150E+02  0.00000000000E+00 0. -1.
</event>
<event>
 7    1  0.6152255E-013  0.5930218E+02  0.7816164E-02  0.1266604E+00
        -11   -1    0    0    0    0  0.00000000000E+00  0.00000000000E+00  0.45593999997E+02  0.45594000000E+02  0.51100000000E-03 0.  1.
         11   -1    0    0    0    0 -0.00000000000E+00 -0.00000000000E+00 -0.45593999997E+02  0.45594000000E+02  0.51100000000E-03 0. -1.
    9900012    2    1    2    0    0  0.14315158778E+02 -0.28021546345E+02 -0.51550544969E+01  0.59302181565E+02  0.50000433209E+02 0.  0.
        -12    1    1    2    0    0 -0.14315158778E+02  0.28021546345E+02  0.51550544969E+01  0.31885818435E+02  0.00000000000E+00 0.  1.
         11    1    3    3    0    0  0.47528112897E+01  0.40117418505E+01  0.84276190029E+01  0.10474161071E+02  0.51100000000E-03 0.  1.
        -11    1    3    3    0    0 -0.57299217817E+01 -0.31033530984E+02 -0.85095642192E+01  0.32685237224E+02  0.51100000000E-03 0. -1.
         12    1    3    3    0    0  0.15292269270E+02 -0.99975721171E+00 -0.50731092806E+01  0.16142783269E+02  0.00000000000E+00 0. -1.
</event>
<event>
 7    1  0.6152255E-013  0.5930194E+02  0.7816164E-02  0.1266605E+00
        -11   -1    0    0    0    0  0.00000000000E+00  0.00000000000E+00  0.45593999997E+02  0.45594000000E+02  0.51100000000E-03 0.  1.
         11   -1    0    0    0    0 -0.00000000000E+00 -0.00000000000E+00 -0.45593999997E+02  0.45594000000E+02  0.51100000000E-03 0. -1.
    9900012    2    1    2    0    0  0.58723501587E+01 -0.20454246959E+02 -0.23745735022E+02  0.59301942753E+02  0.49999997675E+02 0.  0.
        -12    1    1    2    0    0 -0.58723501587E+01  0.20454246959E+02  0.23745735022E+02  0.31886057247E+02  0.00000000000E+00 0.  1.
         11    1    3    3    0    0  0.10338567575E+02 -0.84695044515E+01 -0.14138417003E+02  0.19455418802E+02  0.51100000000E-03 0.  1.
        -11    1    3    3    0    0 -0.16337356125E+01 -0.74385083544E+01 -0.23634605159E+02  0.24831332221E+02  0.51100000000E-03 0. -1.
        -12    1    3    3    0    0 -0.28324818040E+01 -0.45462341532E+01  0.14027287141E+02  0.15015191729E+02  0.00000000000E+00 0.  1.
</event>
<event>
 7    1  0.6152255E-013  0.5930194E+02  0.7816164E-02  0.1266605E+00
        -11   -1    0    0    0    0  0.00000000000E+00  0.00000000000E+00  0.45593999997E+02  0.45594000000E+02  0.51100000000E-03 0.  1.
         11   -1    0    0    0    0 -0.00000000000E+00 -0.00000000000E+00 -0.45593999997E+02  0.45594000000E+02  0.51100000000E-03 0. -1.
    9900012    2    1    2    0    0 -0.20134413258E+02 -0.56450116878E+01 -0.24071973833E+02  0.59301942257E+02  0.49999996770E+02 0.  0.
        -12    1    1    2    0    0  0.20134413258E+02  0.56450116878E+01  0.24071973833E+02  0.31886057743E+02  0.00000000000E+00 0.  1.
         11    1    3    3    0    0  0.78605816998E+01  0.32518656576E+01  0.84687410134E+00  0.85487175014E+01  0.51100000000E-03 0. -1.
        -11    1    3    3    0    0 -0.10948698195E+02 -0.11354849053E+02  0.47279355918E+01  0.16466935489E+02  0.51100000000E-03 0.  1.
         12    1    3    3    0    0 -0.17046296763E+02  0.24579717072E+01 -0.29646783526E+02  0.34286289266E+02  0.00000000000E+00 0. -1.
</event>
<event>
 7    1  0.6152255E-013  0.5930196E+02  0.7816164E-02  0.1266605E+00
        -11   -1    0    0    0    0  0.00000000000E+00  0.00000000000E+00  0.45593999997E+02  0.45594000000E+02  0.51100000000E-03 0.  1.
         11   -1    0    0    0    0 -0.00000000000E+00 -0.00000000000E+00 -0.45593999997E+02  0.45594000000E+02  0.51100000000E-03 0. -1.
    9900012    2    1    2    0    0  0.31778751542E+02 -0.25835311232E+01  0.39445510214E+00  0.59301964225E+02  0.50000036835E+02 0.  0.
        -12    1    1    2    0    0 -0.31778751542E+02  0.25835311232E+01 -0.39445510214E+00  0.31886035775E+02  0.00000000000E+00 0.  1.
         11    1    3    3    0    0  0.14404020232E+02 -0.31850812034E+00 -0.97084649861E+00  0.14440214314E+02  0.51100000000E-03 0. -1.
        -11    1    3    3    0    0  0.76150747878E+01 -0.19727588548E+02  0.96062581695E+01  0.23226005042E+02  0.51100000000E-03 0.  1.
         12    1    3    3    0    0  0.97596565220E+01  0.17462565545E+02 -0.82409565687E+01  0.21635744868E+02  0.00000000000E+00 0. -1.
</event>
<event>
 7    1  0.6152255E-013  0.5930194E+02  0.7816164E-02  0.1266605E+00
        -11   -1    0    0    0    0  0.00000000000E+00  0.00000000000E+00  0.45593999997E+02  0.45594000000E+02  0.51100000000E-03 0. -1.
         11   -1    0    0    0    0 -0.00000000000E+00 -0.00000000000E+00 -0.45593999997E+02  0.45594000000E+02  0.51100000000E-03 0.  1.
    9900012    2    1    2    0    0  0.30248542251E+02  0.96463962096E+01  0.29484679049E+01  0.59301941430E+02  0.49999995263E+02 0.  0.
        -12    1    1    2    0    0 -0.30248542251E+02 -0.96463962096E+01 -0.29484679049E+01  0.31886058570E+02  0.00000000000E+00 0.  1.
         11    1    3    3    0    0  0.13673427428E+02  0.15349237711E+02 -0.77533688908E+01  0.21969898620E+02  0.51100000000E-03 0. -1.
        -11    1    3    3    0    0 -0.60892397652E+01  0.49400045409E+01  0.94256280801E+01  0.12260707596E+02  0.51100000000E-03 0.  1.
        -12    1    3    3    0    0  0.22664354588E+02 -0.10642846042E+02  0.12762087157E+01  0.25071335215E+02  0.00000000000E+00 0.  1.
</event>
<event>
 7    1  0.6152255E-013  0.5930192E+02  0.7816164E-02  0.1266605E+00
        -11   -1    0    0    0    0  0.00000000000E+00  0.00000000000E+00  0.45593999997E+02  0.45594000000E+02  0.51100000000E-03 0.  1.
         11   -1    0    0    0    0 -0.00000000000E+00 -0.00000000000E+00 -0.45593999997E+02  0.45594000000E+02  0.51100000000E-03 0. -1.
    9900012    2    1    2    0    0  0.64522474773E+01  0.25064177517E+02 -0.18624642671E+02  0.59301924563E+02  0.49999964501E+02 0.  0.
        -12    1    1    2    0    0 -0.64522474773E+01 -0.25064177517E+02  0.18624642671E+02  0.31886075437E+02  0.00000000000E+00 0.  1.
         11    1    3    3    0    0 -0.61447333581E+01  0.20333660091E+02 -0.21214474606E+02  0.30021149442E+02  0.51100000000E-03 0. -1.
        -11    1    3    3    0    0 -0.53327028647E+01  0.90464737522E+01 -0.79337655673E+00  0.10531184825E+02  0.51100000000E-03 0.  1.
         12    1    3    3    0    0  0.17929683700E+02 -0.43159563260E+01  0.33832084912E+01  0.18749590297E+02  0.00000000000E+00 0. -1.
</event>
<event>
 7    1  0.6152255E-013  0.5930195E+02  0.7816164E-02  0.1266605E+00
        -11   -1    0    0    0    0  0.00000000000E+00  0.00000000000E+00  0.45593999997E+02  0.45594000000E+02  0.51100000000E-03 0. -1.
         11   -1    0    0    0    0 -0.00000000000E+00 -0.00000000000E+00 -0.45593999997E+02  0.45594000000E+02  0.51100000000E-03 0.  1.
    9900012    2    1    2    0    0 -0.25842965653E+02 -0.44918775235E+01  0.18129649131E+02  0.59301952659E+02  0.50000015742E+02 0.  0.
        -12    1    1    2    0    0  0.25842965653E+02  0.44918775235E+01 -0.18129649131E+02  0.31886047341E+02  0.00000000000E+00 0.  1.
         11    1    3    3    0    0 -0.14439136576E+02 -0.18508850459E+02  0.12588067798E+02  0.26636922899E+02  0.51100000000E-03 0. -1.
        -11    1    3    3    0    0  0.14824746773E+01 -0.40255011317E+01  0.92396833391E+01  0.10186959262E+02  0.51100000000E-03 0.  1.
         12    1    3    3    0    0 -0.12886303754E+02  0.18042474067E+02 -0.36981020067E+01  0.22478070499E+02  0.00000000000E+00 0. -1.
</event>
<event>
 7    1  0.6152255E-013  0.5930195E+02  0.7816164E-02  0.1266605E+00
        -11   -1    0    0    0    0  0.00000000000E+00  0.00000000000E+00  0.45593999997E+02  0.45594000000E+02  0.51100000000E-03 0.  1.
         11   -1    0    0    0    0 -0.00000000000E+00 -0.00000000000E+00 -0.45593999997E+02  0.45594000000E+02  0.51100000000E-03 0. -1.
    9900012    2    1    2    0    0 -0.18013222563E+02  0.28659670239E+01 -0.26153976558E+02  0.59301945934E+02  0.50000003476E+02 0.  0.
        -12    1    1    2    0    0  0.18013222563E+02 -0.28659670239E+01  0.26153976558E+02  0.31886054066E+02  0.00000000000E+00 0.  1.
         11    1    3    3    0    0  0.64156608706E+01  0.81750605014E+01  0.17449502538E+01  0.10537417628E+02  0.51100000000E-03 0. -1.
        -11    1    3    3    0    0  0.40031163168E+01 -0.10351821339E+02 -0.70489831264E+01  0.13148129474E+02  0.51100000000E-03 0.  1.
        -12    1    3    3    0    0 -0.28431999751E+02  0.50427278616E+01 -0.20849943685E+02  0.35616398833E+02  0.00000000000E+00 0.  1.
</event>
<event>
 7    1  0.6152255E-013  0.5930195E+02  0.7816164E-02  0.1266605E+00
        -11   -1    0    0    0    0  0.00000000000E+00  0.00000000000E+00  0.45593999997E+02  0.45594000000E+02  0.51100000000E-03 0.  1.
         11   -1    0    0    0    0 -0.00000000000E+00 -0.00000000000E+00 -0.45593999997E+02  0.45594000000E+02  0.51100000000E-03 0. -1.
    9900012    2    1    2    0    0  0.15013922858E+02  0.14085391100E+02  0.24349626531E+02  0.59301946086E+02  0.50000003753E+02 0.  0.
        -12    1    1    2    0    0 -0.15013922858E+02 -0.14085391100E+02 -0.24349626531E+02  0.31886053914E+02  0.00000000000E+00 0.  1.
         11    1    3    3    0    0 -0.34608169578E+01 -0.54230968908E+01 -0.16900065919E+01  0.66515679689E+01  0.51100000000E-03 0. -1.
        -11    1    3    3    0    0 -0.68845640227E+01 -0.64443887494E+01  0.63259753992E+01  0.11355409863E+02  0.51100000000E-03 0.  1.
         12    1    3    3    0    0  0.25359303839E+02  0.25952876740E+02  0.19713657723E+02  0.41294968254E+02  0.00000000000E+00 0. -1.
</event>
<event>
 7    1  0.6152255E-013  0.5930197E+02  0.7816164E-02  0.1266605E+00
        -11   -1    0    0    0    0  0.00000000000E+00  0.00000000000E+00  0.45593999997E+02  0.45594000000E+02  0.51100000000E-03 0. -1.
         11   -1    0    0    0    0 -0.00000000000E+00 -0.00000000000E+00 -0.45593999997E+02  0.45594000000E+02  0.51100000000E-03 0.  1.
    9900012    2    1    2    0    0  0.69950352546E+01  0.29895986524E+02  0.86034090310E+01  0.59301965825E+02  0.50000039753E+02 0.  0.
        -12    1    1    2    0    0 -0.69950352546E+01 -0.29895986524E+02 -0.86034090310E+01  0.31886034175E+02  0.00000000000E+00 0.  1.
         11    1    3    3    0    0 -0.10923812129E+02 -0.23490770557E+01 -0.65810097347E+01  0.12967556587E+02  0.51100000000E-03 0. -1.
        -11    1    3    3    0    0  0.95761542406E+01  0.71981273610E+01 -0.51214132636E+01  0.13028608583E+02  0.51100000000E-03 0.  1.
         12    1    3    3    0    0  0.83426931431E+01  0.25046936219E+02  0.20305832029E+02  0.33305800654E+02  0.00000000000E+00 0. -1.
</event>
<event>
 7    1  0.6152255E-013  0.5930187E+02  0.7816164E-02  0.1266605E+00
        -11   -1    0    0    0    0  0.00000000000E+00  0.00000000000E+00  0.45593999997E+02  0.45594000000E+02  0.51100000000E-03 0.  1.
         11   -1    0    0    0    0 -0.00000000000E+00 -0.00000000000E+00 -0.45593999997E+02  0.45594000000E+02  0.51100000000E-03 0. -1.
    9900012    2    1    2    0    0  0.28956450637E+02  0.10347037419E+02  0.84373139878E+01  0.59301866899E+02  0.49999859335E+02 0.  0.
        -12    1    1    2    0    0 -0.28956450637E+02 -0.10347037419E+02 -0.84373139878E+01  0.31886133101E+02  0.00000000000E+00 0.  1.
         11    1    3    3    0    0  0.85398558544E+01 -0.58737707482E+00 -0.10197894513E+02  0.13314323212E+02  0.51100000000E-03 0.  1.
        -11    1    3    3    0    0 -0.84965499971E+01 -0.18712792088E+01  0.99030985455E+01  0.13181972872E+02  0.51100000000E-03 0. -1.
         12    1    3    3    0    0  0.28913144779E+02  0.12805693702E+02  0.87321099550E+01  0.32805570815E+02  0.00000000000E+00 0. -1.
</event>
<event>
 7    1  0.6152255E-013  0.5930195E+02  0.7816164E-02  0.1266605E+00
        -11   -1    0    0    0    0  0.00000000000E+00  0.00000000000E+00  0.45593999997E+02  0.45594000000E+02  0.51100000000E-03 0.  1.
         11   -1    0    0    0    0 -0.00000000000E+00 -0.00000000000E+00 -0.45593999997E+02  0.45594000000E+02  0.51100000000E-03 0. -1.
    9900012    2    1    2    0    0  0.66981375354E+01 -0.24060165431E+02 -0.19823309889E+02  0.59301949414E+02  0.50000009823E+02 0.  0.
        -12    1    1    2    0    0 -0.66981375354E+01  0.24060165431E+02  0.19823309889E+02  0.31886050586E+02  0.00000000000E+00 0.  1.
         11    1    3    3    0    0  0.30424243721E+00  0.62367588622E+01 -0.10869942517E+02  0.12535763844E+02  0.51100000000E-03 0. -1.
        -11    1    3    3    0    0  0.16741970530E+02 -0.43931837664E+01 -0.74132620863E+01  0.18829500679E+02  0.51100000000E-03 0.  1.
        -12    1    3    3    0    0 -0.10348075431E+02 -0.25903740527E+02 -0.15401052863E+01  0.27936684891E+02  0.00000000000E+00 0.  1.
</event>
<event>
 7    1  0.6152255E-013  0.5930194E+02  0.7816164E-02  0.1266605E+00
        -11   -1    0    0    0    0  0.00000000000E+00  0.00000000000E+00  0.45593999997E+02  0.45594000000E+02  0.51100000000E-03 0. -1.
         11   -1    0    0    0    0 -0.00000000000E+00 -0.00000000000E+00 -0.45593999997E+02  0.45594000000E+02  0.51100000000E-03 0.  1.
    9900012    2    1    2    0    0  0.23449858457E+02 -0.21473284377E+02 -0.23923120700E+01  0.59301937831E+02  0.49999988698E+02 0.  0.
        -12    1    1    2    0    0 -0.23449858457E+02  0.21473284377E+02  0.23923120700E+01  0.31886062169E+02  0.00000000000E+00 0.  1.
         11    1    3    3    0    0  0.10725092441E+02  0.13292632608E+02 -0.10807619921E+01  0.17114021627E+02  0.51100000000E-03 0. -1.
        -11    1    3    3    0    0 -0.23981775876E+01  0.14535234214E+01 -0.86803629937E+00  0.29355533305E+01  0.51100000000E-03 0.  1.
        -12    1    3    3    0    0  0.15122943604E+02 -0.36219440407E+02 -0.44351377855E+00  0.39252362873E+02  0.00000000000E+00 0.  1.
</event>
<event>
 7    1  0.6152255E-013  0.5930198E+02  0.7816164E-02  0.1266605E+00
        -11   -1    0    0    0    0  0.00000000000E+00  0.00000000000E+00  0.45593999997E+02  0.45594000000E+02  0.51100000000E-03 0. -1.
         11   -1    0    0    0    0 -0.00000000000E+00 -0.00000000000E+00 -0.45593999997E+02  0.45594000000E+02  0.51100000000E-03 0.  1.
    9900012    2    1    2    0    0  0.85693603139E+01 -0.27653475901E+02  0.13363004432E+02  0.59301975584E+02  0.50000057551E+02 0.  0.
        -12    1    1    2    0    0 -0.85693603139E+01  0.27653475901E+02 -0.13363004432E+02  0.31886024416E+02  0.00000000000E+00 0.  1.
         11    1    3    3    0    0  0.80600268210E+01 -0.17599386088E+02  0.30089078270E+02  0.35777857041E+02  0.51100000000E-03 0. -1.
        -11    1    3    3    0    0  0.15924961443E+00  0.17154326599E+01  0.11837961884E+01  0.20903213454E+01  0.51100000000E-03 0.  1.
        -12    1    3    3    0    0  0.35008387847E+00 -0.11769522473E+02 -0.17909870026E+02  0.21433797198E+02  0.00000000000E+00 0.  1.
</event>
<event>
 7    1  0.6152255E-013  0.5930211E+02  0.7816164E-02  0.1266604E+00
        -11   -1    0    0    0    0  0.00000000000E+00  0.00000000000E+00  0.45593999997E+02  0.45594000000E+02  0.51100000000E-03 0. -1.
         11   -1    0    0    0    0 -0.00000000000E+00 -0.00000000000E+00 -0.45593999997E+02  0.45594000000E+02  0.51100000000E-03 0.  1.
    9900012    2    1    2    0    0 -0.22607236803E+02 -0.12354016567E+02 -0.18788317452E+02  0.59302113563E+02  0.50000309190E+02 0.  0.
        -12    1    1    2    0    0  0.22607236803E+02  0.12354016567E+02  0.18788317452E+02  0.31885886437E+02  0.00000000000E+00 0.  1.
         11    1    3    3    0    0 -0.75636587113E+01 -0.13767072355E+02  0.97573500450E+01  0.18491811553E+02  0.51100000000E-03 0. -1.
        -11    1    3    3    0    0 -0.16290722088E+01 -0.10856289071E+02 -0.10275616446E+02  0.15036661274E+02  0.51100000000E-03 0.  1.
        -12    1    3    3    0    0 -0.13414505883E+02  0.12269344860E+02 -0.18270051051E+02  0.25773640736E+02  0.00000000000E+00 0.  1.
</event>
<event>
 7    1  0.6152255E-013  0.5930195E+02  0.7816164E-02  0.1266605E+00
        -11   -1    0    0    0    0  0.00000000000E+00  0.00000000000E+00  0.45593999997E+02  0.45594000000E+02  0.51100000000E-03 0.  1.
         11   -1    0    0    0    0 -0.00000000000E+00 -0.00000000000E+00 -0.45593999997E+02  0.45594000000E+02  0.51100000000E-03 0. -1.
    9900012    2    1    2    0    0  0.11429009547E+02  0.15646896773E+01 -0.29726246431E+02  0.59301949133E+02  0.50000009311E+02 0.  0.
        -12    1    1    2    0    0 -0.11429009547E+02 -0.15646896773E+01  0.29726246431E+02  0.31886050867E+02  0.00000000000E+00 0.  1.
         11    1    3    3    0    0  0.91904704248E+01 -0.40475977108E+01 -0.28778301475E+02  0.30480131724E+02  0.51100000000E-03 0. -1.
        -11    1    3    3    0    0  0.79876387700E+01 -0.66796070113E+01 -0.83657131451E+01  0.13356821464E+02  0.51100000000E-03 0.  1.
        -12    1    3    3    0    0 -0.57490996482E+01  0.12291894399E+02  0.74177681887E+01  0.15464995945E+02  0.00000000000E+00 0.  1.
</event>
<event>
 7    1  0.6152255E-013  0.5930194E+02  0.7816164E-02  0.1266605E+00
        -11   -1    0    0    0    0  0.00000000000E+00  0.00000000000E+00  0.45593999997E+02  0.45594000000E+02  0.51100000000E-03 0.  1.
         11   -1    0    0    0    0 -0.00000000000E+00 -0.00000000000E+00 -0.45593999997E+02  0.45594000000E+02  0.51100000000E-03 0. -1.
    9900012    2    1    2    0    0  0.21126554986E+01  0.29365716115E+02 -0.12243863649E+02  0.59301940456E+02  0.49999993486E+02 0.  0.
        -12    1    1    2    0    0 -0.21126554986E+01 -0.29365716115E+02  0.12243863649E+02  0.31886059544E+02  0.00000000000E+00 0.  1.
         11    1    3    3    0    0 -0.51405645786E+01  0.47356972790E+00  0.35072077868E+01  0.62410078669E+01  0.51100000000E-03 0.  1.
        -11    1    3    3    0    0 -0.78943162751E+00 -0.92267673293E+01  0.31212783889E+01  0.97723495990E+01  0.51100000000E-03 0. -1.
         12    1    3    3    0    0  0.80426517047E+01  0.38118913716E+02 -0.18872349825E+02  0.43288582990E+02  0.00000000000E+00 0. -1.
</event>
<event>
 7    1  0.6152255E-013  0.5930198E+02  0.7816164E-02  0.1266605E+00
        -11   -1    0    0    0    0  0.00000000000E+00  0.00000000000E+00  0.45593999997E+02  0.45594000000E+02  0.51100000000E-03 0.  1.
         11   -1    0    0    0    0 -0.00000000000E+00 -0.00000000000E+00 -0.45593999997E+02  0.45594000000E+02  0.51100000000E-03 0. -1.
    9900012    2    1    2    0    0 -0.27247024909E+02 -0.13201880535E+02 -0.10001419027E+02  0.59301978006E+02  0.50000061968E+02 0.  0.
        -12    1    1    2    0    0  0.27247024909E+02  0.13201880535E+02  0.10001419027E+02  0.31886021994E+02  0.00000000000E+00 0.  1.
         11    1    3    3    0    0 -0.27958730650E+02 -0.23533786084E+02 -0.52686952478E+01  0.36922741730E+02  0.51100000000E-03 0. -1.
        -11    1    3    3    0    0 -0.85220778850E+01  0.90674710804E+00 -0.29557203628E+01  0.90655548600E+01  0.51100000000E-03 0.  1.
        -12    1    3    3    0    0  0.92337836259E+01  0.94251584409E+01 -0.17770034163E+01  0.13313681415E+02  0.00000000000E+00 0.  1.
</event>
<event>
 7    1  0.6152255E-013  0.5930194E+02  0.7816164E-02  0.1266605E+00
        -11   -1    0    0    0    0  0.00000000000E+00  0.00000000000E+00  0.45593999997E+02  0.45594000000E+02  0.51100000000E-03 0. -1.
         11   -1    0    0    0    0 -0.00000000000E+00 -0.00000000000E+00 -0.45593999997E+02  0.45594000000E+02  0.51100000000E-03 0.  1.
    9900012    2    1    2    0    0  0.25699334355E+02 -0.49089634670E+00  0.18868601346E+02  0.59301939060E+02  0.49999990940E+02 0.  0.
        -12    1    1    2    0    0 -0.25699334355E+02  0.49089634670E+00 -0.18868601346E+02  0.31886060940E+02  0.00000000000E+00 0.  1.
         11    1    3    3    0    0  0.41540832160E+01  0.15702541573E+02  0.97943438862E+01  0.18967218869E+02  0.51100000000E-03 0. -1.
        -11    1    3    3    0    0  0.40558776019E+01 -0.70096221266E+01 -0.10004623480E+02  0.12871574756E+02  0.51100000000E-03 0.  1.
         12    1    3    3    0    0  0.17489373537E+02 -0.91838157929E+01  0.19078880940E+02  0.27463145434E+02  0.00000000000E+00 0. -1.
</event>
<event>
 7    1  0.6152255E-013  0.5930194E+02  0.7816164E-02  0.1266605E+00
        -11   -1    0    0    0    0  0.00000000000E+00  0.00000000000E+00  0.45593999997E+02  0.45594000000E+02  0.51100000000E-03 0. -1.
         11   -1    0    0    0    0 -0.00000000000E+00 -0.00000000000E+00 -0.45593999997E+02  0.45594000000E+02  0.51100000000E-03 0.  1.
    9900012    2    1    2    0    0 -0.95707545501E+00  0.27151254970E+02  0.16691745760E+02  0.59301936957E+02  0.49999987105E+02 0.  0.
        -12    1    1    2    0    0  0.95707545501E+00 -0.27151254970E+02 -0.16691745760E+02  0.31886063043E+02  0.00000000000E+00 0.  1.
         11    1    3    3    0    0 -0.13682881248E+02  0.23801221309E+02  0.26541151597E+01  0.27581945228E+02  0.51100000000E-03 0. -1.
        -11    1    3    3    0    0 -0.27595477874E+00  0.12483028504E+02  0.50792132146E+01  0.13479634966E+02  0.51100000000E-03 0.  1.
        -12    1    3    3    0    0  0.13001760572E+02 -0.91329948430E+01  0.89584173855E+01  0.18240356762E+02  0.00000000000E+00 0.  1.
</event>
<event>
 7    1  0.6152255E-013  0.5930195E+02  0.7816164E-02  0.1266605E+00
        -11   -1    0    0    0    0  0.00000000000E+00  0.00000000000E+00  0.45593999997E+02  0.45594000000E+02  0.51100000000E-03 0. -1.
         11   -1    0    0    0    0 -0.00000000000E+00 -0.00000000000E+00 -0.45593999997E+02  0.45594000000E+02  0.51100000000E-03 0.  1.
    9900012    2    1    2    0    0  0.43542966716E+01  0.31068888101E+02 -0.56995104734E+01  0.59301950903E+02  0.50000012539E+02 0.  0.
        -12    1    1    2    0    0 -0.43542966716E+01 -0.31068888101E+02  0.56995104734E+01  0.31886049097E+02  0.00000000000E+00 0.  1.
         11    1    3    3    0    0  0.10533354741E+02  0.10003915518E+02  0.12754238873E+01  0.14582749883E+02  0.51100000000E-03 0. -1.
        -11    1    3    3    0    0  0.22652026221E+01  0.30420801370E+02 -0.40771270994E+00  0.30507745391E+02  0.51100000000E-03 0.  1.
        -12    1    3    3    0    0 -0.84442606916E+01 -0.93558287863E+01 -0.65672216507E+01  0.14211455630E+02  0.00000000000E+00 0.  1.
</event>
<event>
 7    1  0.6152255E-013  0.5930194E+02  0.7816164E-02  0.1266605E+00
        -11   -1    0    0    0    0  0.00000000000E+00  0.00000000000E+00  0.45593999997E+02  0.45594000000E+02  0.51100000000E-03 0. -1.
         11   -1    0    0    0    0 -0.00000000000E+00 -0.00000000000E+00 -0.45593999997E+02  0.45594000000E+02  0.51100000000E-03 0.  1.
    9900012    2    1    2    0    0  0.24591760638E+02 -0.14883647553E+02  0.13800109757E+02  0.59301942152E+02  0.49999996580E+02 0.  0.
        -12    1    1    2    0    0 -0.24591760638E+02  0.14883647553E+02 -0.13800109757E+02  0.31886057848E+02  0.00000000000E+00 0.  1.
         11    1    3    3    0    0  0.12758139833E+02 -0.90342225997E-01  0.23299026117E+02  0.26563563616E+02  0.51100000000E-03 0. -1.
        -11    1    3    3    0    0  0.96036718966E+01  0.52150989451E+01 -0.13184397547E+01  0.11007545346E+02  0.51100000000E-03 0.  1.
        -12    1    3    3    0    0  0.22299489085E+01 -0.20008404272E+02 -0.81804766053E+01  0.21730833190E+02  0.00000000000E+00 0.  1.
</event>
<event>
 7    1  0.6152255E-013  0.5930195E+02  0.7816164E-02  0.1266605E+00
        -11   -1    0    0    0    0  0.00000000000E+00  0.00000000000E+00  0.45593999997E+02  0.45594000000E+02  0.51100000000E-03 0.  1.
         11   -1    0    0    0    0 -0.00000000000E+00 -0.00000000000E+00 -0.45593999997E+02  0.45594000000E+02  0.51100000000E-03 0. -1.
    9900012    2    1    2    0    0 -0.46282720419E+01  0.67261777548E+01 -0.30823011915E+02  0.59301946108E+02  0.50000003795E+02 0.  0.
        -12    1    1    2    0    0  0.46282720419E+01 -0.67261777548E+01  0.30823011915E+02  0.31886053892E+02  0.00000000000E+00 0.  1.
         11    1    3    3    0    0  0.40643925395E+01  0.92609785551E+01  0.89353447990E+01  0.13495384302E+02  0.51100000000E-03 0.  1.
        -11    1    3    3    0    0  0.31043703703E+01  0.49641040425E+01 -0.32119880388E+01  0.66780470022E+01  0.51100000000E-03 0. -1.
         12    1    3    3    0    0 -0.11797034952E+02 -0.74989048428E+01 -0.36546368675E+02  0.39128514805E+02  0.00000000000E+00 0. -1.
</event>
<event>
 7    1  0.6152255E-013  0.5930196E+02  0.7816164E-02  0.1266605E+00
        -11   -1    0    0    0    0  0.00000000000E+00  0.00000000000E+00  0.45593999997E+02  0.45594000000E+02  0.51100000000E-03 0.  1.
         11   -1    0    0    0    0 -0.00000000000E+00 -0.00000000000E+00 -0.45593999997E+02  0.45594000000E+02  0.51100000000E-03 0. -1.
    9900012    2    1    2    0    0 -0.78555658132E+01  0.30895044305E+02 -0.71121491358E+00  0.59301960680E+02  0.50000030370E+02 0.  0.
        -12    1    1    2    0    0  0.78555658132E+01 -0.30895044305E+02  0.71121491358E+00  0.31886039320E+02  0.00000000000E+00 0.  1.
         11    1    3    3    0    0 -0.14155268098E+02  0.70257257581E+00 -0.10387333045E+02  0.17571622327E+02  0.51100000000E-03 0. -1.
        -11    1    3    3    0    0  0.14441704256E+01 -0.18087530815E+01  0.90663190484E+01  0.93571019699E+01  0.51100000000E-03 0.  1.
         12    1    3    3    0    0  0.48555318592E+01  0.32001224811E+02  0.60979908287E+00  0.32373236383E+02  0.00000000000E+00 0. -1.
</event>
<event>
 7    1  0.6152255E-013  0.5930196E+02  0.7816164E-02  0.1266605E+00
        -11   -1    0    0    0    0  0.00000000000E+00  0.00000000000E+00  0.45593999997E+02  0.45594000000E+02  0.51100000000E-03 0.  1.
         11   -1    0    0    0    0 -0.00000000000E+00 -0.00000000000E+00 -0.45593999997E+02  0.45594000000E+02  0.51100000000E-03 0. -1.
    9900012    2    1    2    0    0  0.87833013407E+01 -0.78137071235E+01 -0.29639827660E+02  0.59301956263E+02  0.50000022315E+02 0.  0.
        -12    1    1    2    0    0 -0.87833013407E+01  0.78137071235E+01  0.29639827660E+02  0.31886043737E+02  0.00000000000E+00 0.  1.
         11    1    3    3    0    0 -0.48360214501E+01  0.14346913290E+01 -0.19470406291E+02  0.20113233556E+02  0.51100000000E-03 0. -1.
        -11    1    3    3    0    0  0.96610128220E+01  0.12269267939E+02 -0.68776217933E+01  0.17063756512E+02  0.51100000000E-03 0.  1.
        -12    1    3    3    0    0  0.39583099688E+01 -0.21517666391E+02 -0.32917995761E+01  0.22124966196E+02  0.00000000000E+00 0.  1.
</event>
<event>
 7    1  0.6380085E-013  0.5930196E+02  0.7816164E-02  0.1266605E+00
        -11   -1    0    0    0    0  0.00000000000E+00  0.00000000000E+00  0.45593999997E+02  0.45594000000E+02  0.51100000000E-03 0.  1.
         11   -1    0    0    0    0 -0.00000000000E+00 -0.00000000000E+00 -0.45593999997E+02  0.45594000000E+02  0.51100000000E-03 0. -1.
    9900012    2    1    2    0    0 -0.22971891358E+02  0.19406969053E+02 -0.10601005573E+02  0.59301959801E+02  0.50000028766E+02 0.  0.
        -12    1    1    2    0    0  0.22971891358E+02 -0.19406969053E+02  0.10601005573E+02  0.31886040199E+02  0.00000000000E+00 0.  1.
         11    1    3    3    0    0 -0.14291233765E+02  0.25932668868E+01  0.10597525248E+02  0.17979764662E+02  0.51100000000E-03 0. -1.
        -11    1    3    3    0    0  0.90068039634E+01  0.12458777554E+02 -0.31771490733E+01  0.15698341704E+02  0.51100000000E-03 0.  1.
         12    1    3    3    0    0 -0.17687461557E+02  0.43549246125E+01 -0.18021381748E+02  0.25623853434E+02  0.00000000000E+00 0. -1.
</event>
<event>
 7    1  0.6152255E-013  0.5930195E+02  0.7816164E-02  0.1266605E+00
        -11   -1    0    0    0    0  0.00000000000E+00  0.00000000000E+00  0.45593999997E+02  0.45594000000E+02  0.51100000000E-03 0.  1.
         11   -1    0    0    0    0 -0.00000000000E+00 -0.00000000000E+00 -0.45593999997E+02  0.45594000000E+02  0.51100000000E-03 0. -1.
    9900012    2    1    2    0    0  0.18563948556E+02 -0.29789481125E+01 -0.25753172313E+02  0.59301949727E+02  0.50000010394E+02 0.  0.
        -12    1    1    2    0    0 -0.18563948556E+02  0.29789481125E+01  0.25753172313E+02  0.31886050273E+02  0.00000000000E+00 0.  1.
         11    1    3    3    0    0 -0.10835466010E+02  0.54228919664E+01 -0.12478287760E+02  0.17393181038E+02  0.51100000000E-03 0.  1.
        -11    1    3    3    0    0  0.21786705325E+02 -0.30066891863E+01 -0.20532433504E+02  0.30087896813E+02  0.51100000000E-03 0. -1.
         12    1    3    3    0    0  0.76127092409E+01 -0.53951508925E+01  0.72575489510E+01  0.11820871876E+02  0.00000000000E+00 0. -1.
</event>
<event>
 7    1  0.6152255E-013  0.5930194E+02  0.7816164E-02  0.1266605E+00
        -11   -1    0    0    0    0  0.00000000000E+00  0.00000000000E+00  0.45593999997E+02  0.45594000000E+02  0.51100000000E-03 0.  1.
         11   -1    0    0    0    0 -0.00000000000E+00 -0.00000000000E+00 -0.45593999997E+02  0.45594000000E+02  0.51100000000E-03 0. -1.
    9900012    2    1    2    0    0  0.13832858904E+02 -0.40919827258E+01 -0.28436389337E+02  0.59301944323E+02  0.50000000539E+02 0.  0.
        -12    1    1    2    0    0 -0.13832858904E+02  0.40919827258E+01  0.28436389337E+02  0.31886055677E+02  0.00000000000E+00 0.  1.
         11    1    3    3    0    0  0.61348647095E+01 -0.14978790919E+01  0.20253282418E+01  0.66319048188E+01  0.51100000000E-03 0. -1.
        -11    1    3    3    0    0  0.20811130036E+02  0.10122191554E+02 -0.99121993786E+01  0.25175654748E+02  0.51100000000E-03 0.  1.
         12    1    3    3    0    0 -0.13113135841E+02 -0.12716295187E+02 -0.20549518200E+02  0.27494384756E+02  0.00000000000E+00 0. -1.
</event>
<event>
 7    1  0.7197892E-013  0.5930197E+02  0.7816164E-02  0.1266605E+00
        -11   -1    0    0    0    0  0.00000000000E+00  0.00000000000E+00  0.45593999997E+02  0.45594000000E+02  0.51100000000E-03 0.  1.
         11   -1    0    0    0    0 -0.00000000000E+00 -0.00000000000E+00 -0.45593999997E+02  0.45594000000E+02  0.51100000000E-03 0. -1.
    9900012    2    1    2    0    0 -0.29128512774E+02 -0.35724532686E+01  0.12469419524E+02  0.59301966975E+02  0.50000041850E+02 0.  0.
        -12    1    1    2    0    0  0.29128512774E+02  0.35724532686E+01 -0.12469419524E+02  0.31886033025E+02  0.00000000000E+00 0.  1.
         11    1    3    3    0    0 -0.14896897660E+02  0.25375208954E+01  0.11293895819E+01  0.15153616508E+02  0.51100000000E-03 0. -1.
        -11    1    3    3    0    0 -0.29760150069E+01  0.38876816235E+01 -0.13912491272E+02  0.14748835459E+02  0.51100000000E-03 0.  1.
         12    1    3    3    0    0 -0.11255600108E+02 -0.99976557874E+01  0.25252521215E+02  0.29399515008E+02  0.00000000000E+00 0. -1.
</event>
<event>
 7    1  0.6152255E-013  0.5930194E+02  0.7816164E-02  0.1266605E+00
        -11   -1    0    0    0    0  0.00000000000E+00  0.00000000000E+00  0.45593999997E+02  0.45594000000E+02  0.51100000000E-03 0.  1.
         11   -1    0    0    0    0 -0.00000000000E+00 -0.00000000000E+00 -0.45593999997E+02  0.45594000000E+02  0.51100000000E-03 0. -1.
    9900012    2    1    2    0    0 -0.16732294949E+02  0.42717231552E+01 -0.26804914504E+02  0.59301941063E+02  0.49999994593E+02 0.  0.
        -12    1    1    2    0    0  0.16732294949E+02 -0.42717231552E+01  0.26804914504E+02  0.31886058937E+02  0.00000000000E+00 0.  1.
         11    1    3    3    0    0  0.61185186048E+01  0.22995906403E+01 -0.28646795339E+02  0.29383043929E+02  0.51100000000E-03 0. -1.
        -11    1    3    3    0    0  0.18724903730E+01 -0.39763855445E+01  0.80922646695E+00  0.44690837911E+01  0.51100000000E-03 0.  1.
        -12    1    3    3    0    0 -0.24723303927E+02  0.59485180594E+01  0.10326543686E+01  0.25449813343E+02  0.00000000000E+00 0.  1.
</event>
<event>
 7    1  0.6152255E-013  0.5930195E+02  0.7816164E-02  0.1266605E+00
        -11   -1    0    0    0    0  0.00000000000E+00  0.00000000000E+00  0.45593999997E+02  0.45594000000E+02  0.51100000000E-03 0.  1.
         11   -1    0    0    0    0 -0.00000000000E+00 -0.00000000000E+00 -0.45593999997E+02  0.45594000000E+02  0.51100000000E-03 0. -1.
    9900012    2    1    2    0    0  0.65163037758E+01  0.19121780381E+02 -0.24670130598E+02  0.59301952211E+02  0.50000014925E+02 0.  0.
        -12    1    1    2    0    0 -0.65163037758E+01 -0.19121780381E+02  0.24670130598E+02  0.31886047789E+02  0.00000000000E+00 0.  1.
         11    1    3    3    0    0 -0.60243815354E+01  0.18897007456E+02 -0.24834437198E+02  0.31782689233E+02  0.51100000000E-03 0. -1.
        -11    1    3    3    0    0 -0.70389292605E+00  0.10639145866E+02  0.38057102893E+00  0.10669195123E+02  0.51100000000E-03 0.  1.
         12    1    3    3    0    0  0.13244578237E+02 -0.10414372941E+02 -0.21626442873E+00  0.16850067855E+02  0.00000000000E+00 0. -1.
</event>
<event>
 7    1  0.6152255E-013  0.5930194E+02  0.7816164E-02  0.1266605E+00
        -11   -1    0    0    0    0  0.00000000000E+00  0.00000000000E+00  0.45593999997E+02  0.45594000000E+02  0.51100000000E-03 0.  1.
         11   -1    0    0    0    0 -0.00000000000E+00 -0.00000000000E+00 -0.45593999997E+02  0.45594000000E+02  0.51100000000E-03 0. -1.
    9900012    2    1    2    0    0 -0.71309127125E+01  0.31053998509E+02  0.12327874740E+01  0.59301944984E+02  0.50000001744E+02 0.  0.
        -12    1    1    2    0    0  0.71309127125E+01 -0.31053998509E+02 -0.12327874740E+01  0.31886055016E+02  0.00000000000E+00 0.  1.
         11    1    3    3    0    0 -0.15228907405E+02  0.24774550499E+02 -0.10536648795E+02  0.30930873594E+02  0.51100000000E-03 0. -1.
        -11    1    3    3    0    0  0.35929658049E+01  0.81382919939E+01 -0.54785769872E+01  0.10447775166E+02  0.51100000000E-03 0.  1.
        -12    1    3    3    0    0  0.45050288872E+01 -0.18588439840E+01  0.17248013257E+02  0.17923296224E+02  0.00000000000E+00 0.  1.
</event>
<event>
 7    1  0.6152255E-013  0.5930197E+02  0.7816164E-02  0.1266605E+00
        -11   -1    0    0    0    0  0.00000000000E+00  0.00000000000E+00  0.45593999997E+02  0.45594000000E+02  0.51100000000E-03 0.  1.
         11   -1    0    0    0    0 -0.00000000000E+00 -0.00000000000E+00 -0.45593999997E+02  0.45594000000E+02  0.51100000000E-03 0. -1.
    9900012    2    1    2    0    0 -0.25664509181E+02 -0.51696673602E+01 -0.18202377988E+02  0.59301967689E+02  0.50000043152E+02 0.  0.
        -12    1    1    2    0    0  0.25664509181E+02  0.51696673602E+01  0.18202377988E+02  0.31886032311E+02  0.00000000000E+00 0.  1.
         11    1    3    3    0    0 -0.11476994103E+02  0.90516324874E+01  0.25525803237E+01  0.14838096606E+02  0.51100000000E-03 0. -1.
        -11    1    3    3    0    0 -0.20744647762E+02 -0.81751921887E+01 -0.46743157336E+00  0.22302301914E+02  0.51100000000E-03 0.  1.
         12    1    3    3    0    0  0.65571326843E+01 -0.60461076589E+01 -0.20287526739E+02  0.22161569169E+02  0.00000000000E+00 0. -1.
</event>
<event>
 7    1  0.6152255E-013  0.5930204E+02  0.7816164E-02  0.1266604E+00
        -11   -1    0    0    0    0  0.00000000000E+00  0.00000000000E+00  0.45593999997E+02  0.45594000000E+02  0.51100000000E-03 0. -1.
         11   -1    0    0    0    0 -0.00000000000E+00 -0.00000000000E+00 -0.45593999997E+02  0.45594000000E+02  0.51100000000E-03 0.  1.
    9900012    2    1    2    0    0  0.50179040259E+01  0.20753121099E+02  0.23682130260E+02  0.59302036163E+02  0.50000168033E+02 0.  0.
        -12    1    1    2    0    0 -0.50179040259E+01 -0.20753121099E+02 -0.23682130260E+02  0.31885963837E+02  0.00000000000E+00 0.  1.
         11    1    3    3    0    0 -0.53477127350E+01  0.51238105497E+01  0.64239843483E+01  0.98040318856E+01  0.51100000000E-03 0. -1.
        -11    1    3    3    0    0 -0.68816987198E+01  0.55329260547E+01 -0.11486660271E+02  0.14488423394E+02  0.51100000000E-03 0.  1.
         12    1    3    3    0    0  0.17247315481E+02  0.10096384495E+02  0.28744806183E+02  0.35009580883E+02  0.00000000000E+00 0. -1.
</event>
<event>
 7    1  0.6152255E-013  0.5930194E+02  0.7816164E-02  0.1266605E+00
        -11   -1    0    0    0    0  0.00000000000E+00  0.00000000000E+00  0.45593999997E+02  0.45594000000E+02  0.51100000000E-03 0.  1.
         11   -1    0    0    0    0 -0.00000000000E+00 -0.00000000000E+00 -0.45593999997E+02  0.45594000000E+02  0.51100000000E-03 0. -1.
    9900012    2    1    2    0    0 -0.12317403808E+02 -0.28577331432E+02 -0.69525889598E+01  0.59301940325E+02  0.49999993247E+02 0.  0.
        -12    1    1    2    0    0  0.12317403808E+02  0.28577331432E+02  0.69525889598E+01  0.31886059675E+02  0.00000000000E+00 0.  1.
         11    1    3    3    0    0 -0.93900584958E+00 -0.45567805440E+01 -0.11361602324E+02  0.12277295653E+02  0.51100000000E-03 0. -1.
        -11    1    3    3    0    0 -0.10982365513E+02 -0.32891740982E+02 -0.38597422024E+01  0.34890924138E+02  0.51100000000E-03 0.  1.
         12    1    3    3    0    0 -0.39603244572E+00  0.88711900935E+01  0.82687555666E+01  0.12133720534E+02  0.00000000000E+00 0. -1.
</event>
<event>
 7    1  0.6152255E-013  0.5930196E+02  0.7816164E-02  0.1266605E+00
        -11   -1    0    0    0    0  0.00000000000E+00  0.00000000000E+00  0.45593999997E+02  0.45594000000E+02  0.51100000000E-03 0.  1.
         11   -1    0    0    0    0 -0.00000000000E+00 -0.00000000000E+00 -0.45593999997E+02  0.45594000000E+02  0.51100000000E-03 0. -1.
    9900012    2    1    2    0    0 -0.20893609250E+02 -0.23176360301E+02 -0.65599423556E+01  0.59301961864E+02  0.50000032528E+02 0.  0.
        -12    1    1    2    0    0  0.20893609250E+02  0.23176360301E+02  0.65599423556E+01  0.31886038136E+02  0.00000000000E+00 0.  1.
         11    1    3    3    0    0  0.38502197706E+01  0.25669113344E+01 -0.17685073790E+01  0.49538716870E+01  0.51100000000E-03 0.  1.
        -11    1    3    3    0    0  0.23027072195E+01 -0.25242317799E+02  0.45044257522E+01  0.25744259943E+02  0.51100000000E-03 0. -1.
         12    1    3    3    0    0 -0.27046536240E+02 -0.50095383721E+00 -0.92958607287E+01  0.28603830234E+02  0.00000000000E+00 0. -1.
</event>
<event>
 7    1  0.6152255E-013  0.5930155E+02  0.7816164E-02  0.1266606E+00
        -11   -1    0    0    0    0  0.00000000000E+00  0.00000000000E+00  0.45593999997E+02  0.45594000000E+02  0.51100000000E-03 0. -1.
         11   -1    0    0    0    0 -0.00000000000E+00 -0.00000000000E+00 -0.45593999997E+02  0.45594000000E+02  0.51100000000E-03 0.  1.
    9900012    2    1    2    0    0 -0.15651019541E+02  0.27762983038E+02  0.10039723562E+01  0.59301551463E+02  0.49999284051E+02 0.  0.
        -12    1    1    2    0    0  0.15651019541E+02 -0.27762983038E+02 -0.10039723562E+01  0.31886448537E+02  0.00000000000E+00 0.  1.
         11    1    3    3    0    0 -0.22125962751E+00  0.86636085428E+01  0.38497224300E+01  0.94830075322E+01  0.51100000000E-03 0. -1.
        -11    1    3    3    0    0 -0.24021281210E+01 -0.19083908504E-01  0.18311193359E+02  0.18468091027E+02  0.51100000000E-03 0.  1.
        -12    1    3    3    0    0 -0.13027631793E+02  0.19118458403E+02 -0.21156943433E+02  0.31350452903E+02  0.00000000000E+00 0.  1.
</event>
<event>
 7    1  0.6152255E-013  0.5930194E+02  0.7816164E-02  0.1266605E+00
        -11   -1    0    0    0    0  0.00000000000E+00  0.00000000000E+00  0.45593999997E+02  0.45594000000E+02  0.51100000000E-03 0.  1.
         11   -1    0    0    0    0 -0.00000000000E+00 -0.00000000000E+00 -0.45593999997E+02  0.45594000000E+02  0.51100000000E-03 0. -1.
    9900012    2    1    2    0    0  0.66567250124E+01  0.84739897892E+01 -0.30010006169E+02  0.59301937824E+02  0.49999988685E+02 0.  0.
        -12    1    1    2    0    0 -0.66567250124E+01 -0.84739897892E+01  0.30010006169E+02  0.31886062176E+02  0.00000000000E+00 0.  1.
         11    1    3    3    0    0  0.30109245646E+01  0.48563269217E+01 -0.24507309135E+02  0.25164613631E+02  0.51100000000E-03 0. -1.
        -11    1    3    3    0    0 -0.57995744505E+01 -0.54312131393E+01 -0.15670530650E+02  0.17569822739E+02  0.51100000000E-03 0.  1.
        -12    1    3    3    0    0  0.94453748983E+01  0.90488760067E+01  0.10167833616E+02  0.16567501453E+02  0.00000000000E+00 0.  1.
</event>
<event>
 7    1  0.6152255E-013  0.5930166E+02  0.7816164E-02  0.1266606E+00
        -11   -1    0    0    0    0  0.00000000000E+00  0.00000000000E+00  0.45593999997E+02  0.45594000000E+02  0.51100000000E-03 0. -1.
         11   -1    0    0    0    0 -0.00000000000E+00 -0.00000000000E+00 -0.45593999997E+02  0.45594000000E+02  0.51100000000E-03 0.  1.
    9900012    2    1    2    0    0 -0.42985705084E+01  0.26561449000E+02 -0.17109947803E+02  0.59301661307E+02  0.49999484383E+02 0.  0.
        -12    1    1    2    0    0  0.42985705084E+01 -0.26561449000E+02  0.17109947803E+02  0.31886338693E+02  0.00000000000E+00 0.  1.
         11    1    3    3    0    0 -0.41411936106E+01  0.37581610908E+02 -0.47144579260E+01  0.38101877602E+02  0.51100000000E-03 0. -1.
        -11    1    3    3    0    0 -0.61975023059E+01 -0.25382030590E+01 -0.59135462482E+01  0.89342900720E+01  0.51100000000E-03 0.  1.
        -12    1    3    3    0    0  0.60401254081E+01 -0.84819588489E+01 -0.64819436292E+01  0.12265493633E+02  0.00000000000E+00 0.  1.
</event>
<event>
 7    1  0.6152255E-013  0.5930190E+02  0.7816164E-02  0.1266605E+00
        -11   -1    0    0    0    0  0.00000000000E+00  0.00000000000E+00  0.45593999997E+02  0.45594000000E+02  0.51100000000E-03 0.  1.
         11   -1    0    0    0    0 -0.00000000000E+00 -0.00000000000E+00 -0.45593999997E+02  0.45594000000E+02  0.51100000000E-03 0. -1.
    9900012    2    1    2    0    0  0.16821245871E+02  0.18537785632E+02 -0.19751439201E+02  0.59301903355E+02  0.49999925822E+02 0.  0.
        -12    1    1    2    0    0 -0.16821245871E+02 -0.18537785632E+02  0.19751439201E+02  0.31886096645E+02  0.00000000000E+00 0.  1.
         11    1    3    3    0    0  0.22719918036E+00 -0.76653361423E+01  0.20751401702E+01  0.79445078280E+01  0.51100000000E-03 0. -1.
        -11    1    3    3    0    0  0.50883331027E+01  0.27425523059E+02 -0.14576986853E+01  0.27931618903E+02  0.51100000000E-03 0.  1.
         12    1    3    3    0    0  0.11505713588E+02 -0.12224012842E+01 -0.20368880685E+02  0.23425776624E+02  0.00000000000E+00 0. -1.
</event>
<event>
 7    1  0.6152255E-013  0.5930196E+02  0.7816164E-02  0.1266605E+00
        -11   -1    0    0    0    0  0.00000000000E+00  0.00000000000E+00  0.45593999997E+02  0.45594000000E+02  0.51100000000E-03 0.  1.
         11   -1    0    0    0    0 -0.00000000000E+00 -0.00000000000E+00 -0.45593999997E+02  0.45594000000E+02  0.51100000000E-03 0. -1.
    9900012    2    1    2    0    0 -0.27177126531E+02  0.15887418672E+02 -0.50708217256E+01  0.59301960554E+02  0.50000030141E+02 0.  0.
        -12    1    1    2    0    0  0.27177126531E+02 -0.15887418672E+02  0.50708217256E+01  0.31886039446E+02  0.00000000000E+00 0.  1.
         11    1    3    3    0    0 -0.23022307801E+02  0.18066073992E+02  0.14272529234E+02  0.32559403817E+02  0.51100000000E-03 0. -1.
        -11    1    3    3    0    0 -0.17493187375E+00 -0.40543432891E-01  0.34758175356E+01  0.34804529493E+01  0.51100000000E-03 0.  1.
        -12    1    3    3    0    0 -0.39798868562E+01 -0.21381118864E+01 -0.22819168495E+02  0.23262103788E+02  0.00000000000E+00 0.  1.
</event>
<event>
 7    1  0.6152255E-013  0.5930194E+02  0.7816164E-02  0.1266605E+00
        -11   -1    0    0    0    0  0.00000000000E+00  0.00000000000E+00  0.45593999997E+02  0.45594000000E+02  0.51100000000E-03 0. -1.
         11   -1    0    0    0    0 -0.00000000000E+00 -0.00000000000E+00 -0.45593999997E+02  0.45594000000E+02  0.51100000000E-03 0.  1.
    9900012    2    1    2    0    0 -0.65795943127E+01 -0.23360174433E+02  0.20681683485E+02  0.59301939682E+02  0.49999992074E+02 0.  0.
        -12    1    1    2    0    0  0.65795943127E+01  0.23360174433E+02 -0.20681683485E+02  0.31886060318E+02  0.00000000000E+00 0.  1.
         11    1    3    3    0    0 -0.18575243702E+02 -0.98285644627E+01 -0.33823897808E+00  0.21017962885E+02  0.51100000000E-03 0. -1.
        -11    1    3    3    0    0 -0.59750327624E+01  0.29071939273E+01  0.92486629295E+00  0.67088129326E+01  0.51100000000E-03 0.  1.
         12    1    3    3    0    0  0.17970682151E+02 -0.16438803898E+02  0.20095056170E+02  0.31575163864E+02  0.00000000000E+00 0. -1.
</event>
<event>
 7    1  0.6152255E-013  0.5930194E+02  0.7816164E-02  0.1266605E+00
        -11   -1    0    0    0    0  0.00000000000E+00  0.00000000000E+00  0.45593999997E+02  0.45594000000E+02  0.51100000000E-03 0.  1.
         11   -1    0    0    0    0 -0.00000000000E+00 -0.00000000000E+00 -0.45593999997E+02  0.45594000000E+02  0.51100000000E-03 0. -1.
    9900012    2    1    2    0    0  0.26699099705E+02  0.46716087895E+01 -0.16794489887E+02  0.59301941224E+02  0.49999994886E+02 0.  0.
        -12    1    1    2    0    0 -0.26699099705E+02 -0.46716087895E+01  0.16794489887E+02  0.31886058776E+02  0.00000000000E+00 0.  1.
         11    1    3    3    0    0  0.25113525165E+02 -0.38910474128E-01 -0.11354060714E+01  0.25139208568E+02  0.51100000000E-03 0. -1.
        -11    1    3    3    0    0  0.70588046519E+01 -0.11232766106E+02 -0.47852728174E+01  0.14103212177E+02  0.51100000000E-03 0.  1.
         12    1    3    3    0    0 -0.54732301116E+01  0.15943285369E+02 -0.10873810998E+02  0.20059520479E+02  0.00000000000E+00 0. -1.
</event>
<event>
 7    1  0.6152255E-013  0.5930194E+02  0.7816164E-02  0.1266605E+00
        -11   -1    0    0    0    0  0.00000000000E+00  0.00000000000E+00  0.45593999997E+02  0.45594000000E+02  0.51100000000E-03 0. -1.
         11   -1    0    0    0    0 -0.00000000000E+00 -0.00000000000E+00 -0.45593999997E+02  0.45594000000E+02  0.51100000000E-03 0.  1.
    9900012    2    1    2    0    0  0.27649520982E+02  0.11649298924E+02  0.10794378727E+02  0.59301940538E+02  0.49999993635E+02 0.  0.
        -12    1    1    2    0    0 -0.27649520982E+02 -0.11649298924E+02 -0.10794378727E+02  0.31886059462E+02  0.00000000000E+00 0.  1.
         11    1    3    3    0    0  0.11171059095E+02 -0.63765140345E+00  0.14074797532E+02  0.17980519637E+02  0.51100000000E-03 0. -1.
        -11    1    3    3    0    0 -0.13984430368E+01 -0.52505550399E+01  0.11160662218E+02  0.12413071842E+02  0.51100000000E-03 0.  1.
        -12    1    3    3    0    0  0.17876904924E+02  0.17537505368E+02 -0.14441081022E+02  0.28908349058E+02  0.00000000000E+00 0.  1.
</event>
<event>
 7    1  0.6152255E-013  0.5930188E+02  0.7816164E-02  0.1266605E+00
        -11   -1    0    0    0    0  0.00000000000E+00  0.00000000000E+00  0.45593999997E+02  0.45594000000E+02  0.51100000000E-03 0. -1.
         11   -1    0    0    0    0 -0.00000000000E+00 -0.00000000000E+00 -0.45593999997E+02  0.45594000000E+02  0.51100000000E-03 0.  1.
    9900012    2    1    2    0    0  0.25054338777E+01 -0.28040066791E+02  0.14973386745E+02  0.59301876761E+02  0.49999877322E+02 0.  0.
        -12    1    1    2    0    0 -0.25054338777E+01  0.28040066791E+02 -0.14973386745E+02  0.31886123239E+02  0.00000000000E+00 0.  1.
         11    1    3    3    0    0  0.21717333844E+02 -0.62620448149E+01  0.72844277208E+01  0.23746972060E+02  0.51100000000E-03 0. -1.
        -11    1    3    3    0    0  0.13110049937E+01 -0.32522975824E+01  0.70797273082E+01  0.79005514160E+01  0.51100000000E-03 0.  1.
        -12    1    3    3    0    0 -0.20522904960E+02 -0.18525724394E+02  0.60923171652E+00  0.27654353285E+02  0.00000000000E+00 0.  1.
</event>
<event>
 7    1  0.6152255E-013  0.5930194E+02  0.7816164E-02  0.1266605E+00
        -11   -1    0    0    0    0  0.00000000000E+00  0.00000000000E+00  0.45593999997E+02  0.45594000000E+02  0.51100000000E-03 0.  1.
         11   -1    0    0    0    0 -0.00000000000E+00 -0.00000000000E+00 -0.45593999997E+02  0.45594000000E+02  0.51100000000E-03 0. -1.
    9900012    2    1    2    0    0 -0.26726719993E+01  0.24809664592E+02 -0.19850900488E+02  0.59301939049E+02  0.49999990920E+02 0.  0.
        -12    1    1    2    0    0  0.26726719993E+01 -0.24809664592E+02  0.19850900488E+02  0.31886060951E+02  0.00000000000E+00 0.  1.
         11    1    3    3    0    0  0.65264274491E+01 -0.10020513194E+01  0.40153756858E+01  0.77279754305E+01  0.51100000000E-03 0. -1.
        -11    1    3    3    0    0 -0.97024559564E+01  0.83628989875E+00  0.69060446586E+01  0.11938613214E+02  0.51100000000E-03 0.  1.
         12    1    3    3    0    0  0.50335650792E+00  0.24975426013E+02 -0.30772320832E+02  0.39635350405E+02  0.00000000000E+00 0. -1.
</event>
<event>
 7    1  0.6152255E-013  0.5930195E+02  0.7816164E-02  0.1266605E+00
        -11   -1    0    0    0    0  0.00000000000E+00  0.00000000000E+00  0.45593999997E+02  0.45594000000E+02  0.51100000000E-03 0. -1.
         11   -1    0    0    0    0 -0.00000000000E+00 -0.00000000000E+00 -0.45593999997E+02  0.45594000000E+02  0.51100000000E-03 0.  1.
    9900012    2    1    2    0    0  0.11180731809E+02  0.16790974552E+02  0.24693618644E+02  0.59301946749E+02  0.50000004963E+02 0.  0.
        -12    1    1    2    0    0 -0.11180731809E+02 -0.16790974552E+02 -0.24693618644E+02  0.31886053251E+02  0.00000000000E+00 0.  1.
         11    1    3    3    0    0 -0.11699096453E+02 -0.54805345849E+01 -0.36014911167E+01  0.13411780481E+02  0.51100000000E-03 0. -1.
        -11    1    3    3    0    0 -0.10162282205E+00 -0.48290922819E+00  0.73345897665E+01  0.73511724115E+01  0.51100000000E-03 0.  1.
         12    1    3    3    0    0  0.22981451084E+02  0.22754418365E+02  0.20960519994E+02  0.38538993857E+02  0.00000000000E+00 0. -1.
</event>
<event>
 7    1  0.6152255E-013  0.5930178E+02  0.7816164E-02  0.1266605E+00
        -11   -1    0    0    0    0  0.00000000000E+00  0.00000000000E+00  0.45593999997E+02  0.45594000000E+02  0.51100000000E-03 0.  1.
         11   -1    0    0    0    0 -0.00000000000E+00 -0.00000000000E+00 -0.45593999997E+02  0.45594000000E+02  0.51100000000E-03 0. -1.
    9900012    2    1    2    0    0  0.17012146074E+02  0.14455632708E+02 -0.22767352886E+02  0.59301783723E+02  0.49999707642E+02 0.  0.
        -12    1    1    2    0    0 -0.17012146074E+02 -0.14455632708E+02  0.22767352886E+02  0.31886216277E+02  0.00000000000E+00 0.  1.
         11    1    3    3    0    0  0.10894518155E+02  0.56708642316E+00 -0.32773346310E+02  0.34541342496E+02  0.51100000000E-03 0. -1.
        -11    1    3    3    0    0  0.42550570192E+01 -0.76283069609E+00  0.89670301464E+01  0.99546497083E+01  0.51100000000E-03 0.  1.
        -12    1    3    3    0    0  0.18625709001E+01  0.14651376981E+02  0.10389632773E+01  0.14805791518E+02  0.00000000000E+00 0.  1.
</event>
<event>
 7    1  0.6152255E-013  0.5930195E+02  0.7816164E-02  0.1266605E+00
        -11   -1    0    0    0    0  0.00000000000E+00  0.00000000000E+00  0.45593999997E+02  0.45594000000E+02  0.51100000000E-03 0.  1.
         11   -1    0    0    0    0 -0.00000000000E+00 -0.00000000000E+00 -0.45593999997E+02  0.45594000000E+02  0.51100000000E-03 0. -1.
    9900012    2    1    2    0    0 -0.20281103356E+02 -0.32066259116E+01 -0.24394971836E+02  0.59301948913E+02  0.50000008909E+02 0.  0.
        -12    1    1    2    0    0  0.20281103356E+02  0.32066259116E+01  0.24394971836E+02  0.31886051087E+02  0.00000000000E+00 0.  1.
         11    1    3    3    0    0  0.10509750412E+02 -0.63364665159E+01 -0.92324739550E+01  0.15357221013E+02  0.51100000000E-03 0. -1.
        -11    1    3    3    0    0 -0.15485933456E+02 -0.81130402551E+01  0.29172021557E+01  0.17724153742E+02  0.51100000000E-03 0.  1.
         12    1    3    3    0    0 -0.15304920312E+02  0.11242880859E+02 -0.18079700037E+02  0.26220574158E+02  0.00000000000E+00 0. -1.
</event>
<event>
 7    1  0.6152255E-013  0.5930194E+02  0.7816164E-02  0.1266605E+00
        -11   -1    0    0    0    0  0.00000000000E+00  0.00000000000E+00  0.45593999997E+02  0.45594000000E+02  0.51100000000E-03 0.  1.
         11   -1    0    0    0    0 -0.00000000000E+00 -0.00000000000E+00 -0.45593999997E+02  0.45594000000E+02  0.51100000000E-03 0. -1.
    9900012    2    1    2    0    0  0.30185776824E+02 -0.59127357566E+01 -0.84011394267E+01  0.59301941757E+02  0.49999995858E+02 0.  0.
        -12    1    1    2    0    0 -0.30185776824E+02  0.59127357566E+01  0.84011394267E+01  0.31886058243E+02  0.00000000000E+00 0.  1.
         11    1    3    3    0    0 -0.14726668417E+01  0.38332327636E+01 -0.41893466598E+01  0.58662634397E+01  0.51100000000E-03 0. -1.
        -11    1    3    3    0    0  0.19193449901E+02  0.13532690396E+02  0.73524392517E+01  0.24608547126E+02  0.51100000000E-03 0.  1.
        -12    1    3    3    0    0  0.12464993765E+02 -0.23278658916E+02 -0.11564232019E+02  0.28827131191E+02  0.00000000000E+00 0.  1.
</event>
<event>
 7    1  0.6152255E-013  0.5930193E+02  0.7816164E-02  0.1266605E+00
        -11   -1    0    0    0    0  0.00000000000E+00  0.00000000000E+00  0.45593999997E+02  0.45594000000E+02  0.51100000000E-03 0. -1.
         11   -1    0    0    0    0 -0.00000000000E+00 -0.00000000000E+00 -0.45593999997E+02  0.45594000000E+02  0.51100000000E-03 0.  1.
    9900012    2    1    2    0    0  0.29907279971E+02 -0.62947218894E+01 -0.90913410697E+01  0.59301930920E+02  0.49999976094E+02 0.  0.
        -12    1    1    2    0    0 -0.29907279971E+02  0.62947218894E+01  0.90913410697E+01  0.31886069080E+02  0.00000000000E+00 0.  1.
         11    1    3    3    0    0  0.30577250979E+01 -0.77187019052E+01 -0.23083795401E+02  0.24531401351E+02  0.51100000000E-03 0.  1.
        -11    1    3    3    0    0  0.23694563513E+02 -0.37054859299E+01  0.59255697135E+01  0.24703751593E+02  0.51100000000E-03 0. -1.
        -12    1    3    3    0    0  0.31549913598E+01  0.51294659457E+01  0.80668846181E+01  0.10066777976E+02  0.00000000000E+00 0.  1.
</event>
<event>
 7    1  0.6152255E-013  0.5930194E+02  0.7816164E-02  0.1266605E+00
        -11   -1    0    0    0    0  0.00000000000E+00  0.00000000000E+00  0.45593999997E+02  0.45594000000E+02  0.51100000000E-03 0.  1.
         11   -1    0    0    0    0 -0.00000000000E+00 -0.00000000000E+00 -0.45593999997E+02  0.45594000000E+02  0.51100000000E-03 0. -1.
    9900012    2    1    2    0    0  0.20217290107E+02  0.10983900753E+02 -0.22075685012E+02  0.59301940918E+02  0.49999994329E+02 0.  0.
        -12    1    1    2    0    0 -0.20217290107E+02 -0.10983900753E+02  0.22075685012E+02  0.31886059082E+02  0.00000000000E+00 0.  1.
         11    1    3    3    0    0  0.64656833619E+01  0.51478911079E+01 -0.80012253706E+01  0.11503280049E+02  0.51100000000E-03 0. -1.
        -11    1    3    3    0    0  0.27398539022E+01 -0.93373336799E+01 -0.24489448910E+02  0.26351958330E+02  0.51100000000E-03 0.  1.
         12    1    3    3    0    0  0.11011752842E+02  0.15173343325E+02  0.10414989268E+02  0.21446702539E+02  0.00000000000E+00 0. -1.
</event>
<event>
 7    1  0.6152255E-013  0.5930194E+02  0.7816164E-02  0.1266605E+00
        -11   -1    0    0    0    0  0.00000000000E+00  0.00000000000E+00  0.45593999997E+02  0.45594000000E+02  0.51100000000E-03 0.  1.
         11   -1    0    0    0    0 -0.00000000000E+00 -0.00000000000E+00 -0.45593999997E+02  0.45594000000E+02  0.51100000000E-03 0. -1.
    9900012    2    1    2    0    0 -0.53166815143E+01  0.16351590049E+02 -0.26852913501E+02  0.59301944067E+02  0.50000000071E+02 0.  0.
        -12    1    1    2    0    0  0.53166815143E+01 -0.16351590049E+02  0.26852913501E+02  0.31886055933E+02  0.00000000000E+00 0.  1.
         11    1    3    3    0    0 -0.47097544169E+00  0.15085002075E+02 -0.97204600175E+01  0.17951781212E+02  0.51100000000E-03 0. -1.
        -11    1    3    3    0    0 -0.82446765952E+01  0.15208666718E+02  0.20208203415E+01  0.17417288842E+02  0.51100000000E-03 0.  1.
        -12    1    3    3    0    0  0.33989705226E+01 -0.13942078743E+02 -0.19153273825E+02  0.23932874013E+02  0.00000000000E+00 0.  1.
</event>
<event>
 7    1  0.6152255E-013  0.5930195E+02  0.7816164E-02  0.1266605E+00
        -11   -1    0    0    0    0  0.00000000000E+00  0.00000000000E+00  0.45593999997E+02  0.45594000000E+02  0.51100000000E-03 0. -1.
         11   -1    0    0    0    0 -0.00000000000E+00 -0.00000000000E+00 -0.45593999997E+02  0.45594000000E+02  0.51100000000E-03 0.  1.
    9900012    2    1    2    0    0  0.30433484714E+02 -0.74498577189E+01 -0.59179830274E+01  0.59301954541E+02  0.50000019174E+02 0.  0.
        -12    1    1    2    0    0 -0.30433484714E+02  0.74498577189E+01  0.59179830274E+01  0.31886045459E+02  0.00000000000E+00 0.  1.
         11    1    3    3    0    0  0.28276230333E+02 -0.35657646692E+00 -0.55672642730E+01  0.28821290401E+02  0.51100000000E-03 0. -1.
        -11    1    3    3    0    0  0.11300054394E+02 -0.10424434471E+02 -0.86947107318E+01  0.17662334453E+02  0.51100000000E-03 0.  1.
        -12    1    3    3    0    0 -0.91428000134E+01  0.33311532189E+01  0.83439919774E+01  0.12818329687E+02  0.00000000000E+00 0.  1.
</event>
<event>
 7    1  0.6152255E-013  0.5930195E+02  0.7816164E-02  0.1266605E+00
        -11   -1    0    0    0    0  0.00000000000E+00  0.00000000000E+00  0.45593999997E+02  0.45594000000E+02  0.51100000000E-03 0.  1.
         11   -1    0    0    0    0 -0.00000000000E+00 -0.00000000000E+00 -0.45593999997E+02  0.45594000000E+02  0.51100000000E-03 0. -1.
    9900012    2    1    2    0    0 -0.15617912543E+02  0.13565089396E+02 -0.24264986255E+02  0.59301946615E+02  0.50000004718E+02 0.  0.
        -12    1    1    2    0    0  0.15617912543E+02 -0.13565089396E+02  0.24264986255E+02  0.31886053385E+02  0.00000000000E+00 0.  1.
         11    1    3    3    0    0 -0.14365408522E+02  0.25557317398E+02 -0.26132660564E+02  0.39274131219E+02  0.51100000000E-03 0. -1.
        -11    1    3    3    0    0  0.10609204728E+00 -0.81914404926E+01 -0.66830360502E+01  0.10572318761E+02  0.51100000000E-03 0.  1.
        -12    1    3    3    0    0 -0.13585960684E+01 -0.38007875094E+01  0.85507103593E+01  0.94554966352E+01  0.00000000000E+00 0.  1.
</event>
<event>
 7    1  0.6152255E-013  0.5930194E+02  0.7816164E-02  0.1266605E+00
        -11   -1    0    0    0    0  0.00000000000E+00  0.00000000000E+00  0.45593999997E+02  0.45594000000E+02  0.51100000000E-03 0.  1.
         11   -1    0    0    0    0 -0.00000000000E+00 -0.00000000000E+00 -0.45593999997E+02  0.45594000000E+02  0.51100000000E-03 0. -1.
    9900012    2    1    2    0    0  0.22118682693E+02  0.22866096804E+02  0.21508830042E+01  0.59301940275E+02  0.49999993155E+02 0.  0.
        -12    1    1    2    0    0 -0.22118682693E+02 -0.22866096804E+02 -0.21508830042E+01  0.31886059725E+02  0.00000000000E+00 0.  1.
         11    1    3    3    0    0  0.51266431299E+01  0.10752549486E+02 -0.11441672510E+02  0.16517011240E+02  0.51100000000E-03 0. -1.
        -11    1    3    3    0    0 -0.89874044268E+01  0.13345489339E+01 -0.36522096848E+01  0.97925019801E+01  0.51100000000E-03 0.  1.
         12    1    3    3    0    0  0.25979443990E+02  0.10778998384E+02  0.17244765199E+02  0.32992427054E+02  0.00000000000E+00 0. -1.
</event>
<event>
 7    1  0.6152255E-013  0.5930195E+02  0.7816164E-02  0.1266605E+00
        -11   -1    0    0    0    0  0.00000000000E+00  0.00000000000E+00  0.45593999997E+02  0.45594000000E+02  0.51100000000E-03 0.  1.
         11   -1    0    0    0    0 -0.00000000000E+00 -0.00000000000E+00 -0.45593999997E+02  0.45594000000E+02  0.51100000000E-03 0. -1.
    9900012    2    1    2    0    0  0.77250768278E+01 -0.80245662573E+01  0.29877245396E+02  0.59301948691E+02  0.50000008505E+02 0.  0.
        -12    1    1    2    0    0 -0.77250768278E+01  0.80245662573E+01 -0.29877245396E+02  0.31886051309E+02  0.00000000000E+00 0.  1.
         11    1    3    3    0    0  0.71902064711E+01 -0.52531970780E+01  0.27324314482E+01  0.93145762393E+01  0.51100000000E-03 0. -1.
        -11    1    3    3    0    0  0.87580641555E+01  0.81525992779E+01 -0.65380678824E+01  0.13635061226E+02  0.51100000000E-03 0.  1.
         12    1    3    3    0    0 -0.82231937989E+01 -0.10923968457E+02  0.33682881830E+02  0.36352311226E+02  0.00000000000E+00 0. -1.
</event>
<event>
 7    1  0.6152255E-013  0.5930194E+02  0.7816164E-02  0.1266605E+00
        -11   -1    0    0    0    0  0.00000000000E+00  0.00000000000E+00  0.45593999997E+02  0.45594000000E+02  0.51100000000E-03 0.  1.
         11   -1    0    0    0    0 -0.00000000000E+00 -0.00000000000E+00 -0.45593999997E+02  0.45594000000E+02  0.51100000000E-03 0. -1.
    9900012    2    1    2    0    0  0.96251877139E+01  0.88937787320E+01 -0.29068493201E+02  0.59301939792E+02  0.49999992274E+02 0.  0.
        -12    1    1    2    0    0 -0.96251877139E+01 -0.88937787320E+01  0.29068493201E+02  0.31886060208E+02  0.00000000000E+00 0.  1.
         11    1    3    3    0    0  0.63627387664E+01 -0.14988018245E+02 -0.24205343152E+02  0.29172311751E+02  0.51100000000E-03 0. -1.
        -11    1    3    3    0    0  0.54025369951E+01  0.15469625037E+01 -0.52481632773E+01  0.76891948225E+01  0.51100000000E-03 0.  1.
        -12    1    3    3    0    0 -0.21400880477E+01  0.22334834474E+02  0.38501322894E+00  0.22440433218E+02  0.00000000000E+00 0.  1.
</event>
<event>
 7    1  0.6152255E-013  0.5930196E+02  0.7816164E-02  0.1266605E+00
        -11   -1    0    0    0    0  0.00000000000E+00  0.00000000000E+00  0.45593999997E+02  0.45594000000E+02  0.51100000000E-03 0.  1.
         11   -1    0    0    0    0 -0.00000000000E+00 -0.00000000000E+00 -0.45593999997E+02  0.45594000000E+02  0.51100000000E-03 0. -1.
    9900012    2    1    2    0    0  0.29674582998E+02 -0.11611341762E+02 -0.11469126532E+01  0.59301960072E+02  0.50000029261E+02 0.  0.
        -12    1    1    2    0    0 -0.29674582998E+02  0.11611341762E+02  0.11469126532E+01  0.31886039928E+02  0.00000000000E+00 0.  1.
         11    1    3    3    0    0 -0.43580698730E+01 -0.83034221419E+01 -0.16165621464E+02  0.18688684005E+02  0.51100000000E-03 0. -1.
        -11    1    3    3    0    0  0.16784193858E+02 -0.21082494521E+01 -0.11311913737E+01  0.16953863082E+02  0.51100000000E-03 0.  1.
        -12    1    3    3    0    0  0.17248459014E+02 -0.11996701676E+01  0.16149900184E+02  0.23659412985E+02  0.00000000000E+00 0.  1.
</event>
<event>
 7    1  0.6152255E-013  0.5930186E+02  0.7816164E-02  0.1266605E+00
        -11   -1    0    0    0    0  0.00000000000E+00  0.00000000000E+00  0.45593999997E+02  0.45594000000E+02  0.51100000000E-03 0.  1.
         11   -1    0    0    0    0 -0.00000000000E+00 -0.00000000000E+00 -0.45593999997E+02  0.45594000000E+02  0.51100000000E-03 0. -1.
    9900012    2    1    2    0    0  0.20436178738E+01  0.92339192747E+01 -0.30451337718E+02  0.59301864956E+02  0.49999855793E+02 0.  0.
        -12    1    1    2    0    0 -0.20436178738E+01 -0.92339192747E+01  0.30451337718E+02  0.31886135044E+02  0.00000000000E+00 0.  1.
         11    1    3    3    0    0  0.36995041872E+01  0.20789518778E+02 -0.15935612593E+02  0.26454379056E+02  0.51100000000E-03 0. -1.
        -11    1    3    3    0    0  0.52471084559E+01  0.67512903647E+01 -0.11043362928E+00  0.85512726879E+01  0.51100000000E-03 0.  1.
        -12    1    3    3    0    0 -0.69029947693E+01 -0.18306889868E+02 -0.14405291496E+02  0.24296213213E+02  0.00000000000E+00 0.  1.
</event>
<event>
 7    1  0.6152255E-013  0.5930194E+02  0.7816164E-02  0.1266605E+00
        -11   -1    0    0    0    0  0.00000000000E+00  0.00000000000E+00  0.45593999997E+02  0.45594000000E+02  0.51100000000E-03 0. -1.
         11   -1    0    0    0    0 -0.00000000000E+00 -0.00000000000E+00 -0.45593999997E+02  0.45594000000E+02  0.51100000000E-03 0.  1.
    9900012    2    1    2    0    0  0.57782591179E+01 -0.30998723340E+02 -0.47341099415E+01  0.59301938405E+02  0.49999989745E+02 0.  0.
        -12    1    1    2    0    0 -0.57782591179E+01  0.30998723340E+02  0.47341099415E+01  0.31886061595E+02  0.00000000000E+00 0.  1.
         11    1    3    3    0    0 -0.45856977974E+01  0.68756706207E+01 -0.12485567725E+02  0.14973071577E+02  0.51100000000E-03 0. -1.
        -11    1    3    3    0    0 -0.23547046362E+01 -0.67158537874E+01 -0.46062793273E+01  0.84773306836E+01  0.51100000000E-03 0.  1.
         12    1    3    3    0    0  0.12718661551E+02 -0.31158540173E+02  0.12357737111E+02  0.35851536144E+02  0.00000000000E+00 0. -1.
</event>
<event>
 7    1  0.6152255E-013  0.5930195E+02  0.7816164E-02  0.1266605E+00
        -11   -1    0    0    0    0  0.00000000000E+00  0.00000000000E+00  0.45593999997E+02  0.45594000000E+02  0.51100000000E-03 0.  1.
         11   -1    0    0    0    0 -0.00000000000E+00 -0.00000000000E+00 -0.45593999997E+02  0.45594000000E+02  0.51100000000E-03 0. -1.
    9900012    2    1    2    0    0  0.30711065208E+02 -0.77936278001E+01  0.35791255834E+01  0.59301948184E+02  0.50000007580E+02 0.  0.
        -12    1    1    2    0    0 -0.30711065208E+02  0.77936278001E+01 -0.35791255834E+01  0.31886051816E+02  0.00000000000E+00 0.  1.
         11    1    3    3    0    0  0.28503619496E+02  0.15162356032E+00  0.12763826293E+02  0.31231307625E+02  0.51100000000E-03 0. -1.
        -11    1    3    3    0    0  0.79890560628E+01 -0.14103900038E+00  0.60368308526E+01  0.10014401419E+02  0.51100000000E-03 0.  1.
        -12    1    3    3    0    0 -0.57816103509E+01 -0.78042123600E+01 -0.15221531562E+02  0.18056239141E+02  0.00000000000E+00 0.  1.
</event>
<event>
 7    1  0.6152255E-013  0.5930200E+02  0.7816164E-02  0.1266605E+00
        -11   -1    0    0    0    0  0.00000000000E+00  0.00000000000E+00  0.45593999997E+02  0.45594000000E+02  0.51100000000E-03 0.  1.
         11   -1    0    0    0    0 -0.00000000000E+00 -0.00000000000E+00 -0.45593999997E+02  0.45594000000E+02  0.51100000000E-03 0. -1.
    9900012    2    1    2    0    0  0.17566534318E+02 -0.25866913496E+02 -0.62479125971E+01  0.59302003802E+02  0.50000109014E+02 0.  0.
        -12    1    1    2    0    0 -0.17566534318E+02  0.25866913496E+02  0.62479125971E+01  0.31885996198E+02  0.00000000000E+00 0.  1.
         11    1    3    3    0    0  0.10221854258E+02  0.28512962619E+01 -0.12910682341E+02  0.16712328193E+02  0.51100000000E-03 0. -1.
        -11    1    3    3    0    0  0.70664186745E+01  0.47640412515E+01  0.44580106522E+00  0.85339967647E+01  0.51100000000E-03 0.  1.
        -12    1    3    3    0    0  0.27826138549E+00 -0.33482251009E+02  0.62169686790E+01  0.34055678845E+02  0.00000000000E+00 0.  1.
</event>
<event>
 7    1  0.6152255E-013  0.5930184E+02  0.7816164E-02  0.1266605E+00
        -11   -1    0    0    0    0  0.00000000000E+00  0.00000000000E+00  0.45593999997E+02  0.45594000000E+02  0.51100000000E-03 0.  1.
         11   -1    0    0    0    0 -0.00000000000E+00 -0.00000000000E+00 -0.45593999997E+02  0.45594000000E+02  0.51100000000E-03 0. -1.
    9900012    2    1    2    0    0  0.22212669892E+00 -0.11387294528E+02 -0.29782667804E+02  0.59301841272E+02  0.49999812597E+02 0.  0.
        -12    1    1    2    0    0 -0.22212669892E+00  0.11387294528E+02  0.29782667804E+02  0.31886158728E+02  0.00000000000E+00 0.  1.
         11    1    3    3    0    0 -0.11276260963E+02 -0.13941600136E+02 -0.92927631788E+01  0.20195982854E+02  0.51100000000E-03 0. -1.
        -11    1    3    3    0    0  0.16593296182E+02 -0.60369444709E+01 -0.22815700236E+02  0.28850274769E+02  0.51100000000E-03 0.  1.
        -12    1    3    3    0    0 -0.50949085197E+01  0.85912500797E+01  0.23257956107E+01  0.10255583649E+02  0.00000000000E+00 0.  1.
</event>
<event>
 7    1  0.6152255E-013  0.5930193E+02  0.7816164E-02  0.1266605E+00
        -11   -1    0    0    0    0  0.00000000000E+00  0.00000000000E+00  0.45593999997E+02  0.45594000000E+02  0.51100000000E-03 0.  1.
         11   -1    0    0    0    0 -0.00000000000E+00 -0.00000000000E+00 -0.45593999997E+02  0.45594000000E+02  0.51100000000E-03 0. -1.
    9900012    2    1    2    0    0 -0.26911985992E+02  0.10035187790E+02 -0.13847797761E+02  0.59301929580E+02  0.49999973650E+02 0.  0.
        -12    1    1    2    0    0  0.26911985992E+02 -0.10035187790E+02  0.13847797761E+02  0.31886070420E+02  0.00000000000E+00 0.  1.
         11    1    3    3    0    0  0.98106764962E-01 -0.87582472892E+01 -0.20783736020E+01  0.90020085318E+01  0.51100000000E-03 0. -1.
        -11    1    3    3    0    0  0.95534148190E+00 -0.36262757411E+01  0.83806456258E+01  0.91813819474E+01  0.51100000000E-03 0.  1.
         12    1    3    3    0    0 -0.27965434239E+02  0.22419710820E+02 -0.20150069784E+02  0.41118539100E+02  0.00000000000E+00 0. -1.
</event>
<event>
 7    1  0.6152255E-013  0.5930192E+02  0.7816164E-02  0.1266605E+00
        -11   -1    0    0    0    0  0.00000000000E+00  0.00000000000E+00  0.45593999997E+02  0.45594000000E+02  0.51100000000E-03 0.  1.
         11   -1    0    0    0    0 -0.00000000000E+00 -0.00000000000E+00 -0.45593999997E+02  0.45594000000E+02  0.51100000000E-03 0. -1.
    9900012    2    1    2    0    0 -0.28999047518E-01 -0.30409993608E+02  0.95892554871E+01  0.59301915684E+02  0.49999948308E+02 0.  0.
        -12    1    1    2    0    0  0.28999047518E-01  0.30409993608E+02 -0.95892554871E+01  0.31886084316E+02  0.00000000000E+00 0.  1.
         11    1    3    3    0    0  0.10351087827E+01  0.17066522202E+01  0.41240333595E+01  0.45816769205E+01  0.51100000000E-03 0. -1.
        -11    1    3    3    0    0  0.14618296911E+02 -0.30003686655E+02  0.14621874048E+02  0.36437824007E+02  0.51100000000E-03 0.  1.
         12    1    3    3    0    0 -0.15682404741E+02 -0.21129591734E+01 -0.91566519201E+01  0.18282414756E+02  0.00000000000E+00 0. -1.
</event>
<event>
 7    1  0.6152255E-013  0.5930195E+02  0.7816164E-02  0.1266605E+00
        -11   -1    0    0    0    0  0.00000000000E+00  0.00000000000E+00  0.45593999997E+02  0.45594000000E+02  0.51100000000E-03 0. -1.
         11   -1    0    0    0    0 -0.00000000000E+00 -0.00000000000E+00 -0.45593999997E+02  0.45594000000E+02  0.51100000000E-03 0.  1.
    9900012    2    1    2    0    0 -0.24264717448E+02  0.76573268149E+01  0.19217415916E+02  0.59301949111E+02  0.50000009271E+02 0.  0.
        -12    1    1    2    0    0  0.24264717448E+02 -0.76573268149E+01 -0.19217415916E+02  0.31886050889E+02  0.00000000000E+00 0.  1.
         11    1    3    3    0    0  0.76654663029E+01  0.56694682769E+01  0.82906449947E+01  0.12634755196E+02  0.51100000000E-03 0. -1.
        -11    1    3    3    0    0  0.44097109613E+01 -0.26283249449E+01 -0.45881999047E+01  0.68851449807E+01  0.51100000000E-03 0.  1.
        -12    1    3    3    0    0 -0.36339894713E+02  0.46161834829E+01  0.15514970826E+02  0.39782048934E+02  0.00000000000E+00 0.  1.
</event>
<event>
 7    1  0.6152255E-013  0.5930194E+02  0.7816164E-02  0.1266605E+00
        -11   -1    0    0    0    0  0.00000000000E+00  0.00000000000E+00  0.45593999997E+02  0.45594000000E+02  0.51100000000E-03 0. -1.
         11   -1    0    0    0    0 -0.00000000000E+00 -0.00000000000E+00 -0.45593999997E+02  0.45594000000E+02  0.51100000000E-03 0.  1.
    9900012    2    1    2    0    0 -0.31014924739E+02  0.58375481334E+01 -0.45517092270E+01  0.59301943774E+02  0.49999999536E+02 0.  0.
        -12    1    1    2    0    0  0.31014924739E+02 -0.58375481334E+01  0.45517092270E+01  0.31886056226E+02  0.00000000000E+00 0.  1.
         11    1    3    3    0    0  0.53439863804E+01 -0.21711780534E+01 -0.14590255207E+00  0.57700513333E+01  0.51100000000E-03 0. -1.
        -11    1    3    3    0    0 -0.77559029835E+01 -0.29950273462E+01 -0.18135431315E+02  0.19950390702E+02  0.51100000000E-03 0.  1.
        -12    1    3    3    0    0 -0.28603008136E+02  0.11003753533E+02  0.13729624640E+02  0.33581501739E+02  0.00000000000E+00 0.  1.
</event>
<event>
 7    1  0.6152255E-013  0.5930196E+02  0.7816164E-02  0.1266605E+00
        -11   -1    0    0    0    0  0.00000000000E+00  0.00000000000E+00  0.45593999997E+02  0.45594000000E+02  0.51100000000E-03 0.  1.
         11   -1    0    0    0    0 -0.00000000000E+00 -0.00000000000E+00 -0.45593999997E+02  0.45594000000E+02  0.51100000000E-03 0. -1.
    9900012    2    1    2    0    0  0.21437016033E+02  0.20494270690E+02 -0.11711493080E+02  0.59301955127E+02  0.50000020242E+02 0.  0.
        -12    1    1    2    0    0 -0.21437016033E+02 -0.20494270690E+02  0.11711493080E+02  0.31886044873E+02  0.00000000000E+00 0.  1.
         11    1    3    3    0    0  0.40223542167E+01 -0.74016434773E+01  0.69063147038E+01  0.10893155771E+02  0.51100000000E-03 0. -1.
        -11    1    3    3    0    0 -0.45650897228E+01  0.34835081644E+01  0.52685641986E+01  0.77931150565E+01  0.51100000000E-03 0.  1.
         12    1    3    3    0    0  0.21979751539E+02  0.24412406003E+02 -0.23886371983E+02  0.40615684299E+02  0.00000000000E+00 0. -1.
</event>
<event>
 7    1  0.6152255E-013  0.5930194E+02  0.7816164E-02  0.1266605E+00
        -11   -1    0    0    0    0  0.00000000000E+00  0.00000000000E+00  0.45593999997E+02  0.45594000000E+02  0.51100000000E-03 0. -1.
         11   -1    0    0    0    0 -0.00000000000E+00 -0.00000000000E+00 -0.45593999997E+02  0.45594000000E+02  0.51100000000E-03 0.  1.
    9900012    2    1    2    0    0 -0.27066235334E+02  0.27529142982E+01  0.16630133273E+02  0.59301937763E+02  0.49999988575E+02 0.  0.
        -12    1    1    2    0    0  0.27066235334E+02 -0.27529142982E+01 -0.16630133273E+02  0.31886062237E+02  0.00000000000E+00 0.  1.
         11    1    3    3    0    0 -0.14525107820E+02 -0.48013150550E+01  0.19215094740E+02  0.24561173619E+02  0.51100000000E-03 0. -1.
        -11    1    3    3    0    0  0.86971678251E+01 -0.49186546715E+01 -0.13171438384E+01  0.10078132769E+02  0.51100000000E-03 0.  1.
         12    1    3    3    0    0 -0.21238295339E+02  0.12472884025E+02 -0.12678176287E+01  0.24662631375E+02  0.00000000000E+00 0. -1.
</event>
<event>
 7    1  0.6152255E-013  0.5930195E+02  0.7816164E-02  0.1266605E+00
        -11   -1    0    0    0    0  0.00000000000E+00  0.00000000000E+00  0.45593999997E+02  0.45594000000E+02  0.51100000000E-03 0. -1.
         11   -1    0    0    0    0 -0.00000000000E+00 -0.00000000000E+00 -0.45593999997E+02  0.45594000000E+02  0.51100000000E-03 0.  1.
    9900012    2    1    2    0    0 -0.73942775838E+01 -0.28804507050E+02 -0.11504131545E+02  0.59301952738E+02  0.50000015885E+02 0.  0.
        -12    1    1    2    0    0  0.73942775838E+01  0.28804507050E+02  0.11504131545E+02  0.31886047262E+02  0.00000000000E+00 0.  1.
         11    1    3    3    0    0  0.11504402205E+02 -0.97266299497E+01 -0.70621097910E+01  0.16638268997E+02  0.51100000000E-03 0. -1.
        -11    1    3    3    0    0  0.14873086362E+01  0.43212681807E+01  0.80122155730E+01  0.92239386553E+01  0.51100000000E-03 0.  1.
         12    1    3    3    0    0 -0.20385988425E+02 -0.23399145281E+02 -0.12454237327E+02  0.33439745085E+02  0.00000000000E+00 0. -1.
</event>
<event>
 7    1  0.6152255E-013  0.5930194E+02  0.7816164E-02  0.1266605E+00
        -11   -1    0    0    0    0  0.00000000000E+00  0.00000000000E+00  0.45593999997E+02  0.45594000000E+02  0.51100000000E-03 0. -1.
         11   -1    0    0    0    0 -0.00000000000E+00 -0.00000000000E+00 -0.45593999997E+02  0.45594000000E+02  0.51100000000E-03 0.  1.
    9900012    2    1    2    0    0  0.30802934281E+02 -0.81986277484E+01 -0.82614606395E+00  0.59301940749E+02  0.49999994020E+02 0.  0.
        -12    1    1    2    0    0 -0.30802934281E+02  0.81986277484E+01  0.82614606395E+00  0.31886059251E+02  0.00000000000E+00 0.  1.
         11    1    3    3    0    0  0.47666383168E+00 -0.63672404097E+01  0.11973403481E+02  0.13569500728E+02  0.51100000000E-03 0. -1.
        -11    1    3    3    0    0  0.25713470245E+02  0.12346796690E+02 -0.11538513162E+02  0.30769517818E+02  0.51100000000E-03 0.  1.
         12    1    3    3    0    0  0.46128002045E+01 -0.14178184028E+02 -0.12610363821E+01  0.14962922202E+02  0.00000000000E+00 0. -1.
</event>
<event>
 7    1  0.6152255E-013  0.5930194E+02  0.7816164E-02  0.1266605E+00
        -11   -1    0    0    0    0  0.00000000000E+00  0.00000000000E+00  0.45593999997E+02  0.45594000000E+02  0.51100000000E-03 0. -1.
         11   -1    0    0    0    0 -0.00000000000E+00 -0.00000000000E+00 -0.45593999997E+02  0.45594000000E+02  0.51100000000E-03 0.  1.
    9900012    2    1    2    0    0  0.31745393021E+02 -0.54645921687E+00  0.29414854818E+01  0.59301938272E+02  0.49999989502E+02 0.  0.
        -12    1    1    2    0    0 -0.31745393021E+02  0.54645921687E+00 -0.29414854818E+01  0.31886061728E+02  0.00000000000E+00 0.  1.
         11    1    3    3    0    0  0.20204386276E+01 -0.65127507247E+01  0.19614077881E+02  0.20765600055E+02  0.51100000000E-03 0. -1.
        -11    1    3    3    0    0 -0.75218567947E+00 -0.27903714950E+01 -0.47485305063E+00  0.29287270370E+01  0.51100000000E-03 0.  1.
         12    1    3    3    0    0  0.30477140072E+02  0.87566630028E+01 -0.16197739348E+02  0.35607611180E+02  0.00000000000E+00 0. -1.
</event>
<event>
 7    1  0.6152255E-013  0.5930196E+02  0.7816164E-02  0.1266605E+00
        -11   -1    0    0    0    0  0.00000000000E+00  0.00000000000E+00  0.45593999997E+02  0.45594000000E+02  0.51100000000E-03 0.  1.
         11   -1    0    0    0    0 -0.00000000000E+00 -0.00000000000E+00 -0.45593999997E+02  0.45594000000E+02  0.51100000000E-03 0. -1.
    9900012    2    1    2    0    0 -0.62717551230E+01 -0.29719121450E+02 -0.97035289452E+01  0.59301959699E+02  0.50000028581E+02 0.  0.
        -12    1    1    2    0    0  0.62717551230E+01  0.29719121450E+02  0.97035289452E+01  0.31886040301E+02  0.00000000000E+00 0.  1.
         11    1    3    3    0    0 -0.44659829888E+01 -0.10962940167E+02 -0.15421415505E+02  0.19440964935E+02  0.51100000000E-03 0. -1.
        -11    1    3    3    0    0 -0.25887995392E+01  0.76256847258E+01 -0.69014952376E+01  0.10605827991E+02  0.51100000000E-03 0.  1.
        -12    1    3    3    0    0  0.78302740497E+00 -0.26381866008E+02  0.12619381797E+02  0.29255166774E+02  0.00000000000E+00 0.  1.
</event>
<event>
 7    1  0.6152255E-013  0.5930193E+02  0.7816164E-02  0.1266605E+00
        -11   -1    0    0    0    0  0.00000000000E+00  0.00000000000E+00  0.45593999997E+02  0.45594000000E+02  0.51100000000E-03 0.  1.
         11   -1    0    0    0    0 -0.00000000000E+00 -0.00000000000E+00 -0.45593999997E+02  0.45594000000E+02  0.51100000000E-03 0. -1.
    9900012    2    1    2    0    0  0.23442340738E+02  0.21608613346E+02  0.49563393597E+00  0.59301934658E+02  0.49999982912E+02 0.  0.
        -12    1    1    2    0    0 -0.23442340738E+02 -0.21608613346E+02 -0.49563393597E+00  0.31886065342E+02  0.00000000000E+00 0.  1.
         11    1    3    3    0    0 -0.12952571174E+02 -0.42115158261E+01 -0.12308648608E+01  0.13675561931E+02  0.51100000000E-03 0. -1.
        -11    1    3    3    0    0  0.10024921139E+01  0.30417587378E+01  0.15006561493E+01  0.35368426311E+01  0.51100000000E-03 0.  1.
        -12    1    3    3    0    0  0.35392419798E+02  0.22778370434E+02  0.22584264750E+00  0.42089530096E+02  0.00000000000E+00 0.  1.
</event>
<event>
 7    1  0.6152255E-013  0.5930199E+02  0.7816164E-02  0.1266605E+00
        -11   -1    0    0    0    0  0.00000000000E+00  0.00000000000E+00  0.45593999997E+02  0.45594000000E+02  0.51100000000E-03 0.  1.
         11   -1    0    0    0    0 -0.00000000000E+00 -0.00000000000E+00 -0.45593999997E+02  0.45594000000E+02  0.51100000000E-03 0. -1.
    9900012    2    1    2    0    0 -0.19432328966E+02 -0.23521524920E+02 -0.92650011653E+01  0.59301987547E+02  0.50000079368E+02 0.  0.
        -12    1    1    2    0    0  0.19432328966E+02  0.23521524920E+02  0.92650011653E+01  0.31886012453E+02  0.00000000000E+00 0.  1.
         11    1    3    3    0    0  0.20723557141E+01 -0.60729911966E+01 -0.49202632651E+00  0.64356794861E+01  0.51100000000E-03 0. -1.
        -11    1    3    3    0    0  0.80972756002E+01  0.76166393930E+01 -0.86372513841E+01  0.14077683741E+02  0.51100000000E-03 0.  1.
        -12    1    3    3    0    0 -0.29601960280E+02 -0.25065173116E+02 -0.13572345468E+00  0.38788624319E+02  0.00000000000E+00 0.  1.
</event>
<event>
 7    1  0.6152255E-013  0.5930198E+02  0.7816164E-02  0.1266605E+00
        -11   -1    0    0    0    0  0.00000000000E+00  0.00000000000E+00  0.45593999997E+02  0.45594000000E+02  0.51100000000E-03 0.  1.
         11   -1    0    0    0    0 -0.00000000000E+00 -0.00000000000E+00 -0.45593999997E+02  0.45594000000E+02  0.51100000000E-03 0. -1.
    9900012    2    1    2    0    0  0.12686812867E+02 -0.29245600607E+02  0.67652386563E+00  0.59301983313E+02  0.50000071648E+02 0.  0.
        -12    1    1    2    0    0 -0.12686812867E+02  0.29245600607E+02 -0.67652386563E+00  0.31886016687E+02  0.00000000000E+00 0.  1.
         11    1    3    3    0    0 -0.13775973795E+02 -0.13667709802E+02 -0.60465674199E+01  0.20325961799E+02  0.51100000000E-03 0. -1.
        -11    1    3    3    0    0 -0.28128356883E+01 -0.54333842867E+01  0.50743422875E+01  0.79487520611E+01  0.51100000000E-03 0.  1.
         12    1    3    3    0    0  0.29275622350E+02 -0.10144506518E+02  0.16487489980E+01  0.31027269454E+02  0.00000000000E+00 0. -1.
</event>
<event>
 7    1  0.6152255E-013  0.5930187E+02  0.7816164E-02  0.1266605E+00
        -11   -1    0    0    0    0  0.00000000000E+00  0.00000000000E+00  0.45593999997E+02  0.45594000000E+02  0.51100000000E-03 0.  1.
         11   -1    0    0    0    0 -0.00000000000E+00 -0.00000000000E+00 -0.45593999997E+02  0.45594000000E+02  0.51100000000E-03 0. -1.
    9900012    2    1    2    0    0  0.20083250424E+02 -0.20085828791E+02 -0.14489575208E+02  0.59301870484E+02  0.49999865874E+02 0.  0.
        -12    1    1    2    0    0 -0.20083250424E+02  0.20085828791E+02  0.14489575208E+02  0.31886129516E+02  0.00000000000E+00 0.  1.
         11    1    3    3    0    0 -0.37894629929E+00 -0.22394333638E+02 -0.10270652238E+02  0.24640131433E+02  0.51100000000E-03 0. -1.
        -11    1    3    3    0    0  0.16301253342E+02 -0.20979416837E+01 -0.15027416898E+02  0.22270057897E+02  0.51100000000E-03 0.  1.
        -12    1    3    3    0    0  0.41609433807E+01  0.44064465309E+01  0.10808493928E+02  0.12391681155E+02  0.00000000000E+00 0.  1.
</event>
<event>
 7    1  0.6152255E-013  0.5930195E+02  0.7816164E-02  0.1266605E+00
        -11   -1    0    0    0    0  0.00000000000E+00  0.00000000000E+00  0.45593999997E+02  0.45594000000E+02  0.51100000000E-03 0.  1.
         11   -1    0    0    0    0 -0.00000000000E+00 -0.00000000000E+00 -0.45593999997E+02  0.45594000000E+02  0.51100000000E-03 0. -1.
    9900012    2    1    2    0    0  0.81607498160E+01  0.11364909792E+02 -0.28652416846E+02  0.59301952844E+02  0.50000016079E+02 0.  0.
        -12    1    1    2    0    0 -0.81607498160E+01 -0.11364909792E+02  0.28652416846E+02  0.31886047156E+02  0.00000000000E+00 0.  1.
         11    1    3    3    0    0 -0.33924887121E+01  0.22044332537E+00 -0.12536353262E+02  0.12989138859E+02  0.51100000000E-03 0. -1.
        -11    1    3    3    0    0 -0.10661206356E+02  0.81222242505E+00 -0.18839549423E+02  0.21662170919E+02  0.51100000000E-03 0.  1.
        -12    1    3    3    0    0  0.22214444884E+02  0.10332244042E+02  0.27234858391E+01  0.24650643066E+02  0.00000000000E+00 0.  1.
</event>
<event>
 7    1  0.6152255E-013  0.5930194E+02  0.7816164E-02  0.1266605E+00
        -11   -1    0    0    0    0  0.00000000000E+00  0.00000000000E+00  0.45593999997E+02  0.45594000000E+02  0.51100000000E-03 0. -1.
         11   -1    0    0    0    0 -0.00000000000E+00 -0.00000000000E+00 -0.45593999997E+02  0.45594000000E+02  0.51100000000E-03 0.  1.
    9900012    2    1    2    0    0  0.22584401300E+02  0.12861141056E+02  0.18473126448E+02  0.59301944551E+02  0.50000000954E+02 0.  0.
        -12    1    1    2    0    0 -0.22584401300E+02 -0.12861141056E+02 -0.18473126448E+02  0.31886055449E+02  0.00000000000E+00 0.  1.
         11    1    3    3    0    0 -0.82502233338E+01  0.15585200291E+02 -0.25288918620E+01  0.17814599279E+02  0.51100000000E-03 0. -1.
        -11    1    3    3    0    0 -0.92261878928E+00 -0.14553142681E+01  0.61851125493E+01  0.64206528140E+01  0.51100000000E-03 0.  1.
        -12    1    3    3    0    0  0.31757243423E+02 -0.12687449667E+01  0.14816905761E+02  0.35066692458E+02  0.00000000000E+00 0.  1.
</event>
<event>
 7    1  0.6152255E-013  0.5930195E+02  0.7816164E-02  0.1266605E+00
        -11   -1    0    0    0    0  0.00000000000E+00  0.00000000000E+00  0.45593999997E+02  0.45594000000E+02  0.51100000000E-03 0. -1.
         11   -1    0    0    0    0 -0.00000000000E+00 -0.00000000000E+00 -0.45593999997E+02  0.45594000000E+02  0.51100000000E-03 0.  1.
    9900012    2    1    2    0    0 -0.58686102938E+00  0.27763550682E+02  0.15670391506E+02  0.59301947841E+02  0.50000006954E+02 0.  0.
        -12    1    1    2    0    0  0.58686102938E+00 -0.27763550682E+02 -0.15670391506E+02  0.31886052159E+02  0.00000000000E+00 0.  1.
         11    1    3    3    0    0  0.62308309933E+01 -0.30901613546E+01  0.11032996731E+02  0.13042214888E+02  0.51100000000E-03 0. -1.
        -11    1    3    3    0    0  0.10720740842E+02  0.21465364861E+00  0.11307423642E+01  0.10782343852E+02  0.51100000000E-03 0.  1.
        -12    1    3    3    0    0 -0.17538432865E+02  0.30639058388E+02  0.35066524109E+01  0.35477389100E+02  0.00000000000E+00 0.  1.
</event>
<event>
 7    1  0.6152255E-013  0.5930196E+02  0.7816164E-02  0.1266605E+00
        -11   -1    0    0    0    0  0.00000000000E+00  0.00000000000E+00  0.45593999997E+02  0.45594000000E+02  0.51100000000E-03 0.  1.
         11   -1    0    0    0    0 -0.00000000000E+00 -0.00000000000E+00 -0.45593999997E+02  0.45594000000E+02  0.51100000000E-03 0. -1.
    9900012    2    1    2    0    0 -0.31669344215E+02 -0.24712817899E+01 -0.27685536380E+01  0.59301960956E+02  0.50000030873E+02 0.  0.
        -12    1    1    2    0    0  0.31669344215E+02  0.24712817899E+01  0.27685536380E+01  0.31886039044E+02  0.00000000000E+00 0.  1.
         11    1    3    3    0    0 -0.31895802445E+02  0.10719952711E+02 -0.57902018361E+01  0.34143609026E+02  0.51100000000E-03 0. -1.
        -11    1    3    3    0    0 -0.10070486363E+02 -0.85614439606E+01  0.40428288063E+01  0.13822354477E+02  0.51100000000E-03 0.  1.
        -12    1    3    3    0    0  0.10296944593E+02 -0.46297905405E+01 -0.10211806082E+01  0.11335997453E+02  0.00000000000E+00 0.  1.
</event>
<event>
 7    1  0.6152255E-013  0.5930194E+02  0.7816164E-02  0.1266605E+00
        -11   -1    0    0    0    0  0.00000000000E+00  0.00000000000E+00  0.45593999997E+02  0.45594000000E+02  0.51100000000E-03 0.  1.
         11   -1    0    0    0    0 -0.00000000000E+00 -0.00000000000E+00 -0.45593999997E+02  0.45594000000E+02  0.51100000000E-03 0. -1.
    9900012    2    1    2    0    0 -0.15597646259E+02 -0.26379815373E+02  0.88056657349E+01  0.59301937575E+02  0.49999988231E+02 0.  0.
        -12    1    1    2    0    0  0.15597646259E+02  0.26379815373E+02 -0.88056657349E+01  0.31886062425E+02  0.00000000000E+00 0.  1.
         11    1    3    3    0    0 -0.10483180574E-01 -0.24282754990E+02 -0.90235577099E+01  0.25905151878E+02  0.51100000000E-03 0. -1.
        -11    1    3    3    0    0  0.45592819121E+01 -0.46912363081E+01  0.92898453204E+01  0.11362041013E+02  0.51100000000E-03 0.  1.
         12    1    3    3    0    0 -0.20146444991E+02  0.25941759254E+01  0.85393781244E+01  0.22034744683E+02  0.00000000000E+00 0. -1.
</event>
<event>
 7    1  0.6152255E-013  0.5930195E+02  0.7816164E-02  0.1266605E+00
        -11   -1    0    0    0    0  0.00000000000E+00  0.00000000000E+00  0.45593999997E+02  0.45594000000E+02  0.51100000000E-03 0. -1.
         11   -1    0    0    0    0 -0.00000000000E+00 -0.00000000000E+00 -0.45593999997E+02  0.45594000000E+02  0.51100000000E-03 0.  1.
    9900012    2    1    2    0    0 -0.10729487529E+02  0.15460061889E+02  0.25740723734E+02  0.59301948589E+02  0.50000008319E+02 0.  0.
        -12    1    1    2    0    0  0.10729487529E+02 -0.15460061889E+02 -0.25740723734E+02  0.31886051411E+02  0.00000000000E+00 0.  1.
         11    1    3    3    0    0 -0.98728123959E+01  0.10070427547E+02  0.97815836805E+00  0.14136574183E+02  0.51100000000E-03 0. -1.
        -11    1    3    3    0    0 -0.90748969734E+01  0.14925366807E+02  0.91145264871E-01  0.17467931679E+02  0.51100000000E-03 0.  1.
        -12    1    3    3    0    0  0.82182218403E+01 -0.95357324655E+01  0.24671420101E+02  0.27697442728E+02  0.00000000000E+00 0.  1.
</event>
<event>
 7    1  0.6152255E-013  0.5930194E+02  0.7816164E-02  0.1266605E+00
        -11   -1    0    0    0    0  0.00000000000E+00  0.00000000000E+00  0.45593999997E+02  0.45594000000E+02  0.51100000000E-03 0. -1.
         11   -1    0    0    0    0 -0.00000000000E+00 -0.00000000000E+00 -0.45593999997E+02  0.45594000000E+02  0.51100000000E-03 0.  1.
    9900012    2    1    2    0    0 -0.11400002018E+02 -0.22706554993E+02  0.19265859849E+02  0.59301936565E+02  0.49999986390E+02 0.  0.
        -12    1    1    2    0    0  0.11400002018E+02  0.22706554993E+02 -0.19265859849E+02  0.31886063435E+02  0.00000000000E+00 0.  1.
         11    1    3    3    0    0 -0.10653352525E+02  0.17680900114E+01  0.10316819934E+02  0.14935087416E+02  0.51100000000E-03 0. -1.
        -11    1    3    3    0    0  0.13569258501E+02 -0.14433447598E+02  0.16047635538E+02  0.25494622814E+02  0.51100000000E-03 0.  1.
         12    1    3    3    0    0 -0.14315907993E+02 -0.10041197406E+02 -0.70985956223E+01  0.18872226335E+02  0.00000000000E+00 0. -1.
</event>
<event>
 7    1  0.6152255E-013  0.5930193E+02  0.7816164E-02  0.1266605E+00
        -11   -1    0    0    0    0  0.00000000000E+00  0.00000000000E+00  0.45593999997E+02  0.45594000000E+02  0.51100000000E-03 0.  1.
         11   -1    0    0    0    0 -0.00000000000E+00 -0.00000000000E+00 -0.45593999997E+02  0.45594000000E+02  0.51100000000E-03 0. -1.
    9900012    2    1    2    0    0 -0.16527411658E+02  0.36119714136E+01 -0.27028129760E+02  0.59301929814E+02  0.49999974077E+02 0.  0.
        -12    1    1    2    0    0  0.16527411658E+02 -0.36119714136E+01  0.27028129760E+02  0.31886070186E+02  0.00000000000E+00 0.  1.
         11    1    3    3    0    0  0.10059225881E+02 -0.27902007846E+01 -0.27053691662E+02  0.28997852999E+02  0.51100000000E-03 0. -1.
        -11    1    3    3    0    0 -0.11453948097E+02 -0.34941411996E+01  0.19037562289E+01  0.12125437632E+02  0.51100000000E-03 0.  1.
        -12    1    3    3    0    0 -0.15132689442E+02  0.98963133978E+01 -0.18781943269E+01  0.18178639183E+02  0.00000000000E+00 0.  1.
</event>
<event>
 7    1  0.6152255E-013  0.5930194E+02  0.7816164E-02  0.1266605E+00
        -11   -1    0    0    0    0  0.00000000000E+00  0.00000000000E+00  0.45593999997E+02  0.45594000000E+02  0.51100000000E-03 0. -1.
         11   -1    0    0    0    0 -0.00000000000E+00 -0.00000000000E+00 -0.45593999997E+02  0.45594000000E+02  0.51100000000E-03 0.  1.
    9900012    2    1    2    0    0 -0.94024626993E+01  0.10951640272E+02  0.28431960700E+02  0.59301935353E+02  0.49999984179E+02 0.  0.
        -12    1    1    2    0    0  0.94024626993E+01 -0.10951640272E+02 -0.28431960700E+02  0.31886064647E+02  0.00000000000E+00 0.  1.
         11    1    3    3    0    0  0.43315989302E+01 -0.62056881386E+01  0.12095818338E+01  0.76639678392E+01  0.51100000000E-03 0. -1.
        -11    1    3    3    0    0 -0.12666558316E+02  0.29158163721E+02  0.20724046420E+02  0.37948996184E+02  0.51100000000E-03 0.  1.
         12    1    3    3    0    0 -0.10675033140E+01 -0.12000835310E+02  0.64983324459E+01  0.13688971329E+02  0.00000000000E+00 0. -1.
</event>
<event>
 7    1  0.6152255E-013  0.5930196E+02  0.7816164E-02  0.1266605E+00
        -11   -1    0    0    0    0  0.00000000000E+00  0.00000000000E+00  0.45593999997E+02  0.45594000000E+02  0.51100000000E-03 0. -1.
         11   -1    0    0    0    0 -0.00000000000E+00 -0.00000000000E+00 -0.45593999997E+02  0.45594000000E+02  0.51100000000E-03 0.  1.
    9900012    2    1    2    0    0 -0.29155488550E+02  0.12589712319E+02 -0.28594476607E+01  0.59301955877E+02  0.50000021610E+02 0.  0.
        -12    1    1    2    0    0  0.29155488550E+02 -0.12589712319E+02  0.28594476607E+01  0.31886044123E+02  0.00000000000E+00 0.  1.
         11    1    3    3    0    0 -0.84877558618E+01 -0.75271360479E+01  0.51172883424E+01  0.12445337155E+02  0.51100000000E-03 0. -1.
        -11    1    3    3    0    0  0.87148905536E+01  0.11530394283E+02  0.21524891515E+01  0.14612751948E+02  0.51100000000E-03 0.  1.
        -12    1    3    3    0    0 -0.29382623242E+02  0.85864540836E+01 -0.10129225155E+02  0.32243866774E+02  0.00000000000E+00 0.  1.
</event>
<event>
 7    1  0.6152255E-013  0.5930196E+02  0.7816164E-02  0.1266605E+00
        -11   -1    0    0    0    0  0.00000000000E+00  0.00000000000E+00  0.45593999997E+02  0.45594000000E+02  0.51100000000E-03 0.  1.
         11   -1    0    0    0    0 -0.00000000000E+00 -0.00000000000E+00 -0.45593999997E+02  0.45594000000E+02  0.51100000000E-03 0. -1.
    9900012    2    1    2    0    0 -0.24901333606E+02 -0.19267757723E+02 -0.50395180332E+01  0.59301958461E+02  0.50000026323E+02 0.  0.
        -12    1    1    2    0    0  0.24901333606E+02  0.19267757723E+02  0.50395180332E+01  0.31886041539E+02  0.00000000000E+00 0.  1.
         11    1    3    3    0    0 -0.99415154466E+01 -0.67367791783E+01  0.15372146091E+01  0.12107062075E+02  0.51100000000E-03 0. -1.
        -11    1    3    3    0    0 -0.14197303676E+02  0.55972693284E+01  0.13327928013E+02  0.20261454069E+02  0.51100000000E-03 0.  1.
         12    1    3    3    0    0 -0.76251448341E+00 -0.18128247873E+02 -0.19904660655E+02  0.26933442318E+02  0.00000000000E+00 0. -1.
</event>
<event>
 7    1  0.6152255E-013  0.5930192E+02  0.7816164E-02  0.1266605E+00
        -11   -1    0    0    0    0  0.00000000000E+00  0.00000000000E+00  0.45593999997E+02  0.45594000000E+02  0.51100000000E-03 0.  1.
         11   -1    0    0    0    0 -0.00000000000E+00 -0.00000000000E+00 -0.45593999997E+02  0.45594000000E+02  0.51100000000E-03 0. -1.
    9900012    2    1    2    0    0  0.19913244820E+02 -0.10176971204E+02 -0.22729144972E+02  0.59301920070E+02  0.49999956307E+02 0.  0.
        -12    1    1    2    0    0 -0.19913244820E+02  0.10176971204E+02  0.22729144972E+02  0.31886079930E+02  0.00000000000E+00 0.  1.
         11    1    3    3    0    0 -0.71659906015E+01 -0.11589154187E+01 -0.21755096262E+01  0.75780834414E+01  0.51100000000E-03 0.  1.
        -11    1    3    3    0    0  0.76256057177E+01 -0.19526560008E+02  0.81012636978E+00  0.20978386814E+02  0.51100000000E-03 0. -1.
        -12    1    3    3    0    0  0.19453629704E+02  0.10508504223E+02 -0.21363761716E+02  0.30745449814E+02  0.00000000000E+00 0.  1.
</event>
<event>
 7    1  0.6152255E-013  0.5930195E+02  0.7816164E-02  0.1266605E+00
        -11   -1    0    0    0    0  0.00000000000E+00  0.00000000000E+00  0.45593999997E+02  0.45594000000E+02  0.51100000000E-03 0.  1.
         11   -1    0    0    0    0 -0.00000000000E+00 -0.00000000000E+00 -0.45593999997E+02  0.45594000000E+02  0.51100000000E-03 0. -1.
    9900012    2    1    2    0    0  0.19268484455E+02 -0.11020264047E+01 -0.25381710575E+02  0.59301949961E+02  0.50000010821E+02 0.  0.
        -12    1    1    2    0    0 -0.19268484455E+02  0.11020264047E+01  0.25381710575E+02  0.31886050039E+02  0.00000000000E+00 0.  1.
         11    1    3    3    0    0 -0.25202197682E+01 -0.61662102864E+01  0.16370169939E+00  0.66633666779E+01  0.51100000000E-03 0. -1.
        -11    1    3    3    0    0  0.22808956366E+02  0.29540682003E+01  0.37036593877E+01  0.23295752886E+02  0.51100000000E-03 0.  1.
         12    1    3    3    0    0 -0.10202521421E+01  0.21101156814E+01 -0.29249071662E+02  0.29342830397E+02  0.00000000000E+00 0. -1.
</event>
<event>
 7    1  0.6152255E-013  0.5930210E+02  0.7816164E-02  0.1266604E+00
        -11   -1    0    0    0    0  0.00000000000E+00  0.00000000000E+00  0.45593999997E+02  0.45594000000E+02  0.51100000000E-03 0.  1.
         11   -1    0    0    0    0 -0.00000000000E+00 -0.00000000000E+00 -0.45593999997E+02  0.45594000000E+02  0.51100000000E-03 0. -1.
    9900012    2    1    2    0    0 -0.67368585499E+01 -0.98999747354E+01 -0.29551919645E+02  0.59302098451E+02  0.50000281630E+02 0.  0.
        -12    1    1    2    0    0  0.67368585499E+01  0.98999747354E+01  0.29551919645E+02  0.31885901549E+02  0.00000000000E+00 0.  1.
         11    1    3    3    0    0 -0.25057407945E+01 -0.43980892725E+01 -0.30758700467E+02  0.31172416987E+02  0.51100000000E-03 0. -1.
        -11    1    3    3    0    0  0.32187106702E+01  0.99778661938E+01 -0.19470773440E+01  0.10663443281E+02  0.51100000000E-03 0.  1.
        -12    1    3    3    0    0 -0.74498284256E+01 -0.15479751657E+02  0.31538581655E+01  0.17466238183E+02  0.00000000000E+00 0.  1.
</event>
<event>
 7    1  0.6152255E-013  0.5930191E+02  0.7816164E-02  0.1266605E+00
        -11   -1    0    0    0    0  0.00000000000E+00  0.00000000000E+00  0.45593999997E+02  0.45594000000E+02  0.51100000000E-03 0. -1.
         11   -1    0    0    0    0 -0.00000000000E+00 -0.00000000000E+00 -0.45593999997E+02  0.45594000000E+02  0.51100000000E-03 0.  1.
    9900012    2    1    2    0    0  0.10491029359E+01  0.23395117967E+02  0.21640017429E+02  0.59301913442E+02  0.49999944220E+02 0.  0.
        -12    1    1    2    0    0 -0.10491029359E+01 -0.23395117967E+02 -0.21640017429E+02  0.31886086558E+02  0.00000000000E+00 0.  1.
         11    1    3    3    0    0 -0.83372402643E+01  0.24750575116E+02  0.11228148025E+02  0.28428363515E+02  0.51100000000E-03 0. -1.
        -11    1    3    3    0    0 -0.32679643975E+01  0.37844200648E+01 -0.70882432758E+01  0.86743656557E+01  0.51100000000E-03 0.  1.
         12    1    3    3    0    0  0.12654307598E+02 -0.51398772141E+01  0.17500112679E+02  0.22199184272E+02  0.00000000000E+00 0. -1.
</event>
<event>
 7    1  0.6152255E-013  0.5930194E+02  0.7816164E-02  0.1266605E+00
        -11   -1    0    0    0    0  0.00000000000E+00  0.00000000000E+00  0.45593999997E+02  0.45594000000E+02  0.51100000000E-03 0.  1.
         11   -1    0    0    0    0 -0.00000000000E+00 -0.00000000000E+00 -0.45593999997E+02  0.45594000000E+02  0.51100000000E-03 0. -1.
    9900012    2    1    2    0    0  0.93981957783E+01  0.16788544783E+02 -0.25427144907E+02  0.59301936932E+02  0.49999987060E+02 0.  0.
        -12    1    1    2    0    0 -0.93981957783E+01 -0.16788544783E+02  0.25427144907E+02  0.31886063068E+02  0.00000000000E+00 0.  1.
         11    1    3    3    0    0  0.20963338487E+01 -0.27571391185E+01 -0.14372277669E+02  0.14783734216E+02  0.51100000000E-03 0. -1.
        -11    1    3    3    0    0  0.42874892841E+00  0.24290816239E+02 -0.20587372191E+02  0.31844426093E+02  0.51100000000E-03 0.  1.
        -12    1    3    3    0    0  0.68731130011E+01 -0.47451323380E+01  0.95325049523E+01  0.12673776623E+02  0.00000000000E+00 0.  1.
</event>
<event>
 7    1  0.6152255E-013  0.5930195E+02  0.7816164E-02  0.1266605E+00
        -11   -1    0    0    0    0  0.00000000000E+00  0.00000000000E+00  0.45593999997E+02  0.45594000000E+02  0.51100000000E-03 0.  1.
         11   -1    0    0    0    0 -0.00000000000E+00 -0.00000000000E+00 -0.45593999997E+02  0.45594000000E+02  0.51100000000E-03 0. -1.
    9900012    2    1    2    0    0  0.25575259446E+02 -0.12198426203E+02 -0.14622752542E+02  0.59301946787E+02  0.50000005033E+02 0.  0.
        -12    1    1    2    0    0 -0.25575259446E+02  0.12198426203E+02  0.14622752542E+02  0.31886053213E+02  0.00000000000E+00 0.  1.
         11    1    3    3    0    0  0.10566279845E+02 -0.27663263981E+01 -0.32747830290E+01  0.11402764386E+02  0.51100000000E-03 0. -1.
        -11    1    3    3    0    0  0.69012914148E+01  0.17127491988E+02 -0.18849267926E+01  0.18561566590E+02  0.51100000000E-03 0.  1.
         12    1    3    3    0    0  0.81076881869E+01 -0.26559591794E+02 -0.94630427199E+01  0.29337615811E+02  0.00000000000E+00 0. -1.
</event>
<event>
 7    1  0.6152255E-013  0.5930160E+02  0.7816164E-02  0.1266606E+00
        -11   -1    0    0    0    0  0.00000000000E+00  0.00000000000E+00  0.45593999997E+02  0.45594000000E+02  0.51100000000E-03 0. -1.
         11   -1    0    0    0    0 -0.00000000000E+00 -0.00000000000E+00 -0.45593999997E+02  0.45594000000E+02  0.51100000000E-03 0.  1.
    9900012    2    1    2    0    0 -0.14576535656E+02 -0.17096747783E+02  0.22626710826E+02  0.59301604480E+02  0.49999380742E+02 0.  0.
        -12    1    1    2    0    0  0.14576535656E+02  0.17096747783E+02 -0.22626710826E+02  0.31886395520E+02  0.00000000000E+00 0.  1.
         11    1    3    3    0    0  0.59450290701E+01  0.11473441637E+02  0.15846758467E+02  0.20447566794E+02  0.51100000000E-03 0.  1.
        -11    1    3    3    0    0 -0.18068606667E+02 -0.14693064277E+02  0.82007504492E+01  0.24690342098E+02  0.51100000000E-03 0. -1.
        -12    1    3    3    0    0 -0.24529580595E+01 -0.13877125143E+02 -0.14207980903E+01  0.14163695587E+02  0.00000000000E+00 0.  1.
</event>
<event>
 7    1  0.6152255E-013  0.5930190E+02  0.7816164E-02  0.1266605E+00
        -11   -1    0    0    0    0  0.00000000000E+00  0.00000000000E+00  0.45593999997E+02  0.45594000000E+02  0.51100000000E-03 0.  1.
         11   -1    0    0    0    0 -0.00000000000E+00 -0.00000000000E+00 -0.45593999997E+02  0.45594000000E+02  0.51100000000E-03 0. -1.
    9900012    2    1    2    0    0 -0.51547086390E+01 -0.30901718282E+02  0.59360152709E+01  0.59301898149E+02  0.49999916329E+02 0.  0.
        -12    1    1    2    0    0  0.51547086390E+01  0.30901718282E+02 -0.59360152709E+01  0.31886101851E+02  0.00000000000E+00 0.  1.
         11    1    3    3    0    0 -0.22375312794E+01 -0.71506975129E+01 -0.52010234190E+01  0.91208369141E+01  0.51100000000E-03 0. -1.
        -11    1    3    3    0    0 -0.47662075444E+01  0.81510884292E+01 -0.84743527901E+01  0.12687459652E+02  0.51100000000E-03 0.  1.
        -12    1    3    3    0    0  0.18490301848E+01 -0.31902109198E+02  0.19611391480E+02  0.37493601584E+02  0.00000000000E+00 0.  1.
</event>
<event>
 7    1  0.6152255E-013  0.5930195E+02  0.7816164E-02  0.1266605E+00
        -11   -1    0    0    0    0  0.00000000000E+00  0.00000000000E+00  0.45593999997E+02  0.45594000000E+02  0.51100000000E-03 0.  1.
         11   -1    0    0    0    0 -0.00000000000E+00 -0.00000000000E+00 -0.45593999997E+02  0.45594000000E+02  0.51100000000E-03 0. -1.
    9900012    2    1    2    0    0  0.19862157977E+01 -0.65954149556E+01 -0.31133196515E+02  0.59301945417E+02  0.50000002535E+02 0.  0.
        -12    1    1    2    0    0 -0.19862157977E+01  0.65954149556E+01  0.31133196515E+02  0.31886054583E+02  0.00000000000E+00 0.  1.
         11    1    3    3    0    0  0.35914838350E+01 -0.13803971513E+02 -0.11447309175E+02  0.18289047905E+02  0.51100000000E-03 0. -1.
        -11    1    3    3    0    0  0.69094211805E+01 -0.62165082053E+01  0.58142287893E+01  0.10963135135E+02  0.51100000000E-03 0.  1.
        -12    1    3    3    0    0 -0.85146892179E+01  0.13425064762E+02 -0.25500116129E+02  0.30049762377E+02  0.00000000000E+00 0.  1.
</event>
<event>
 7    1  0.6152255E-013  0.5930206E+02  0.7816164E-02  0.1266604E+00
        -11   -1    0    0    0    0  0.00000000000E+00  0.00000000000E+00  0.45593999997E+02  0.45594000000E+02  0.51100000000E-03 0.  1.
         11   -1    0    0    0    0 -0.00000000000E+00 -0.00000000000E+00 -0.45593999997E+02  0.45594000000E+02  0.51100000000E-03 0. -1.
    9900012    2    1    2    0    0 -0.10582197778E+02  0.29857526807E+02 -0.36411602595E+01  0.59302064779E+02  0.50000220221E+02 0.  0.
        -12    1    1    2    0    0  0.10582197778E+02 -0.29857526807E+02  0.36411602595E+01  0.31885935221E+02  0.00000000000E+00 0.  1.
         11    1    3    3    0    0 -0.82906819877E+01  0.12664678467E+02  0.40832919340E+01  0.15678098156E+02  0.51100000000E-03 0. -1.
        -11    1    3    3    0    0 -0.27612831973E+01  0.84363350724E+01  0.16018374938E+02  0.18313513324E+02  0.51100000000E-03 0.  1.
         12    1    3    3    0    0  0.46976740651E+00  0.87565132676E+01 -0.23742827132E+02  0.25310453299E+02  0.00000000000E+00 0. -1.
</event>
<event>
 7    1  0.6152255E-013  0.5930194E+02  0.7816164E-02  0.1266605E+00
        -11   -1    0    0    0    0  0.00000000000E+00  0.00000000000E+00  0.45593999997E+02  0.45594000000E+02  0.51100000000E-03 0.  1.
         11   -1    0    0    0    0 -0.00000000000E+00 -0.00000000000E+00 -0.45593999997E+02  0.45594000000E+02  0.51100000000E-03 0. -1.
    9900012    2    1    2    0    0 -0.27719954176E+02 -0.15701048159E+02 -0.13424662700E+01  0.59301937394E+02  0.49999987903E+02 0.  0.
        -12    1    1    2    0    0  0.27719954176E+02  0.15701048159E+02  0.13424662700E+01  0.31886062606E+02  0.00000000000E+00 0.  1.
         11    1    3    3    0    0 -0.24603749622E+02  0.39408534061E+01  0.40320988921E+01  0.25241486541E+02  0.51100000000E-03 0. -1.
        -11    1    3    3    0    0 -0.12720699651E+02 -0.18517863891E+02  0.98311819967E+00  0.22487641147E+02  0.51100000000E-03 0.  1.
         12    1    3    3    0    0  0.96044950981E+01 -0.11240376747E+01 -0.63576833619E+01  0.11572809707E+02  0.00000000000E+00 0. -1.
</event>
<event>
 7    1  0.6152255E-013  0.5930183E+02  0.7816164E-02  0.1266605E+00
        -11   -1    0    0    0    0  0.00000000000E+00  0.00000000000E+00  0.45593999997E+02  0.45594000000E+02  0.51100000000E-03 0. -1.
         11   -1    0    0    0    0 -0.00000000000E+00 -0.00000000000E+00 -0.45593999997E+02  0.45594000000E+02  0.51100000000E-03 0.  1.
    9900012    2    1    2    0    0  0.14534008525E+01  0.19452448924E+02 -0.25223352162E+02  0.59301833133E+02  0.49999797754E+02 0.  0.
        -12    1    1    2    0    0 -0.14534008525E+01 -0.19452448924E+02  0.25223352162E+02  0.31886166867E+02  0.00000000000E+00 0.  1.
         11    1    3    3    0    0 -0.68305814443E+01  0.19863380699E+02 -0.30493413860E+02  0.37027814204E+02  0.51100000000E-03 0. -1.
        -11    1    3    3    0    0  0.72175665374E+01  0.87527456273E+01 -0.56367880943E+00  0.11358765637E+02  0.51100000000E-03 0.  1.
        -12    1    3    3    0    0  0.10664157593E+01 -0.91636774024E+01  0.58337405073E+01  0.10915253291E+02  0.00000000000E+00 0.  1.
</event>
<event>
 7    1  0.6152255E-013  0.5930190E+02  0.7816164E-02  0.1266605E+00
        -11   -1    0    0    0    0  0.00000000000E+00  0.00000000000E+00  0.45593999997E+02  0.45594000000E+02  0.51100000000E-03 0.  1.
         11   -1    0    0    0    0 -0.00000000000E+00 -0.00000000000E+00 -0.45593999997E+02  0.45594000000E+02  0.51100000000E-03 0. -1.
    9900012    2    1    2    0    0 -0.24928560947E+02 -0.63966637084E+01 -0.18824795427E+02  0.59301899888E+02  0.49999919500E+02 0.  0.
        -12    1    1    2    0    0  0.24928560947E+02  0.63966637084E+01  0.18824795427E+02  0.31886100112E+02  0.00000000000E+00 0.  1.
         11    1    3    3    0    0 -0.13223083157E+02 -0.62396007681E+01 -0.74960240718E+01  0.16430852780E+02  0.51100000000E-03 0. -1.
        -11    1    3    3    0    0 -0.39864245764E+01 -0.83769698899E+01  0.13049576842E+02  0.16011141791E+02  0.51100000000E-03 0.  1.
        -12    1    3    3    0    0 -0.77190532128E+01  0.82199069496E+01 -0.24378348198E+02  0.26859905317E+02  0.00000000000E+00 0.  1.
</event>
<event>
 7    1  0.6152255E-013  0.5930198E+02  0.7816164E-02  0.1266605E+00
        -11   -1    0    0    0    0  0.00000000000E+00  0.00000000000E+00  0.45593999997E+02  0.45594000000E+02  0.51100000000E-03 0. -1.
         11   -1    0    0    0    0 -0.00000000000E+00 -0.00000000000E+00 -0.45593999997E+02  0.45594000000E+02  0.51100000000E-03 0.  1.
    9900012    2    1    2    0    0 -0.31771200431E+02 -0.10221314517E+01  0.25028887606E+01  0.59301978272E+02  0.50000062453E+02 0.  0.
        -12    1    1    2    0    0  0.31771200431E+02  0.10221314517E+01 -0.25028887606E+01  0.31886021728E+02  0.00000000000E+00 0.  1.
         11    1    3    3    0    0 -0.24328432559E+02 -0.75859186233E+01 -0.13848977727E+02  0.29003671776E+02  0.51100000000E-03 0. -1.
        -11    1    3    3    0    0  0.66900146208E+01  0.27960054161E+01 -0.13081035040E+01  0.73678407252E+01  0.51100000000E-03 0.  1.
         12    1    3    3    0    0 -0.14132782492E+02  0.37677817555E+01  0.17659969992E+02  0.22930465770E+02  0.00000000000E+00 0. -1.
</event>
<event>
 7    1  0.6152255E-013  0.5930193E+02  0.7816164E-02  0.1266605E+00
        -11   -1    0    0    0    0  0.00000000000E+00  0.00000000000E+00  0.45593999997E+02  0.45594000000E+02  0.51100000000E-03 0.  1.
         11   -1    0    0    0    0 -0.00000000000E+00 -0.00000000000E+00 -0.45593999997E+02  0.45594000000E+02  0.51100000000E-03 0. -1.
    9900012    2    1    2    0    0 -0.94518108614E+01 -0.30268679523E+02 -0.33454395274E+01  0.59301926954E+02  0.49999968862E+02 0.  0.
        -12    1    1    2    0    0  0.94518108614E+01  0.30268679523E+02  0.33454395274E+01  0.31886073046E+02  0.00000000000E+00 0.  1.
         11    1    3    3    0    0 -0.18854319368E+01  0.37179699498E+01 -0.10294439176E+02  0.11106468041E+02  0.51100000000E-03 0. -1.
        -11    1    3    3    0    0  0.10287655742E+02 -0.19088947593E+02  0.11432875206E+02  0.24513963707E+02  0.51100000000E-03 0.  1.
         12    1    3    3    0    0 -0.17854034667E+02 -0.14897701880E+02 -0.44838755566E+01  0.23681495206E+02  0.00000000000E+00 0. -1.
</event>
<event>
 7    1  0.6152255E-013  0.5930197E+02  0.7816164E-02  0.1266605E+00
        -11   -1    0    0    0    0  0.00000000000E+00  0.00000000000E+00  0.45593999997E+02  0.45594000000E+02  0.51100000000E-03 0.  1.
         11   -1    0    0    0    0 -0.00000000000E+00 -0.00000000000E+00 -0.45593999997E+02  0.45594000000E+02  0.51100000000E-03 0. -1.
    9900012    2    1    2    0    0 -0.17613346578E+02  0.16725624581E+02  0.20657752273E+02  0.59301965059E+02  0.50000038356E+02 0.  0.
        -12    1    1    2    0    0  0.17613346578E+02 -0.16725624581E+02 -0.20657752273E+02  0.31886034941E+02  0.00000000000E+00 0.  1.
         11    1    3    3    0    0 -0.34666432201E+01  0.11322450859E+02  0.10787158920E+02  0.16018061883E+02  0.51100000000E-03 0. -1.
        -11    1    3    3    0    0 -0.10719631496E+02  0.11764381326E+02  0.23192660149E+02  0.28128466941E+02  0.51100000000E-03 0.  1.
         12    1    3    3    0    0 -0.34270718624E+01 -0.63612076045E+01 -0.13322066797E+02  0.15155436235E+02  0.00000000000E+00 0. -1.
</event>
<event>
 7    1  0.6152255E-013  0.5930195E+02  0.7816164E-02  0.1266605E+00
        -11   -1    0    0    0    0  0.00000000000E+00  0.00000000000E+00  0.45593999997E+02  0.45594000000E+02  0.51100000000E-03 0.  1.
         11   -1    0    0    0    0 -0.00000000000E+00 -0.00000000000E+00 -0.45593999997E+02  0.45594000000E+02  0.51100000000E-03 0. -1.
    9900012    2    1    2    0    0  0.10287040035E+02  0.20841139689E+02 -0.21829886507E+02  0.59301949114E+02  0.50000009275E+02 0.  0.
        -12    1    1    2    0    0 -0.10287040035E+02 -0.20841139689E+02  0.21829886507E+02  0.31886050886E+02  0.00000000000E+00 0.  1.
         11    1    3    3    0    0  0.96052636679E+01  0.79682016401E+01 -0.15830347457E+02  0.20158204989E+02  0.51100000000E-03 0. -1.
        -11    1    3    3    0    0 -0.15307747295E+01 -0.12110436740E+02  0.28714920679E+01  0.12539992674E+02  0.51100000000E-03 0.  1.
         12    1    3    3    0    0  0.22125510967E+01  0.24983374788E+02 -0.88710311181E+01  0.26603751451E+02  0.00000000000E+00 0. -1.
</event>
<event>
 7    1  0.6152255E-013  0.5930193E+02  0.7816164E-02  0.1266605E+00
        -11   -1    0    0    0    0  0.00000000000E+00  0.00000000000E+00  0.45593999997E+02  0.45594000000E+02  0.51100000000E-03 0. -1.
         11   -1    0    0    0    0 -0.00000000000E+00 -0.00000000000E+00 -0.45593999997E+02  0.45594000000E+02  0.51100000000E-03 0.  1.
    9900012    2    1    2    0    0 -0.25977388075E+02 -0.16585055224E+02  0.81751345755E+01  0.59301928224E+02  0.49999971178E+02 0.  0.
        -12    1    1    2    0    0  0.25977388075E+02  0.16585055224E+02 -0.81751345755E+01  0.31886071776E+02  0.00000000000E+00 0.  1.
         11    1    3    3    0    0 -0.16494036093E+02 -0.59113296801E+01  0.11050030686E+02  0.20714734458E+02  0.51100000000E-03 0. -1.
        -11    1    3    3    0    0 -0.13121285105E+02 -0.14137547218E+02  0.12115402539E+02  0.22777650079E+02  0.51100000000E-03 0.  1.
        -12    1    3    3    0    0  0.36379331233E+01  0.34638216743E+01 -0.14990298650E+02  0.15809543687E+02  0.00000000000E+00 0.  1.
</event>
<event>
 7    1  0.6152255E-013  0.5930197E+02  0.7816164E-02  0.1266605E+00
        -11   -1    0    0    0    0  0.00000000000E+00  0.00000000000E+00  0.45593999997E+02  0.45594000000E+02  0.51100000000E-03 0.  1.
         11   -1    0    0    0    0 -0.00000000000E+00 -0.00000000000E+00 -0.45593999997E+02  0.45594000000E+02  0.51100000000E-03 0. -1.
    9900012    2    1    2    0    0 -0.25458253453E+02 -0.16471102890E+01 -0.19128079623E+02  0.59301967458E+02  0.50000042732E+02 0.  0.
        -12    1    1    2    0    0  0.25458253453E+02  0.16471102890E+01  0.19128079623E+02  0.31886032542E+02  0.00000000000E+00 0.  1.
         11    1    3    3    0    0 -0.27371693770E+02 -0.18831867038E+02 -0.11200217028E+02  0.35061284884E+02  0.51100000000E-03 0. -1.
        -11    1    3    3    0    0 -0.56470546316E+01  0.23272503284E+01 -0.32875444844E+01  0.69363729067E+01  0.51100000000E-03 0.  1.
        -12    1    3    3    0    0  0.75604949487E+01  0.14857506420E+02 -0.46403181103E+01  0.17304309667E+02  0.00000000000E+00 0.  1.
</event>
<event>
 7    1  0.6152255E-013  0.5930195E+02  0.7816164E-02  0.1266605E+00
        -11   -1    0    0    0    0  0.00000000000E+00  0.00000000000E+00  0.45593999997E+02  0.45594000000E+02  0.51100000000E-03 0. -1.
         11   -1    0    0    0    0 -0.00000000000E+00 -0.00000000000E+00 -0.45593999997E+02  0.45594000000E+02  0.51100000000E-03 0.  1.
    9900012    2    1    2    0    0 -0.16415306750E+02  0.17087365239E+02  0.21337294815E+02  0.59301945109E+02  0.50000001971E+02 0.  0.
        -12    1    1    2    0    0  0.16415306750E+02 -0.17087365239E+02 -0.21337294815E+02  0.31886054891E+02  0.00000000000E+00 0.  1.
         11    1    3    3    0    0  0.86971156323E-01  0.14534075294E+02  0.97210231416E+01  0.17485571189E+02  0.51100000000E-03 0. -1.
        -11    1    3    3    0    0 -0.12547596808E+02  0.17196138062E+02 -0.20688401319E+01  0.21387600372E+02  0.51100000000E-03 0.  1.
        -12    1    3    3    0    0 -0.39546810985E+01 -0.14642848117E+02  0.13685111805E+02  0.20428773548E+02  0.00000000000E+00 0.  1.
</event>
<event>
 7    1  0.6152255E-013  0.5930194E+02  0.7816164E-02  0.1266605E+00
        -11   -1    0    0    0    0  0.00000000000E+00  0.00000000000E+00  0.45593999997E+02  0.45594000000E+02  0.51100000000E-03 0.  1.
         11   -1    0    0    0    0 -0.00000000000E+00 -0.00000000000E+00 -0.45593999997E+02  0.45594000000E+02  0.51100000000E-03 0. -1.
    9900012    2    1    2    0    0  0.46257810502E+01  0.29769966430E+02 -0.10443754934E+02  0.59301940841E+02  0.49999994188E+02 0.  0.
        -12    1    1    2    0    0 -0.46257810502E+01 -0.29769966430E+02  0.10443754934E+02  0.31886059159E+02  0.00000000000E+00 0.  1.
         11    1    3    3    0    0  0.11878965873E+02 -0.16830674791E+01  0.14852728067E+01  0.12089192774E+02  0.51100000000E-03 0.  1.
        -11    1    3    3    0    0 -0.12242948392E+02  0.34713890996E+02 -0.15851026420E+02  0.40077413243E+02  0.51100000000E-03 0. -1.
         12    1    3    3    0    0  0.49897635689E+01 -0.32608570865E+01  0.39219986796E+01  0.71353348243E+01  0.00000000000E+00 0. -1.
</event>
<event>
 7    1  0.6152255E-013  0.5930198E+02  0.7816164E-02  0.1266605E+00
        -11   -1    0    0    0    0  0.00000000000E+00  0.00000000000E+00  0.45593999997E+02  0.45594000000E+02  0.51100000000E-03 0.  1.
         11   -1    0    0    0    0 -0.00000000000E+00 -0.00000000000E+00 -0.45593999997E+02  0.45594000000E+02  0.51100000000E-03 0. -1.
    9900012    2    1    2    0    0 -0.75347629916E+01  0.29510581670E+02 -0.94377541335E+01  0.59301979757E+02  0.50000065162E+02 0.  0.
        -12    1    1    2    0    0  0.75347629916E+01 -0.29510581670E+02  0.94377541335E+01  0.31886020243E+02  0.00000000000E+00 0.  1.
         11    1    3    3    0    0 -0.19742672836E+02  0.30261899718E+01 -0.10749023142E+02  0.22681985258E+02  0.51100000000E-03 0. -1.
        -11    1    3    3    0    0  0.11481375309E+02  0.85689842433E+01 -0.80078774301E+01  0.16412664962E+02  0.51100000000E-03 0.  1.
        -12    1    3    3    0    0  0.72653453526E+00  0.17915407455E+02  0.93191464389E+01  0.20207329538E+02  0.00000000000E+00 0.  1.
</event>
<event>
 7    1  0.6152255E-013  0.5930195E+02  0.7816164E-02  0.1266605E+00
        -11   -1    0    0    0    0  0.00000000000E+00  0.00000000000E+00  0.45593999997E+02  0.45594000000E+02  0.51100000000E-03 0. -1.
         11   -1    0    0    0    0 -0.00000000000E+00 -0.00000000000E+00 -0.45593999997E+02  0.45594000000E+02  0.51100000000E-03 0.  1.
    9900012    2    1    2    0    0  0.24854983652E+02 -0.18203694571E+02 -0.82204158196E+01  0.59301953763E+02  0.50000017755E+02 0.  0.
        -12    1    1    2    0    0 -0.24854983652E+02  0.18203694571E+02  0.82204158196E+01  0.31886046237E+02  0.00000000000E+00 0.  1.
         11    1    3    3    0    0 -0.82829012721E+00  0.46177705239E+01  0.66835609619E+01  0.81657734808E+01  0.51100000000E-03 0. -1.
        -11    1    3    3    0    0  0.60681776863E+00  0.27293092309E+01 -0.15078292184E+02  0.15335326933E+02  0.51100000000E-03 0.  1.
         12    1    3    3    0    0  0.25076456011E+02 -0.25550774326E+02  0.17431540236E+00  0.35800853350E+02  0.00000000000E+00 0. -1.
</event>
<event>
 7    1  0.6152255E-013  0.5930191E+02  0.7816164E-02  0.1266605E+00
        -11   -1    0    0    0    0  0.00000000000E+00  0.00000000000E+00  0.45593999997E+02  0.45594000000E+02  0.51100000000E-03 0.  1.
         11   -1    0    0    0    0 -0.00000000000E+00 -0.00000000000E+00 -0.45593999997E+02  0.45594000000E+02  0.51100000000E-03 0. -1.
    9900012    2    1    2    0    0  0.61624957099E+01  0.15679322201E+02 -0.27072218846E+02  0.59301913202E+02  0.49999943781E+02 0.  0.
        -12    1    1    2    0    0 -0.61624957099E+01 -0.15679322201E+02  0.27072218846E+02  0.31886086798E+02  0.00000000000E+00 0.  1.
         11    1    3    3    0    0 -0.54870978240E+01  0.23630842565E+01  0.18576416669E+01  0.62564560701E+01  0.51100000000E-03 0. -1.
        -11    1    3    3    0    0 -0.77563961280E+01 -0.96447159070E+01 -0.17173513893E+01  0.12495259976E+02  0.51100000000E-03 0.  1.
         12    1    3    3    0    0  0.19405989662E+02  0.22960953851E+02 -0.27212509124E+02  0.40550197155E+02  0.00000000000E+00 0. -1.
</event>
<event>
 7    1  0.6152255E-013  0.5930193E+02  0.7816164E-02  0.1266605E+00
        -11   -1    0    0    0    0  0.00000000000E+00  0.00000000000E+00  0.45593999997E+02  0.45594000000E+02  0.51100000000E-03 0.  1.
         11   -1    0    0    0    0 -0.00000000000E+00 -0.00000000000E+00 -0.45593999997E+02  0.45594000000E+02  0.51100000000E-03 0. -1.
    9900012    2    1    2    0    0  0.89093666139E+01  0.21403328928E+01 -0.30541177931E+02  0.59301931133E+02  0.49999976483E+02 0.  0.
        -12    1    1    2    0    0 -0.89093666139E+01 -0.21403328928E+01  0.30541177931E+02  0.31886068867E+02  0.00000000000E+00 0.  1.
         11    1    3    3    0    0  0.11632045158E+02 -0.55274225437E+01 -0.33777341874E+01  0.13314126447E+02  0.51100000000E-03 0.  1.
        -11    1    3    3    0    0 -0.13456261491E+02  0.72288058007E+01  0.15279375074E+01  0.15351260531E+02  0.51100000000E-03 0. -1.
         12    1    3    3    0    0  0.10733582946E+02  0.43894963575E+00 -0.28691381251E+02  0.30636544155E+02  0.00000000000E+00 0. -1.
</event>
<event>
 7    1  0.6152255E-013  0.5930204E+02  0.7816164E-02  0.1266604E+00
        -11   -1    0    0    0    0  0.00000000000E+00  0.00000000000E+00  0.45593999997E+02  0.45594000000E+02  0.51100000000E-03 0.  1.
         11   -1    0    0    0    0 -0.00000000000E+00 -0.00000000000E+00 -0.45593999997E+02  0.45594000000E+02  0.51100000000E-03 0. -1.
    9900012    2    1    2    0    0  0.22396854761E+02  0.12129230872E+02 -0.19182727477E+02  0.59302041050E+02  0.50000176945E+02 0.  0.
        -12    1    1    2    0    0 -0.22396854761E+02 -0.12129230872E+02  0.19182727477E+02  0.31885958950E+02  0.00000000000E+00 0.  1.
         11    1    3    3    0    0  0.53292922530E+01 -0.13087844137E+02 -0.14238071577E+02  0.20060301657E+02  0.51100000000E-03 0. -1.
        -11    1    3    3    0    0  0.14408690199E+02  0.12674600661E+02 -0.13819896903E+02  0.23648370046E+02  0.51100000000E-03 0.  1.
        -12    1    3    3    0    0  0.26588723086E+01  0.12542474348E+02  0.88752410038E+01  0.15593369347E+02  0.00000000000E+00 0.  1.
</event>
<event>
 7    1  0.6152255E-013  0.5930194E+02  0.7816164E-02  0.1266605E+00
        -11   -1    0    0    0    0  0.00000000000E+00  0.00000000000E+00  0.45593999997E+02  0.45594000000E+02  0.51100000000E-03 0. -1.
         11   -1    0    0    0    0 -0.00000000000E+00 -0.00000000000E+00 -0.45593999997E+02  0.45594000000E+02  0.51100000000E-03 0.  1.
    9900012    2    1    2    0    0  0.30383069251E+02  0.17002887605E+01  0.95235869804E+01  0.59301943675E+02  0.49999999356E+02 0.  0.
        -12    1    1    2    0    0 -0.30383069251E+02 -0.17002887605E+01 -0.95235869804E+01  0.31886056325E+02  0.00000000000E+00 0.  1.
         11    1    3    3    0    0 -0.20297339016E+01  0.49419408426E+01  0.71745074342E+01  0.89451750227E+01  0.51100000000E-03 0. -1.
        -11    1    3    3    0    0 -0.96543029688E+00 -0.14527145620E+02  0.39513900779E+01  0.15085870851E+02  0.51100000000E-03 0.  1.
        -12    1    3    3    0    0  0.33378233450E+02  0.11285493538E+02 -0.16023105317E+01  0.35270897801E+02  0.00000000000E+00 0.  1.
</event>
<event>
 7    1  0.6152255E-013  0.5930195E+02  0.7816164E-02  0.1266605E+00
        -11   -1    0    0    0    0  0.00000000000E+00  0.00000000000E+00  0.45593999997E+02  0.45594000000E+02  0.51100000000E-03 0. -1.
         11   -1    0    0    0    0 -0.00000000000E+00 -0.00000000000E+00 -0.45593999997E+02  0.45594000000E+02  0.51100000000E-03 0.  1.
    9900012    2    1    2    0    0 -0.90262081497E+01  0.22946588831E+02  0.20216379654E+02  0.59301946954E+02  0.50000005337E+02 0.  0.
        -12    1    1    2    0    0  0.90262081497E+01 -0.22946588831E+02 -0.20216379654E+02  0.31886053046E+02  0.00000000000E+00 0.  1.
         11    1    3    3    0    0 -0.30277951791E+01  0.28432980543E+02 -0.27079954674E+00  0.28595021574E+02  0.51100000000E-03 0. -1.
        -11    1    3    3    0    0 -0.29606533486E-01  0.53442889620E+01  0.17055329753E+02  0.17873068408E+02  0.51100000000E-03 0.  1.
        -12    1    3    3    0    0 -0.59688064371E+01 -0.10830680674E+02  0.34318494479E+01  0.12833856972E+02  0.00000000000E+00 0.  1.
</event>
<event>
 7    1  0.6152255E-013  0.5930195E+02  0.7816164E-02  0.1266605E+00
        -11   -1    0    0    0    0  0.00000000000E+00  0.00000000000E+00  0.45593999997E+02  0.45594000000E+02  0.51100000000E-03 0.  1.
         11   -1    0    0    0    0 -0.00000000000E+00 -0.00000000000E+00 -0.45593999997E+02  0.45594000000E+02  0.51100000000E-03 0. -1.
    9900012    2    1    2    0    0  0.66185989014E+01  0.11749832950E+02 -0.28893871626E+02  0.59301949079E+02  0.50000009212E+02 0.  0.
        -12    1    1    2    0    0 -0.66185989014E+01 -0.11749832950E+02  0.28893871626E+02  0.31886050921E+02  0.00000000000E+00 0.  1.
         11    1    3    3    0    0  0.82473712554E+01  0.18465320481E+01 -0.12469702814E+02  0.15063940446E+02  0.51100000000E-03 0.  1.
        -11    1    3    3    0    0 -0.12104858193E+01 -0.42233215969E+00 -0.28394832453E+02  0.28423760319E+02  0.51100000000E-03 0. -1.
        -12    1    3    3    0    0 -0.41828653482E+00  0.10325633062E+02  0.11970663641E+02  0.15814248314E+02  0.00000000000E+00 0.  1.
</event>
<event>
 7    1  0.6152255E-013  0.5930192E+02  0.7816164E-02  0.1266605E+00
        -11   -1    0    0    0    0  0.00000000000E+00  0.00000000000E+00  0.45593999997E+02  0.45594000000E+02  0.51100000000E-03 0. -1.
         11   -1    0    0    0    0 -0.00000000000E+00 -0.00000000000E+00 -0.45593999997E+02  0.45594000000E+02  0.51100000000E-03 0.  1.
    9900012    2    1    2    0    0 -0.28243502269E+02  0.10164590461E+02 -0.10756742277E+02  0.59301924292E+02  0.49999964007E+02 0.  0.
        -12    1    1    2    0    0  0.28243502269E+02 -0.10164590461E+02  0.10756742277E+02  0.31886075708E+02  0.00000000000E+00 0.  1.
         11    1    3    3    0    0 -0.91434784633E+01  0.14255282306E+02  0.73961831175E+01  0.18480254246E+02  0.51100000000E-03 0.  1.
        -11    1    3    3    0    0 -0.23602438165E+02 -0.92332468410E+01 -0.47626460313E+01  0.25787802001E+02  0.51100000000E-03 0. -1.
         12    1    3    3    0    0  0.45024143596E+01  0.51425549957E+01 -0.13390279364E+02  0.15033868045E+02  0.00000000000E+00 0. -1.
</event>
<event>
 7    1  0.6152255E-013  0.5930194E+02  0.7816164E-02  0.1266605E+00
        -11   -1    0    0    0    0  0.00000000000E+00  0.00000000000E+00  0.45593999997E+02  0.45594000000E+02  0.51100000000E-03 0.  1.
         11   -1    0    0    0    0 -0.00000000000E+00 -0.00000000000E+00 -0.45593999997E+02  0.45594000000E+02  0.51100000000E-03 0. -1.
    9900012    2    1    2    0    0  0.14046010245E+02  0.21949649714E+02 -0.18375079146E+02  0.59301936274E+02  0.49999985858E+02 0.  0.
        -12    1    1    2    0    0 -0.14046010245E+02 -0.21949649714E+02  0.18375079146E+02  0.31886063726E+02  0.00000000000E+00 0.  1.
         11    1    3    3    0    0  0.16574445990E+02  0.17029515953E+02  0.45722522957E+01  0.24199631501E+02  0.51100000000E-03 0. -1.
        -11    1    3    3    0    0  0.12651472294E+01  0.15964514679E+01  0.56799291144E+01  0.60341403536E+01  0.51100000000E-03 0.  1.
        -12    1    3    3    0    0 -0.37935829744E+01  0.33236822928E+01 -0.28627260556E+02  0.29068164419E+02  0.00000000000E+00 0.  1.
</event>
<event>
 7    1  0.6152255E-013  0.5930196E+02  0.7816164E-02  0.1266605E+00
        -11   -1    0    0    0    0  0.00000000000E+00  0.00000000000E+00  0.45593999997E+02  0.45594000000E+02  0.51100000000E-03 0.  1.
         11   -1    0    0    0    0 -0.00000000000E+00 -0.00000000000E+00 -0.45593999997E+02  0.45594000000E+02  0.51100000000E-03 0. -1.
    9900012    2    1    2    0    0  0.60713507589E+01  0.39367259237E+01 -0.31054151244E+02  0.59301961982E+02  0.50000032743E+02 0.  0.
        -12    1    1    2    0    0 -0.60713507589E+01 -0.39367259237E+01  0.31054151244E+02  0.31886038018E+02  0.00000000000E+00 0.  1.
         11    1    3    3    0    0  0.16628141661E+02  0.70635587799E+00 -0.26675131800E+02  0.31441321386E+02  0.51100000000E-03 0. -1.
        -11    1    3    3    0    0 -0.23840150368E+01 -0.17168202914E+01 -0.13998363454E+02  0.14303327559E+02  0.51100000000E-03 0.  1.
        -12    1    3    3    0    0 -0.81727758656E+01  0.49471903371E+01  0.96193440098E+01  0.13557313036E+02  0.00000000000E+00 0.  1.
</event>
<event>
 7    1  0.6152255E-013  0.5930195E+02  0.7816164E-02  0.1266605E+00
        -11   -1    0    0    0    0  0.00000000000E+00  0.00000000000E+00  0.45593999997E+02  0.45594000000E+02  0.51100000000E-03 0.  1.
         11   -1    0    0    0    0 -0.00000000000E+00 -0.00000000000E+00 -0.45593999997E+02  0.45594000000E+02  0.51100000000E-03 0. -1.
    9900012    2    1    2    0    0 -0.26677365397E+02  0.60721706853E+01 -0.16375811208E+02  0.59301948597E+02  0.50000008334E+02 0.  0.
        -12    1    1    2    0    0  0.26677365397E+02 -0.60721706853E+01  0.16375811208E+02  0.31886051403E+02  0.00000000000E+00 0.  1.
         11    1    3    3    0    0  0.50896776881E+01 -0.31775379893E+01  0.54948759504E+01  0.81360450228E+01  0.51100000000E-03 0.  1.
        -11    1    3    3    0    0 -0.10314622897E+02  0.93520505180E+01 -0.25836995714E+02  0.29349661705E+02  0.51100000000E-03 0. -1.
         12    1    3    3    0    0 -0.21452420188E+02 -0.10234184342E+00  0.39663085559E+01  0.21816241870E+02  0.00000000000E+00 0. -1.
</event>
<event>
 7    1  0.6152255E-013  0.5930193E+02  0.7816164E-02  0.1266605E+00
        -11   -1    0    0    0    0  0.00000000000E+00  0.00000000000E+00  0.45593999997E+02  0.45594000000E+02  0.51100000000E-03 0. -1.
         11   -1    0    0    0    0 -0.00000000000E+00 -0.00000000000E+00 -0.45593999997E+02  0.45594000000E+02  0.51100000000E-03 0.  1.
    9900012    2    1    2    0    0  0.31814576263E+01 -0.27119938227E+02  0.16465381712E+02  0.59301929108E+02  0.49999972789E+02 0.  0.
        -12    1    1    2    0    0 -0.31814576263E+01  0.27119938227E+02 -0.16465381712E+02  0.31886070892E+02  0.00000000000E+00 0.  1.
         11    1    3    3    0    0  0.38243210490E+01 -0.32396769030E+01  0.13606800959E+02  0.14500550697E+02  0.51100000000E-03 0. -1.
        -11    1    3    3    0    0 -0.17059593582E+02 -0.17417350122E+01  0.98869136591E+00  0.17176754202E+02  0.51100000000E-03 0.  1.
         12    1    3    3    0    0  0.16416730159E+02 -0.22138526311E+02  0.18698893867E+01  0.27624624209E+02  0.00000000000E+00 0. -1.
</event>
<event>
 7    1  0.6152255E-013  0.5930193E+02  0.7816164E-02  0.1266605E+00
        -11   -1    0    0    0    0  0.00000000000E+00  0.00000000000E+00  0.45593999997E+02  0.45594000000E+02  0.51100000000E-03 0. -1.
         11   -1    0    0    0    0 -0.00000000000E+00 -0.00000000000E+00 -0.45593999997E+02  0.45594000000E+02  0.51100000000E-03 0.  1.
    9900012    2    1    2    0    0  0.54052536628E+01  0.31104789098E+02  0.44717617585E+01  0.59301932115E+02  0.49999978273E+02 0.  0.
        -12    1    1    2    0    0 -0.54052536628E+01 -0.31104789098E+02 -0.44717617585E+01  0.31886067885E+02  0.00000000000E+00 0.  1.
         11    1    3    3    0    0  0.16235611513E+02  0.22091557756E+02 -0.10546595413E+01  0.27436186184E+02  0.51100000000E-03 0. -1.
        -11    1    3    3    0    0 -0.29337066771E+01 -0.46330432981E+01 -0.89271268282E+01  0.10476894518E+02  0.51100000000E-03 0.  1.
        -12    1    3    3    0    0 -0.78966511732E+01  0.13646274640E+02  0.14453548128E+02  0.21388851413E+02  0.00000000000E+00 0.  1.
</event>
<event>
 7    1  0.6152255E-013  0.5930188E+02  0.7816164E-02  0.1266605E+00
        -11   -1    0    0    0    0  0.00000000000E+00  0.00000000000E+00  0.45593999997E+02  0.45594000000E+02  0.51100000000E-03 0. -1.
         11   -1    0    0    0    0 -0.00000000000E+00 -0.00000000000E+00 -0.45593999997E+02  0.45594000000E+02  0.51100000000E-03 0.  1.
    9900012    2    1    2    0    0 -0.68019176818E+00 -0.14985398202E+02  0.28137159003E+02  0.59301881753E+02  0.49999886425E+02 0.  0.
        -12    1    1    2    0    0  0.68019176818E+00  0.14985398202E+02 -0.28137159003E+02  0.31886118247E+02  0.00000000000E+00 0.  1.
         11    1    3    3    0    0  0.57698005268E+01 -0.85646467397E+00  0.38410654344E+01  0.69841186838E+01  0.51100000000E-03 0. -1.
        -11    1    3    3    0    0  0.88917248728E+01 -0.42332102912E+00 -0.93315919099E+01  0.12896533633E+02  0.51100000000E-03 0.  1.
         12    1    3    3    0    0 -0.15341717168E+02 -0.13705612499E+02  0.33627685479E+02  0.39421229436E+02  0.00000000000E+00 0. -1.
</event>
<event>
 7    1  0.6152255E-013  0.5930197E+02  0.7816164E-02  0.1266605E+00
        -11   -1    0    0    0    0  0.00000000000E+00  0.00000000000E+00  0.45593999997E+02  0.45594000000E+02  0.51100000000E-03 0. -1.
         11   -1    0    0    0    0 -0.00000000000E+00 -0.00000000000E+00 -0.45593999997E+02  0.45594000000E+02  0.51100000000E-03 0.  1.
    9900012    2    1    2    0    0 -0.11906792071E+02  0.74422314424E+01  0.28627968325E+02  0.59301967373E+02  0.50000042577E+02 0.  0.
        -12    1    1    2    0    0  0.11906792071E+02 -0.74422314424E+01 -0.28627968325E+02  0.31886032627E+02  0.00000000000E+00 0.  1.
         11    1    3    3    0    0 -0.90114528317E+01  0.16255004228E+02 -0.65749157700E+01  0.19714486102E+02  0.51100000000E-03 0. -1.
        -11    1    3    3    0    0 -0.72753535158E+01 -0.85642172743E+01  0.14083514688E+02  0.18017268731E+02  0.51100000000E-03 0.  1.
        -12    1    3    3    0    0  0.43800142763E+01 -0.24855551177E+00  0.21119369407E+02  0.21570212541E+02  0.00000000000E+00 0.  1.
</event>
<event>
 7    1  0.6152255E-013  0.5930194E+02  0.7816164E-02  0.1266605E+00
        -11   -1    0    0    0    0  0.00000000000E+00  0.00000000000E+00  0.45593999997E+02  0.45594000000E+02  0.51100000000E-03 0. -1.
         11   -1    0    0    0    0 -0.00000000000E+00 -0.00000000000E+00 -0.45593999997E+02  0.45594000000E+02  0.51100000000E-03 0.  1.
    9900012    2    1    2    0    0 -0.23709356480E+02  0.10881535454E+02  0.18335199436E+02  0.59301938204E+02  0.49999989378E+02 0.  0.
        -12    1    1    2    0    0  0.23709356480E+02 -0.10881535454E+02 -0.18335199436E+02  0.31886061796E+02  0.00000000000E+00 0.  1.
         11    1    3    3    0    0 -0.46668255597E+01  0.76490497333E+01 -0.35022834128E+01  0.96204579928E+01  0.51100000000E-03 0. -1.
        -11    1    3    3    0    0 -0.27043192498E+02 -0.22343876408E+01  0.15274891192E+01  0.27178299650E+02  0.51100000000E-03 0.  1.
         12    1    3    3    0    0  0.80006615778E+01  0.54668733613E+01  0.20309993730E+02  0.22503180560E+02  0.00000000000E+00 0. -1.
</event>
<event>
 7    1  0.6152255E-013  0.5930201E+02  0.7816164E-02  0.1266605E+00
        -11   -1    0    0    0    0  0.00000000000E+00  0.00000000000E+00  0.45593999997E+02  0.45594000000E+02  0.51100000000E-03 0.  1.
         11   -1    0    0    0    0 -0.00000000000E+00 -0.00000000000E+00 -0.45593999997E+02  0.45594000000E+02  0.51100000000E-03 0. -1.
    9900012    2    1    2    0    0  0.25895188939E+02  0.18573177641E+02 -0.10921927771E+01  0.59302005851E+02  0.50000112750E+02 0.  0.
        -12    1    1    2    0    0 -0.25895188939E+02 -0.18573177641E+02  0.10921927771E+01  0.31885994149E+02  0.00000000000E+00 0.  1.
         11    1    3    3    0    0  0.10376487741E+01 -0.27937788048E+01  0.64301356479E+01  0.70872109958E+01  0.51100000000E-03 0. -1.
        -11    1    3    3    0    0  0.23312165436E+02  0.19078252377E+01  0.10507513442E+02  0.25641854330E+02  0.51100000000E-03 0.  1.
         12    1    3    3    0    0  0.15453747280E+01  0.19459131208E+02 -0.18029841867E+02  0.26572940525E+02  0.00000000000E+00 0. -1.
</event>
<event>
 7    1  0.6152255E-013  0.5930193E+02  0.7816164E-02  0.1266605E+00
        -11   -1    0    0    0    0  0.00000000000E+00  0.00000000000E+00  0.45593999997E+02  0.45594000000E+02  0.51100000000E-03 0. -1.
         11   -1    0    0    0    0 -0.00000000000E+00 -0.00000000000E+00 -0.45593999997E+02  0.45594000000E+02  0.51100000000E-03 0.  1.
    9900012    2    1    2    0    0 -0.31440356501E+02 -0.37222227364E+01 -0.37908158953E+01  0.59301933385E+02  0.49999980590E+02 0.  0.
        -12    1    1    2    0    0  0.31440356501E+02  0.37222227364E+01  0.37908158953E+01  0.31886066615E+02  0.00000000000E+00 0.  1.
         11    1    3    3    0    0 -0.61628091299E+01  0.66206340354E+01 -0.12875600788E+02  0.15735123365E+02  0.51100000000E-03 0. -1.
        -11    1    3    3    0    0 -0.12805981996E+01  0.10450818428E+02 -0.40033758126E-01  0.10529061712E+02  0.51100000000E-03 0.  1.
        -12    1    3    3    0    0 -0.23996949172E+02 -0.20793675200E+02  0.91248186506E+01  0.33037748308E+02  0.00000000000E+00 0.  1.
</event>
<event>
 7    1  0.6152255E-013  0.5930181E+02  0.7816164E-02  0.1266605E+00
        -11   -1    0    0    0    0  0.00000000000E+00  0.00000000000E+00  0.45593999997E+02  0.45594000000E+02  0.51100000000E-03 0. -1.
         11   -1    0    0    0    0 -0.00000000000E+00 -0.00000000000E+00 -0.45593999997E+02  0.45594000000E+02  0.51100000000E-03 0.  1.
    9900012    2    1    2    0    0 -0.20677675737E+02  0.81580860797E+01  0.22860629791E+02  0.59301811190E+02  0.49999757736E+02 0.  0.
        -12    1    1    2    0    0  0.20677675737E+02 -0.81580860797E+01 -0.22860629791E+02  0.31886188810E+02  0.00000000000E+00 0.  1.
         11    1    3    3    0    0 -0.16513815724E+02  0.19981131655E+02  0.20634702054E+02  0.33132199763E+02  0.51100000000E-03 0. -1.
        -11    1    3    3    0    0  0.59953104046E+01  0.30123590260E+01  0.44514384756E+01  0.80519164497E+01  0.51100000000E-03 0.  1.
         12    1    3    3    0    0 -0.10159170418E+02 -0.14835404601E+02 -0.22255107392E+01  0.18117694978E+02  0.00000000000E+00 0. -1.
</event>
<event>
 7    1  0.6152255E-013  0.5930192E+02  0.7816164E-02  0.1266605E+00
        -11   -1    0    0    0    0  0.00000000000E+00  0.00000000000E+00  0.45593999997E+02  0.45594000000E+02  0.51100000000E-03 0.  1.
         11   -1    0    0    0    0 -0.00000000000E+00 -0.00000000000E+00 -0.45593999997E+02  0.45594000000E+02  0.51100000000E-03 0. -1.
    9900012    2    1    2    0    0 -0.48388589425E+01  0.25779012047E+02 -0.18131459589E+02  0.59301923966E+02  0.49999963413E+02 0.  0.
        -12    1    1    2    0    0  0.48388589425E+01 -0.25779012047E+02  0.18131459589E+02  0.31886076034E+02  0.00000000000E+00 0.  1.
         11    1    3    3    0    0  0.60858929726E+01  0.24101550206E+02 -0.23074420552E+00  0.24859124256E+02  0.51100000000E-03 0. -1.
        -11    1    3    3    0    0  0.84063003848E+01  0.33517642611E+01 -0.17953833559E+01  0.92262457954E+01  0.51100000000E-03 0.  1.
        -12    1    3    3    0    0 -0.19331052300E+02 -0.16743024201E+01 -0.16105332028E+02  0.25216553915E+02  0.00000000000E+00 0.  1.
</event>
<event>
 7    1  0.6152255E-013  0.5930196E+02  0.7816164E-02  0.1266605E+00
        -11   -1    0    0    0    0  0.00000000000E+00  0.00000000000E+00  0.45593999997E+02  0.45594000000E+02  0.51100000000E-03 0.  1.
         11   -1    0    0    0    0 -0.00000000000E+00 -0.00000000000E+00 -0.45593999997E+02  0.45594000000E+02  0.51100000000E-03 0. -1.
    9900012    2    1    2    0    0  0.75346723339E+01 -0.30974176237E+02  0.74069262394E+00  0.59301960636E+02  0.50000030289E+02 0.  0.
        -12    1    1    2    0    0 -0.75346723339E+01  0.30974176237E+02 -0.74069262394E+00  0.31886039364E+02  0.00000000000E+00 0.  1.
         11    1    3    3    0    0  0.17842928942E+02 -0.13739316959E+02 -0.56021184888E+01  0.23206091346E+02  0.51100000000E-03 0. -1.
        -11    1    3    3    0    0  0.81652074693E+01 -0.12494182479E+02  0.80312647807E+01  0.16949230751E+02  0.51100000000E-03 0.  1.
        -12    1    3    3    0    0 -0.18473464077E+02 -0.47406767999E+01 -0.16884536680E+01  0.19146638539E+02  0.00000000000E+00 0.  1.
</event>
<event>
 7    1  0.6152255E-013  0.5930192E+02  0.7816164E-02  0.1266605E+00
        -11   -1    0    0    0    0  0.00000000000E+00  0.00000000000E+00  0.45593999997E+02  0.45594000000E+02  0.51100000000E-03 0.  1.
         11   -1    0    0    0    0 -0.00000000000E+00 -0.00000000000E+00 -0.45593999997E+02  0.45594000000E+02  0.51100000000E-03 0. -1.
    9900012    2    1    2    0    0  0.28622760726E+02 -0.13909755474E+02 -0.19945152962E+01  0.59301924353E+02  0.49999964117E+02 0.  0.
        -12    1    1    2    0    0 -0.28622760726E+02  0.13909755474E+02  0.19945152962E+01  0.31886075647E+02  0.00000000000E+00 0.  1.
         11    1    3    3    0    0  0.25817194093E+02 -0.11938704915E+02 -0.35673162414E+01  0.28666808880E+02  0.51100000000E-03 0. -1.
        -11    1    3    3    0    0  0.44682976882E+01 -0.77266452045E+01 -0.12488805560E+02  0.15350472140E+02  0.51100000000E-03 0.  1.
        -12    1    3    3    0    0 -0.16627310559E+01  0.57555946455E+01  0.14061606506E+02  0.15284643333E+02  0.00000000000E+00 0.  1.
</event>
<event>
 7    1  0.6152255E-013  0.5930198E+02  0.7816164E-02  0.1266605E+00
        -11   -1    0    0    0    0  0.00000000000E+00  0.00000000000E+00  0.45593999997E+02  0.45594000000E+02  0.51100000000E-03 0.  1.
         11   -1    0    0    0    0 -0.00000000000E+00 -0.00000000000E+00 -0.45593999997E+02  0.45594000000E+02  0.51100000000E-03 0. -1.
    9900012    2    1    2    0    0  0.20660826525E+02 -0.18546788356E+02 -0.15680091419E+02  0.59301978330E+02  0.50000062559E+02 0.  0.
        -12    1    1    2    0    0 -0.20660826525E+02  0.18546788356E+02  0.15680091419E+02  0.31886021670E+02  0.00000000000E+00 0.  1.
         11    1    3    3    0    0  0.15106228036E+02 -0.14312446327E+01 -0.77414200514E+01  0.17034558149E+02  0.51100000000E-03 0. -1.
        -11    1    3    3    0    0  0.45092810597E+01  0.55272616790E+01  0.10741958695E+02  0.12894724278E+02  0.51100000000E-03 0.  1.
         12    1    3    3    0    0  0.10453174292E+01 -0.22642805403E+02 -0.18680630063E+02  0.29372695902E+02  0.00000000000E+00 0. -1.
</event>
<event>
 7    1  0.6152255E-013  0.5930193E+02  0.7816164E-02  0.1266605E+00
        -11   -1    0    0    0    0  0.00000000000E+00  0.00000000000E+00  0.45593999997E+02  0.45594000000E+02  0.51100000000E-03 0.  1.
         11   -1    0    0    0    0 -0.00000000000E+00 -0.00000000000E+00 -0.45593999997E+02  0.45594000000E+02  0.51100000000E-03 0. -1.
    9900012    2    1    2    0    0  0.45594629091E+01  0.29711532636E+02 -0.10637565896E+02  0.59301926523E+02  0.49999968076E+02 0.  0.
        -12    1    1    2    0    0 -0.45594629091E+01 -0.29711532636E+02  0.10637565896E+02  0.31886073477E+02  0.00000000000E+00 0.  1.
         11    1    3    3    0    0 -0.58181305504E+01  0.11898308035E+02 -0.77357628110E+01  0.15338265995E+02  0.51100000000E-03 0. -1.
        -11    1    3    3    0    0 -0.78594441175E+01 -0.72300207747E+01  0.52920839204E+01  0.11918482064E+02  0.51100000000E-03 0.  1.
         12    1    3    3    0    0  0.18237037577E+02  0.25043245375E+02 -0.81938870054E+01  0.32045178463E+02  0.00000000000E+00 0. -1.
</event>
<event>
 7    1  0.6152255E-013  0.5930199E+02  0.7816164E-02  0.1266605E+00
        -11   -1    0    0    0    0  0.00000000000E+00  0.00000000000E+00  0.45593999997E+02  0.45594000000E+02  0.51100000000E-03 0.  1.
         11   -1    0    0    0    0 -0.00000000000E+00 -0.00000000000E+00 -0.45593999997E+02  0.45594000000E+02  0.51100000000E-03 0. -1.
    9900012    2    1    2    0    0  0.12138247339E+02 -0.47676714086E+01 -0.29097250704E+02  0.59301988370E+02  0.50000080870E+02 0.  0.
        -12    1    1    2    0    0 -0.12138247339E+02  0.47676714086E+01  0.29097250704E+02  0.31886011630E+02  0.00000000000E+00 0.  1.
         11    1    3    3    0    0  0.16076394783E+01 -0.10860503969E+01 -0.24475422673E+02  0.24552195940E+02  0.51100000000E-03 0. -1.
        -11    1    3    3    0    0  0.32832494321E+00 -0.17365379182E+02 -0.26002537463E+01  0.17562047466E+02  0.51100000000E-03 0.  1.
        -12    1    3    3    0    0  0.10202282917E+02  0.13683758170E+02 -0.20215742844E+01  0.17187744965E+02  0.00000000000E+00 0.  1.
</event>
<event>
 7    1  0.6152255E-013  0.5930193E+02  0.7816164E-02  0.1266605E+00
        -11   -1    0    0    0    0  0.00000000000E+00  0.00000000000E+00  0.45593999997E+02  0.45594000000E+02  0.51100000000E-03 0.  1.
         11   -1    0    0    0    0 -0.00000000000E+00 -0.00000000000E+00 -0.45593999997E+02  0.45594000000E+02  0.51100000000E-03 0. -1.
    9900012    2    1    2    0    0 -0.16057115964E+01 -0.22775839491E+02 -0.22257681700E+02  0.59301928293E+02  0.49999971303E+02 0.  0.
        -12    1    1    2    0    0  0.16057115964E+01  0.22775839491E+02  0.22257681700E+02  0.31886071707E+02  0.00000000000E+00 0.  1.
         11    1    3    3    0    0  0.10312258570E+02 -0.15413413190E+02 -0.14933275409E+00  0.18545573152E+02  0.51100000000E-03 0. -1.
        -11    1    3    3    0    0 -0.16102166975E+02 -0.16927321362E+02 -0.12170589197E+02  0.26342688387E+02  0.51100000000E-03 0.  1.
         12    1    3    3    0    0  0.41841968088E+01  0.95648950610E+01 -0.99377597492E+01  0.14413666754E+02  0.00000000000E+00 0. -1.
</event>
<event>
 7    1  0.6152255E-013  0.5930195E+02  0.7816164E-02  0.1266605E+00
        -11   -1    0    0    0    0  0.00000000000E+00  0.00000000000E+00  0.45593999997E+02  0.45594000000E+02  0.51100000000E-03 0.  1.
         11   -1    0    0    0    0 -0.00000000000E+00 -0.00000000000E+00 -0.45593999997E+02  0.45594000000E+02  0.51100000000E-03 0. -1.
    9900012    2    1    2    0    0 -0.31199478246E+02 -0.53031641204E+01 -0.38973380195E+01  0.59301949192E+02  0.50000009418E+02 0.  0.
        -12    1    1    2    0    0  0.31199478246E+02  0.53031641204E+01  0.38973380195E+01  0.31886050808E+02  0.00000000000E+00 0.  1.
         11    1    3    3    0    0 -0.14729224966E+02 -0.16346381188E+02  0.93045297307E+01  0.23889925069E+02  0.51100000000E-03 0. -1.
        -11    1    3    3    0    0 -0.15085744372E+02  0.71074408314E+00  0.37042836713E+01  0.15550130488E+02  0.51100000000E-03 0.  1.
        -12    1    3    3    0    0 -0.13845089081E+01  0.10332472984E+02 -0.16906151421E+02  0.19861893635E+02  0.00000000000E+00 0.  1.
</event>
<event>
 7    1  0.6152255E-013  0.5930195E+02  0.7816164E-02  0.1266605E+00
        -11   -1    0    0    0    0  0.00000000000E+00  0.00000000000E+00  0.45593999997E+02  0.45594000000E+02  0.51100000000E-03 0.  1.
         11   -1    0    0    0    0 -0.00000000000E+00 -0.00000000000E+00 -0.45593999997E+02  0.45594000000E+02  0.51100000000E-03 0. -1.
    9900012    2    1    2    0    0 -0.18459717962E+02  0.73691008068E+01 -0.24933023177E+02  0.59301945389E+02  0.50000002482E+02 0.  0.
        -12    1    1    2    0    0  0.18459717962E+02 -0.73691008068E+01  0.24933023177E+02  0.31886054611E+02  0.00000000000E+00 0.  1.
         11    1    3    3    0    0 -0.77668433312E+01 -0.17819440259E+01 -0.19414049018E+01  0.82017213496E+01  0.51100000000E-03 0. -1.
        -11    1    3    3    0    0  0.11406561557E+01 -0.16153703968E+02 -0.23436984520E+01  0.16362645601E+02  0.51100000000E-03 0.  1.
         12    1    3    3    0    0 -0.11833530786E+02  0.25304748801E+02 -0.20647919823E+02  0.34737578438E+02  0.00000000000E+00 0. -1.
</event>
<event>
 7    1  0.8789739E-013  0.5930196E+02  0.7816164E-02  0.1266605E+00
        -11   -1    0    0    0    0  0.00000000000E+00  0.00000000000E+00  0.45593999997E+02  0.45594000000E+02  0.51100000000E-03 0.  1.
         11   -1    0    0    0    0 -0.00000000000E+00 -0.00000000000E+00 -0.45593999997E+02  0.45594000000E+02  0.51100000000E-03 0. -1.
    9900012    2    1    2    0    0 -0.12089345884E+02  0.23400705660E+02 -0.17971482681E+02  0.59301960750E+02  0.50000030498E+02 0.  0.
        -12    1    1    2    0    0  0.12089345884E+02 -0.23400705660E+02  0.17971482681E+02  0.31886039250E+02  0.00000000000E+00 0.  1.
         11    1    3    3    0    0  0.92717987754E+01  0.18782415927E+01 -0.63522192938E+01  0.11394943362E+02  0.51100000000E-03 0. -1.
        -11    1    3    3    0    0 -0.12396115767E+02  0.10642803556E+02  0.12088827879E+02  0.20324190350E+02  0.51100000000E-03 0.  1.
         12    1    3    3    0    0 -0.89650288926E+01  0.10879660511E+02 -0.23708091267E+02  0.27582827038E+02  0.00000000000E+00 0. -1.
</event>
<event>
 7    1  0.6152255E-013  0.5930195E+02  0.7816164E-02  0.1266605E+00
        -11   -1    0    0    0    0  0.00000000000E+00  0.00000000000E+00  0.45593999997E+02  0.45594000000E+02  0.51100000000E-03 0.  1.
         11   -1    0    0    0    0 -0.00000000000E+00 -0.00000000000E+00 -0.45593999997E+02  0.45594000000E+02  0.51100000000E-03 0. -1.
    9900012    2    1    2    0    0 -0.16318736444E+02 -0.14269143851E+02 -0.23383985422E+02  0.59301946629E+02  0.50000004744E+02 0.  0.
        -12    1    1    2    0    0  0.16318736444E+02  0.14269143851E+02  0.23383985422E+02  0.31886053371E+02  0.00000000000E+00 0.  1.
         11    1    3    3    0    0  0.44738694457E+01  0.90920475643E+01 -0.10590426878E+02  0.14657352368E+02  0.51100000000E-03 0. -1.
        -11    1    3    3    0    0 -0.51864273677E+01  0.18174559169E+01  0.70875705714E+01  0.89686025509E+01  0.51100000000E-03 0.  1.
         12    1    3    3    0    0 -0.15606178522E+02 -0.25178647333E+02 -0.19881129115E+02  0.35675991709E+02  0.00000000000E+00 0. -1.
</event>
<event>
 7    1  0.6152255E-013  0.5930196E+02  0.7816164E-02  0.1266605E+00
        -11   -1    0    0    0    0  0.00000000000E+00  0.00000000000E+00  0.45593999997E+02  0.45594000000E+02  0.51100000000E-03 0.  1.
         11   -1    0    0    0    0 -0.00000000000E+00 -0.00000000000E+00 -0.45593999997E+02  0.45594000000E+02  0.51100000000E-03 0. -1.
    9900012    2    1    2    0    0  0.57736780133E+01 -0.25891773881E+02 -0.17691804911E+02  0.59301964287E+02  0.50000036947E+02 0.  0.
        -12    1    1    2    0    0 -0.57736780133E+01  0.25891773881E+02  0.17691804911E+02  0.31886035713E+02  0.00000000000E+00 0.  1.
         11    1    3    3    0    0  0.43896370153E+01 -0.23914598765E+02  0.42773052600E+01  0.24687492537E+02  0.51100000000E-03 0. -1.
        -11    1    3    3    0    0 -0.25973331390E+01 -0.38304481449E+01  0.52757303936E+01  0.70179629432E+01  0.51100000000E-03 0.  1.
         12    1    3    3    0    0  0.39813741370E+01  0.18532730285E+01 -0.27244840565E+02  0.27596508807E+02  0.00000000000E+00 0. -1.
</event>
<event>
 7    1  0.6152255E-013  0.5930194E+02  0.7816164E-02  0.1266605E+00
        -11   -1    0    0    0    0  0.00000000000E+00  0.00000000000E+00  0.45593999997E+02  0.45594000000E+02  0.51100000000E-03 0.  1.
         11   -1    0    0    0    0 -0.00000000000E+00 -0.00000000000E+00 -0.45593999997E+02  0.45594000000E+02  0.51100000000E-03 0. -1.
    9900012    2    1    2    0    0 -0.55621053169E+01 -0.28941376983E+02  0.12172942842E+02  0.59301939493E+02  0.49999991729E+02 0.  0.
        -12    1    1    2    0    0  0.55621053169E+01  0.28941376983E+02 -0.12172942842E+02  0.31886060507E+02  0.00000000000E+00 0.  1.
         11    1    3    3    0    0 -0.52059740222E+01 -0.12273900354E+02 -0.65627108772E+01  0.14860012441E+02  0.51100000000E-03 0. -1.
        -11    1    3    3    0    0  0.14108473774E+02 -0.18493682430E+02  0.18727070193E+02  0.29862492869E+02  0.51100000000E-03 0.  1.
         12    1    3    3    0    0 -0.14464605069E+02  0.18262058008E+01  0.85835269271E-02  0.14579434183E+02  0.00000000000E+00 0. -1.
</event>
<event>
 7    1  0.6152255E-013  0.5930184E+02  0.7816164E-02  0.1266605E+00
        -11   -1    0    0    0    0  0.00000000000E+00  0.00000000000E+00  0.45593999997E+02  0.45594000000E+02  0.51100000000E-03 0. -1.
         11   -1    0    0    0    0 -0.00000000000E+00 -0.00000000000E+00 -0.45593999997E+02  0.45594000000E+02  0.51100000000E-03 0.  1.
    9900012    2    1    2    0    0  0.21789554467E+02  0.13341118354E+02  0.19077658121E+02  0.59301840586E+02  0.49999811346E+02 0.  0.
        -12    1    1    2    0    0 -0.21789554467E+02 -0.13341118354E+02 -0.19077658121E+02  0.31886159414E+02  0.00000000000E+00 0.  1.
         11    1    3    3    0    0 -0.27110053161E+00  0.21639547877E+01  0.22601366672E+01  0.31407664410E+01  0.51100000000E-03 0. -1.
        -11    1    3    3    0    0 -0.11195984467E+02 -0.60721019939E+01 -0.39386182577E+01  0.13331661744E+02  0.51100000000E-03 0.  1.
        -12    1    3    3    0    0  0.33256639466E+02  0.17249265560E+02  0.20756139711E+02  0.42829412401E+02  0.00000000000E+00 0.  1.
</event>
<event>
 7    1  0.6152255E-013  0.5930194E+02  0.7816164E-02  0.1266605E+00
        -11   -1    0    0    0    0  0.00000000000E+00  0.00000000000E+00  0.45593999997E+02  0.45594000000E+02  0.51100000000E-03 0.  1.
         11   -1    0    0    0    0 -0.00000000000E+00 -0.00000000000E+00 -0.45593999997E+02  0.45594000000E+02  0.51100000000E-03 0. -1.
    9900012    2    1    2    0    0 -0.43656934584E+01  0.13516192816E+02 -0.28547755137E+02  0.59301936101E+02  0.49999985544E+02 0.  0.
        -12    1    1    2    0    0  0.43656934584E+01 -0.13516192816E+02  0.28547755137E+02  0.31886063899E+02  0.00000000000E+00 0.  1.
         11    1    3    3    0    0 -0.18804685809E+02  0.10439527780E+02 -0.10781337581E+02  0.24059035495E+02  0.51100000000E-03 0. -1.
        -11    1    3    3    0    0 -0.59948345168E+01 -0.21400851247E+01  0.16509847884E+01  0.65759984989E+01  0.51100000000E-03 0.  1.
        -12    1    3    3    0    0  0.20433826867E+02  0.52167501609E+01 -0.19417402344E+02  0.28666902108E+02  0.00000000000E+00 0.  1.
</event>
<event>
 7    1  0.6152255E-013  0.5930193E+02  0.7816164E-02  0.1266605E+00
        -11   -1    0    0    0    0  0.00000000000E+00  0.00000000000E+00  0.45593999997E+02  0.45594000000E+02  0.51100000000E-03 0.  1.
         11   -1    0    0    0    0 -0.00000000000E+00 -0.00000000000E+00 -0.45593999997E+02  0.45594000000E+02  0.51100000000E-03 0. -1.
    9900012    2    1    2    0    0  0.17035354875E+02  0.65222625171E+01 -0.26152976549E+02  0.59301930841E+02  0.49999975951E+02 0.  0.
        -12    1    1    2    0    0 -0.17035354875E+02 -0.65222625171E+01  0.26152976549E+02  0.31886069159E+02  0.00000000000E+00 0.  1.
         11    1    3    3    0    0 -0.15449091369E+01 -0.83553759443E+01 -0.67477330859E+01  0.10850389554E+02  0.51100000000E-03 0. -1.
        -11    1    3    3    0    0 -0.73962721124E+00 -0.84219756504E+01  0.47763828376E+01  0.97103324114E+01  0.51100000000E-03 0.  1.
         12    1    3    3    0    0  0.19319891223E+02  0.23299614112E+02 -0.24181626300E+02  0.38741208876E+02  0.00000000000E+00 0. -1.
</event>
<event>
 7    1  0.6152255E-013  0.5930194E+02  0.7816164E-02  0.1266605E+00
        -11   -1    0    0    0    0  0.00000000000E+00  0.00000000000E+00  0.45593999997E+02  0.45594000000E+02  0.51100000000E-03 0.  1.
         11   -1    0    0    0    0 -0.00000000000E+00 -0.00000000000E+00 -0.45593999997E+02  0.45594000000E+02  0.51100000000E-03 0. -1.
    9900012    2    1    2    0    0  0.39815698061E+01  0.69402288482E+01 -0.30865854345E+02  0.59301942874E+02  0.49999997896E+02 0.  0.
        -12    1    1    2    0    0 -0.39815698061E+01 -0.69402288482E+01  0.30865854345E+02  0.31886057126E+02  0.00000000000E+00 0.  1.
         11    1    3    3    0    0 -0.19408050713E+01 -0.50020303793E+01 -0.42251316916E+01  0.68292584014E+01  0.51100000000E-03 0. -1.
        -11    1    3    3    0    0 -0.12696452069E+01 -0.66218092812E+01  0.92402390146E+01  0.11438635164E+02  0.51100000000E-03 0.  1.
         12    1    3    3    0    0  0.71920200843E+01  0.18564068509E+02 -0.35880961668E+02  0.41034049309E+02  0.00000000000E+00 0. -1.
</event>
<event>
 7    1  0.6152255E-013  0.5930196E+02  0.7816164E-02  0.1266605E+00
        -11   -1    0    0    0    0  0.00000000000E+00  0.00000000000E+00  0.45593999997E+02  0.45594000000E+02  0.51100000000E-03 0.  1.
         11   -1    0    0    0    0 -0.00000000000E+00 -0.00000000000E+00 -0.45593999997E+02  0.45594000000E+02  0.51100000000E-03 0. -1.
    9900012    2    1    2    0    0  0.26138516649E+02 -0.18261908804E+02 -0.22055632883E-01  0.59301955212E+02  0.50000020398E+02 0.  0.
        -12    1    1    2    0    0 -0.26138516649E+02  0.18261908804E+02  0.22055632883E-01  0.31886044788E+02  0.00000000000E+00 0.  1.
         11    1    3    3    0    0  0.14712900213E+01 -0.94272406950E+01 -0.32952499505E+01  0.10094366446E+02  0.51100000000E-03 0. -1.
        -11    1    3    3    0    0  0.28611385235E+01 -0.19767607377E+02  0.11998886981E+02  0.23300594500E+02  0.51100000000E-03 0.  1.
         12    1    3    3    0    0  0.21806088104E+02  0.10932939268E+02 -0.87256926629E+01  0.25906994266E+02  0.00000000000E+00 0. -1.
</event>
<event>
 7    1  0.6152255E-013  0.5930190E+02  0.7816164E-02  0.1266605E+00
        -11   -1    0    0    0    0  0.00000000000E+00  0.00000000000E+00  0.45593999997E+02  0.45594000000E+02  0.51100000000E-03 0.  1.
         11   -1    0    0    0    0 -0.00000000000E+00 -0.00000000000E+00 -0.45593999997E+02  0.45594000000E+02  0.51100000000E-03 0. -1.
    9900012    2    1    2    0    0 -0.14062420160E+02  0.24076517316E+02 -0.15469095367E+02  0.59301901802E+02  0.49999922990E+02 0.  0.
        -12    1    1    2    0    0  0.14062420160E+02 -0.24076517316E+02  0.15469095367E+02  0.31886098198E+02  0.00000000000E+00 0.  1.
         11    1    3    3    0    0 -0.18206265074E+01 -0.49421277914E+01 -0.13076794656E+01  0.54267240423E+01  0.51100000000E-03 0. -1.
        -11    1    3    3    0    0 -0.28621298488E+01  0.33922311407E+01 -0.24346242285E+02  0.24747495491E+02  0.51100000000E-03 0.  1.
        -12    1    3    3    0    0 -0.93796638039E+01  0.25626413967E+02  0.10184826384E+02  0.29127682269E+02  0.00000000000E+00 0.  1.
</event>
<event>
 7    1  0.6152255E-013  0.5930197E+02  0.7816164E-02  0.1266605E+00
        -11   -1    0    0    0    0  0.00000000000E+00  0.00000000000E+00  0.45593999997E+02  0.45594000000E+02  0.51100000000E-03 0.  1.
         11   -1    0    0    0    0 -0.00000000000E+00 -0.00000000000E+00 -0.45593999997E+02  0.45594000000E+02  0.51100000000E-03 0. -1.
    9900012    2    1    2    0    0  0.21396071483E+01  0.20752615461E+01 -0.31746408291E+02  0.59301967499E+02  0.50000042807E+02 0.  0.
        -12    1    1    2    0    0 -0.21396071483E+01 -0.20752615461E+01  0.31746408291E+02  0.31886032501E+02  0.00000000000E+00 0.  1.
         11    1    3    3    0    0 -0.11902330020E+02  0.11411278105E+02 -0.32325413308E+02  0.36287946672E+02  0.51100000000E-03 0. -1.
        -11    1    3    3    0    0  0.10151664373E+02 -0.42558768458E+01 -0.70386210768E+01  0.13065640597E+02  0.51100000000E-03 0.  1.
        -12    1    3    3    0    0  0.38902727954E+01 -0.50801397127E+01  0.76176260931E+01  0.99483802308E+01  0.00000000000E+00 0.  1.
</event>
<event>
 7    1  0.6152255E-013  0.5930195E+02  0.7816164E-02  0.1266605E+00
        -11   -1    0    0    0    0  0.00000000000E+00  0.00000000000E+00  0.45593999997E+02  0.45594000000E+02  0.51100000000E-03 0. -1.
         11   -1    0    0    0    0 -0.00000000000E+00 -0.00000000000E+00 -0.45593999997E+02  0.45594000000E+02  0.51100000000E-03 0.  1.
    9900012    2    1    2    0    0 -0.15473580961E+01 -0.21858330608E+02 -0.23163317559E+02  0.59301949533E+02  0.50000010041E+02 0.  0.
        -12    1    1    2    0    0  0.15473580961E+01  0.21858330608E+02  0.23163317559E+02  0.31886050467E+02  0.00000000000E+00 0.  1.
         11    1    3    3    0    0 -0.86219113933E+01 -0.30622283122E+00  0.65087257538E+01  0.10807156874E+02  0.51100000000E-03 0. -1.
        -11    1    3    3    0    0 -0.11484258967E+02 -0.55246768975E+01 -0.15877666167E+02  0.20359531970E+02  0.51100000000E-03 0.  1.
        -12    1    3    3    0    0  0.18558812264E+02 -0.16027430880E+02 -0.13794377145E+02  0.28135260690E+02  0.00000000000E+00 0.  1.
</event>
<event>
 7    1  0.6152255E-013  0.5930196E+02  0.7816164E-02  0.1266605E+00
        -11   -1    0    0    0    0  0.00000000000E+00  0.00000000000E+00  0.45593999997E+02  0.45594000000E+02  0.51100000000E-03 0.  1.
         11   -1    0    0    0    0 -0.00000000000E+00 -0.00000000000E+00 -0.45593999997E+02  0.45594000000E+02  0.51100000000E-03 0. -1.
    9900012    2    1    2    0    0 -0.19453565310E+02 -0.95483544828E+01 -0.23390329841E+02  0.59301955926E+02  0.50000021700E+02 0.  0.
        -12    1    1    2    0    0  0.19453565310E+02  0.95483544828E+01  0.23390329841E+02  0.31886044074E+02  0.00000000000E+00 0.  1.
         11    1    3    3    0    0 -0.11867507667E+01 -0.13524313720E+02 -0.29825938031E+01  0.13900046943E+02  0.51100000000E-03 0. -1.
        -11    1    3    3    0    0 -0.23027837260E+02  0.91337026006E+01 -0.10327153571E+01  0.24794602504E+02  0.51100000000E-03 0.  1.
         12    1    3    3    0    0  0.47610227167E+01 -0.51577433638E+01 -0.19375020681E+02  0.20607306478E+02  0.00000000000E+00 0. -1.
</event>
<event>
 7    1  0.6152255E-013  0.5930188E+02  0.7816164E-02  0.1266605E+00
        -11   -1    0    0    0    0  0.00000000000E+00  0.00000000000E+00  0.45593999997E+02  0.45594000000E+02  0.51100000000E-03 0.  1.
         11   -1    0    0    0    0 -0.00000000000E+00 -0.00000000000E+00 -0.45593999997E+02  0.45594000000E+02  0.51100000000E-03 0. -1.
    9900012    2    1    2    0    0 -0.85226545575E+01 -0.10400686783E+02 -0.28912192077E+02  0.59301877988E+02  0.49999879560E+02 0.  0.
        -12    1    1    2    0    0  0.85226545575E+01  0.10400686783E+02  0.28912192077E+02  0.31886122012E+02  0.00000000000E+00 0.  1.
         11    1    3    3    0    0 -0.12546885508E+01 -0.20519564851E+02 -0.21522793397E+02  0.29763357016E+02  0.51100000000E-03 0. -1.
        -11    1    3    3    0    0  0.10847228735E+01 -0.57154011244E+01  0.50786509944E+01  0.77223785138E+01  0.51100000000E-03 0.  1.
         12    1    3    3    0    0 -0.83526888802E+01  0.15834279192E+02 -0.12468049675E+02  0.21816142458E+02  0.00000000000E+00 0. -1.
</event>
<event>
 7    1  0.6152255E-013  0.5930193E+02  0.7816164E-02  0.1266605E+00
        -11   -1    0    0    0    0  0.00000000000E+00  0.00000000000E+00  0.45593999997E+02  0.45594000000E+02  0.51100000000E-03 0.  1.
         11   -1    0    0    0    0 -0.00000000000E+00 -0.00000000000E+00 -0.45593999997E+02  0.45594000000E+02  0.51100000000E-03 0. -1.
    9900012    2    1    2    0    0  0.69036396856E+01  0.13597276618E+02 -0.28003126023E+02  0.59301933460E+02  0.49999980726E+02 0.  0.
        -12    1    1    2    0    0 -0.69036396856E+01 -0.13597276618E+02  0.28003126023E+02  0.31886066540E+02  0.00000000000E+00 0.  1.
         11    1    3    3    0    0  0.59586117499E+01  0.10347770583E+02  0.66570366533E+01  0.13671047776E+02  0.51100000000E-03 0. -1.
        -11    1    3    3    0    0 -0.11667823422E+01  0.12108327368E+02 -0.27835070995E+01  0.12478817440E+02  0.51100000000E-03 0.  1.
         12    1    3    3    0    0  0.21118102779E+01 -0.88588213323E+01 -0.31876655577E+02  0.33152068244E+02  0.00000000000E+00 0. -1.
</event>
<event>
 7    1  0.6152255E-013  0.5930196E+02  0.7816164E-02  0.1266605E+00
        -11   -1    0    0    0    0  0.00000000000E+00  0.00000000000E+00  0.45593999997E+02  0.45594000000E+02  0.51100000000E-03 0.  1.
         11   -1    0    0    0    0 -0.00000000000E+00 -0.00000000000E+00 -0.45593999997E+02  0.45594000000E+02  0.51100000000E-03 0. -1.
    9900012    2    1    2    0    0 -0.22878897073E+02  0.82040728629E+01 -0.20639016436E+02  0.59301956936E+02  0.50000023542E+02 0.  0.
        -12    1    1    2    0    0  0.22878897073E+02 -0.82040728629E+01  0.20639016436E+02  0.31886043064E+02  0.00000000000E+00 0.  1.
         11    1    3    3    0    0 -0.20869275731E+02 -0.52738035195E+01 -0.18563988564E+02  0.28424660855E+02  0.51100000000E-03 0. -1.
        -11    1    3    3    0    0 -0.13066646004E+02  0.14486775984E+02  0.35165455396E+00  0.19512241732E+02  0.51100000000E-03 0.  1.
        -12    1    3    3    0    0  0.11057024661E+02 -0.10088996021E+01 -0.24266824261E+01  0.11365054349E+02  0.00000000000E+00 0.  1.
</event>
<event>
 7    1  0.6152255E-013  0.5930194E+02  0.7816164E-02  0.1266605E+00
        -11   -1    0    0    0    0  0.00000000000E+00  0.00000000000E+00  0.45593999997E+02  0.45594000000E+02  0.51100000000E-03 0. -1.
         11   -1    0    0    0    0 -0.00000000000E+00 -0.00000000000E+00 -0.45593999997E+02  0.45594000000E+02  0.51100000000E-03 0.  1.
    9900012    2    1    2    0    0  0.28639369514E+02 -0.60552174443E+01  0.12642851672E+02  0.59301939678E+02  0.49999992068E+02 0.  0.
        -12    1    1    2    0    0 -0.28639369514E+02  0.60552174443E+01 -0.12642851672E+02  0.31886060322E+02  0.00000000000E+00 0.  1.
         11    1    3    3    0    0  0.37692913385E+02 -0.10723724348E+02  0.16210281087E+02  0.42409046164E+02  0.51100000000E-03 0. -1.
        -11    1    3    3    0    0  0.10654376165E+01  0.16098229474E+01  0.36249762724E+01  0.41069624387E+01  0.51100000000E-03 0.  1.
        -12    1    3    3    0    0 -0.10118981488E+02  0.30586839561E+01 -0.71924056876E+01  0.12785931076E+02  0.00000000000E+00 0.  1.
</event>
<event>
 7    1  0.6152255E-013  0.5930193E+02  0.7816164E-02  0.1266605E+00
        -11   -1    0    0    0    0  0.00000000000E+00  0.00000000000E+00  0.45593999997E+02  0.45594000000E+02  0.51100000000E-03 0.  1.
         11   -1    0    0    0    0 -0.00000000000E+00 -0.00000000000E+00 -0.45593999997E+02  0.45594000000E+02  0.51100000000E-03 0. -1.
    9900012    2    1    2    0    0 -0.21747221729E+02 -0.13372810953E+02 -0.19103613438E+02  0.59301925106E+02  0.49999965492E+02 0.  0.
        -12    1    1    2    0    0  0.21747221729E+02  0.13372810953E+02  0.19103613438E+02  0.31886074894E+02  0.00000000000E+00 0.  1.
         11    1    3    3    0    0  0.15539739577E+00 -0.27344869288E+01 -0.19987937841E+02  0.20174717508E+02  0.51100000000E-03 0. -1.
        -11    1    3    3    0    0  0.24997681152E+01 -0.93201645293E+01 -0.85879465245E+01  0.12917706192E+02  0.51100000000E-03 0.  1.
         12    1    3    3    0    0 -0.24402387240E+02 -0.13181594949E+01  0.94722709273E+01  0.26209501407E+02  0.00000000000E+00 0. -1.
</event>
<event>
 7    1  0.6152255E-013  0.5930195E+02  0.7816164E-02  0.1266605E+00
        -11   -1    0    0    0    0  0.00000000000E+00  0.00000000000E+00  0.45593999997E+02  0.45594000000E+02  0.51100000000E-03 0.  1.
         11   -1    0    0    0    0 -0.00000000000E+00 -0.00000000000E+00 -0.45593999997E+02  0.45594000000E+02  0.51100000000E-03 0. -1.
    9900012    2    1    2    0    0  0.30846115495E+02 -0.75990803506E+01 -0.27369931076E+01  0.59301952980E+02  0.50000016327E+02 0.  0.
        -12    1    1    2    0    0 -0.30846115495E+02  0.75990803506E+01  0.27369931076E+01  0.31886047020E+02  0.00000000000E+00 0.  1.
         11    1    3    3    0    0  0.40133803424E+01 -0.21335307573E+02  0.39973611522E+01  0.22074452823E+02  0.51100000000E-03 0. -1.
        -11    1    3    3    0    0  0.12880188145E+02  0.21398259461E+01  0.66781538753E+01  0.14665464233E+02  0.51100000000E-03 0.  1.
         12    1    3    3    0    0  0.13952547008E+02  0.11596401276E+02 -0.13412508135E+02  0.22562035924E+02  0.00000000000E+00 0. -1.
</event>
<event>
 7    1  0.6152255E-013  0.5930197E+02  0.7816164E-02  0.1266605E+00
        -11   -1    0    0    0    0  0.00000000000E+00  0.00000000000E+00  0.45593999997E+02  0.45594000000E+02  0.51100000000E-03 0.  1.
         11   -1    0    0    0    0 -0.00000000000E+00 -0.00000000000E+00 -0.45593999997E+02  0.45594000000E+02  0.51100000000E-03 0. -1.
    9900012    2    1    2    0    0 -0.13837736164E+02 -0.12583752567E+02 -0.25824113683E+02  0.59301974560E+02  0.50000055684E+02 0.  0.
        -12    1    1    2    0    0  0.13837736164E+02  0.12583752567E+02  0.25824113683E+02  0.31886025440E+02  0.00000000000E+00 0.  1.
         11    1    3    3    0    0 -0.98864972966E+01 -0.79030652980E+00 -0.11965687702E+02  0.15541721129E+02  0.51100000000E-03 0. -1.
        -11    1    3    3    0    0 -0.18948346422E+02 -0.63274497584E-01  0.19022253344E+01  0.19043694422E+02  0.51100000000E-03 0.  1.
         12    1    3    3    0    0  0.14997107554E+02 -0.11730171540E+02 -0.15760651316E+02  0.24716559009E+02  0.00000000000E+00 0. -1.
</event>
<event>
 7    1  0.6152255E-013  0.5930195E+02  0.7816164E-02  0.1266605E+00
        -11   -1    0    0    0    0  0.00000000000E+00  0.00000000000E+00  0.45593999997E+02  0.45594000000E+02  0.51100000000E-03 0. -1.
         11   -1    0    0    0    0 -0.00000000000E+00 -0.00000000000E+00 -0.45593999997E+02  0.45594000000E+02  0.51100000000E-03 0.  1.
    9900012    2    1    2    0    0  0.22140016122E+02  0.18951314820E+02  0.12937829422E+02  0.59301951680E+02  0.50000013956E+02 0.  0.
        -12    1    1    2    0    0 -0.22140016122E+02 -0.18951314820E+02 -0.12937829422E+02  0.31886048320E+02  0.00000000000E+00 0.  1.
         11    1    3    3    0    0  0.27602110496E+02  0.14046844345E+02  0.25037706221E+02  0.39825583147E+02  0.51100000000E-03 0. -1.
        -11    1    3    3    0    0  0.31194207933E+01 -0.13296860693E+01 -0.72401022559E-02  0.33910033631E+01  0.51100000000E-03 0.  1.
         12    1    3    3    0    0 -0.85815151669E+01  0.62341565443E+01 -0.12092636697E+02  0.16085365170E+02  0.00000000000E+00 0. -1.
</event>
<event>
 7    1  0.6152255E-013  0.5930194E+02  0.7816164E-02  0.1266605E+00
        -11   -1    0    0    0    0  0.00000000000E+00  0.00000000000E+00  0.45593999997E+02  0.45594000000E+02  0.51100000000E-03 0. -1.
         11   -1    0    0    0    0 -0.00000000000E+00 -0.00000000000E+00 -0.45593999997E+02  0.45594000000E+02  0.51100000000E-03 0.  1.
    9900012    2    1    2    0    0 -0.10143134214E+02 -0.20631305837E+02  0.22094948170E+02  0.59301942124E+02  0.49999996528E+02 0.  0.
        -12    1    1    2    0    0  0.10143134214E+02  0.20631305837E+02 -0.22094948170E+02  0.31886057876E+02  0.00000000000E+00 0.  1.
         11    1    3    3    0    0  0.37821800351E+01 -0.67594227233E+01  0.20336060494E+02  0.21761204885E+02  0.51100000000E-03 0. -1.
        -11    1    3    3    0    0  0.84257725319E+01 -0.10870975231E+02 -0.38878310211E+01  0.14292899480E+02  0.51100000000E-03 0.  1.
        -12    1    3    3    0    0 -0.22351086781E+02 -0.30009078826E+01  0.56467186973E+01  0.23247837759E+02  0.00000000000E+00 0.  1.
</event>
<event>
 7    1  0.6152255E-013  0.5930206E+02  0.7816164E-02  0.1266604E+00
        -11   -1    0    0    0    0  0.00000000000E+00  0.00000000000E+00  0.45593999997E+02  0.45594000000E+02  0.51100000000E-03 0. -1.
         11   -1    0    0    0    0 -0.00000000000E+00 -0.00000000000E+00 -0.45593999997E+02  0.45594000000E+02  0.51100000000E-03 0.  1.
    9900012    2    1    2    0    0  0.26717827125E+02  0.13430409174E+01  0.17351292022E+02  0.59302056702E+02  0.50000205490E+02 0.  0.
        -12    1    1    2    0    0 -0.26717827125E+02 -0.13430409174E+01 -0.17351292022E+02  0.31885943298E+02  0.00000000000E+00 0.  1.
         11    1    3    3    0    0  0.12862772424E+02 -0.43001179603E+00  0.39793362658E+01  0.13471115097E+02  0.51100000000E-03 0. -1.
        -11    1    3    3    0    0 -0.31584763455E+01 -0.15792712757E+02 -0.30264771057E+01  0.16387352226E+02  0.51100000000E-03 0.  1.
         12    1    3    3    0    0  0.17013531046E+02  0.17565765470E+02  0.16398432862E+02  0.29443589379E+02  0.00000000000E+00 0. -1.
</event>
<event>
 7    1  0.6152255E-013  0.5930205E+02  0.7816164E-02  0.1266604E+00
        -11   -1    0    0    0    0  0.00000000000E+00  0.00000000000E+00  0.45593999997E+02  0.45594000000E+02  0.51100000000E-03 0. -1.
         11   -1    0    0    0    0 -0.00000000000E+00 -0.00000000000E+00 -0.45593999997E+02  0.45594000000E+02  0.51100000000E-03 0.  1.
    9900012    2    1    2    0    0 -0.78083342720E+01 -0.20685399018E+02 -0.22975155230E+02  0.59302053652E+02  0.50000199928E+02 0.  0.
        -12    1    1    2    0    0  0.78083342720E+01  0.20685399018E+02  0.22975155230E+02  0.31885946348E+02  0.00000000000E+00 0.  1.
         11    1    3    3    0    0 -0.12714572789E+02  0.26541743461E+01  0.73909558812E+00  0.13009660457E+02  0.51100000000E-03 0. -1.
        -11    1    3    3    0    0  0.13268197623E+01  0.74725028955E+01 -0.95331117996E+01  0.12185194748E+02  0.51100000000E-03 0.  1.
         12    1    3    3    0    0  0.35794187544E+01 -0.30812076260E+02 -0.14181139019E+02  0.34107198447E+02  0.00000000000E+00 0. -1.
</event>
<event>
 7    1  0.6152255E-013  0.5930195E+02  0.7816164E-02  0.1266605E+00
        -11   -1    0    0    0    0  0.00000000000E+00  0.00000000000E+00  0.45593999997E+02  0.45594000000E+02  0.51100000000E-03 0. -1.
         11   -1    0    0    0    0 -0.00000000000E+00 -0.00000000000E+00 -0.45593999997E+02  0.45594000000E+02  0.51100000000E-03 0.  1.
    9900012    2    1    2    0    0 -0.13612849962E+02  0.28366907119E+02  0.51700221831E+01  0.59301949241E+02  0.50000009508E+02 0.  0.
        -12    1    1    2    0    0  0.13612849962E+02 -0.28366907119E+02 -0.51700221831E+01  0.31886050759E+02  0.00000000000E+00 0.  1.
         11    1    3    3    0    0 -0.19160426120E+02  0.29725252130E+02  0.18710199324E+02  0.40009800078E+02  0.51100000000E-03 0. -1.
        -11    1    3    3    0    0 -0.34924178413E+01 -0.10734178061E+01 -0.92358302795E+00  0.37685824968E+01  0.51100000000E-03 0.  1.
        -12    1    3    3    0    0  0.90399939993E+01 -0.28492720461E+00 -0.12616594113E+02  0.15523566666E+02  0.00000000000E+00 0.  1.
</event>
<event>
 7    1  0.6152255E-013  0.5930195E+02  0.7816164E-02  0.1266605E+00
        -11   -1    0    0    0    0  0.00000000000E+00  0.00000000000E+00  0.45593999997E+02  0.45594000000E+02  0.51100000000E-03 0.  1.
         11   -1    0    0    0    0 -0.00000000000E+00 -0.00000000000E+00 -0.45593999997E+02  0.45594000000E+02  0.51100000000E-03 0. -1.
    9900012    2    1    2    0    0  0.13708440881E+02 -0.27387944165E+02 -0.88712553635E+01  0.59301952759E+02  0.50000015923E+02 0.  0.
        -12    1    1    2    0    0 -0.13708440881E+02  0.27387944165E+02  0.88712553635E+01  0.31886047241E+02  0.00000000000E+00 0.  1.
         11    1    3    3    0    0 -0.71672753797E+01 -0.62097692251E+01 -0.17024975646E+02  0.19487967216E+02  0.51100000000E-03 0. -1.
        -11    1    3    3    0    0  0.10606558656E+02 -0.16146549698E+02 -0.72458095077E+01  0.20632787242E+02  0.51100000000E-03 0.  1.
        -12    1    3    3    0    0  0.10269157605E+02 -0.50316252416E+01  0.15399529791E+02  0.19181198301E+02  0.00000000000E+00 0.  1.
</event>
<event>
 7    1  0.6152255E-013  0.5930195E+02  0.7816164E-02  0.1266605E+00
        -11   -1    0    0    0    0  0.00000000000E+00  0.00000000000E+00  0.45593999997E+02  0.45594000000E+02  0.51100000000E-03 0.  1.
         11   -1    0    0    0    0 -0.00000000000E+00 -0.00000000000E+00 -0.45593999997E+02  0.45594000000E+02  0.51100000000E-03 0. -1.
    9900012    2    1    2    0    0 -0.27629466045E+01  0.15778812704E+02 -0.27570195674E+02  0.59301945152E+02  0.50000002050E+02 0.  0.
        -12    1    1    2    0    0  0.27629466045E+01 -0.15778812704E+02  0.27570195674E+02  0.31886054848E+02  0.00000000000E+00 0.  1.
         11    1    3    3    0    0  0.44048176072E+01 -0.21301063950E+01  0.71395081364E+01  0.86551919735E+01  0.51100000000E-03 0. -1.
        -11    1    3    3    0    0  0.13376684472E+01 -0.77779498038E+01 -0.18979806177E+01  0.81171541017E+01  0.51100000000E-03 0.  1.
         12    1    3    3    0    0 -0.85054326589E+01  0.25686868903E+02 -0.32811723193E+02  0.42529599077E+02  0.00000000000E+00 0. -1.
</event>
<event>
 7    1  0.6152255E-013  0.5930194E+02  0.7816164E-02  0.1266605E+00
        -11   -1    0    0    0    0  0.00000000000E+00  0.00000000000E+00  0.45593999997E+02  0.45594000000E+02  0.51100000000E-03 0. -1.
         11   -1    0    0    0    0 -0.00000000000E+00 -0.00000000000E+00 -0.45593999997E+02  0.45594000000E+02  0.51100000000E-03 0.  1.
    9900012    2    1    2    0    0 -0.28074221820E+02 -0.71786188523E+01  0.13305121300E+02  0.59301941099E+02  0.49999994658E+02 0.  0.
        -12    1    1    2    0    0  0.28074221820E+02  0.71786188523E+01 -0.13305121300E+02  0.31886058901E+02  0.00000000000E+00 0.  1.
         11    1    3    3    0    0 -0.84842106501E+01 -0.58981444661E+01  0.16585478211E+02  0.19540932072E+02  0.51100000000E-03 0. -1.
        -11    1    3    3    0    0  0.43878012137E+01 -0.66819455267E+01  0.92062172394E+01  0.12192441578E+02  0.51100000000E-03 0.  1.
        -12    1    3    3    0    0 -0.23977812384E+02  0.54014711405E+01 -0.12486574150E+02  0.27568567449E+02  0.00000000000E+00 0.  1.
</event>
<event>
 7    1  0.6152255E-013  0.5930194E+02  0.7816164E-02  0.1266605E+00
        -11   -1    0    0    0    0  0.00000000000E+00  0.00000000000E+00  0.45593999997E+02  0.45594000000E+02  0.51100000000E-03 0.  1.
         11   -1    0    0    0    0 -0.00000000000E+00 -0.00000000000E+00 -0.45593999997E+02  0.45594000000E+02  0.51100000000E-03 0. -1.
    9900012    2    1    2    0    0  0.20305878543E+02 -0.21472755192E+02 -0.11971340198E+02  0.59301938703E+02  0.49999990288E+02 0.  0.
        -12    1    1    2    0    0 -0.20305878543E+02  0.21472755192E+02  0.11971340198E+02  0.31886061297E+02  0.00000000000E+00 0.  1.
         11    1    3    3    0    0  0.92428190066E+01 -0.21311852616E+02  0.24953671152E+01  0.23363467688E+02  0.51100000000E-03 0.  1.
        -11    1    3    3    0    0  0.55787883049E+00 -0.46049152262E+01 -0.21859196195E+02  0.22345937697E+02  0.51100000000E-03 0. -1.
         12    1    3    3    0    0  0.10505180706E+02  0.44440126508E+01  0.73924888816E+01  0.13592533317E+02  0.00000000000E+00 0. -1.
</event>
<event>
 7    1  0.6152255E-013  0.5930197E+02  0.7816164E-02  0.1266605E+00
        -11   -1    0    0    0    0  0.00000000000E+00  0.00000000000E+00  0.45593999997E+02  0.45594000000E+02  0.51100000000E-03 0. -1.
         11   -1    0    0    0    0 -0.00000000000E+00 -0.00000000000E+00 -0.45593999997E+02  0.45594000000E+02  0.51100000000E-03 0.  1.
    9900012    2    1    2    0    0 -0.23589511974E+02 -0.20701576157E+02  0.56301510559E+01  0.59301969650E+02  0.50000046729E+02 0.  0.
        -12    1    1    2    0    0  0.23589511974E+02  0.20701576157E+02 -0.56301510559E+01  0.31886030350E+02  0.00000000000E+00 0.  1.
         11    1    3    3    0    0 -0.98212719779E+01  0.50430623684E+01  0.15003243628E+02  0.18627591925E+02  0.51100000000E-03 0. -1.
        -11    1    3    3    0    0 -0.12869364725E+02 -0.34877228734E+01 -0.12383103449E+02  0.18196868153E+02  0.51100000000E-03 0.  1.
        -12    1    3    3    0    0 -0.89887527135E+00 -0.22256915652E+02  0.30100108771E+01  0.22477509572E+02  0.00000000000E+00 0.  1.
</event>
<event>
 7    1  0.6152255E-013  0.5930194E+02  0.7816164E-02  0.1266605E+00
        -11   -1    0    0    0    0  0.00000000000E+00  0.00000000000E+00  0.45593999997E+02  0.45594000000E+02  0.51100000000E-03 0. -1.
         11   -1    0    0    0    0 -0.00000000000E+00 -0.00000000000E+00 -0.45593999997E+02  0.45594000000E+02  0.51100000000E-03 0.  1.
    9900012    2    1    2    0    0  0.27357501666E+02  0.16321374472E+02 -0.13786970678E+01  0.59301937720E+02  0.49999988497E+02 0.  0.
        -12    1    1    2    0    0 -0.27357501666E+02 -0.16321374472E+02  0.13786970678E+01  0.31886062280E+02  0.00000000000E+00 0.  1.
         11    1    3    3    0    0  0.17391683482E+02  0.12789689560E+02  0.88491884978E+01  0.23331415532E+02  0.51100000000E-03 0. -1.
        -11    1    3    3    0    0  0.40543386884E+01  0.14327245549E+02 -0.16442449034E+02  0.22182465096E+02  0.51100000000E-03 0.  1.
         12    1    3    3    0    0  0.59114794960E+01 -0.10795560637E+02  0.62145634682E+01  0.13788057093E+02  0.00000000000E+00 0. -1.
</event>
<event>
 7    1  0.1384917E-012  0.5930191E+02  0.7816164E-02  0.1266605E+00
        -11   -1    0    0    0    0  0.00000000000E+00  0.00000000000E+00  0.45593999997E+02  0.45594000000E+02  0.51100000000E-03 0. -1.
         11   -1    0    0    0    0 -0.00000000000E+00 -0.00000000000E+00 -0.45593999997E+02  0.45594000000E+02  0.51100000000E-03 0.  1.
    9900012    2    1    2    0    0 -0.20377258001E+02  0.18984322092E+02  0.15526924882E+02  0.59301913297E+02  0.49999943954E+02 0.  0.
        -12    1    1    2    0    0  0.20377258001E+02 -0.18984322092E+02 -0.15526924882E+02  0.31886086703E+02  0.00000000000E+00 0.  1.
         11    1    3    3    0    0 -0.19388991878E+02  0.51779672602E+01  0.96260145589E+01  0.22257684236E+02  0.51100000000E-03 0. -1.
        -11    1    3    3    0    0 -0.31145840783E+01  0.30695674726E+01 -0.13816817541E+02  0.14492319541E+02  0.51100000000E-03 0.  1.
         12    1    3    3    0    0  0.21263179552E+01  0.10736787359E+02  0.19717727865E+02  0.22551909520E+02  0.00000000000E+00 0. -1.
</event>
<event>
 7    1  0.6416783E-013  0.5930194E+02  0.7816164E-02  0.1266605E+00
        -11   -1    0    0    0    0  0.00000000000E+00  0.00000000000E+00  0.45593999997E+02  0.45594000000E+02  0.51100000000E-03 0. -1.
         11   -1    0    0    0    0 -0.00000000000E+00 -0.00000000000E+00 -0.45593999997E+02  0.45594000000E+02  0.51100000000E-03 0.  1.
    9900012    2    1    2    0    0  0.17311779600E+02 -0.17300199460E+02  0.20438346842E+02  0.59301942923E+02  0.49999997985E+02 0.  0.
        -12    1    1    2    0    0 -0.17311779600E+02  0.17300199460E+02 -0.20438346842E+02  0.31886057077E+02  0.00000000000E+00 0.  1.
         11    1    3    3    0    0  0.13361716126E+02 -0.76884895224E+01  0.18295633612E+02  0.23924433922E+02  0.51100000000E-03 0. -1.
        -11    1    3    3    0    0 -0.50961164052E+01 -0.44967373016E+01  0.16389760412E+02  0.17743035124E+02  0.51100000000E-03 0.  1.
        -12    1    3    3    0    0  0.90461798796E+01 -0.51149726364E+01 -0.14247047182E+02  0.17634473877E+02  0.00000000000E+00 0.  1.
</event>
<event>
 7    1  0.6152255E-013  0.5930205E+02  0.7816164E-02  0.1266604E+00
        -11   -1    0    0    0    0  0.00000000000E+00  0.00000000000E+00  0.45593999997E+02  0.45594000000E+02  0.51100000000E-03 0. -1.
         11   -1    0    0    0    0 -0.00000000000E+00 -0.00000000000E+00 -0.45593999997E+02  0.45594000000E+02  0.51100000000E-03 0.  1.
    9900012    2    1    2    0    0 -0.24342301882E+02 -0.16776017376E+02 -0.11947016845E+02  0.59302052759E+02  0.50000198300E+02 0.  0.
        -12    1    1    2    0    0  0.24342301882E+02  0.16776017376E+02  0.11947016845E+02  0.31885947241E+02  0.00000000000E+00 0.  1.
         11    1    3    3    0    0 -0.18042617384E+02 -0.13858853784E+02  0.61949623235E+01  0.23579258443E+02  0.51100000000E-03 0. -1.
        -11    1    3    3    0    0  0.82433625699E+01 -0.14563979190E+01  0.39319050061E+01  0.92484592552E+01  0.51100000000E-03 0.  1.
        -12    1    3    3    0    0 -0.14543047068E+02 -0.14607656729E+01 -0.22073884174E+02  0.26474335061E+02  0.00000000000E+00 0.  1.
</event>
<event>
 7    1  0.6152255E-013  0.5930193E+02  0.7816164E-02  0.1266605E+00
        -11   -1    0    0    0    0  0.00000000000E+00  0.00000000000E+00  0.45593999997E+02  0.45594000000E+02  0.51100000000E-03 0.  1.
         11   -1    0    0    0    0 -0.00000000000E+00 -0.00000000000E+00 -0.45593999997E+02  0.45594000000E+02  0.51100000000E-03 0. -1.
    9900012    2    1    2    0    0 -0.26721409660E+02  0.78823663920E+01 -0.15509861511E+02  0.59301933478E+02  0.49999980760E+02 0.  0.
        -12    1    1    2    0    0  0.26721409660E+02 -0.78823663920E+01  0.15509861511E+02  0.31886066522E+02  0.00000000000E+00 0.  1.
         11    1    3    3    0    0 -0.37498642016E+02  0.11036922208E+02 -0.89124427638E+01  0.40092311497E+02  0.51100000000E-03 0. -1.
        -11    1    3    3    0    0  0.60973145381E+01 -0.55031531841E+01  0.26093272902E+01  0.86180350842E+01  0.51100000000E-03 0.  1.
        -12    1    3    3    0    0  0.46799178188E+01  0.23485973678E+01 -0.92067460377E+01  0.10591586897E+02  0.00000000000E+00 0.  1.
</event>
<event>
 7    1  0.6152255E-013  0.5930196E+02  0.7816164E-02  0.1266605E+00
        -11   -1    0    0    0    0  0.00000000000E+00  0.00000000000E+00  0.45593999997E+02  0.45594000000E+02  0.51100000000E-03 0. -1.
         11   -1    0    0    0    0 -0.00000000000E+00 -0.00000000000E+00 -0.45593999997E+02  0.45594000000E+02  0.51100000000E-03 0.  1.
    9900012    2    1    2    0    0 -0.22210380698E+02  0.27412531801E+01  0.22713526250E+02  0.59301956745E+02  0.50000023193E+02 0.  0.
        -12    1    1    2    0    0  0.22210380698E+02 -0.27412531801E+01 -0.22713526250E+02  0.31886043255E+02  0.00000000000E+00 0.  1.
         11    1    3    3    0    0 -0.28726819189E+01  0.47753202866E+01  0.96392531383E+01  0.11134234889E+02  0.51100000000E-03 0. -1.
        -11    1    3    3    0    0 -0.15888572518E+02 -0.25982393475E+01  0.28292968502E+02  0.32552874701E+02  0.51100000000E-03 0.  1.
        -12    1    3    3    0    0 -0.34491262609E+01  0.56417224100E+00 -0.15218695390E+02  0.15614847155E+02  0.00000000000E+00 0.  1.
</event>
<event>
 7    1  0.6152255E-013  0.5930194E+02  0.7816164E-02  0.1266605E+00
        -11   -1    0    0    0    0  0.00000000000E+00  0.00000000000E+00  0.45593999997E+02  0.45594000000E+02  0.51100000000E-03 0.  1.
         11   -1    0    0    0    0 -0.00000000000E+00 -0.00000000000E+00 -0.45593999997E+02  0.45594000000E+02  0.51100000000E-03 0. -1.
    9900012    2    1    2    0    0  0.18584604059E+02 -0.23717593944E+01 -0.25801321927E+02  0.59301937781E+02  0.49999988607E+02 0.  0.
        -12    1    1    2    0    0 -0.18584604059E+02  0.23717593944E+01  0.25801321927E+02  0.31886062219E+02  0.00000000000E+00 0.  1.
         11    1    3    3    0    0  0.17421189628E+02  0.28899592444E+01 -0.98544652078E+01  0.20222764333E+02  0.51100000000E-03 0. -1.
        -11    1    3    3    0    0  0.75269642982E+01 -0.19020471302E+02 -0.80099835405E+01  0.21968007572E+02  0.51100000000E-03 0.  1.
         12    1    3    3    0    0 -0.63635498670E+01  0.13758752663E+02 -0.79368731792E+01  0.17111165876E+02  0.00000000000E+00 0. -1.
</event>
<event>
 7    1  0.6152255E-013  0.5930195E+02  0.7816164E-02  0.1266605E+00
        -11   -1    0    0    0    0  0.00000000000E+00  0.00000000000E+00  0.45593999997E+02  0.45594000000E+02  0.51100000000E-03 0. -1.
         11   -1    0    0    0    0 -0.00000000000E+00 -0.00000000000E+00 -0.45593999997E+02  0.45594000000E+02  0.51100000000E-03 0.  1.
    9900012    2    1    2    0    0  0.57329034850E+01 -0.37405552150E+01  0.31142612175E+02  0.59301949307E+02  0.50000009629E+02 0.  0.
        -12    1    1    2    0    0 -0.57329034850E+01  0.37405552150E+01 -0.31142612175E+02  0.31886050693E+02  0.00000000000E+00 0.  1.
         11    1    3    3    0    0 -0.61622839108E+01  0.19372792426E+01 -0.34998839880E+01  0.73468348323E+01  0.51100000000E-03 0. -1.
        -11    1    3    3    0    0  0.71159106236E+01 -0.98593816311E+01 -0.39955049556E+01  0.12798736276E+02  0.51100000000E-03 0.  1.
         12    1    3    3    0    0  0.47792767722E+01  0.41815471735E+01  0.38638001119E+02  0.39156378199E+02  0.00000000000E+00 0. -1.
</event>
<event>
 7    1  0.6152255E-013  0.5930188E+02  0.7816164E-02  0.1266605E+00
        -11   -1    0    0    0    0  0.00000000000E+00  0.00000000000E+00  0.45593999997E+02  0.45594000000E+02  0.51100000000E-03 0. -1.
         11   -1    0    0    0    0 -0.00000000000E+00 -0.00000000000E+00 -0.45593999997E+02  0.45594000000E+02  0.51100000000E-03 0.  1.
    9900012    2    1    2    0    0 -0.21367610628E+02  0.13773717320E+02  0.19246669369E+02  0.59301884611E+02  0.49999891639E+02 0.  0.
        -12    1    1    2    0    0  0.21367610628E+02 -0.13773717320E+02 -0.19246669369E+02  0.31886115389E+02  0.00000000000E+00 0.  1.
         11    1    3    3    0    0  0.50059595614E+01  0.53698427186E+00  0.12680761392E+02  0.13643668604E+02  0.51100000000E-03 0. -1.
        -11    1    3    3    0    0 -0.11239245257E+01  0.14088117904E+02  0.13411186084E+02  0.19483279623E+02  0.51100000000E-03 0.  1.
        -12    1    3    3    0    0 -0.25249645664E+02 -0.85138485632E+00 -0.68452781073E+01  0.26174936384E+02  0.00000000000E+00 0.  1.
</event>
<event>
 7    1  0.6152255E-013  0.5930194E+02  0.7816164E-02  0.1266605E+00
        -11   -1    0    0    0    0  0.00000000000E+00  0.00000000000E+00  0.45593999997E+02  0.45594000000E+02  0.51100000000E-03 0.  1.
         11   -1    0    0    0    0 -0.00000000000E+00 -0.00000000000E+00 -0.45593999997E+02  0.45594000000E+02  0.51100000000E-03 0. -1.
    9900012    2    1    2    0    0 -0.25979313401E+02  0.18117225253E+02  0.36827205097E+01  0.59301937120E+02  0.49999987401E+02 0.  0.
        -12    1    1    2    0    0  0.25979313401E+02 -0.18117225253E+02 -0.36827205097E+01  0.31886062880E+02  0.00000000000E+00 0.  1.
         11    1    3    3    0    0 -0.18713965122E+02  0.19517510642E+02 -0.80113717526E+01  0.28201556515E+02  0.51100000000E-03 0. -1.
        -11    1    3    3    0    0 -0.14002909248E+02  0.79620845204E+01  0.11076775476E+02  0.19549199792E+02  0.51100000000E-03 0.  1.
         12    1    3    3    0    0  0.67375609693E+01 -0.93623699097E+01  0.61731678671E+00  0.11551180812E+02  0.00000000000E+00 0. -1.
</event>
<event>
 7    1  0.6152255E-013  0.5930192E+02  0.7816164E-02  0.1266605E+00
        -11   -1    0    0    0    0  0.00000000000E+00  0.00000000000E+00  0.45593999997E+02  0.45594000000E+02  0.51100000000E-03 0.  1.
         11   -1    0    0    0    0 -0.00000000000E+00 -0.00000000000E+00 -0.45593999997E+02  0.45594000000E+02  0.51100000000E-03 0. -1.
    9900012    2    1    2    0    0 -0.18545591449E+02 -0.12087973879E+02 -0.22949155877E+02  0.59301924196E+02  0.49999963833E+02 0.  0.
        -12    1    1    2    0    0  0.18545591449E+02  0.12087973879E+02  0.22949155877E+02  0.31886075804E+02  0.00000000000E+00 0.  1.
         11    1    3    3    0    0 -0.67124170949E+01 -0.66124470562E+01 -0.76136097647E+01  0.12113961088E+02  0.51100000000E-03 0. -1.
        -11    1    3    3    0    0 -0.51993032338E+01 -0.23674624178E+02 -0.35062737431E+01  0.24491111447E+02  0.51100000000E-03 0.  1.
        -12    1    3    3    0    0 -0.66338711207E+01  0.18199097355E+02 -0.11829272369E+02  0.22696851662E+02  0.00000000000E+00 0.  1.
</event>
<event>
 7    1  0.6152255E-013  0.5930195E+02  0.7816164E-02  0.1266605E+00
        -11   -1    0    0    0    0  0.00000000000E+00  0.00000000000E+00  0.45593999997E+02  0.45594000000E+02  0.51100000000E-03 0. -1.
         11   -1    0    0    0    0 -0.00000000000E+00 -0.00000000000E+00 -0.45593999997E+02  0.45594000000E+02  0.51100000000E-03 0.  1.
    9900012    2    1    2    0    0 -0.68084140466E+01 -0.28041130917E+02  0.13566887434E+02  0.59301953528E+02  0.50000017326E+02 0.  0.
        -12    1    1    2    0    0  0.68084140466E+01  0.28041130917E+02 -0.13566887434E+02  0.31886046472E+02  0.00000000000E+00 0.  1.
         11    1    3    3    0    0  0.10741615013E+02 -0.15017701095E+02 -0.18536050347E+01  0.18556656249E+02  0.51100000000E-03 0. -1.
        -11    1    3    3    0    0 -0.16540721121E+01 -0.16826963554E+02  0.17422942122E+02  0.24278417771E+02  0.51100000000E-03 0.  1.
        -12    1    3    3    0    0 -0.15895956947E+02  0.38035337318E+01 -0.20024496535E+01  0.16466879508E+02  0.00000000000E+00 0.  1.
</event>
<event>
 7    1  0.6152255E-013  0.5930198E+02  0.7816164E-02  0.1266605E+00
        -11   -1    0    0    0    0  0.00000000000E+00  0.00000000000E+00  0.45593999997E+02  0.45594000000E+02  0.51100000000E-03 0.  1.
         11   -1    0    0    0    0 -0.00000000000E+00 -0.00000000000E+00 -0.45593999997E+02  0.45594000000E+02  0.51100000000E-03 0. -1.
    9900012    2    1    2    0    0 -0.30345118595E+02  0.38822873743E+01 -0.89899831312E+01  0.59301981520E+02  0.50000068377E+02 0.  0.
        -12    1    1    2    0    0  0.30345118595E+02 -0.38822873743E+01  0.89899831312E+01  0.31886018480E+02  0.00000000000E+00 0.  1.
         11    1    3    3    0    0 -0.36123462894E+02 -0.48983699812E+01  0.19380731615E+00  0.36454576687E+02  0.51100000000E-03 0. -1.
        -11    1    3    3    0    0 -0.34816387387E+01 -0.38628448970E+01 -0.29700002748E+01  0.59886793952E+01  0.51100000000E-03 0.  1.
        -12    1    3    3    0    0  0.92599830373E+01  0.12643502253E+02 -0.62137901726E+01  0.16858725437E+02  0.00000000000E+00 0.  1.
</event>
<event>
 7    1  0.6152255E-013  0.5930195E+02  0.7816164E-02  0.1266605E+00
        -11   -1    0    0    0    0  0.00000000000E+00  0.00000000000E+00  0.45593999997E+02  0.45594000000E+02  0.51100000000E-03 0. -1.
         11   -1    0    0    0    0 -0.00000000000E+00 -0.00000000000E+00 -0.45593999997E+02  0.45594000000E+02  0.51100000000E-03 0.  1.
    9900012    2    1    2    0    0 -0.83602529023E+01  0.10732484727E+02  0.28838175159E+02  0.59301946568E+02  0.50000004632E+02 0.  0.
        -12    1    1    2    0    0  0.83602529023E+01 -0.10732484727E+02 -0.28838175159E+02  0.31886053432E+02  0.00000000000E+00 0.  1.
         11    1    3    3    0    0 -0.54937094099E+01 -0.10892853190E+02 -0.14761544653E+01  0.12288780491E+02  0.51100000000E-03 0. -1.
        -11    1    3    3    0    0 -0.62597862487E+01  0.98845697673E+01 -0.25285780101E+01  0.11970102355E+02  0.51100000000E-03 0.  1.
         12    1    3    3    0    0  0.33932427563E+01  0.11740768149E+02  0.32842907634E+02  0.35043063722E+02  0.00000000000E+00 0. -1.
</event>
<event>
 7    1  0.6152255E-013  0.5930180E+02  0.7816164E-02  0.1266605E+00
        -11   -1    0    0    0    0  0.00000000000E+00  0.00000000000E+00  0.45593999997E+02  0.45594000000E+02  0.51100000000E-03 0.  1.
         11   -1    0    0    0    0 -0.00000000000E+00 -0.00000000000E+00 -0.45593999997E+02  0.45594000000E+02  0.51100000000E-03 0. -1.
    9900012    2    1    2    0    0  0.22936276167E+02  0.41877042580E+01 -0.21751322968E+02  0.59301801070E+02  0.49999739278E+02 0.  0.
        -12    1    1    2    0    0 -0.22936276167E+02 -0.41877042580E+01  0.21751322968E+02  0.31886198930E+02  0.00000000000E+00 0.  1.
         11    1    3    3    0    0  0.18898220631E+02 -0.17506453980E+02 -0.49928752874E+01  0.26240188221E+02  0.51100000000E-03 0. -1.
        -11    1    3    3    0    0 -0.29050103780E+01 -0.89091577226E+00  0.13177394822E+01  0.33119863849E+01  0.51100000000E-03 0.  1.
        -12    1    3    3    0    0  0.69430659139E+01  0.22585074011E+02 -0.18076187163E+02  0.29749626463E+02  0.00000000000E+00 0.  1.
</event>
<event>
 7    1  0.6152255E-013  0.5930196E+02  0.7816164E-02  0.1266605E+00
        -11   -1    0    0    0    0  0.00000000000E+00  0.00000000000E+00  0.45593999997E+02  0.45594000000E+02  0.51100000000E-03 0.  1.
         11   -1    0    0    0    0 -0.00000000000E+00 -0.00000000000E+00 -0.45593999997E+02  0.45594000000E+02  0.51100000000E-03 0. -1.
    9900012    2    1    2    0    0 -0.17360614089E+02  0.23697732419E+02 -0.12399434868E+02  0.59301961858E+02  0.50000032517E+02 0.  0.
        -12    1    1    2    0    0  0.17360614089E+02 -0.23697732419E+02  0.12399434868E+02  0.31886038142E+02  0.00000000000E+00 0.  1.
         11    1    3    3    0    0 -0.24134984682E+02  0.16197368098E+02 -0.12563892735E+02  0.31665495730E+02  0.51100000000E-03 0. -1.
        -11    1    3    3    0    0  0.73603969215E+01  0.16248721122E+02 -0.34220467503E+01  0.18163336289E+02  0.51100000000E-03 0.  1.
        -12    1    3    3    0    0 -0.58602632823E+00 -0.87483568001E+01  0.35865046175E+01  0.94731298381E+01  0.00000000000E+00 0.  1.
</event>
<event>
 7    1  0.6152255E-013  0.5930197E+02  0.7816164E-02  0.1266605E+00
        -11   -1    0    0    0    0  0.00000000000E+00  0.00000000000E+00  0.45593999997E+02  0.45594000000E+02  0.51100000000E-03 0.  1.
         11   -1    0    0    0    0 -0.00000000000E+00 -0.00000000000E+00 -0.45593999997E+02  0.45594000000E+02  0.51100000000E-03 0. -1.
    9900012    2    1    2    0    0  0.48285224429E+01  0.31052289778E+02 -0.53999370466E+01  0.59301974071E+02  0.50000054791E+02 0.  0.
        -12    1    1    2    0    0 -0.48285224429E+01 -0.31052289778E+02  0.53999370466E+01  0.31886025929E+02  0.00000000000E+00 0.  1.
         11    1    3    3    0    0  0.73568409286E+00 -0.10404434070E+01  0.38299359878E+01  0.40363552246E+01  0.51100000000E-03 0.  1.
        -11    1    3    3    0    0  0.33561039238E+01 -0.59682350711E+01 -0.15257312940E+02  0.16723302958E+02  0.51100000000E-03 0. -1.
         12    1    3    3    0    0  0.73673442632E+00  0.38060968256E+02  0.60274399057E+01  0.38542315888E+02  0.00000000000E+00 0. -1.
</event>
<event>
 7    1  0.6152255E-013  0.5930196E+02  0.7816164E-02  0.1266605E+00
        -11   -1    0    0    0    0  0.00000000000E+00  0.00000000000E+00  0.45593999997E+02  0.45594000000E+02  0.51100000000E-03 0.  1.
         11   -1    0    0    0    0 -0.00000000000E+00 -0.00000000000E+00 -0.45593999997E+02  0.45594000000E+02  0.51100000000E-03 0. -1.
    9900012    2    1    2    0    0 -0.15497701579E+02  0.25552167090E+02  0.11118787480E+02  0.59301961798E+02  0.50000032408E+02 0.  0.
        -12    1    1    2    0    0  0.15497701579E+02 -0.25552167090E+02 -0.11118787480E+02  0.31886038202E+02  0.00000000000E+00 0.  1.
         11    1    3    3    0    0 -0.12434551944E+02  0.25663829385E+02  0.50357139010E+01  0.28958740226E+02  0.51100000000E-03 0. -1.
        -11    1    3    3    0    0  0.10091491367E+02  0.71816854402E+01 -0.30371429396E+01  0.12753001265E+02  0.51100000000E-03 0.  1.
        -12    1    3    3    0    0 -0.13154641002E+02 -0.72933477350E+01  0.91202165185E+01  0.17590220306E+02  0.00000000000E+00 0.  1.
</event>
<event>
 7    1  0.6152255E-013  0.5930197E+02  0.7816164E-02  0.1266605E+00
        -11   -1    0    0    0    0  0.00000000000E+00  0.00000000000E+00  0.45593999997E+02  0.45594000000E+02  0.51100000000E-03 0.  1.
         11   -1    0    0    0    0 -0.00000000000E+00 -0.00000000000E+00 -0.45593999997E+02  0.45594000000E+02  0.51100000000E-03 0. -1.
    9900012    2    1    2    0    0 -0.10496954224E+02 -0.28874407142E+02 -0.85323753368E+01  0.59301970698E+02  0.50000048640E+02 0.  0.
        -12    1    1    2    0    0  0.10496954224E+02  0.28874407142E+02  0.85323753368E+01  0.31886029302E+02  0.00000000000E+00 0.  1.
         11    1    3    3    0    0  0.33382992357E+01 -0.27515632495E+02  0.78605649504E+01  0.28810462596E+02  0.51100000000E-03 0. -1.
        -11    1    3    3    0    0 -0.12253701441E+02 -0.41802502458E+01  0.82406389307E+00  0.12973310012E+02  0.51100000000E-03 0.  1.
         12    1    3    3    0    0 -0.15815520187E+01  0.28214755994E+01 -0.17217004180E+02  0.17518198089E+02  0.00000000000E+00 0. -1.
</event>
<event>
 7    1  0.6152255E-013  0.5930189E+02  0.7816164E-02  0.1266605E+00
        -11   -1    0    0    0    0  0.00000000000E+00  0.00000000000E+00  0.45593999997E+02  0.45594000000E+02  0.51100000000E-03 0. -1.
         11   -1    0    0    0    0 -0.00000000000E+00 -0.00000000000E+00 -0.45593999997E+02  0.45594000000E+02  0.51100000000E-03 0.  1.
    9900012    2    1    2    0    0  0.19337430215E+01 -0.31756144476E+02  0.21287999639E+01  0.59301892314E+02  0.49999905687E+02 0.  0.
        -12    1    1    2    0    0 -0.19337430215E+01  0.31756144476E+02 -0.21287999639E+01  0.31886107686E+02  0.00000000000E+00 0.  1.
         11    1    3    3    0    0  0.30832542865E+01  0.10156648355E+01  0.89939431267E+01  0.95618536530E+01  0.51100000000E-03 0. -1.
        -11    1    3    3    0    0  0.31523185154E+01 -0.93476909842E+00 -0.16004679367E+02  0.16338931030E+02  0.51100000000E-03 0.  1.
         12    1    3    3    0    0 -0.43018297803E+01 -0.31837040213E+02  0.91395362044E+01  0.33401107632E+02  0.00000000000E+00 0. -1.
</event>
<event>
 7    1  0.6152255E-013  0.5930173E+02  0.7816164E-02  0.1266605E+00
        -11   -1    0    0    0    0  0.00000000000E+00  0.00000000000E+00  0.45593999997E+02  0.45594000000E+02  0.51100000000E-03 0. -1.
         11   -1    0    0    0    0 -0.00000000000E+00 -0.00000000000E+00 -0.45593999997E+02  0.45594000000E+02  0.51100000000E-03 0.  1.
    9900012    2    1    2    0    0 -0.28632882746E+02 -0.13998869677E+02  0.96112529103E+00  0.59301731978E+02  0.49999613270E+02 0.  0.
        -12    1    1    2    0    0  0.28632882746E+02  0.13998869677E+02 -0.96112529103E+00  0.31886268022E+02  0.00000000000E+00 0.  1.
         11    1    3    3    0    0 -0.11208461697E+02  0.13605144936E+02  0.54605405098E+01  0.18453917884E+02  0.51100000000E-03 0. -1.
        -11    1    3    3    0    0 -0.12961186079E+02 -0.36438822206E+01  0.54473901154E+01  0.14523921012E+02  0.51100000000E-03 0.  1.
        -12    1    3    3    0    0 -0.44632349690E+01 -0.23960132392E+02 -0.99468053342E+01  0.26323893082E+02  0.00000000000E+00 0.  1.
</event>
<event>
 7    1  0.6152255E-013  0.5930197E+02  0.7816164E-02  0.1266605E+00
        -11   -1    0    0    0    0  0.00000000000E+00  0.00000000000E+00  0.45593999997E+02  0.45594000000E+02  0.51100000000E-03 0.  1.
         11   -1    0    0    0    0 -0.00000000000E+00 -0.00000000000E+00 -0.45593999997E+02  0.45594000000E+02  0.51100000000E-03 0. -1.
    9900012    2    1    2    0    0 -0.26439731309E+02 -0.17812071267E+02 -0.62443605479E+00  0.59301965520E+02  0.50000039196E+02 0.  0.
        -12    1    1    2    0    0  0.26439731309E+02  0.17812071267E+02  0.62443605479E+00  0.31886034480E+02  0.00000000000E+00 0.  1.
         11    1    3    3    0    0 -0.15794951811E+02 -0.57015839732E+01 -0.70250429217E+01  0.18202741300E+02  0.51100000000E-03 0. -1.
        -11    1    3    3    0    0 -0.93308862364E+01 -0.22772592590E+02  0.13647267595E+02  0.28140794664E+02  0.51100000000E-03 0.  1.
         12    1    3    3    0    0 -0.13138932607E+01  0.10662105296E+02 -0.72466607282E+01  0.12958429556E+02  0.00000000000E+00 0. -1.
</event>
<event>
 7    1  0.6152255E-013  0.5930196E+02  0.7816164E-02  0.1266605E+00
        -11   -1    0    0    0    0  0.00000000000E+00  0.00000000000E+00  0.45593999997E+02  0.45594000000E+02  0.51100000000E-03 0.  1.
         11   -1    0    0    0    0 -0.00000000000E+00 -0.00000000000E+00 -0.45593999997E+02  0.45594000000E+02  0.51100000000E-03 0. -1.
    9900012    2    1    2    0    0  0.21592314724E+02  0.78829035635E+00 -0.23449315615E+02  0.59301955095E+02  0.50000020185E+02 0.  0.
        -12    1    1    2    0    0 -0.21592314724E+02 -0.78829035635E+00  0.23449315615E+02  0.31886044905E+02  0.00000000000E+00 0.  1.
         11    1    3    3    0    0 -0.19293634091E+00  0.18534835165E+02 -0.10129384947E+02  0.21123015378E+02  0.51100000000E-03 0. -1.
        -11    1    3    3    0    0  0.19156550341E+01  0.50834973200E+01 -0.29774195597E+01  0.61948935994E+01  0.51100000000E-03 0.  1.
         12    1    3    3    0    0  0.19869596031E+02 -0.22830042128E+02 -0.10342511108E+02  0.31984046118E+02  0.00000000000E+00 0. -1.
</event>
<event>
 7    1  0.6152255E-013  0.5930192E+02  0.7816164E-02  0.1266605E+00
        -11   -1    0    0    0    0  0.00000000000E+00  0.00000000000E+00  0.45593999997E+02  0.45594000000E+02  0.51100000000E-03 0.  1.
         11   -1    0    0    0    0 -0.00000000000E+00 -0.00000000000E+00 -0.45593999997E+02  0.45594000000E+02  0.51100000000E-03 0. -1.
    9900012    2    1    2    0    0  0.25333062275E+02 -0.99663818514E+01 -0.16602083986E+02  0.59301921469E+02  0.49999958857E+02 0.  0.
        -12    1    1    2    0    0 -0.25333062275E+02  0.99663818514E+01  0.16602083986E+02  0.31886078531E+02  0.00000000000E+00 0.  1.
         11    1    3    3    0    0  0.21396299999E+02  0.61257030319E+00 -0.25857202641E+02  0.33567422074E+02  0.51100000000E-03 0. -1.
        -11    1    3    3    0    0  0.98771502470E+01  0.45308004038E+00 -0.43166976791E+00  0.98969549647E+01  0.51100000000E-03 0.  1.
        -12    1    3    3    0    0 -0.59403879713E+01 -0.11032032195E+02  0.96867884229E+01  0.15837544429E+02  0.00000000000E+00 0.  1.
</event>
<event>
 7    1  0.6152255E-013  0.5930194E+02  0.7816164E-02  0.1266605E+00
        -11   -1    0    0    0    0  0.00000000000E+00  0.00000000000E+00  0.45593999997E+02  0.45594000000E+02  0.51100000000E-03 0.  1.
         11   -1    0    0    0    0 -0.00000000000E+00 -0.00000000000E+00 -0.45593999997E+02  0.45594000000E+02  0.51100000000E-03 0. -1.
    9900012    2    1    2    0    0 -0.59239688664E+01  0.25434627064E+01 -0.31227527801E+02  0.59301935611E+02  0.49999984650E+02 0.  0.
        -12    1    1    2    0    0  0.59239688664E+01 -0.25434627064E+01  0.31227527801E+02  0.31886064389E+02  0.00000000000E+00 0.  1.
         11    1    3    3    0    0 -0.67373553216E+01 -0.54488782233E+01 -0.15020945636E+02  0.17341021847E+02  0.51100000000E-03 0. -1.
        -11    1    3    3    0    0 -0.18028134541E+02 -0.47493589806E+00 -0.69957092519E+01  0.19343710795E+02  0.51100000000E-03 0.  1.
        -12    1    3    3    0    0  0.18841520996E+02  0.84672768278E+01 -0.92108729130E+01  0.22617202969E+02  0.00000000000E+00 0.  1.
</event>
<event>
 7    1  0.6152255E-013  0.5930193E+02  0.7816164E-02  0.1266605E+00
        -11   -1    0    0    0    0  0.00000000000E+00  0.00000000000E+00  0.45593999997E+02  0.45594000000E+02  0.51100000000E-03 0. -1.
         11   -1    0    0    0    0 -0.00000000000E+00 -0.00000000000E+00 -0.45593999997E+02  0.45594000000E+02  0.51100000000E-03 0.  1.
    9900012    2    1    2    0    0 -0.73363325931E+01  0.58237884909E+01  0.30479226045E+02  0.59301929239E+02  0.49999973029E+02 0.  0.
        -12    1    1    2    0    0  0.73363325931E+01 -0.58237884909E+01 -0.30479226045E+02  0.31886070761E+02  0.00000000000E+00 0.  1.
         11    1    3    3    0    0  0.32489931724E+01 -0.20226644326E+01  0.11266753781E+02  0.11899028072E+02  0.51100000000E-03 0. -1.
        -11    1    3    3    0    0 -0.36994242161E+01  0.71994051915E+01 -0.12529257454E+02  0.14916416032E+02  0.51100000000E-03 0.  1.
         12    1    3    3    0    0 -0.68859015494E+01  0.64704773198E+00  0.31741729718E+02  0.32486485134E+02  0.00000000000E+00 0. -1.
</event>
<event>
 7    1  0.6152255E-013  0.5930233E+02  0.7816164E-02  0.1266603E+00
        -11   -1    0    0    0    0  0.00000000000E+00  0.00000000000E+00  0.45593999997E+02  0.45594000000E+02  0.51100000000E-03 0. -1.
         11   -1    0    0    0    0 -0.00000000000E+00 -0.00000000000E+00 -0.45593999997E+02  0.45594000000E+02  0.51100000000E-03 0.  1.
    9900012    2    1    2    0    0  0.22140449684E+02  0.10974655707E+01  0.22919250613E+02  0.59302329369E+02  0.50000702766E+02 0.  0.
        -12    1    1    2    0    0 -0.22140449684E+02 -0.10974655707E+01 -0.22919250613E+02  0.31885670631E+02  0.00000000000E+00 0.  1.
         11    1    3    3    0    0  0.84870876329E+01  0.70297228618E+01  0.27806574448E+02  0.29910754634E+02  0.51100000000E-03 0. -1.
        -11    1    3    3    0    0 -0.59426158694E+01 -0.24237956504E+01  0.40297414428E+01  0.75781452271E+01  0.51100000000E-03 0.  1.
         12    1    3    3    0    0  0.19595977921E+02 -0.35084616407E+01 -0.89170652773E+01  0.21813429508E+02  0.00000000000E+00 0. -1.
</event>
<event>
 7    1  0.6152255E-013  0.5930189E+02  0.7816164E-02  0.1266605E+00
        -11   -1    0    0    0    0  0.00000000000E+00  0.00000000000E+00  0.45593999997E+02  0.45594000000E+02  0.51100000000E-03 0.  1.
         11   -1    0    0    0    0 -0.00000000000E+00 -0.00000000000E+00 -0.45593999997E+02  0.45594000000E+02  0.51100000000E-03 0. -1.
    9900012    2    1    2    0    0  0.22585934137E+02  0.48082144654E+01  0.21988197321E+02  0.59301887528E+02  0.49999896958E+02 0.  0.
        -12    1    1    2    0    0 -0.22585934137E+02 -0.48082144654E+01 -0.21988197321E+02  0.31886112472E+02  0.00000000000E+00 0.  1.
         11    1    3    3    0    0  0.10253402417E+02  0.15320629023E+02  0.92506430259E+01  0.20625914075E+02  0.51100000000E-03 0. -1.
        -11    1    3    3    0    0  0.17257712583E+02 -0.54954069956E+01  0.21063034531E+02  0.27779121037E+02  0.51100000000E-03 0.  1.
         12    1    3    3    0    0 -0.49251808632E+01 -0.50170075621E+01 -0.83254802362E+01  0.10896852416E+02  0.00000000000E+00 0. -1.
</event>
<event>
 7    1  0.6152255E-013  0.5930192E+02  0.7816164E-02  0.1266605E+00
        -11   -1    0    0    0    0  0.00000000000E+00  0.00000000000E+00  0.45593999997E+02  0.45594000000E+02  0.51100000000E-03 0.  1.
         11   -1    0    0    0    0 -0.00000000000E+00 -0.00000000000E+00 -0.45593999997E+02  0.45594000000E+02  0.51100000000E-03 0. -1.
    9900012    2    1    2    0    0  0.25932411635E+02  0.15797333717E+02 -0.97301845674E+01  0.59301918122E+02  0.49999952755E+02 0.  0.
        -12    1    1    2    0    0 -0.25932411635E+02 -0.15797333717E+02  0.97301845674E+01  0.31886081878E+02  0.00000000000E+00 0.  1.
         11    1    3    3    0    0  0.76505940928E+01  0.62247597758E+01  0.10443591579E+02  0.14364812201E+02  0.51100000000E-03 0. -1.
        -11    1    3    3    0    0 -0.55013534586E+00  0.15176546534E+02  0.19921095125E+01  0.15316615624E+02  0.51100000000E-03 0.  1.
         12    1    3    3    0    0  0.18831952888E+02 -0.56039725929E+01 -0.22165885659E+02  0.29620490297E+02  0.00000000000E+00 0. -1.
</event>
<event>
 7    1  0.6152255E-013  0.5930195E+02  0.7816164E-02  0.1266605E+00
        -11   -1    0    0    0    0  0.00000000000E+00  0.00000000000E+00  0.45593999997E+02  0.45594000000E+02  0.51100000000E-03 0. -1.
         11   -1    0    0    0    0 -0.00000000000E+00 -0.00000000000E+00 -0.45593999997E+02  0.45594000000E+02  0.51100000000E-03 0.  1.
    9900012    2    1    2    0    0 -0.42808296674E+00  0.26182908110E+02  0.18193198218E+02  0.59301946724E+02  0.50000004917E+02 0.  0.
        -12    1    1    2    0    0  0.42808296674E+00 -0.26182908110E+02 -0.18193198218E+02  0.31886053276E+02  0.00000000000E+00 0.  1.
         11    1    3    3    0    0  0.45586220372E+01  0.22272103923E+02  0.13383404496E+02  0.26380734717E+02  0.51100000000E-03 0. -1.
        -11    1    3    3    0    0 -0.13727943382E+02  0.82554138058E+01  0.12641605791E+02  0.20406334404E+02  0.51100000000E-03 0.  1.
        -12    1    3    3    0    0  0.87412383780E+01 -0.43446096187E+01 -0.78318120685E+01  0.12514877602E+02  0.00000000000E+00 0.  1.
</event>
<event>
 7    1  0.6152255E-013  0.5930195E+02  0.7816164E-02  0.1266605E+00
        -11   -1    0    0    0    0  0.00000000000E+00  0.00000000000E+00  0.45593999997E+02  0.45594000000E+02  0.51100000000E-03 0.  1.
         11   -1    0    0    0    0 -0.00000000000E+00 -0.00000000000E+00 -0.45593999997E+02  0.45594000000E+02  0.51100000000E-03 0. -1.
    9900012    2    1    2    0    0 -0.28544712897E+02  0.14140929068E+02  0.13978090430E+01  0.59301946946E+02  0.50000005322E+02 0.  0.
        -12    1    1    2    0    0  0.28544712897E+02 -0.14140929068E+02 -0.13978090430E+01  0.31886053054E+02  0.00000000000E+00 0.  1.
         11    1    3    3    0    0 -0.12466143400E+02  0.17946483088E+02 -0.13547776098E+00  0.21851758304E+02  0.51100000000E-03 0. -1.
        -11    1    3    3    0    0 -0.11711886400E+02 -0.76409086401E+01  0.16361750288E+02  0.21523443977E+02  0.51100000000E-03 0.  1.
         12    1    3    3    0    0 -0.43666830962E+01  0.38353546194E+01 -0.14828463484E+02  0.15926744664E+02  0.00000000000E+00 0. -1.
</event>
<event>
 7    1  0.6152255E-013  0.5930193E+02  0.7816164E-02  0.1266605E+00
        -11   -1    0    0    0    0  0.00000000000E+00  0.00000000000E+00  0.45593999997E+02  0.45594000000E+02  0.51100000000E-03 0. -1.
         11   -1    0    0    0    0 -0.00000000000E+00 -0.00000000000E+00 -0.45593999997E+02  0.45594000000E+02  0.51100000000E-03 0.  1.
    9900012    2    1    2    0    0 -0.24023337537E+02  0.18336672907E+02 -0.10166954113E+02  0.59301932891E+02  0.49999979690E+02 0.  0.
        -12    1    1    2    0    0  0.24023337537E+02 -0.18336672907E+02  0.10166954113E+02  0.31886067109E+02  0.00000000000E+00 0.  1.
         11    1    3    3    0    0 -0.12710748980E+02  0.10778383630E+02  0.14163431130E+02  0.21870973343E+02  0.51100000000E-03 0. -1.
        -11    1    3    3    0    0 -0.37015356023E+01 -0.89342064131E+01 -0.49308404949E+01  0.10855164591E+02  0.51100000000E-03 0.  1.
         12    1    3    3    0    0 -0.76110529543E+01  0.16492495690E+02 -0.19399544749E+02  0.26575794957E+02  0.00000000000E+00 0. -1.
</event>
<event>
 7    1  0.6152255E-013  0.5930197E+02  0.7816164E-02  0.1266605E+00
        -11   -1    0    0    0    0  0.00000000000E+00  0.00000000000E+00  0.45593999997E+02  0.45594000000E+02  0.51100000000E-03 0.  1.
         11   -1    0    0    0    0 -0.00000000000E+00 -0.00000000000E+00 -0.45593999997E+02  0.45594000000E+02  0.51100000000E-03 0. -1.
    9900012    2    1    2    0    0  0.45543412976E+01  0.22984136164E+02 -0.21626515313E+02  0.59301973210E+02  0.50000053222E+02 0.  0.
        -12    1    1    2    0    0 -0.45543412976E+01 -0.22984136164E+02  0.21626515313E+02  0.31886026790E+02  0.00000000000E+00 0.  1.
         11    1    3    3    0    0  0.72667190650E+01  0.18141395389E+02 -0.14299631059E+02  0.24215591698E+02  0.51100000000E-03 0. -1.
        -11    1    3    3    0    0  0.10279725573E+02  0.37526454245E+01  0.90167875118E+01  0.14179476818E+02  0.51100000000E-03 0.  1.
        -12    1    3    3    0    0 -0.12992103341E+02  0.10900953506E+01 -0.16343671766E+02  0.20906904694E+02  0.00000000000E+00 0.  1.
</event>
<event>
 7    1  0.6152255E-013  0.5930201E+02  0.7816164E-02  0.1266605E+00
        -11   -1    0    0    0    0  0.00000000000E+00  0.00000000000E+00  0.45593999997E+02  0.45594000000E+02  0.51100000000E-03 0.  1.
         11   -1    0    0    0    0 -0.00000000000E+00 -0.00000000000E+00 -0.45593999997E+02  0.45594000000E+02  0.51100000000E-03 0. -1.
    9900012    2    1    2    0    0  0.18662420100E+01 -0.31261876038E+02  0.59940380939E+01  0.59302011772E+02  0.50000123548E+02 0.  0.
        -12    1    1    2    0    0 -0.18662420100E+01  0.31261876038E+02 -0.59940380939E+01  0.31885988228E+02  0.00000000000E+00 0.  1.
         11    1    3    3    0    0  0.19637633740E+01 -0.16819855095E+02  0.76160454572E+01  0.18567930436E+02  0.51100000000E-03 0. -1.
        -11    1    3    3    0    0  0.10147090051E+02  0.17707467496E+01  0.13022580941E+02  0.16603812670E+02  0.51100000000E-03 0.  1.
        -12    1    3    3    0    0 -0.10244611415E+02 -0.16212767692E+02 -0.14644588304E+02  0.24130268665E+02  0.00000000000E+00 0.  1.
</event>
<event>
 7    1  0.6152255E-013  0.5930193E+02  0.7816164E-02  0.1266605E+00
        -11   -1    0    0    0    0  0.00000000000E+00  0.00000000000E+00  0.45593999997E+02  0.45594000000E+02  0.51100000000E-03 0. -1.
         11   -1    0    0    0    0 -0.00000000000E+00 -0.00000000000E+00 -0.45593999997E+02  0.45594000000E+02  0.51100000000E-03 0.  1.
    9900012    2    1    2    0    0  0.13946717015E+02  0.56456038888E+01  0.28112940319E+02  0.59301934514E+02  0.49999982650E+02 0.  0.
        -12    1    1    2    0    0 -0.13946717015E+02 -0.56456038888E+01 -0.28112940319E+02  0.31886065486E+02  0.00000000000E+00 0.  1.
         11    1    3    3    0    0 -0.17523180095E+02  0.72185854593E+01  0.73243641325E+01  0.20317877027E+02  0.51100000000E-03 0.  1.
        -11    1    3    3    0    0  0.13186158140E+02 -0.18341700532E+01  0.14408328041E+02  0.19617310302E+02  0.51100000000E-03 0. -1.
        -12    1    3    3    0    0  0.18283738970E+02  0.26118848271E+00  0.63802481455E+01  0.19366747185E+02  0.00000000000E+00 0.  1.
</event>
<event>
 7    1  0.6152255E-013  0.5930193E+02  0.7816164E-02  0.1266605E+00
        -11   -1    0    0    0    0  0.00000000000E+00  0.00000000000E+00  0.45593999997E+02  0.45594000000E+02  0.51100000000E-03 0.  1.
         11   -1    0    0    0    0 -0.00000000000E+00 -0.00000000000E+00 -0.45593999997E+02  0.45594000000E+02  0.51100000000E-03 0. -1.
    9900012    2    1    2    0    0 -0.30434512952E+02 -0.14410945961E+01 -0.94013292474E+01  0.59301932135E+02  0.49999978310E+02 0.  0.
        -12    1    1    2    0    0  0.30434512952E+02  0.14410945961E+01  0.94013292474E+01  0.31886067865E+02  0.00000000000E+00 0.  1.
         11    1    3    3    0    0 -0.25630588614E+02 -0.84824038648E+01  0.11002378331E+02  0.29153568859E+02  0.51100000000E-03 0. -1.
        -11    1    3    3    0    0 -0.48808996349E+01  0.10155381278E+02 -0.19516324548E+01  0.11435200901E+02  0.51100000000E-03 0.  1.
         12    1    3    3    0    0  0.76975296924E-01 -0.31140720094E+01 -0.18452075124E+02  0.18713162374E+02  0.00000000000E+00 0. -1.
</event>
<event>
 7    1  0.6152255E-013  0.5930191E+02  0.7816164E-02  0.1266605E+00
        -11   -1    0    0    0    0  0.00000000000E+00  0.00000000000E+00  0.45593999997E+02  0.45594000000E+02  0.51100000000E-03 0.  1.
         11   -1    0    0    0    0 -0.00000000000E+00 -0.00000000000E+00 -0.45593999997E+02  0.45594000000E+02  0.51100000000E-03 0. -1.
    9900012    2    1    2    0    0  0.17210758012E+02 -0.24510206365E+02 -0.10943591142E+02  0.59301912211E+02  0.49999941974E+02 0.  0.
        -12    1    1    2    0    0 -0.17210758012E+02  0.24510206365E+02  0.10943591142E+02  0.31886087789E+02  0.00000000000E+00 0.  1.
         11    1    3    3    0    0  0.90031685509E+01 -0.25898086084E+02  0.27466026374E+01  0.27555611644E+02  0.51100000000E-03 0. -1.
        -11    1    3    3    0    0 -0.21443358018E+01 -0.22329261060E+01  0.73743801346E+01  0.79978508149E+01  0.51100000000E-03 0.  1.
         12    1    3    3    0    0  0.10351925263E+02  0.36208058245E+01 -0.21064573914E+02  0.23748449752E+02  0.00000000000E+00 0. -1.
</event>
<event>
 7    1  0.6152255E-013  0.5930196E+02  0.7816164E-02  0.1266605E+00
        -11   -1    0    0    0    0  0.00000000000E+00  0.00000000000E+00  0.45593999997E+02  0.45594000000E+02  0.51100000000E-03 0. -1.
         11   -1    0    0    0    0 -0.00000000000E+00 -0.00000000000E+00 -0.45593999997E+02  0.45594000000E+02  0.51100000000E-03 0.  1.
    9900012    2    1    2    0    0  0.11971657124E+02 -0.10252915780E+02 -0.27717806860E+02  0.59301958016E+02  0.50000025510E+02 0.  0.
        -12    1    1    2    0    0 -0.11971657124E+02  0.10252915780E+02  0.27717806860E+02  0.31886041984E+02  0.00000000000E+00 0.  1.
         11    1    3    3    0    0  0.48859456314E+01  0.45412640334E+01  0.41341460855E+01  0.78477199142E+01  0.51100000000E-03 0. -1.
        -11    1    3    3    0    0 -0.13182891662E+02 -0.15669052049E+01 -0.26697498909E+01  0.13541469242E+02  0.51100000000E-03 0.  1.
         12    1    3    3    0    0  0.20268603155E+02 -0.13227274609E+02 -0.29182203055E+02  0.37912768859E+02  0.00000000000E+00 0. -1.
</event>
<event>
 7    1  0.6152255E-013  0.5930193E+02  0.7816164E-02  0.1266605E+00
        -11   -1    0    0    0    0  0.00000000000E+00  0.00000000000E+00  0.45593999997E+02  0.45594000000E+02  0.51100000000E-03 0. -1.
         11   -1    0    0    0    0 -0.00000000000E+00 -0.00000000000E+00 -0.45593999997E+02  0.45594000000E+02  0.51100000000E-03 0.  1.
    9900012    2    1    2    0    0  0.98436874387E+01 -0.28221638189E+02  0.11106853349E+02  0.59301933517E+02  0.49999980831E+02 0.  0.
        -12    1    1    2    0    0 -0.98436874387E+01  0.28221638189E+02 -0.11106853349E+02  0.31886066483E+02  0.00000000000E+00 0.  1.
         11    1    3    3    0    0  0.31360306023E+01 -0.28543994588E+02  0.27404025639E+01  0.28846215028E+02  0.51100000000E-03 0. -1.
        -11    1    3    3    0    0 -0.90171732034E+01  0.19894895368E+00 -0.45534283667E+01  0.10103598538E+02  0.51100000000E-03 0.  1.
         12    1    3    3    0    0  0.15724830040E+02  0.12340744567E+00  0.12919879152E+02  0.20352119951E+02  0.00000000000E+00 0. -1.
</event>
<event>
 7    1  0.6152255E-013  0.5930194E+02  0.7816164E-02  0.1266605E+00
        -11   -1    0    0    0    0  0.00000000000E+00  0.00000000000E+00  0.45593999997E+02  0.45594000000E+02  0.51100000000E-03 0.  1.
         11   -1    0    0    0    0 -0.00000000000E+00 -0.00000000000E+00 -0.45593999997E+02  0.45594000000E+02  0.51100000000E-03 0. -1.
    9900012    2    1    2    0    0 -0.84165905707E+01 -0.12214946736E+02 -0.28225459955E+02  0.59301944893E+02  0.50000001578E+02 0.  0.
        -12    1    1    2    0    0  0.84165905707E+01  0.12214946736E+02  0.28225459955E+02  0.31886055107E+02  0.00000000000E+00 0.  1.
         11    1    3    3    0    0 -0.54076113423E+00 -0.51698400801E+01 -0.38499682589E+01  0.64685334438E+01  0.51100000000E-03 0. -1.
        -11    1    3    3    0    0  0.13158527763E+02 -0.11231638165E+02  0.35116184125E+01  0.17652988781E+02  0.51100000000E-03 0.  1.
        -12    1    3    3    0    0 -0.21034357200E+02  0.41865315092E+01 -0.27887110109E+02  0.35180422668E+02  0.00000000000E+00 0.  1.
</event>
<event>
 7    1  0.6152255E-013  0.5930197E+02  0.7816164E-02  0.1266605E+00
        -11   -1    0    0    0    0  0.00000000000E+00  0.00000000000E+00  0.45593999997E+02  0.45594000000E+02  0.51100000000E-03 0. -1.
         11   -1    0    0    0    0 -0.00000000000E+00 -0.00000000000E+00 -0.45593999997E+02  0.45594000000E+02  0.51100000000E-03 0.  1.
    9900012    2    1    2    0    0 -0.87817433251E+01 -0.27086351043E+00  0.30651695480E+02  0.59301971419E+02  0.50000049954E+02 0.  0.
        -12    1    1    2    0    0  0.87817433251E+01  0.27086351043E+00 -0.30651695480E+02  0.31886028581E+02  0.00000000000E+00 0.  1.
         11    1    3    3    0    0  0.11565796584E+02  0.94290802684E+01 -0.33085501287E+01  0.15284688729E+02  0.51100000000E-03 0. -1.
        -11    1    3    3    0    0 -0.14016355685E+02 -0.68175063946E+01  0.87704031393E+01  0.17884534984E+02  0.51100000000E-03 0.  1.
        -12    1    3    3    0    0 -0.63311842245E+01 -0.28824373842E+01  0.25189842470E+02  0.26132747705E+02  0.00000000000E+00 0.  1.
</event>
<event>
 7    1  0.6152255E-013  0.5930195E+02  0.7816164E-02  0.1266605E+00
        -11   -1    0    0    0    0  0.00000000000E+00  0.00000000000E+00  0.45593999997E+02  0.45594000000E+02  0.51100000000E-03 0. -1.
         11   -1    0    0    0    0 -0.00000000000E+00 -0.00000000000E+00 -0.45593999997E+02  0.45594000000E+02  0.51100000000E-03 0.  1.
    9900012    2    1    2    0    0 -0.17901246230E+02  0.18812078257E+02  0.18503280177E+02  0.59301948469E+02  0.50000008100E+02 0.  0.
        -12    1    1    2    0    0  0.17901246230E+02 -0.18812078257E+02 -0.18503280177E+02  0.31886051531E+02  0.00000000000E+00 0.  1.
         11    1    3    3    0    0 -0.11308088548E+02  0.58266492004E+01  0.15491736081E+02  0.20045363418E+02  0.51100000000E-03 0. -1.
        -11    1    3    3    0    0 -0.22690920367E+01 -0.12753844031E+02 -0.22956223913E+00  0.12956157429E+02  0.51100000000E-03 0.  1.
         12    1    3    3    0    0 -0.43240656454E+01  0.25739273088E+02  0.32411063354E+01  0.26300427621E+02  0.00000000000E+00 0. -1.
</event>
<event>
 7    1  0.8832651E-013  0.5930194E+02  0.7816164E-02  0.1266605E+00
        -11   -1    0    0    0    0  0.00000000000E+00  0.00000000000E+00  0.45593999997E+02  0.45594000000E+02  0.51100000000E-03 0. -1.
         11   -1    0    0    0    0 -0.00000000000E+00 -0.00000000000E+00 -0.45593999997E+02  0.45594000000E+02  0.51100000000E-03 0.  1.
    9900012    2    1    2    0    0 -0.22765964912E+02 -0.21924040775E+02  0.42152364543E+01  0.59301938145E+02  0.49999989271E+02 0.  0.
        -12    1    1    2    0    0  0.22765964912E+02  0.21924040775E+02 -0.42152364543E+01  0.31886061855E+02  0.00000000000E+00 0.  1.
         11    1    3    3    0    0  0.16323394398E+01  0.24149766241E+01 -0.61020885143E+01  0.67625534112E+01  0.51100000000E-03 0. -1.
        -11    1    3    3    0    0  0.16907158635E+01  0.65787823394E+01  0.99940015118E+01  0.12083830671E+02  0.51100000000E-03 0.  1.
         12    1    3    3    0    0 -0.26089020216E+02 -0.30917799738E+02  0.32332345681E+00  0.40455554063E+02  0.00000000000E+00 0. -1.
</event>
<event>
 7    1  0.6152255E-013  0.5930193E+02  0.7816164E-02  0.1266605E+00
        -11   -1    0    0    0    0  0.00000000000E+00  0.00000000000E+00  0.45593999997E+02  0.45594000000E+02  0.51100000000E-03 0.  1.
         11   -1    0    0    0    0 -0.00000000000E+00 -0.00000000000E+00 -0.45593999997E+02  0.45594000000E+02  0.51100000000E-03 0. -1.
    9900012    2    1    2    0    0  0.10318676989E+02 -0.15192416738E+02 -0.26066006915E+02  0.59301931920E+02  0.49999977918E+02 0.  0.
        -12    1    1    2    0    0 -0.10318676989E+02  0.15192416738E+02  0.26066006915E+02  0.31886068080E+02  0.00000000000E+00 0.  1.
         11    1    3    3    0    0 -0.11161224513E+02 -0.79418166723E+01 -0.10776679355E+02  0.17429348894E+02  0.51100000000E-03 0. -1.
        -11    1    3    3    0    0  0.41051598733E+01 -0.15493770220E+02 -0.15974345606E+02  0.22629382913E+02  0.51100000000E-03 0.  1.
        -12    1    3    3    0    0  0.17374741629E+02  0.82431701546E+01  0.68501804636E+00  0.19243200113E+02  0.00000000000E+00 0.  1.
</event>
<event>
 7    1  0.6152255E-013  0.5930186E+02  0.7816164E-02  0.1266605E+00
        -11   -1    0    0    0    0  0.00000000000E+00  0.00000000000E+00  0.45593999997E+02  0.45594000000E+02  0.51100000000E-03 0.  1.
         11   -1    0    0    0    0 -0.00000000000E+00 -0.00000000000E+00 -0.45593999997E+02  0.45594000000E+02  0.51100000000E-03 0. -1.
    9900012    2    1    2    0    0 -0.30986459477E+01  0.26885863265E+02  0.16860441766E+02  0.59301862781E+02  0.49999851825E+02 0.  0.
        -12    1    1    2    0    0  0.30986459477E+01 -0.26885863265E+02 -0.16860441766E+02  0.31886137219E+02  0.00000000000E+00 0.  1.
         11    1    3    3    0    0  0.41213494101E+01 -0.13842441820E+02  0.15992082403E+01  0.14531214118E+02  0.51100000000E-03 0. -1.
        -11    1    3    3    0    0 -0.97475092442E+00  0.16711823779E+02  0.26972928058E+01  0.16956137005E+02  0.51100000000E-03 0.  1.
        -12    1    3    3    0    0 -0.62452444333E+01  0.24016481306E+02  0.12563940720E+02  0.27814511658E+02  0.00000000000E+00 0.  1.
</event>
<event>
 7    1  0.6152255E-013  0.5930196E+02  0.7816164E-02  0.1266605E+00
        -11   -1    0    0    0    0  0.00000000000E+00  0.00000000000E+00  0.45593999997E+02  0.45594000000E+02  0.51100000000E-03 0. -1.
         11   -1    0    0    0    0 -0.00000000000E+00 -0.00000000000E+00 -0.45593999997E+02  0.45594000000E+02  0.51100000000E-03 0.  1.
    9900012    2    1    2    0    0 -0.24178875942E+02 -0.20211475172E+02 -0.48577738679E+01  0.59301957012E+02  0.50000023681E+02 0.  0.
        -12    1    1    2    0    0  0.24178875942E+02  0.20211475172E+02  0.48577738679E+01  0.31886042988E+02  0.00000000000E+00 0.  1.
         11    1    3    3    0    0 -0.64609081004E+01 -0.11305966358E+02  0.98859707868E+01  0.16349331100E+02  0.51100000000E-03 0. -1.
        -11    1    3    3    0    0 -0.27142079322E+02 -0.11958928823E+02 -0.72554107528E+01  0.30534397554E+02  0.51100000000E-03 0.  1.
        -12    1    3    3    0    0  0.94241114800E+01  0.30534200090E+01 -0.74883339018E+01  0.12418228359E+02  0.00000000000E+00 0.  1.
</event>
<event>
 7    1  0.6152255E-013  0.5930195E+02  0.7816164E-02  0.1266605E+00
        -11   -1    0    0    0    0  0.00000000000E+00  0.00000000000E+00  0.45593999997E+02  0.45594000000E+02  0.51100000000E-03 0.  1.
         11   -1    0    0    0    0 -0.00000000000E+00 -0.00000000000E+00 -0.45593999997E+02  0.45594000000E+02  0.51100000000E-03 0. -1.
    9900012    2    1    2    0    0  0.23547268394E+02  0.21402607219E+02 -0.20432026595E+01  0.59301950987E+02  0.50000012692E+02 0.  0.
        -12    1    1    2    0    0 -0.23547268394E+02 -0.21402607219E+02  0.20432026595E+01  0.31886049013E+02  0.00000000000E+00 0.  1.
         11    1    3    3    0    0  0.55352694113E+01  0.23010421396E+02 -0.28966622691E+01  0.23843434166E+02  0.51100000000E-03 0. -1.
        -11    1    3    3    0    0 -0.27815979262E+01  0.96574298462E+01  0.53506342557E+01  0.11385628022E+02  0.51100000000E-03 0.  1.
        -12    1    3    3    0    0  0.20793596909E+02 -0.11265244023E+02 -0.44971746461E+01  0.24072888799E+02  0.00000000000E+00 0.  1.
</event>
<event>
 7    1  0.6152255E-013  0.5930193E+02  0.7816164E-02  0.1266605E+00
        -11   -1    0    0    0    0  0.00000000000E+00  0.00000000000E+00  0.45593999997E+02  0.45594000000E+02  0.51100000000E-03 0. -1.
         11   -1    0    0    0    0 -0.00000000000E+00 -0.00000000000E+00 -0.45593999997E+02  0.45594000000E+02  0.51100000000E-03 0.  1.
    9900012    2    1    2    0    0  0.24121346789E+02  0.13691947866E+02  0.15729366388E+02  0.59301925073E+02  0.49999965431E+02 0.  0.
        -12    1    1    2    0    0 -0.24121346789E+02 -0.13691947866E+02 -0.15729366388E+02  0.31886074927E+02  0.00000000000E+00 0.  1.
         11    1    3    3    0    0  0.10535896896E+02  0.15361495705E+02 -0.50139620058E+01  0.19290424800E+02  0.51100000000E-03 0. -1.
        -11    1    3    3    0    0  0.17305942360E+02  0.73958204954E+00 -0.14477138629E+01  0.17382131580E+02  0.51100000000E-03 0.  1.
         12    1    3    3    0    0 -0.37204924670E+01 -0.24091298886E+01  0.22191042256E+02  0.22629368693E+02  0.00000000000E+00 0. -1.
</event>
<event>
 7    1  0.6152255E-013  0.5930195E+02  0.7816164E-02  0.1266605E+00
        -11   -1    0    0    0    0  0.00000000000E+00  0.00000000000E+00  0.45593999997E+02  0.45594000000E+02  0.51100000000E-03 0.  1.
         11   -1    0    0    0    0 -0.00000000000E+00 -0.00000000000E+00 -0.45593999997E+02  0.45594000000E+02  0.51100000000E-03 0. -1.
    9900012    2    1    2    0    0 -0.22937251851E+02 -0.19536467784E+02  0.10436910466E+02  0.59301949821E+02  0.50000010566E+02 0.  0.
        -12    1    1    2    0    0  0.22937251851E+02  0.19536467784E+02 -0.10436910466E+02  0.31886050179E+02  0.00000000000E+00 0.  1.
         11    1    3    3    0    0 -0.91873088519E+01 -0.28759694346E+02  0.25951116518E+01  0.30302826065E+02  0.51100000000E-03 0. -1.
        -11    1    3    3    0    0  0.55624414416E+01 -0.17004975841E+00  0.47213361540E+01  0.72979919876E+01  0.51100000000E-03 0.  1.
        -12    1    3    3    0    0 -0.19312384440E+02  0.93932763202E+01  0.31204626606E+01  0.21701131768E+02  0.00000000000E+00 0.  1.
</event>
<event>
 7    1  0.6152255E-013  0.5930189E+02  0.7816164E-02  0.1266605E+00
        -11   -1    0    0    0    0  0.00000000000E+00  0.00000000000E+00  0.45593999997E+02  0.45594000000E+02  0.51100000000E-03 0.  1.
         11   -1    0    0    0    0 -0.00000000000E+00 -0.00000000000E+00 -0.45593999997E+02  0.45594000000E+02  0.51100000000E-03 0. -1.
    9900012    2    1    2    0    0 -0.14774180925E+02  0.10026766869E+02 -0.26418013224E+02  0.59301891762E+02  0.49999904680E+02 0.  0.
        -12    1    1    2    0    0  0.14774180925E+02 -0.10026766869E+02  0.26418013224E+02  0.31886108238E+02  0.00000000000E+00 0.  1.
         11    1    3    3    0    0 -0.75154263895E+01 -0.79556090166E+01 -0.48291434803E+01  0.11962189417E+02  0.51100000000E-03 0. -1.
        -11    1    3    3    0    0  0.56596930662E+01  0.41828591997E+01  0.89735034018E+01  0.11404043154E+02  0.51100000000E-03 0.  1.
        -12    1    3    3    0    0 -0.12918447602E+02  0.13799516686E+02 -0.30562373146E+02  0.35935659191E+02  0.00000000000E+00 0.  1.
</event>
<event>
 7    1  0.6152255E-013  0.5930193E+02  0.7816164E-02  0.1266605E+00
        -11   -1    0    0    0    0  0.00000000000E+00  0.00000000000E+00  0.45593999997E+02  0.45594000000E+02  0.51100000000E-03 0.  1.
         11   -1    0    0    0    0 -0.00000000000E+00 -0.00000000000E+00 -0.45593999997E+02  0.45594000000E+02  0.51100000000E-03 0. -1.
    9900012    2    1    2    0    0 -0.12940860145E+02 -0.28799606650E+02 -0.44539888796E+01  0.59301933742E+02  0.49999981241E+02 0.  0.
        -12    1    1    2    0    0  0.12940860145E+02  0.28799606650E+02  0.44539888796E+01  0.31886066258E+02  0.00000000000E+00 0.  1.
         11    1    3    3    0    0  0.16024309406E+01  0.38582014585E+01 -0.13772508257E+02  0.14392202311E+02  0.51100000000E-03 0. -1.
        -11    1    3    3    0    0 -0.88067999971E+01 -0.11852313513E+02 -0.83983050221E+01  0.16987306711E+02  0.51100000000E-03 0.  1.
        -12    1    3    3    0    0 -0.57364910881E+01 -0.20805494596E+02  0.17716824400E+02  0.27922424719E+02  0.00000000000E+00 0.  1.
</event>
<event>
 7    1  0.6152255E-013  0.5930195E+02  0.7816164E-02  0.1266605E+00
        -11   -1    0    0    0    0  0.00000000000E+00  0.00000000000E+00  0.45593999997E+02  0.45594000000E+02  0.51100000000E-03 0.  1.
         11   -1    0    0    0    0 -0.00000000000E+00 -0.00000000000E+00 -0.45593999997E+02  0.45594000000E+02  0.51100000000E-03 0. -1.
    9900012    2    1    2    0    0 -0.86281734297E+01  0.71705367033E+01 -0.29847247546E+02  0.59301950395E+02  0.50000011613E+02 0.  0.
        -12    1    1    2    0    0  0.86281734297E+01 -0.71705367033E+01  0.29847247546E+02  0.31886049605E+02  0.00000000000E+00 0.  1.
         11    1    3    3    0    0 -0.24631987922E+02  0.58085974812E+01 -0.13060385583E+02  0.28478909837E+02  0.51100000000E-03 0.  1.
        -11    1    3    3    0    0 -0.31586427012E+01  0.48745859737E+01 -0.67589858087E+01  0.89119302933E+01  0.51100000000E-03 0. -1.
        -12    1    3    3    0    0  0.19162457193E+02 -0.35126467516E+01 -0.10027876154E+02  0.21911110265E+02  0.00000000000E+00 0.  1.
</event>
<event>
 7    1  0.6152255E-013  0.5930195E+02  0.7816164E-02  0.1266605E+00
        -11   -1    0    0    0    0  0.00000000000E+00  0.00000000000E+00  0.45593999997E+02  0.45594000000E+02  0.51100000000E-03 0.  1.
         11   -1    0    0    0    0 -0.00000000000E+00 -0.00000000000E+00 -0.45593999997E+02  0.45594000000E+02  0.51100000000E-03 0. -1.
    9900012    2    1    2    0    0  0.79088177092E+01  0.18853408426E+02 -0.24468756773E+02  0.59301945605E+02  0.50000002877E+02 0.  0.
        -12    1    1    2    0    0 -0.79088177092E+01 -0.18853408426E+02  0.24468756773E+02  0.31886054395E+02  0.00000000000E+00 0.  1.
         11    1    3    3    0    0  0.93413346594E+01  0.65213261054E+01  0.13343661863E+01  0.11470342661E+02  0.51100000000E-03 0. -1.
        -11    1    3    3    0    0  0.11197600819E+02  0.10252711116E+02  0.37386806277E+01  0.15635922820E+02  0.51100000000E-03 0.  1.
         12    1    3    3    0    0 -0.12630117769E+02  0.20793712045E+01 -0.29541803588E+02  0.32195680124E+02  0.00000000000E+00 0. -1.
</event>
<event>
 7    1  0.6152255E-013  0.5930187E+02  0.7816164E-02  0.1266605E+00
        -11   -1    0    0    0    0  0.00000000000E+00  0.00000000000E+00  0.45593999997E+02  0.45594000000E+02  0.51100000000E-03 0.  1.
         11   -1    0    0    0    0 -0.00000000000E+00 -0.00000000000E+00 -0.45593999997E+02  0.45594000000E+02  0.51100000000E-03 0. -1.
    9900012    2    1    2    0    0 -0.13864259010E+02 -0.29080847606E+01 -0.28566596850E+02  0.59301873072E+02  0.49999870594E+02 0.  0.
        -12    1    1    2    0    0  0.13864259010E+02  0.29080847606E+01  0.28566596850E+02  0.31886126928E+02  0.00000000000E+00 0.  1.
         11    1    3    3    0    0 -0.98935320575E+01  0.90076507122E+01  0.23610587665E+01  0.13586550213E+02  0.51100000000E-03 0.  1.
        -11    1    3    3    0    0 -0.74189827259E+01 -0.12666268605E+02 -0.93004134065E-01  0.14679384016E+02  0.51100000000E-03 0. -1.
         12    1    3    3    0    0  0.34482557735E+01  0.75053313231E+00 -0.30834651482E+02  0.31035938843E+02  0.00000000000E+00 0. -1.
</event>
<event>
 7    1  0.6152255E-013  0.5930189E+02  0.7816164E-02  0.1266605E+00
        -11   -1    0    0    0    0  0.00000000000E+00  0.00000000000E+00  0.45593999997E+02  0.45594000000E+02  0.51100000000E-03 0.  1.
         11   -1    0    0    0    0 -0.00000000000E+00 -0.00000000000E+00 -0.45593999997E+02  0.45594000000E+02  0.51100000000E-03 0. -1.
    9900012    2    1    2    0    0 -0.27915371151E+02 -0.26828930252E+01  0.15174256339E+02  0.59301891474E+02  0.49999904155E+02 0.  0.
        -12    1    1    2    0    0  0.27915371151E+02  0.26828930252E+01 -0.15174256339E+02  0.31886108526E+02  0.00000000000E+00 0.  1.
         11    1    3    3    0    0 -0.13732014143E+02  0.10328650524E+02  0.11706028049E+02  0.20791352217E+02  0.51100000000E-03 0. -1.
        -11    1    3    3    0    0 -0.12666504914E+02 -0.16207124783E+02  0.15636735862E+02  0.25838319395E+02  0.51100000000E-03 0.  1.
        -12    1    3    3    0    0 -0.15168520937E+01  0.31955812340E+01 -0.12168507572E+02  0.12672219862E+02  0.00000000000E+00 0.  1.
</event>
<event>
 7    1  0.6152255E-013  0.5930194E+02  0.7816164E-02  0.1266605E+00
        -11   -1    0    0    0    0  0.00000000000E+00  0.00000000000E+00  0.45593999997E+02  0.45594000000E+02  0.51100000000E-03 0. -1.
         11   -1    0    0    0    0 -0.00000000000E+00 -0.00000000000E+00 -0.45593999997E+02  0.45594000000E+02  0.51100000000E-03 0.  1.
    9900012    2    1    2    0    0  0.20513907258E+02 -0.20541433507E+02  0.13189011518E+02  0.59301938682E+02  0.49999990251E+02 0.  0.
        -12    1    1    2    0    0 -0.20513907258E+02  0.20541433507E+02 -0.13189011518E+02  0.31886061318E+02  0.00000000000E+00 0.  1.
         11    1    3    3    0    0  0.52049006977E+01 -0.67534759421E+01 -0.13843973704E+02  0.16259029391E+02  0.51100000000E-03 0. -1.
        -11    1    3    3    0    0  0.23526622597E+01  0.69267419249E+01  0.10734084972E+01  0.73937121573E+01  0.51100000000E-03 0.  1.
         12    1    3    3    0    0  0.12956344300E+02 -0.20714699490E+02  0.25959576724E+02  0.35649197134E+02  0.00000000000E+00 0. -1.
</event>
<event>
 7    1  0.6152255E-013  0.5930194E+02  0.7816164E-02  0.1266605E+00
        -11   -1    0    0    0    0  0.00000000000E+00  0.00000000000E+00  0.45593999997E+02  0.45594000000E+02  0.51100000000E-03 0.  1.
         11   -1    0    0    0    0 -0.00000000000E+00 -0.00000000000E+00 -0.45593999997E+02  0.45594000000E+02  0.51100000000E-03 0. -1.
    9900012    2    1    2    0    0  0.12676435587E+02 -0.19744593620E+02 -0.21591201516E+02  0.59301937538E+02  0.49999988165E+02 0.  0.
        -12    1    1    2    0    0 -0.12676435587E+02  0.19744593620E+02  0.21591201516E+02  0.31886062462E+02  0.00000000000E+00 0.  1.
         11    1    3    3    0    0  0.16942854062E+02 -0.27775585724E+02 -0.20160646393E+02  0.38275254791E+02  0.51100000000E-03 0. -1.
        -11    1    3    3    0    0  0.14184091662E+00 -0.33871195515E+01  0.58675392884E+01  0.67764825141E+01  0.51100000000E-03 0.  1.
        -12    1    3    3    0    0 -0.44082593908E+01  0.11418111656E+02 -0.72980944119E+01  0.14250200233E+02  0.00000000000E+00 0.  1.
</event>
<event>
 7    1  0.6152255E-013  0.5930197E+02  0.7816164E-02  0.1266605E+00
        -11   -1    0    0    0    0  0.00000000000E+00  0.00000000000E+00  0.45593999997E+02  0.45594000000E+02  0.51100000000E-03 0.  1.
         11   -1    0    0    0    0 -0.00000000000E+00 -0.00000000000E+00 -0.45593999997E+02  0.45594000000E+02  0.51100000000E-03 0. -1.
    9900012    2    1    2    0    0  0.13305450904E+02  0.11058581663E+02 -0.26784168201E+02  0.59301969856E+02  0.50000047104E+02 0.  0.
        -12    1    1    2    0    0 -0.13305450904E+02 -0.11058581663E+02  0.26784168201E+02  0.31886030144E+02  0.00000000000E+00 0.  1.
         11    1    3    3    0    0 -0.61151853496E+01 -0.94337319007E+01 -0.82112613818E+01  0.13921767243E+02  0.51100000000E-03 0. -1.
        -11    1    3    3    0    0  0.87498189628E+01  0.10745215137E+01  0.72074660070E+01  0.11386900143E+02  0.51100000000E-03 0.  1.
         12    1    3    3    0    0  0.10670817291E+02  0.19417792050E+02 -0.25780372826E+02  0.33993302469E+02  0.00000000000E+00 0. -1.
</event>
<event>
 7    1  0.6152255E-013  0.5930195E+02  0.7816164E-02  0.1266605E+00
        -11   -1    0    0    0    0  0.00000000000E+00  0.00000000000E+00  0.45593999997E+02  0.45594000000E+02  0.51100000000E-03 0. -1.
         11   -1    0    0    0    0 -0.00000000000E+00 -0.00000000000E+00 -0.45593999997E+02  0.45594000000E+02  0.51100000000E-03 0.  1.
    9900012    2    1    2    0    0 -0.27693088378E+02  0.11176950005E+02 -0.11175377369E+02  0.59301946393E+02  0.50000004313E+02 0.  0.
        -12    1    1    2    0    0  0.27693088378E+02 -0.11176950005E+02  0.11175377369E+02  0.31886053607E+02  0.00000000000E+00 0.  1.
         11    1    3    3    0    0 -0.65947247495E+01  0.10960731422E+02  0.81227167508E+01  0.15152773855E+02  0.51100000000E-03 0. -1.
        -11    1    3    3    0    0 -0.26595230174E+02  0.96750521029E+01 -0.16855799759E+02  0.32939807028E+02  0.51100000000E-03 0.  1.
         12    1    3    3    0    0  0.54968665464E+01 -0.94588335203E+01 -0.24422943608E+01  0.11209365510E+02  0.00000000000E+00 0. -1.
</event>
<event>
 7    1  0.6152255E-013  0.5930195E+02  0.7816164E-02  0.1266605E+00
        -11   -1    0    0    0    0  0.00000000000E+00  0.00000000000E+00  0.45593999997E+02  0.45594000000E+02  0.51100000000E-03 0.  1.
         11   -1    0    0    0    0 -0.00000000000E+00 -0.00000000000E+00 -0.45593999997E+02  0.45594000000E+02  0.51100000000E-03 0. -1.
    9900012    2    1    2    0    0 -0.19148189030E+02  0.73507612616E+00 -0.25485819240E+02  0.59301945644E+02  0.50000002949E+02 0.  0.
        -12    1    1    2    0    0  0.19148189030E+02 -0.73507612616E+00  0.25485819240E+02  0.31886054356E+02  0.00000000000E+00 0.  1.
         11    1    3    3    0    0 -0.25825260984E+00 -0.10470527102E+02 -0.22513120312E+01  0.10712937895E+02  0.51100000000E-03 0.  1.
        -11    1    3    3    0    0 -0.31359412411E+01  0.59037693000E+01  0.96516816274E+01  0.11740680471E+02  0.51100000000E-03 0. -1.
         12    1    3    3    0    0 -0.15753995179E+02  0.53018339285E+01 -0.32886188836E+02  0.36848327279E+02  0.00000000000E+00 0. -1.
</event>
<event>
 7    1  0.6152255E-013  0.5930193E+02  0.7816164E-02  0.1266605E+00
        -11   -1    0    0    0    0  0.00000000000E+00  0.00000000000E+00  0.45593999997E+02  0.45594000000E+02  0.51100000000E-03 0.  1.
         11   -1    0    0    0    0 -0.00000000000E+00 -0.00000000000E+00 -0.45593999997E+02  0.45594000000E+02  0.51100000000E-03 0. -1.
    9900012    2    1    2    0    0 -0.22511057680E+02 -0.53268929966E+01 -0.21945340715E+02  0.59301929594E+02  0.49999973676E+02 0.  0.
        -12    1    1    2    0    0  0.22511057680E+02  0.53268929966E+01  0.21945340715E+02  0.31886070406E+02  0.00000000000E+00 0.  1.
         11    1    3    3    0    0 -0.98896302487E+01 -0.15157780055E+02 -0.78151904161E+01  0.19713961656E+02  0.51100000000E-03 0. -1.
        -11    1    3    3    0    0 -0.17818268970E+02  0.29666391534E+01 -0.21622441211E+02  0.28174840216E+02  0.51100000000E-03 0.  1.
        -12    1    3    3    0    0  0.51968415394E+01  0.68642479054E+01  0.74922909126E+01  0.11413127723E+02  0.00000000000E+00 0.  1.
</event>
<event>
 7    1  0.6152255E-013  0.5930187E+02  0.7816164E-02  0.1266605E+00
        -11   -1    0    0    0    0  0.00000000000E+00  0.00000000000E+00  0.45593999997E+02  0.45594000000E+02  0.51100000000E-03 0.  1.
         11   -1    0    0    0    0 -0.00000000000E+00 -0.00000000000E+00 -0.45593999997E+02  0.45594000000E+02  0.51100000000E-03 0. -1.
    9900012    2    1    2    0    0  0.27416467261E+02  0.13162704905E+02 -0.95815329707E+01  0.59301870546E+02  0.49999865987E+02 0.  0.
        -12    1    1    2    0    0 -0.27416467261E+02 -0.13162704905E+02  0.95815329707E+01  0.31886129454E+02  0.00000000000E+00 0.  1.
         11    1    3    3    0    0  0.57600641217E+01 -0.90321810246E+01  0.10780448808E+00  0.10713088015E+02  0.51100000000E-03 0. -1.
        -11    1    3    3    0    0  0.94774763120E+01 -0.28388943291E+01  0.10326524091E+02  0.14301013192E+02  0.51100000000E-03 0.  1.
         12    1    3    3    0    0  0.12178926827E+02  0.25033780259E+02 -0.20015861550E+02  0.34287769339E+02  0.00000000000E+00 0. -1.
</event>
<event>
 7    1  0.6152255E-013  0.5930194E+02  0.7816164E-02  0.1266605E+00
        -11   -1    0    0    0    0  0.00000000000E+00  0.00000000000E+00  0.45593999997E+02  0.45594000000E+02  0.51100000000E-03 0.  1.
         11   -1    0    0    0    0 -0.00000000000E+00 -0.00000000000E+00 -0.45593999997E+02  0.45594000000E+02  0.51100000000E-03 0. -1.
    9900012    2    1    2    0    0 -0.26095950665E+02 -0.17945178993E+02  0.37003904072E+01  0.59301937538E+02  0.49999988164E+02 0.  0.
        -12    1    1    2    0    0  0.26095950665E+02  0.17945178993E+02 -0.37003904072E+01  0.31886062462E+02  0.00000000000E+00 0.  1.
         11    1    3    3    0    0 -0.48136355305E+01 -0.10190219186E+02 -0.93530927687E+01  0.14645545353E+02  0.51100000000E-03 0. -1.
        -11    1    3    3    0    0 -0.94095420016E+01 -0.22031653627E+02  0.53117102846E+01  0.24538694110E+02  0.51100000000E-03 0.  1.
        -12    1    3    3    0    0 -0.11872773133E+02  0.14276693821E+02  0.77417728914E+01  0.20117698074E+02  0.00000000000E+00 0.  1.
</event>
<event>
 7    1  0.6152255E-013  0.5930192E+02  0.7816164E-02  0.1266605E+00
        -11   -1    0    0    0    0  0.00000000000E+00  0.00000000000E+00  0.45593999997E+02  0.45594000000E+02  0.51100000000E-03 0. -1.
         11   -1    0    0    0    0 -0.00000000000E+00 -0.00000000000E+00 -0.45593999997E+02  0.45594000000E+02  0.51100000000E-03 0.  1.
    9900012    2    1    2    0    0  0.16130709886E+02 -0.20680005470E+02  0.18134493276E+02  0.59301917235E+02  0.49999951137E+02 0.  0.
        -12    1    1    2    0    0 -0.16130709886E+02  0.20680005470E+02 -0.18134493276E+02  0.31886082765E+02  0.00000000000E+00 0.  1.
         11    1    3    3    0    0  0.47783467518E+01  0.55182432561E+01  0.23757993108E+02  0.24854091074E+02  0.51100000000E-03 0. -1.
        -11    1    3    3    0    0  0.99946417219E+01 -0.51072884413E+01 -0.70678271705E+01  0.13263914940E+02  0.51100000000E-03 0.  1.
        -12    1    3    3    0    0  0.13577214127E+01 -0.21090960285E+02  0.14443273389E+01  0.21183911221E+02  0.00000000000E+00 0.  1.
</event>
<event>
 7    1  0.6152255E-013  0.5930194E+02  0.7816164E-02  0.1266605E+00
        -11   -1    0    0    0    0  0.00000000000E+00  0.00000000000E+00  0.45593999997E+02  0.45594000000E+02  0.51100000000E-03 0. -1.
         11   -1    0    0    0    0 -0.00000000000E+00 -0.00000000000E+00 -0.45593999997E+02  0.45594000000E+02  0.51100000000E-03 0.  1.
    9900012    2    1    2    0    0  0.10929185896E+02  0.25465877792E+02  0.15772213478E+02  0.59301941071E+02  0.49999994607E+02 0.  0.
        -12    1    1    2    0    0 -0.10929185896E+02 -0.25465877792E+02 -0.15772213478E+02  0.31886058929E+02  0.00000000000E+00 0.  1.
         11    1    3    3    0    0 -0.36180800169E+01 -0.19597326494E+01 -0.37166989396E+01  0.55448089539E+01  0.51100000000E-03 0. -1.
        -11    1    3    3    0    0  0.11125086988E+02 -0.84919059448E+01  0.47025087137E+01  0.14764606853E+02  0.51100000000E-03 0.  1.
         12    1    3    3    0    0  0.34221789246E+01  0.35917516386E+02  0.14786403704E+02  0.38992525263E+02  0.00000000000E+00 0. -1.
</event>
<event>
 7    1  0.6152255E-013  0.5930197E+02  0.7816164E-02  0.1266605E+00
        -11   -1    0    0    0    0  0.00000000000E+00  0.00000000000E+00  0.45593999997E+02  0.45594000000E+02  0.51100000000E-03 0. -1.
         11   -1    0    0    0    0 -0.00000000000E+00 -0.00000000000E+00 -0.45593999997E+02  0.45594000000E+02  0.51100000000E-03 0.  1.
    9900012    2    1    2    0    0  0.80540430570E+01  0.25525817181E+02 -0.17328703440E+02  0.59301969905E+02  0.50000047194E+02 0.  0.
        -12    1    1    2    0    0 -0.80540430570E+01 -0.25525817181E+02  0.17328703440E+02  0.31886030095E+02  0.00000000000E+00 0.  1.
         11    1    3    3    0    0 -0.10700841974E+02  0.24326280970E+01 -0.92590510249E+01  0.14358123992E+02  0.51100000000E-03 0. -1.
        -11    1    3    3    0    0 -0.11069787590E+01 -0.17870334692E+01 -0.12611668157E+02  0.12785658550E+02  0.51100000000E-03 0.  1.
         12    1    3    3    0    0  0.19861863790E+02  0.24880222553E+02  0.45420157419E+01  0.32158187363E+02  0.00000000000E+00 0. -1.
</event>
<event>
 7    1  0.6152255E-013  0.5930192E+02  0.7816164E-02  0.1266605E+00
        -11   -1    0    0    0    0  0.00000000000E+00  0.00000000000E+00  0.45593999997E+02  0.45594000000E+02  0.51100000000E-03 0. -1.
         11   -1    0    0    0    0 -0.00000000000E+00 -0.00000000000E+00 -0.45593999997E+02  0.45594000000E+02  0.51100000000E-03 0.  1.
    9900012    2    1    2    0    0 -0.11449093757E+02 -0.31714341748E+01  0.29590245267E+02  0.59301915927E+02  0.49999948750E+02 0.  0.
        -12    1    1    2    0    0  0.11449093757E+02  0.31714341748E+01 -0.29590245267E+02  0.31886084073E+02  0.00000000000E+00 0.  1.
         11    1    3    3    0    0 -0.28984510314E+01  0.15902677972E+02  0.57579014041E+01  0.17159534199E+02  0.51100000000E-03 0.  1.
        -11    1    3    3    0    0  0.30941442806E+01  0.51026540195E+01  0.10734091040E+02  0.12281348362E+02  0.51100000000E-03 0. -1.
        -12    1    3    3    0    0 -0.11644787006E+02 -0.24176766166E+02  0.13098252823E+02  0.29861033366E+02  0.00000000000E+00 0.  1.
</event>
<event>
 7    1  0.6152255E-013  0.5930190E+02  0.7816164E-02  0.1266605E+00
        -11   -1    0    0    0    0  0.00000000000E+00  0.00000000000E+00  0.45593999997E+02  0.45594000000E+02  0.51100000000E-03 0. -1.
         11   -1    0    0    0    0 -0.00000000000E+00 -0.00000000000E+00 -0.45593999997E+02  0.45594000000E+02  0.51100000000E-03 0.  1.
    9900012    2    1    2    0    0  0.12474998972E+01 -0.19154570192E+02  0.25461134478E+02  0.59301902964E+02  0.49999925110E+02 0.  0.
        -12    1    1    2    0    0 -0.12474998972E+01  0.19154570192E+02 -0.25461134478E+02  0.31886097036E+02  0.00000000000E+00 0.  1.
         11    1    3    3    0    0 -0.14626067924E+02  0.66095080605E+01  0.60538947970E+01  0.17153923813E+02  0.51100000000E-03 0. -1.
        -11    1    3    3    0    0 -0.49637767793E+00 -0.25871429580E+01 -0.43867231770E+01  0.51169365813E+01  0.51100000000E-03 0.  1.
         12    1    3    3    0    0  0.16369945499E+02 -0.23176935295E+02  0.23793962858E+02  0.37031042570E+02  0.00000000000E+00 0. -1.
</event>
<event>
 7    1  0.6152255E-013  0.5930194E+02  0.7816164E-02  0.1266605E+00
        -11   -1    0    0    0    0  0.00000000000E+00  0.00000000000E+00  0.45593999997E+02  0.45594000000E+02  0.51100000000E-03 0. -1.
         11   -1    0    0    0    0 -0.00000000000E+00 -0.00000000000E+00 -0.45593999997E+02  0.45594000000E+02  0.51100000000E-03 0.  1.
    9900012    2    1    2    0    0  0.19570244490E+02  0.25120712242E+02 -0.16358413113E+01  0.59301943020E+02  0.49999998162E+02 0.  0.
        -12    1    1    2    0    0 -0.19570244490E+02 -0.25120712242E+02  0.16358413113E+01  0.31886056980E+02  0.00000000000E+00 0.  1.
         11    1    3    3    0    0  0.12132791782E+01 -0.64350741481E+01 -0.63370805848E+01  0.91126733868E+01  0.51100000000E-03 0. -1.
        -11    1    3    3    0    0 -0.76002247754E+01 -0.10624989464E+01 -0.20899736171E+01  0.79536350575E+01  0.51100000000E-03 0.  1.
         12    1    3    3    0    0  0.25957190087E+02  0.32618285336E+02  0.67912128906E+01  0.42235634576E+02  0.00000000000E+00 0. -1.
</event>
<event>
 7    1  0.6152255E-013  0.5930194E+02  0.7816164E-02  0.1266605E+00
        -11   -1    0    0    0    0  0.00000000000E+00  0.00000000000E+00  0.45593999997E+02  0.45594000000E+02  0.51100000000E-03 0.  1.
         11   -1    0    0    0    0 -0.00000000000E+00 -0.00000000000E+00 -0.45593999997E+02  0.45594000000E+02  0.51100000000E-03 0. -1.
    9900012    2    1    2    0    0 -0.63104548954E+01  0.45759180896E+01 -0.30918601049E+02  0.59301941006E+02  0.49999994488E+02 0.  0.
        -12    1    1    2    0    0  0.63104548954E+01 -0.45759180896E+01  0.30918601049E+02  0.31886058994E+02  0.00000000000E+00 0.  1.
         11    1    3    3    0    0 -0.63145670824E+01 -0.49518047679E+01 -0.40702532111E+01  0.89978380382E+01  0.51100000000E-03 0. -1.
        -11    1    3    3    0    0 -0.12949922404E+02  0.13532283994E+02 -0.30916857084E+02  0.36147963325E+02  0.51100000000E-03 0.  1.
        -12    1    3    3    0    0  0.12954034591E+02 -0.40045611367E+01  0.40685092459E+01  0.14156139642E+02  0.00000000000E+00 0.  1.
</event>
<event>
 7    1  0.6152255E-013  0.5930196E+02  0.7816164E-02  0.1266605E+00
        -11   -1    0    0    0    0  0.00000000000E+00  0.00000000000E+00  0.45593999997E+02  0.45594000000E+02  0.51100000000E-03 0.  1.
         11   -1    0    0    0    0 -0.00000000000E+00 -0.00000000000E+00 -0.45593999997E+02  0.45594000000E+02  0.51100000000E-03 0. -1.
    9900012    2    1    2    0    0  0.20143494541E+02 -0.12585110537E+02 -0.21273785852E+02  0.59301963181E+02  0.50000034931E+02 0.  0.
        -12    1    1    2    0    0 -0.20143494541E+02  0.12585110537E+02  0.21273785852E+02  0.31886036819E+02  0.00000000000E+00 0.  1.
         11    1    3    3    0    0  0.48214663951E+01 -0.30664773701E+01  0.27835662631E+00  0.57207782978E+01  0.51100000000E-03 0. -1.
        -11    1    3    3    0    0 -0.11599188794E+02 -0.10169514734E+02  0.45447806865E+01  0.16081518658E+02  0.51100000000E-03 0.  1.
         12    1    3    3    0    0  0.26921216940E+02  0.65088156707E+00 -0.26096923164E+02  0.37499666225E+02  0.00000000000E+00 0. -1.
</event>
<event>
 7    1  0.6152255E-013  0.5930192E+02  0.7816164E-02  0.1266605E+00
        -11   -1    0    0    0    0  0.00000000000E+00  0.00000000000E+00  0.45593999997E+02  0.45594000000E+02  0.51100000000E-03 0.  1.
         11   -1    0    0    0    0 -0.00000000000E+00 -0.00000000000E+00 -0.45593999997E+02  0.45594000000E+02  0.51100000000E-03 0. -1.
    9900012    2    1    2    0    0 -0.36768607709E+01 -0.79830084403E+01 -0.30650844898E+02  0.59301921191E+02  0.49999958351E+02 0.  0.
        -12    1    1    2    0    0  0.36768607709E+01  0.79830084403E+01  0.30650844898E+02  0.31886078809E+02  0.00000000000E+00 0.  1.
         11    1    3    3    0    0  0.37213927805E+01 -0.72927260002E+01 -0.10745417099E+02  0.13509130454E+02  0.51100000000E-03 0. -1.
        -11    1    3    3    0    0 -0.49701462223E+01  0.11578069208E+01  0.12365894243E+02  0.13377526341E+02  0.51100000000E-03 0.  1.
         12    1    3    3    0    0 -0.24281073291E+01 -0.18480893609E+01 -0.32271322042E+02  0.32415264395E+02  0.00000000000E+00 0. -1.
</event>
<event>
 7    1  0.6152255E-013  0.5930194E+02  0.7816164E-02  0.1266605E+00
        -11   -1    0    0    0    0  0.00000000000E+00  0.00000000000E+00  0.45593999997E+02  0.45594000000E+02  0.51100000000E-03 0.  1.
         11   -1    0    0    0    0 -0.00000000000E+00 -0.00000000000E+00 -0.45593999997E+02  0.45594000000E+02  0.51100000000E-03 0. -1.
    9900012    2    1    2    0    0 -0.24339883070E+02 -0.16190219559E+02 -0.12734499473E+02  0.59301943580E+02  0.49999999183E+02 0.  0.
        -12    1    1    2    0    0  0.24339883070E+02  0.16190219559E+02  0.12734499473E+02  0.31886056420E+02  0.00000000000E+00 0.  1.
         11    1    3    3    0    0 -0.27204824618E+01 -0.15844374911E+02 -0.24645552727E+00  0.16078121213E+02  0.51100000000E-03 0. -1.
        -11    1    3    3    0    0 -0.17170817715E+02 -0.16106786501E+02 -0.16812204140E+01  0.23602797605E+02  0.51100000000E-03 0.  1.
        -12    1    3    3    0    0 -0.44485828927E+01  0.15760941854E+02 -0.10806823531E+02  0.19621024762E+02  0.00000000000E+00 0.  1.
</event>
<event>
 7    1  0.6152255E-013  0.5930194E+02  0.7816164E-02  0.1266605E+00
        -11   -1    0    0    0    0  0.00000000000E+00  0.00000000000E+00  0.45593999997E+02  0.45594000000E+02  0.51100000000E-03 0. -1.
         11   -1    0    0    0    0 -0.00000000000E+00 -0.00000000000E+00 -0.45593999997E+02  0.45594000000E+02  0.51100000000E-03 0.  1.
    9900012    2    1    2    0    0 -0.50103332151E+01  0.31486584915E+02  0.46104137614E+00  0.59301936780E+02  0.49999986782E+02 0.  0.
        -12    1    1    2    0    0  0.50103332151E+01 -0.31486584915E+02 -0.46104137614E+00  0.31886063220E+02  0.00000000000E+00 0.  1.
         11    1    3    3    0    0  0.15322012090E+01  0.18420210768E+00  0.65068593924E+01  0.66873604939E+01  0.51100000000E-03 0. -1.
        -11    1    3    3    0    0  0.29212265281E+01 -0.97273450520E+01 -0.13798744211E+01  0.10249822431E+02  0.51100000000E-03 0.  1.
        -12    1    3    3    0    0 -0.94637609523E+01  0.41029727859E+02 -0.46659435952E+01  0.42364753855E+02  0.00000000000E+00 0.  1.
</event>
<event>
 7    1  0.6152255E-013  0.5930197E+02  0.7816164E-02  0.1266605E+00
        -11   -1    0    0    0    0  0.00000000000E+00  0.00000000000E+00  0.45593999997E+02  0.45594000000E+02  0.51100000000E-03 0.  1.
         11   -1    0    0    0    0 -0.00000000000E+00 -0.00000000000E+00 -0.45593999997E+02  0.45594000000E+02  0.51100000000E-03 0. -1.
    9900012    2    1    2    0    0 -0.26665148682E+02 -0.81303492665E+01 -0.15478580852E+02  0.59301965461E+02  0.50000039090E+02 0.  0.
        -12    1    1    2    0    0  0.26665148682E+02  0.81303492665E+01  0.15478580852E+02  0.31886034539E+02  0.00000000000E+00 0.  1.
         11    1    3    3    0    0 -0.12683210530E+02  0.49744420419E+01 -0.22210126305E+02  0.26055682945E+02  0.51100000000E-03 0. -1.
        -11    1    3    3    0    0 -0.16003741601E+02  0.17164477338E+01  0.84682821725E+01  0.18187296151E+02  0.51100000000E-03 0.  1.
         12    1    3    3    0    0  0.20218034493E+01 -0.14821239042E+02 -0.17367367193E+01  0.15058986366E+02  0.00000000000E+00 0. -1.
</event>
<event>
 7    1  0.9083773E-013  0.5930196E+02  0.7816164E-02  0.1266605E+00
        -11   -1    0    0    0    0  0.00000000000E+00  0.00000000000E+00  0.45593999997E+02  0.45594000000E+02  0.51100000000E-03 0.  1.
         11   -1    0    0    0    0 -0.00000000000E+00 -0.00000000000E+00 -0.45593999997E+02  0.45594000000E+02  0.51100000000E-03 0. -1.
    9900012    2    1    2    0    0  0.28980360903E+01 -0.31410995429E+02  0.46551376304E+01  0.59301959898E+02  0.50000028943E+02 0.  0.
        -12    1    1    2    0    0 -0.28980360903E+01  0.31410995429E+02 -0.46551376304E+01  0.31886040102E+02  0.00000000000E+00 0.  1.
         11    1    3    3    0    0 -0.55126306169E+01  0.43038351002E+01  0.34960424012E+01  0.78188493796E+01  0.51100000000E-03 0. -1.
        -11    1    3    3    0    0  0.12137711177E+02  0.27175269458E+01 -0.25358392313E+01  0.12694072089E+02  0.51100000000E-03 0.  1.
         12    1    3    3    0    0 -0.37270444700E+01 -0.38432357476E+02  0.36949344605E+01  0.38789038429E+02  0.00000000000E+00 0. -1.
</event>
<event>
 7    1  0.6152255E-013  0.5930194E+02  0.7816164E-02  0.1266605E+00
        -11   -1    0    0    0    0  0.00000000000E+00  0.00000000000E+00  0.45593999997E+02  0.45594000000E+02  0.51100000000E-03 0.  1.
         11   -1    0    0    0    0 -0.00000000000E+00 -0.00000000000E+00 -0.45593999997E+02  0.45594000000E+02  0.51100000000E-03 0. -1.
    9900012    2    1    2    0    0  0.99811158778E+01  0.28485129043E+02 -0.10280835330E+02  0.59301939944E+02  0.49999992553E+02 0.  0.
        -12    1    1    2    0    0 -0.99811158778E+01 -0.28485129043E+02  0.10280835330E+02  0.31886060056E+02  0.00000000000E+00 0.  1.
         11    1    3    3    0    0 -0.63305485213E+01  0.78000082281E+01 -0.75601375366E+01  0.12572654961E+02  0.51100000000E-03 0. -1.
        -11    1    3    3    0    0 -0.46272980742E+01 -0.47083218953E+01  0.95446005851E+01  0.11605153300E+02  0.51100000000E-03 0.  1.
         12    1    3    3    0    0  0.20938962473E+02  0.25393442711E+02 -0.12265298379E+02  0.35124131683E+02  0.00000000000E+00 0. -1.
</event>
<event>
 7    1  0.6180580E-013  0.5930196E+02  0.7816164E-02  0.1266605E+00
        -11   -1    0    0    0    0  0.00000000000E+00  0.00000000000E+00  0.45593999997E+02  0.45594000000E+02  0.51100000000E-03 0.  1.
         11   -1    0    0    0    0 -0.00000000000E+00 -0.00000000000E+00 -0.45593999997E+02  0.45594000000E+02  0.51100000000E-03 0. -1.
    9900012    2    1    2    0    0 -0.11742863841E+02 -0.20024070141E+02 -0.21860045461E+02  0.59301955658E+02  0.50000021211E+02 0.  0.
        -12    1    1    2    0    0  0.11742863841E+02  0.20024070141E+02  0.21860045461E+02  0.31886044342E+02  0.00000000000E+00 0.  1.
         11    1    3    3    0    0  0.75342670827E+01 -0.10799681873E+02 -0.15676826199E+01  0.13261068512E+02  0.51100000000E-03 0. -1.
        -11    1    3    3    0    0 -0.12745588249E+02  0.29567396846E+01  0.74425640816E+01  0.15052710378E+02  0.51100000000E-03 0.  1.
         12    1    3    3    0    0 -0.65315426753E+01 -0.12181127953E+02 -0.27734926923E+02  0.30988176767E+02  0.00000000000E+00 0. -1.
</event>
<event>
 7    1  0.6152255E-013  0.5930200E+02  0.7816164E-02  0.1266605E+00
        -11   -1    0    0    0    0  0.00000000000E+00  0.00000000000E+00  0.45593999997E+02  0.45594000000E+02  0.51100000000E-03 0.  1.
         11   -1    0    0    0    0 -0.00000000000E+00 -0.00000000000E+00 -0.45593999997E+02  0.45594000000E+02  0.51100000000E-03 0. -1.
    9900012    2    1    2    0    0 -0.10616608625E+02 -0.14777074022E+02 -0.26184777870E+02  0.59302001702E+02  0.50000105184E+02 0.  0.
        -12    1    1    2    0    0  0.10616608625E+02  0.14777074022E+02  0.26184777870E+02  0.31885998298E+02  0.00000000000E+00 0.  1.
         11    1    3    3    0    0  0.73154426567E+01 -0.14935651015E+02 -0.11182022255E+02  0.20040633585E+02  0.51100000000E-03 0. -1.
        -11    1    3    3    0    0  0.40607900926E+01  0.56908353560E+01  0.53392939442E+01  0.87967996061E+01  0.51100000000E-03 0.  1.
         12    1    3    3    0    0 -0.21992841375E+02 -0.55322583630E+01 -0.20342049559E+02  0.30464568511E+02  0.00000000000E+00 0. -1.
</event>
<event>
 7    1  0.6152255E-013  0.5930194E+02  0.7816164E-02  0.1266605E+00
        -11   -1    0    0    0    0  0.00000000000E+00  0.00000000000E+00  0.45593999997E+02  0.45594000000E+02  0.51100000000E-03 0. -1.
         11   -1    0    0    0    0 -0.00000000000E+00 -0.00000000000E+00 -0.45593999997E+02  0.45594000000E+02  0.51100000000E-03 0.  1.
    9900012    2    1    2    0    0  0.26402726709E+02 -0.15873761547E+02  0.82243693740E+01  0.59301944507E+02  0.50000000874E+02 0.  0.
        -12    1    1    2    0    0 -0.26402726709E+02  0.15873761547E+02 -0.82243693740E+01  0.31886055493E+02  0.00000000000E+00 0.  1.
         11    1    3    3    0    0 -0.94431394652E+00 -0.85338511752E+01  0.26554157089E+01  0.89871896363E+01  0.51100000000E-03 0. -1.
        -11    1    3    3    0    0 -0.94994315272E+01  0.49483253563E+00 -0.55814686061E+01  0.11028909767E+02  0.51100000000E-03 0.  1.
        -12    1    3    3    0    0  0.36846472182E+02 -0.78347429072E+01  0.11150422271E+02  0.39285845104E+02  0.00000000000E+00 0.  1.
</event>
<event>
 7    1  0.6152255E-013  0.5930194E+02  0.7816164E-02  0.1266605E+00
        -11   -1    0    0    0    0  0.00000000000E+00  0.00000000000E+00  0.45593999997E+02  0.45594000000E+02  0.51100000000E-03 0.  1.
         11   -1    0    0    0    0 -0.00000000000E+00 -0.00000000000E+00 -0.45593999997E+02  0.45594000000E+02  0.51100000000E-03 0. -1.
    9900012    2    1    2    0    0 -0.24381689324E+02 -0.56184505096E+01 -0.19765798938E+02  0.59301943987E+02  0.49999999926E+02 0.  0.
        -12    1    1    2    0    0  0.24381689324E+02  0.56184505096E+01  0.19765798938E+02  0.31886056013E+02  0.00000000000E+00 0.  1.
         11    1    3    3    0    0 -0.27448467124E+01 -0.98736592931E+01 -0.96462074230E+01  0.14073828520E+02  0.51100000000E-03 0. -1.
        -11    1    3    3    0    0 -0.28856189023E+02  0.10847910636E+02  0.44878943347E+00  0.30831124247E+02  0.51100000000E-03 0.  1.
         12    1    3    3    0    0  0.72193464116E+01 -0.65927018524E+01 -0.10568380948E+02  0.14396991220E+02  0.00000000000E+00 0. -1.
</event>
<event>
 7    1  0.6152255E-013  0.5930192E+02  0.7816164E-02  0.1266605E+00
        -11   -1    0    0    0    0  0.00000000000E+00  0.00000000000E+00  0.45593999997E+02  0.45594000000E+02  0.51100000000E-03 0. -1.
         11   -1    0    0    0    0 -0.00000000000E+00 -0.00000000000E+00 -0.45593999997E+02  0.45594000000E+02  0.51100000000E-03 0.  1.
    9900012    2    1    2    0    0 -0.27305216649E+02  0.15472107916E+02 -0.56356985358E+01  0.59301920316E+02  0.49999956756E+02 0.  0.
        -12    1    1    2    0    0  0.27305216649E+02 -0.15472107916E+02  0.56356985358E+01  0.31886079684E+02  0.00000000000E+00 0.  1.
         11    1    3    3    0    0  0.74495029187E+01  0.75317133086E+00  0.32782990397E+01  0.81737143114E+01  0.51100000000E-03 0. -1.
        -11    1    3    3    0    0  0.27957284552E+01  0.15632924720E+01 -0.10830067009E+02  0.11293818337E+02  0.51100000000E-03 0.  1.
         12    1    3    3    0    0 -0.37550448023E+02  0.13155644113E+02  0.19160694336E+01  0.39834387668E+02  0.00000000000E+00 0. -1.
</event>
<event>
 7    1  0.6152255E-013  0.5930193E+02  0.7816164E-02  0.1266605E+00
        -11   -1    0    0    0    0  0.00000000000E+00  0.00000000000E+00  0.45593999997E+02  0.45594000000E+02  0.51100000000E-03 0.  1.
         11   -1    0    0    0    0 -0.00000000000E+00 -0.00000000000E+00 -0.45593999997E+02  0.45594000000E+02  0.51100000000E-03 0. -1.
    9900012    2    1    2    0    0 -0.20289746296E+02  0.68269495305E+01 -0.23631345768E+02  0.59301928630E+02  0.49999971918E+02 0.  0.
        -12    1    1    2    0    0  0.20289746296E+02 -0.68269495305E+01  0.23631345768E+02  0.31886071370E+02  0.00000000000E+00 0.  1.
         11    1    3    3    0    0 -0.38080981884E+01  0.50753706006E+01 -0.11760289180E+02  0.13362836540E+02  0.51100000000E-03 0. -1.
        -11    1    3    3    0    0 -0.10133102466E+01 -0.15642547234E+02 -0.15886572979E+02  0.22318137980E+02  0.51100000000E-03 0.  1.
         12    1    3    3    0    0 -0.15468337861E+02  0.17394126164E+02  0.40155163906E+01  0.23620954110E+02  0.00000000000E+00 0. -1.
</event>
<event>
 7    1  0.6152255E-013  0.5930193E+02  0.7816164E-02  0.1266605E+00
        -11   -1    0    0    0    0  0.00000000000E+00  0.00000000000E+00  0.45593999997E+02  0.45594000000E+02  0.51100000000E-03 0. -1.
         11   -1    0    0    0    0 -0.00000000000E+00 -0.00000000000E+00 -0.45593999997E+02  0.45594000000E+02  0.51100000000E-03 0.  1.
    9900012    2    1    2    0    0  0.19007906081E+02  0.96341756981E+01  0.23719262049E+02  0.59301933652E+02  0.49999981078E+02 0.  0.
        -12    1    1    2    0    0 -0.19007906081E+02 -0.96341756981E+01 -0.23719262049E+02  0.31886066348E+02  0.00000000000E+00 0.  1.
         11    1    3    3    0    0  0.10159867539E+02  0.11033086509E+02  0.32774286539E+02  0.36043109809E+02  0.51100000000E-03 0. -1.
        -11    1    3    3    0    0  0.10899551189E+02  0.42864496423E+01  0.75485076832E+00  0.11736424779E+02  0.51100000000E-03 0.  1.
        -12    1    3    3    0    0 -0.20515126465E+01 -0.56853604532E+01 -0.98098752579E+01  0.11522399064E+02  0.00000000000E+00 0.  1.
</event>
<event>
 7    1  0.6152255E-013  0.5930195E+02  0.7816164E-02  0.1266605E+00
        -11   -1    0    0    0    0  0.00000000000E+00  0.00000000000E+00  0.45593999997E+02  0.45594000000E+02  0.51100000000E-03 0.  1.
         11   -1    0    0    0    0 -0.00000000000E+00 -0.00000000000E+00 -0.45593999997E+02  0.45594000000E+02  0.51100000000E-03 0. -1.
    9900012    2    1    2    0    0 -0.22229808230E+02  0.71597713185E+01 -0.21709301711E+02  0.59301945367E+02  0.50000002443E+02 0.  0.
        -12    1    1    2    0    0  0.22229808230E+02 -0.71597713185E+01  0.21709301711E+02  0.31886054633E+02  0.00000000000E+00 0.  1.
         11    1    3    3    0    0 -0.71877943229E+01  0.10408888984E+02 -0.13492498220E+02  0.18494779414E+02  0.51100000000E-03 0. -1.
        -11    1    3    3    0    0 -0.12582594485E+02  0.15755213041E+02 -0.55867601585E+00  0.20170784345E+02  0.51100000000E-03 0.  1.
        -12    1    3    3    0    0 -0.24594194220E+01 -0.19004330706E+02 -0.76581274746E+01  0.20636381608E+02  0.00000000000E+00 0.  1.
</event>
<event>
 7    1  0.6152255E-013  0.5930196E+02  0.7816164E-02  0.1266605E+00
        -11   -1    0    0    0    0  0.00000000000E+00  0.00000000000E+00  0.45593999997E+02  0.45594000000E+02  0.51100000000E-03 0. -1.
         11   -1    0    0    0    0 -0.00000000000E+00 -0.00000000000E+00 -0.45593999997E+02  0.45594000000E+02  0.51100000000E-03 0.  1.
    9900012    2    1    2    0    0  0.50913074702E+01  0.31468619120E+02 -0.72409474555E+00  0.59301957375E+02  0.50000024342E+02 0.  0.
        -12    1    1    2    0    0 -0.50913074702E+01 -0.31468619120E+02  0.72409474555E+00  0.31886042625E+02  0.00000000000E+00 0.  1.
         11    1    3    3    0    0  0.96674042519E+01  0.34075732146E+02  0.11168948808E+02  0.37139731340E+02  0.51100000000E-03 0. -1.
        -11    1    3    3    0    0 -0.65020621056E+01  0.64699329903E+01 -0.41106574635E+01  0.10051584431E+02  0.51100000000E-03 0.  1.
         12    1    3    3    0    0  0.19259653239E+01 -0.90770460162E+01 -0.77823860906E+01  0.12110641604E+02  0.00000000000E+00 0. -1.
</event>
<event>
 7    1  0.6152255E-013  0.5930221E+02  0.7816164E-02  0.1266604E+00
        -11   -1    0    0    0    0  0.00000000000E+00  0.00000000000E+00  0.45593999997E+02  0.45594000000E+02  0.51100000000E-03 0.  1.
         11   -1    0    0    0    0 -0.00000000000E+00 -0.00000000000E+00 -0.45593999997E+02  0.45594000000E+02  0.51100000000E-03 0. -1.
    9900012    2    1    2    0    0 -0.82849748508E+01  0.97178659407E+01 -0.29216872875E+02  0.59302213397E+02  0.50000491262E+02 0.  0.
        -12    1    1    2    0    0  0.82849748508E+01 -0.97178659407E+01  0.29216872875E+02  0.31885786603E+02  0.00000000000E+00 0.  1.
         11    1    3    3    0    0  0.12607940707E+01  0.11959239843E+02 -0.20974297483E+01  0.12207056611E+02  0.51100000000E-03 0. -1.
        -11    1    3    3    0    0  0.90424756332E+01  0.91382149724E+01 -0.20712806383E+02  0.24378139531E+02  0.51100000000E-03 0.  1.
         12    1    3    3    0    0 -0.18588244555E+02 -0.11379588874E+02 -0.64066367438E+01  0.22717017255E+02  0.00000000000E+00 0. -1.
</event>
<event>
 7    1  0.6152255E-013  0.5930195E+02  0.7816164E-02  0.1266605E+00
        -11   -1    0    0    0    0  0.00000000000E+00  0.00000000000E+00  0.45593999997E+02  0.45594000000E+02  0.51100000000E-03 0.  1.
         11   -1    0    0    0    0 -0.00000000000E+00 -0.00000000000E+00 -0.45593999997E+02  0.45594000000E+02  0.51100000000E-03 0. -1.
    9900012    2    1    2    0    0 -0.19950155902E+02 -0.24005868228E+02  0.65138183709E+01  0.59301948823E+02  0.50000008746E+02 0.  0.
        -12    1    1    2    0    0  0.19950155902E+02  0.24005868228E+02 -0.65138183709E+01  0.31886051177E+02  0.00000000000E+00 0.  1.
         11    1    3    3    0    0 -0.15905798735E+02  0.36295366650E+01 -0.69337106026E+01  0.17726937490E+02  0.51100000000E-03 0. -1.
        -11    1    3    3    0    0 -0.15989200324E+02 -0.16287069392E+02  0.87349808000E+01  0.24438147357E+02  0.51100000000E-03 0.  1.
        -12    1    3    3    0    0  0.11944843157E+02 -0.11348335500E+02  0.47125481735E+01  0.17136863977E+02  0.00000000000E+00 0.  1.
</event>
<event>
 7    1  0.6152255E-013  0.5930193E+02  0.7816164E-02  0.1266605E+00
        -11   -1    0    0    0    0  0.00000000000E+00  0.00000000000E+00  0.45593999997E+02  0.45594000000E+02  0.51100000000E-03 0. -1.
         11   -1    0    0    0    0 -0.00000000000E+00 -0.00000000000E+00 -0.45593999997E+02  0.45594000000E+02  0.51100000000E-03 0.  1.
    9900012    2    1    2    0    0 -0.11643343131E+02  0.17874246090E+02  0.23699474167E+02  0.59301934260E+02  0.49999982186E+02 0.  0.
        -12    1    1    2    0    0  0.11643343131E+02 -0.17874246090E+02 -0.23699474167E+02  0.31886065740E+02  0.00000000000E+00 0.  1.
         11    1    3    3    0    0 -0.25745195801E+02  0.10184415258E+02  0.24480989720E+02  0.36957492866E+02  0.51100000000E-03 0. -1.
        -11    1    3    3    0    0  0.55210385048E+00 -0.11124952628E+01  0.50240234710E+01  0.51752561743E+01  0.51100000000E-03 0.  1.
        -12    1    3    3    0    0  0.13549748820E+02  0.88023260951E+01 -0.58055390243E+01  0.17169185220E+02  0.00000000000E+00 0.  1.
</event>
<event>
 7    1  0.6152255E-013  0.5930195E+02  0.7816164E-02  0.1266605E+00
        -11   -1    0    0    0    0  0.00000000000E+00  0.00000000000E+00  0.45593999997E+02  0.45594000000E+02  0.51100000000E-03 0. -1.
         11   -1    0    0    0    0 -0.00000000000E+00 -0.00000000000E+00 -0.45593999997E+02  0.45594000000E+02  0.51100000000E-03 0.  1.
    9900012    2    1    2    0    0 -0.58861846618E+01  0.24115087011E+01  0.31245121352E+02  0.59301950505E+02  0.50000011813E+02 0.  0.
        -12    1    1    2    0    0  0.58861846618E+01 -0.24115087011E+01 -0.31245121352E+02  0.31886049495E+02  0.00000000000E+00 0.  1.
         11    1    3    3    0    0 -0.15047275728E+02 -0.11570245801E+02  0.18641427024E+02  0.26604396187E+02  0.51100000000E-03 0. -1.
        -11    1    3    3    0    0 -0.29303657599E+01  0.17325534143E+01 -0.62821539753E+01  0.71452252344E+01  0.51100000000E-03 0.  1.
         12    1    3    3    0    0  0.12091456826E+02  0.12249201088E+02  0.18885848303E+02  0.25552329083E+02  0.00000000000E+00 0. -1.
</event>
<event>
 7    1  0.6152255E-013  0.5930195E+02  0.7816164E-02  0.1266605E+00
        -11   -1    0    0    0    0  0.00000000000E+00  0.00000000000E+00  0.45593999997E+02  0.45594000000E+02  0.51100000000E-03 0.  1.
         11   -1    0    0    0    0 -0.00000000000E+00 -0.00000000000E+00 -0.45593999997E+02  0.45594000000E+02  0.51100000000E-03 0. -1.
    9900012    2    1    2    0    0 -0.15252572965E+02  0.19475121370E+02 -0.20119606595E+02  0.59301954400E+02  0.50000018917E+02 0.  0.
        -12    1    1    2    0    0  0.15252572965E+02 -0.19475121370E+02  0.20119606595E+02  0.31886045600E+02  0.00000000000E+00 0.  1.
         11    1    3    3    0    0  0.51340980356E+01  0.12760576713E+02 -0.30314509015E+01  0.14084778149E+02  0.51100000000E-03 0. -1.
        -11    1    3    3    0    0 -0.22153936983E+02  0.37415355880E+01 -0.26762488076E+02  0.34943193624E+02  0.51100000000E-03 0.  1.
        -12    1    3    3    0    0  0.17672659817E+01  0.29730090691E+01  0.96743323823E+01  0.10273982627E+02  0.00000000000E+00 0.  1.
</event>
<event>
 7    1  0.6152255E-013  0.5930196E+02  0.7816164E-02  0.1266605E+00
        -11   -1    0    0    0    0  0.00000000000E+00  0.00000000000E+00  0.45593999997E+02  0.45594000000E+02  0.51100000000E-03 0.  1.
         11   -1    0    0    0    0 -0.00000000000E+00 -0.00000000000E+00 -0.45593999997E+02  0.45594000000E+02  0.51100000000E-03 0. -1.
    9900012    2    1    2    0    0  0.11483510375E+02  0.88220273030E+01 -0.28408106885E+02  0.59301957394E+02  0.50000024378E+02 0.  0.
        -12    1    1    2    0    0 -0.11483510375E+02 -0.88220273030E+01  0.28408106885E+02  0.31886042606E+02  0.00000000000E+00 0.  1.
         11    1    3    3    0    0  0.15071338395E+02  0.29980293247E+01 -0.15011311254E+02  0.21481919995E+02  0.51100000000E-03 0. -1.
        -11    1    3    3    0    0 -0.82672780494E+01  0.18936683045E+02 -0.11829916507E+02  0.23809510199E+02  0.51100000000E-03 0.  1.
         12    1    3    3    0    0  0.46794500298E+01 -0.13112685067E+02 -0.15668791237E+01  0.14010527200E+02  0.00000000000E+00 0. -1.
</event>
<event>
 7    1  0.6152255E-013  0.5930196E+02  0.7816164E-02  0.1266605E+00
        -11   -1    0    0    0    0  0.00000000000E+00  0.00000000000E+00  0.45593999997E+02  0.45594000000E+02  0.51100000000E-03 0. -1.
         11   -1    0    0    0    0 -0.00000000000E+00 -0.00000000000E+00 -0.45593999997E+02  0.45594000000E+02  0.51100000000E-03 0.  1.
    9900012    2    1    2    0    0  0.13819121967E+02 -0.15519897198E+02  0.24184380163E+02  0.59301959405E+02  0.50000028045E+02 0.  0.
        -12    1    1    2    0    0 -0.13819121967E+02  0.15519897198E+02 -0.24184380163E+02  0.31886040595E+02  0.00000000000E+00 0.  1.
         11    1    3    3    0    0  0.14756362020E+01 -0.21937711469E+02  0.23667505798E+02  0.32304667119E+02  0.51100000000E-03 0. -1.
        -11    1    3    3    0    0 -0.43542036905E+01  0.47915746942E+01  0.65108173202E+01  0.91819943513E+01  0.51100000000E-03 0.  1.
        -12    1    3    3    0    0  0.16697689456E+02  0.16262395775E+01 -0.59939429560E+01  0.17815297934E+02  0.00000000000E+00 0.  1.
</event>
<event>
 7    1  0.6152255E-013  0.5930195E+02  0.7816164E-02  0.1266605E+00
        -11   -1    0    0    0    0  0.00000000000E+00  0.00000000000E+00  0.45593999997E+02  0.45594000000E+02  0.51100000000E-03 0.  1.
         11   -1    0    0    0    0 -0.00000000000E+00 -0.00000000000E+00 -0.45593999997E+02  0.45594000000E+02  0.51100000000E-03 0. -1.
    9900012    2    1    2    0    0 -0.18273884941E+02  0.34080352466E+01 -0.25906963452E+02  0.59301947714E+02  0.50000006723E+02 0.  0.
        -12    1    1    2    0    0  0.18273884941E+02 -0.34080352466E+01  0.25906963452E+02  0.31886052286E+02  0.00000000000E+00 0.  1.
         11    1    3    3    0    0 -0.10179409297E+01 -0.22427164610E+01 -0.21369391721E+02  0.21510855019E+02  0.51100000000E-03 0. -1.
        -11    1    3    3    0    0  0.80963439348E+01 -0.16578188586E+01 -0.76020579920E+01  0.11228999709E+02  0.51100000000E-03 0.  1.
         12    1    3    3    0    0 -0.25352287946E+02  0.73085705662E+01  0.30644862609E+01  0.26562092987E+02  0.00000000000E+00 0. -1.
</event>
<event>
 7    1  0.6152255E-013  0.5930213E+02  0.7816164E-02  0.1266604E+00
        -11   -1    0    0    0    0  0.00000000000E+00  0.00000000000E+00  0.45593999997E+02  0.45594000000E+02  0.51100000000E-03 0.  1.
         11   -1    0    0    0    0 -0.00000000000E+00 -0.00000000000E+00 -0.45593999997E+02  0.45594000000E+02  0.51100000000E-03 0. -1.
    9900012    2    1    2    0    0  0.17473932114E+02 -0.24947703927E+02 -0.94330507361E+01  0.59302130387E+02  0.50000339874E+02 0.  0.
        -12    1    1    2    0    0 -0.17473932114E+02  0.24947703927E+02  0.94330507361E+01  0.31885869613E+02  0.00000000000E+00 0.  1.
         11    1    3    3    0    0  0.88772998519E+01 -0.22083091041E+01  0.50926314646E+01  0.10469860422E+02  0.51100000000E-03 0.  1.
        -11    1    3    3    0    0 -0.11935170401E+02 -0.19406198631E+02 -0.16214036065E+02  0.27963258100E+02  0.51100000000E-03 0. -1.
         12    1    3    3    0    0  0.20531802663E+02 -0.33331961919E+01  0.16883538641E+01  0.20869011865E+02  0.00000000000E+00 0. -1.
</event>
<event>
 7    1  0.6152255E-013  0.5930196E+02  0.7816164E-02  0.1266605E+00
        -11   -1    0    0    0    0  0.00000000000E+00  0.00000000000E+00  0.45593999997E+02  0.45594000000E+02  0.51100000000E-03 0. -1.
         11   -1    0    0    0    0 -0.00000000000E+00 -0.00000000000E+00 -0.45593999997E+02  0.45594000000E+02  0.51100000000E-03 0.  1.
    9900012    2    1    2    0    0 -0.25869334867E+02  0.68808801094E+01  0.17324854101E+02  0.59301959682E+02  0.50000028550E+02 0.  0.
        -12    1    1    2    0    0  0.25869334867E+02 -0.68808801094E+01 -0.17324854101E+02  0.31886040318E+02  0.00000000000E+00 0.  1.
         11    1    3    3    0    0 -0.28057192825E+01  0.39358644954E+01 -0.21889173040E+01  0.53060766338E+01  0.51100000000E-03 0. -1.
        -11    1    3    3    0    0 -0.11185922864E+02  0.23794617832E+02  0.11497973688E+02  0.28696900657E+02  0.51100000000E-03 0.  1.
         12    1    3    3    0    0 -0.11877692720E+02 -0.20849602218E+02  0.80157977171E+01  0.25298982392E+02  0.00000000000E+00 0. -1.
</event>
<event>
 7    1  0.6152255E-013  0.5930194E+02  0.7816164E-02  0.1266605E+00
        -11   -1    0    0    0    0  0.00000000000E+00  0.00000000000E+00  0.45593999997E+02  0.45594000000E+02  0.51100000000E-03 0.  1.
         11   -1    0    0    0    0 -0.00000000000E+00 -0.00000000000E+00 -0.45593999997E+02  0.45594000000E+02  0.51100000000E-03 0. -1.
    9900012    2    1    2    0    0 -0.18277203516E+01 -0.20676172181E+02  0.24204882915E+02  0.59301936984E+02  0.49999987153E+02 0.  0.
        -12    1    1    2    0    0  0.18277203516E+01  0.20676172181E+02 -0.24204882915E+02  0.31886063016E+02  0.00000000000E+00 0.  1.
         11    1    3    3    0    0  0.10041821467E+02 -0.87085174879E+01  0.10984768039E+02  0.17243595459E+02  0.51100000000E-03 0. -1.
        -11    1    3    3    0    0  0.91460967561E+00  0.76754201316E+01  0.16664346978E+02  0.18369786213E+02  0.51100000000E-03 0.  1.
         12    1    3    3    0    0 -0.12784151494E+02 -0.19643074825E+02 -0.34442321019E+01  0.23688555312E+02  0.00000000000E+00 0. -1.
</event>
<event>
 7    1  0.6152255E-013  0.5930194E+02  0.7816164E-02  0.1266605E+00
        -11   -1    0    0    0    0  0.00000000000E+00  0.00000000000E+00  0.45593999997E+02  0.45594000000E+02  0.51100000000E-03 0.  1.
         11   -1    0    0    0    0 -0.00000000000E+00 -0.00000000000E+00 -0.45593999997E+02  0.45594000000E+02  0.51100000000E-03 0. -1.
    9900012    2    1    2    0    0 -0.42328738146E+01  0.26640941479E+02 -0.17001870791E+02  0.59301943580E+02  0.49999999183E+02 0.  0.
        -12    1    1    2    0    0  0.42328738146E+01 -0.26640941479E+02  0.17001870791E+02  0.31886056420E+02  0.00000000000E+00 0.  1.
         11    1    3    3    0    0 -0.21899189863E+02  0.92488840746E+01  0.49984962927E+01  0.24292001538E+02  0.51100000000E-03 0. -1.
        -11    1    3    3    0    0  0.20044652870E+01  0.66635769387E+01 -0.15943950841E+01  0.71388538751E+01  0.51100000000E-03 0.  1.
        -12    1    3    3    0    0  0.15661850761E+02  0.10728480466E+02 -0.20405971999E+02  0.27871088167E+02  0.00000000000E+00 0.  1.
</event>
<event>
 7    1  0.6152255E-013  0.5930191E+02  0.7816164E-02  0.1266605E+00
        -11   -1    0    0    0    0  0.00000000000E+00  0.00000000000E+00  0.45593999997E+02  0.45594000000E+02  0.51100000000E-03 0. -1.
         11   -1    0    0    0    0 -0.00000000000E+00 -0.00000000000E+00 -0.45593999997E+02  0.45594000000E+02  0.51100000000E-03 0.  1.
    9900012    2    1    2    0    0 -0.16498191914E+02 -0.72129515162E+01  0.26315507269E+02  0.59301906968E+02  0.49999932411E+02 0.  0.
        -12    1    1    2    0    0  0.16498191914E+02  0.72129515162E+01 -0.26315507269E+02  0.31886093032E+02  0.00000000000E+00 0.  1.
         11    1    3    3    0    0  0.71748008535E+01  0.12184646532E+01  0.48277595171E+01  0.87332517205E+01  0.51100000000E-03 0. -1.
        -11    1    3    3    0    0 -0.15514827040E+02  0.13668281841E+02  0.16584928145E+02  0.26506445035E+02  0.51100000000E-03 0.  1.
        -12    1    3    3    0    0 -0.81581657280E+01 -0.22099698010E+02  0.49028196069E+01  0.24062210212E+02  0.00000000000E+00 0.  1.
</event>
<event>
 7    1  0.6152255E-013  0.5930195E+02  0.7816164E-02  0.1266605E+00
        -11   -1    0    0    0    0  0.00000000000E+00  0.00000000000E+00  0.45593999997E+02  0.45594000000E+02  0.51100000000E-03 0. -1.
         11   -1    0    0    0    0 -0.00000000000E+00 -0.00000000000E+00 -0.45593999997E+02  0.45594000000E+02  0.51100000000E-03 0.  1.
    9900012    2    1    2    0    0  0.18988089150E+02 -0.15446312381E+02  0.20434870655E+02  0.59301952354E+02  0.50000015186E+02 0.  0.
        -12    1    1    2    0    0 -0.18988089150E+02  0.15446312381E+02 -0.20434870655E+02  0.31886047646E+02  0.00000000000E+00 0.  1.
         11    1    3    3    0    0 -0.37055170108E+01 -0.10504501610E+02  0.11624256292E+02  0.16099650462E+02  0.51100000000E-03 0. -1.
        -11    1    3    3    0    0  0.11479619169E+02 -0.18771578611E+02  0.12077404923E+02  0.25100149995E+02  0.51100000000E-03 0.  1.
        -12    1    3    3    0    0  0.11213986992E+02  0.13829767840E+02 -0.32667905602E+01  0.18102151898E+02  0.00000000000E+00 0.  1.
</event>
<event>
 7    1  0.6152255E-013  0.5930195E+02  0.7816164E-02  0.1266605E+00
        -11   -1    0    0    0    0  0.00000000000E+00  0.00000000000E+00  0.45593999997E+02  0.45594000000E+02  0.51100000000E-03 0.  1.
         11   -1    0    0    0    0 -0.00000000000E+00 -0.00000000000E+00 -0.45593999997E+02  0.45594000000E+02  0.51100000000E-03 0. -1.
    9900012    2    1    2    0    0  0.23893243691E+02  0.99140343122E+01 -0.18642566497E+02  0.59301945744E+02  0.50000003130E+02 0.  0.
        -12    1    1    2    0    0 -0.23893243691E+02 -0.99140343122E+01  0.18642566497E+02  0.31886054256E+02  0.00000000000E+00 0.  1.
         11    1    3    3    0    0  0.58754576051E+01  0.21369788057E+02 -0.41344611660E+01  0.22545123931E+02  0.51100000000E-03 0. -1.
        -11    1    3    3    0    0  0.15519695860E+02 -0.63753449527E+01  0.41290693191E+01  0.17278749855E+02  0.51100000000E-03 0.  1.
        -12    1    3    3    0    0  0.24980902266E+01 -0.50804087917E+01 -0.18637174650E+02  0.19478071958E+02  0.00000000000E+00 0.  1.
</event>
<event>
 7    1  0.6152255E-013  0.5930195E+02  0.7816164E-02  0.1266605E+00
        -11   -1    0    0    0    0  0.00000000000E+00  0.00000000000E+00  0.45593999997E+02  0.45594000000E+02  0.51100000000E-03 0. -1.
         11   -1    0    0    0    0 -0.00000000000E+00 -0.00000000000E+00 -0.45593999997E+02  0.45594000000E+02  0.51100000000E-03 0.  1.
    9900012    2    1    2    0    0  0.27170469432E+02 -0.26959491663E+01  0.16468686743E+02  0.59301949851E+02  0.50000010620E+02 0.  0.
        -12    1    1    2    0    0 -0.27170469432E+02  0.26959491663E+01 -0.16468686743E+02  0.31886050149E+02  0.00000000000E+00 0.  1.
         11    1    3    3    0    0  0.10754538022E+02 -0.48224011242E+01  0.21261273959E+02  0.24309615614E+02  0.51100000000E-03 0. -1.
        -11    1    3    3    0    0  0.98777698995E+01  0.15196728387E+02  0.30920061687E+01  0.18386717876E+02  0.51100000000E-03 0.  1.
        -12    1    3    3    0    0  0.65381615110E+01 -0.13070276429E+02 -0.78845933845E+01  0.16605616361E+02  0.00000000000E+00 0.  1.
</event>
<event>
 7    1  0.6152255E-013  0.5930193E+02  0.7816164E-02  0.1266605E+00
        -11   -1    0    0    0    0  0.00000000000E+00  0.00000000000E+00  0.45593999997E+02  0.45594000000E+02  0.51100000000E-03 0.  1.
         11   -1    0    0    0    0 -0.00000000000E+00 -0.00000000000E+00 -0.45593999997E+02  0.45594000000E+02  0.51100000000E-03 0. -1.
    9900012    2    1    2    0    0  0.98073817287E+01  0.25712838502E+02  0.16105487684E+02  0.59301928844E+02  0.49999972309E+02 0.  0.
        -12    1    1    2    0    0 -0.98073817287E+01 -0.25712838502E+02 -0.16105487684E+02  0.31886071156E+02  0.00000000000E+00 0.  1.
         11    1    3    3    0    0 -0.66654057501E+01 -0.84253445098E-01 -0.26884390309E+01  0.71876586689E+01  0.51100000000E-03 0. -1.
        -11    1    3    3    0    0  0.60233705862E+01 -0.68959874490E+01 -0.49220197008E+01  0.10395283272E+02  0.51100000000E-03 0.  1.
         12    1    3    3    0    0  0.10449416893E+02  0.32693079396E+02  0.23715946416E+02  0.41718986903E+02  0.00000000000E+00 0. -1.
</event>
<event>
 7    1  0.6152255E-013  0.5930201E+02  0.7816164E-02  0.1266605E+00
        -11   -1    0    0    0    0  0.00000000000E+00  0.00000000000E+00  0.45593999997E+02  0.45594000000E+02  0.51100000000E-03 0. -1.
         11   -1    0    0    0    0 -0.00000000000E+00 -0.00000000000E+00 -0.45593999997E+02  0.45594000000E+02  0.51100000000E-03 0.  1.
    9900012    2    1    2    0    0  0.25718878798E+02 -0.18132550157E+02  0.51445110570E+01  0.59302014115E+02  0.50000127823E+02 0.  0.
        -12    1    1    2    0    0 -0.25718878798E+02  0.18132550157E+02 -0.51445110570E+01  0.31885985885E+02  0.00000000000E+00 0.  1.
         11    1    3    3    0    0  0.10034166087E+02 -0.17544089875E+02  0.15442975477E+02  0.25435508064E+02  0.51100000000E-03 0. -1.
        -11    1    3    3    0    0  0.20509757243E+02  0.25635802096E+00  0.20192683369E+01  0.20610514464E+02  0.51100000000E-03 0.  1.
        -12    1    3    3    0    0 -0.48250445325E+01 -0.84481830277E+00 -0.12317732757E+02  0.13255991587E+02  0.00000000000E+00 0.  1.
</event>
<event>
 7    1  0.6152255E-013  0.5930202E+02  0.7816164E-02  0.1266604E+00
        -11   -1    0    0    0    0  0.00000000000E+00  0.00000000000E+00  0.45593999997E+02  0.45594000000E+02  0.51100000000E-03 0.  1.
         11   -1    0    0    0    0 -0.00000000000E+00 -0.00000000000E+00 -0.45593999997E+02  0.45594000000E+02  0.51100000000E-03 0. -1.
    9900012    2    1    2    0    0  0.37781531890E+01  0.12876846127E+02 -0.28924524720E+02  0.59302019727E+02  0.50000138057E+02 0.  0.
        -12    1    1    2    0    0 -0.37781531890E+01 -0.12876846127E+02  0.28924524720E+02  0.31885980273E+02  0.00000000000E+00 0.  1.
         11    1    3    3    0    0  0.12745221952E+02 -0.23797918447E+01 -0.77300912487E+01  0.15094979391E+02  0.51100000000E-03 0. -1.
        -11    1    3    3    0    0  0.47315887367E+01 -0.93455084856E+01 -0.39950513431E+01  0.11211016739E+02  0.51100000000E-03 0.  1.
         12    1    3    3    0    0 -0.13698657500E+02  0.24602146458E+02 -0.17199382128E+02  0.32996023597E+02  0.00000000000E+00 0. -1.
</event>
<event>
 7    1  0.6152255E-013  0.5930193E+02  0.7816164E-02  0.1266605E+00
        -11   -1    0    0    0    0  0.00000000000E+00  0.00000000000E+00  0.45593999997E+02  0.45594000000E+02  0.51100000000E-03 0. -1.
         11   -1    0    0    0    0 -0.00000000000E+00 -0.00000000000E+00 -0.45593999997E+02  0.45594000000E+02  0.51100000000E-03 0.  1.
    9900012    2    1    2    0    0 -0.74790238872E+01  0.28523319393E+02  0.12132835702E+02  0.59301933299E+02  0.49999980434E+02 0.  0.
        -12    1    1    2    0    0  0.74790238872E+01 -0.28523319393E+02 -0.12132835702E+02  0.31886066701E+02  0.00000000000E+00 0.  1.
         11    1    3    3    0    0 -0.10041028156E+02  0.29896783735E+02  0.86106297570E+01  0.32692244786E+02  0.51100000000E-03 0. -1.
        -11    1    3    3    0    0  0.27148553290E+01  0.10854321943E+02 -0.44178882566E+01  0.12029317571E+02  0.51100000000E-03 0.  1.
        -12    1    3    3    0    0 -0.15285106033E+00 -0.12227786285E+02  0.79400942012E+01  0.14580370942E+02  0.00000000000E+00 0.  1.
</event>
<event>
 7    1  0.6152255E-013  0.5930194E+02  0.7816164E-02  0.1266605E+00
        -11   -1    0    0    0    0  0.00000000000E+00  0.00000000000E+00  0.45593999997E+02  0.45594000000E+02  0.51100000000E-03 0.  1.
         11   -1    0    0    0    0 -0.00000000000E+00 -0.00000000000E+00 -0.45593999997E+02  0.45594000000E+02  0.51100000000E-03 0. -1.
    9900012    2    1    2    0    0  0.13751834274E+02 -0.25271319158E+02 -0.13746568967E+02  0.59301942291E+02  0.49999996832E+02 0.  0.
        -12    1    1    2    0    0 -0.13751834274E+02  0.25271319158E+02  0.13746568967E+02  0.31886057709E+02  0.00000000000E+00 0.  1.
         11    1    3    3    0    0  0.60269883042E+01 -0.17662093799E+02  0.57364304227E+01  0.19523851557E+02  0.51100000000E-03 0. -1.
        -11    1    3    3    0    0 -0.11218016873E+02 -0.41716360022E+01  0.56634481446E+00  0.11981952938E+02  0.51100000000E-03 0.  1.
         12    1    3    3    0    0  0.18942862843E+02 -0.34375893569E+01 -0.20049344205E+02  0.27796137795E+02  0.00000000000E+00 0. -1.
</event>
<event>
 7    1  0.6152255E-013  0.5930193E+02  0.7816164E-02  0.1266605E+00
        -11   -1    0    0    0    0  0.00000000000E+00  0.00000000000E+00  0.45593999997E+02  0.45594000000E+02  0.51100000000E-03 0. -1.
         11   -1    0    0    0    0 -0.00000000000E+00 -0.00000000000E+00 -0.45593999997E+02  0.45594000000E+02  0.51100000000E-03 0.  1.
    9900012    2    1    2    0    0  0.29039819998E+01  0.17385547196E+02  0.26571241972E+02  0.59301933095E+02  0.49999980061E+02 0.  0.
        -12    1    1    2    0    0 -0.29039819998E+01 -0.17385547196E+02 -0.26571241972E+02  0.31886066905E+02  0.00000000000E+00 0.  1.
         11    1    3    3    0    0 -0.13330759031E+02  0.72249042673E+01  0.50391859405E+00  0.15171101220E+02  0.51100000000E-03 0. -1.
        -11    1    3    3    0    0 -0.62481222782E+01 -0.45763956676E+01  0.18819751770E+01  0.79702107963E+01  0.51100000000E-03 0.  1.
        -12    1    3    3    0    0  0.22482863309E+02  0.14737038596E+02  0.24185348201E+02  0.36160621078E+02  0.00000000000E+00 0.  1.
</event>
<event>
 7    1  0.6152255E-013  0.5930194E+02  0.7816164E-02  0.1266605E+00
        -11   -1    0    0    0    0  0.00000000000E+00  0.00000000000E+00  0.45593999997E+02  0.45594000000E+02  0.51100000000E-03 0.  1.
         11   -1    0    0    0    0 -0.00000000000E+00 -0.00000000000E+00 -0.45593999997E+02  0.45594000000E+02  0.51100000000E-03 0. -1.
    9900012    2    1    2    0    0 -0.16430843443E+02 -0.16263110175E+02 -0.21960403567E+02  0.59301942017E+02  0.49999996334E+02 0.  0.
        -12    1    1    2    0    0  0.16430843443E+02  0.16263110175E+02  0.21960403567E+02  0.31886057983E+02  0.00000000000E+00 0.  1.
         11    1    3    3    0    0 -0.11530883320E+01  0.96735043253E+01 -0.13027481247E-01  0.97419951041E+01  0.51100000000E-03 0. -1.
        -11    1    3    3    0    0 -0.24788182837E+02 -0.15186030618E+02 -0.95642316163E+01  0.30603007384E+02  0.51100000000E-03 0.  1.
         12    1    3    3    0    0  0.95104277260E+01 -0.10750583883E+02 -0.12383144470E+02  0.18956939529E+02  0.00000000000E+00 0. -1.
</event>
<event>
 7    1  0.6152255E-013  0.5930196E+02  0.7816164E-02  0.1266605E+00
        -11   -1    0    0    0    0  0.00000000000E+00  0.00000000000E+00  0.45593999997E+02  0.45594000000E+02  0.51100000000E-03 0. -1.
         11   -1    0    0    0    0 -0.00000000000E+00 -0.00000000000E+00 -0.45593999997E+02  0.45594000000E+02  0.51100000000E-03 0.  1.
    9900012    2    1    2    0    0 -0.64648522973E+01  0.15728898096E+02  0.26972702831E+02  0.59301964678E+02  0.50000037662E+02 0.  0.
        -12    1    1    2    0    0  0.64648522973E+01 -0.15728898096E+02 -0.26972702831E+02  0.31886035322E+02  0.00000000000E+00 0.  1.
         11    1    3    3    0    0 -0.48527952816E+00  0.21028893777E+01  0.22970110765E+02  0.23071272804E+02  0.51100000000E-03 0. -1.
        -11    1    3    3    0    0  0.50746851558E+01  0.17481701574E+02  0.12222277829E+02  0.21925929740E+02  0.51100000000E-03 0.  1.
        -12    1    3    3    0    0 -0.11054257925E+02 -0.38556928561E+01 -0.82196857639E+01  0.14304762135E+02  0.00000000000E+00 0.  1.
</event>
<event>
 7    1  0.6152255E-013  0.5930195E+02  0.7816164E-02  0.1266605E+00
        -11   -1    0    0    0    0  0.00000000000E+00  0.00000000000E+00  0.45593999997E+02  0.45594000000E+02  0.51100000000E-03 0.  1.
         11   -1    0    0    0    0 -0.00000000000E+00 -0.00000000000E+00 -0.45593999997E+02  0.45594000000E+02  0.51100000000E-03 0. -1.
    9900012    2    1    2    0    0  0.12322511952E+02 -0.86314364756E+01 -0.28113596659E+02  0.59301947978E+02  0.50000007204E+02 0.  0.
        -12    1    1    2    0    0 -0.12322511952E+02  0.86314364756E+01  0.28113596659E+02  0.31886052022E+02  0.00000000000E+00 0.  1.
         11    1    3    3    0    0 -0.33648845275E+01 -0.45656286501E+01 -0.79239264166E+01  0.97445381096E+01  0.51100000000E-03 0. -1.
        -11    1    3    3    0    0  0.11584600513E+02 -0.17690311940E+02 -0.26575031871E+02  0.33961484431E+02  0.51100000000E-03 0.  1.
        -12    1    3    3    0    0  0.41027959664E+01  0.13624504115E+02  0.63853616278E+01  0.15595925437E+02  0.00000000000E+00 0.  1.
</event>
<event>
 7    1  0.6152255E-013  0.5930194E+02  0.7816164E-02  0.1266605E+00
        -11   -1    0    0    0    0  0.00000000000E+00  0.00000000000E+00  0.45593999997E+02  0.45594000000E+02  0.51100000000E-03 0. -1.
         11   -1    0    0    0    0 -0.00000000000E+00 -0.00000000000E+00 -0.45593999997E+02  0.45594000000E+02  0.51100000000E-03 0.  1.
    9900012    2    1    2    0    0  0.14085540490E+02 -0.20113206571E+02  0.20341513050E+02  0.59301942190E+02  0.49999996649E+02 0.  0.
        -12    1    1    2    0    0 -0.14085540490E+02  0.20113206571E+02 -0.20341513050E+02  0.31886057810E+02  0.00000000000E+00 0.  1.
         11    1    3    3    0    0  0.27772582340E+01  0.23791647762E+01  0.29651073028E+01  0.47080197439E+01  0.51100000000E-03 0. -1.
        -11    1    3    3    0    0  0.18881928463E+02  0.41685122466E+00 -0.71441885377E+01  0.20192583231E+02  0.51100000000E-03 0.  1.
         12    1    3    3    0    0 -0.75736462069E+01 -0.22909222572E+02  0.24520594285E+02  0.34401339215E+02  0.00000000000E+00 0. -1.
</event>
<event>
 7    1  0.6152255E-013  0.5930213E+02  0.7816164E-02  0.1266604E+00
        -11   -1    0    0    0    0  0.00000000000E+00  0.00000000000E+00  0.45593999997E+02  0.45594000000E+02  0.51100000000E-03 0.  1.
         11   -1    0    0    0    0 -0.00000000000E+00 -0.00000000000E+00 -0.45593999997E+02  0.45594000000E+02  0.51100000000E-03 0. -1.
    9900012    2    1    2    0    0 -0.16870166194E+02  0.68022681870E+01 -0.26188460271E+02  0.59302128344E+02  0.50000336148E+02 0.  0.
        -12    1    1    2    0    0  0.16870166194E+02 -0.68022681870E+01  0.26188460271E+02  0.31885871656E+02  0.00000000000E+00 0.  1.
         11    1    3    3    0    0 -0.16101656404E+02  0.86776886976E+01 -0.12946900559E+01  0.18336898393E+02  0.51100000000E-03 0. -1.
        -11    1    3    3    0    0 -0.93159606695E+01  0.31951333060E+01  0.38327444669E+01  0.10568156436E+02  0.51100000000E-03 0.  1.
         12    1    3    3    0    0  0.85474508795E+01 -0.50705538165E+01 -0.28726514682E+02  0.30397073515E+02  0.00000000000E+00 0. -1.
</event>
<event>
 7    1  0.6152255E-013  0.5930197E+02  0.7816164E-02  0.1266605E+00
        -11   -1    0    0    0    0  0.00000000000E+00  0.00000000000E+00  0.45593999997E+02  0.45594000000E+02  0.51100000000E-03 0.  1.
         11   -1    0    0    0    0 -0.00000000000E+00 -0.00000000000E+00 -0.45593999997E+02  0.45594000000E+02  0.51100000000E-03 0. -1.
    9900012    2    1    2    0    0 -0.12224522855E+02 -0.14690434557E+02 -0.25523928448E+02  0.59301972496E+02  0.50000051920E+02 0.  0.
        -12    1    1    2    0    0  0.12224522855E+02  0.14690434557E+02  0.25523928448E+02  0.31886027504E+02  0.00000000000E+00 0.  1.
         11    1    3    3    0    0 -0.11736979800E+02 -0.36742900943E+01 -0.11076370929E+02  0.16551226412E+02  0.51100000000E-03 0. -1.
        -11    1    3    3    0    0 -0.16491408650E+02 -0.16419321933E+02 -0.96350488010E+01  0.25187196304E+02  0.51100000000E-03 0.  1.
        -12    1    3    3    0    0  0.16003865595E+02  0.54031774700E+01 -0.48125087188E+01  0.17563549781E+02  0.00000000000E+00 0.  1.
</event>
<event>
 7    1  0.6152255E-013  0.5930195E+02  0.7816164E-02  0.1266605E+00
        -11   -1    0    0    0    0  0.00000000000E+00  0.00000000000E+00  0.45593999997E+02  0.45594000000E+02  0.51100000000E-03 0. -1.
         11   -1    0    0    0    0 -0.00000000000E+00 -0.00000000000E+00 -0.45593999997E+02  0.45594000000E+02  0.51100000000E-03 0.  1.
    9900012    2    1    2    0    0 -0.46653280439E+01 -0.27705035138E+02 -0.15079328740E+02  0.59301946418E+02  0.50000004360E+02 0.  0.
        -12    1    1    2    0    0  0.46653280439E+01  0.27705035138E+02  0.15079328740E+02  0.31886053582E+02  0.00000000000E+00 0.  1.
         11    1    3    3    0    0 -0.12256305305E+01 -0.16860172554E+02  0.67816750621E+01  0.18214244581E+02  0.51100000000E-03 0. -1.
        -11    1    3    3    0    0 -0.28811618516E+01  0.51989841224E+01  0.63067954985E+01  0.86663832849E+01  0.51100000000E-03 0.  1.
        -12    1    3    3    0    0 -0.55853566178E+00 -0.16043846707E+02 -0.28167799300E+02  0.32421318552E+02  0.00000000000E+00 0.  1.
</event>
<event>
 7    1  0.6152255E-013  0.5930191E+02  0.7816164E-02  0.1266605E+00
        -11   -1    0    0    0    0  0.00000000000E+00  0.00000000000E+00  0.45593999997E+02  0.45594000000E+02  0.51100000000E-03 0.  1.
         11   -1    0    0    0    0 -0.00000000000E+00 -0.00000000000E+00 -0.45593999997E+02  0.45594000000E+02  0.51100000000E-03 0. -1.
    9900012    2    1    2    0    0  0.19256275994E+02 -0.20598898032E+02  0.14886379025E+02  0.59301905135E+02  0.49999929068E+02 0.  0.
        -12    1    1    2    0    0 -0.19256275994E+02  0.20598898032E+02 -0.14886379025E+02  0.31886094865E+02  0.00000000000E+00 0.  1.
         11    1    3    3    0    0  0.32791030184E+01 -0.51659811060E+00  0.18157225436E+01  0.37836805929E+01  0.51100000000E-03 0. -1.
        -11    1    3    3    0    0 -0.13060863694E+01  0.14821648319E+02  0.53503054594E+01  0.15811795890E+02  0.51100000000E-03 0.  1.
        -12    1    3    3    0    0  0.17283259345E+02 -0.34903948240E+02  0.77203510224E+01  0.39706428651E+02  0.00000000000E+00 0.  1.
</event>
<event>
 7    1  0.6152255E-013  0.5930189E+02  0.7816164E-02  0.1266605E+00
        -11   -1    0    0    0    0  0.00000000000E+00  0.00000000000E+00  0.45593999997E+02  0.45594000000E+02  0.51100000000E-03 0. -1.
         11   -1    0    0    0    0 -0.00000000000E+00 -0.00000000000E+00 -0.45593999997E+02  0.45594000000E+02  0.51100000000E-03 0.  1.
    9900012    2    1    2    0    0 -0.24517769286E+02  0.11490025834E+02  0.16839900133E+02  0.59301891098E+02  0.49999903468E+02 0.  0.
        -12    1    1    2    0    0  0.24517769286E+02 -0.11490025834E+02 -0.16839900133E+02  0.31886108902E+02  0.00000000000E+00 0.  1.
         11    1    3    3    0    0 -0.25186950638E+02 -0.12530192071E+02  0.14551647890E+02  0.31672364173E+02  0.51100000000E-03 0. -1.
        -11    1    3    3    0    0  0.11613638673E+01 -0.15321439447E+01 -0.28353242814E+00  0.19433532871E+01  0.51100000000E-03 0.  1.
        -12    1    3    3    0    0 -0.49218251578E+00  0.25552361850E+02  0.25717846715E+01  0.25686173637E+02  0.00000000000E+00 0.  1.
</event>
<event>
 7    1  0.6152255E-013  0.5930207E+02  0.7816164E-02  0.1266604E+00
        -11   -1    0    0    0    0  0.00000000000E+00  0.00000000000E+00  0.45593999997E+02  0.45594000000E+02  0.51100000000E-03 0. -1.
         11   -1    0    0    0    0 -0.00000000000E+00 -0.00000000000E+00 -0.45593999997E+02  0.45594000000E+02  0.51100000000E-03 0.  1.
    9900012    2    1    2    0    0  0.31862562411E+02 -0.61347689413E+00 -0.10549772692E+01  0.59302074981E+02  0.50000238827E+02 0.  0.
        -12    1    1    2    0    0 -0.31862562411E+02  0.61347689413E+00  0.10549772692E+01  0.31885925019E+02  0.00000000000E+00 0.  1.
         11    1    3    3    0    0  0.14314064010E+02 -0.10666076399E+02 -0.18743695973E+02  0.25884044375E+02  0.51100000000E-03 0. -1.
        -11    1    3    3    0    0  0.81516385138E+01 -0.49999854592E+01  0.10689221539E+02  0.14342542397E+02  0.51100000000E-03 0.  1.
        -12    1    3    3    0    0  0.93968598868E+01  0.15052584964E+02  0.69994971649E+01  0.19075488208E+02  0.00000000000E+00 0.  1.
</event>
<event>
 7    1  0.6152255E-013  0.5930194E+02  0.7816164E-02  0.1266605E+00
        -11   -1    0    0    0    0  0.00000000000E+00  0.00000000000E+00  0.45593999997E+02  0.45594000000E+02  0.51100000000E-03 0.  1.
         11   -1    0    0    0    0 -0.00000000000E+00 -0.00000000000E+00 -0.45593999997E+02  0.45594000000E+02  0.51100000000E-03 0. -1.
    9900012    2    1    2    0    0  0.33354698938E+01  0.28489477874E+02 -0.13926425324E+02  0.59301936724E+02  0.49999986680E+02 0.  0.
        -12    1    1    2    0    0 -0.33354698938E+01 -0.28489477874E+02  0.13926425324E+02  0.31886063276E+02  0.00000000000E+00 0.  1.
         11    1    3    3    0    0  0.19048541390E+02  0.92560186268E+01 -0.37847951915E+01  0.21513844027E+02  0.51100000000E-03 0. -1.
        -11    1    3    3    0    0 -0.64235521567E+00  0.17793355636E+01  0.81421565644E+01  0.83590291931E+01  0.51100000000E-03 0.  1.
         12    1    3    3    0    0 -0.15070716281E+02  0.17454123683E+02 -0.18283786697E+02  0.29429063504E+02  0.00000000000E+00 0. -1.
</event>
<event>
 7    1  0.6152255E-013  0.5930194E+02  0.7816164E-02  0.1266605E+00
        -11   -1    0    0    0    0  0.00000000000E+00  0.00000000000E+00  0.45593999997E+02  0.45594000000E+02  0.51100000000E-03 0.  1.
         11   -1    0    0    0    0 -0.00000000000E+00 -0.00000000000E+00 -0.45593999997E+02  0.45594000000E+02  0.51100000000E-03 0. -1.
    9900012    2    1    2    0    0 -0.18498110983E+02 -0.15691992625E+02 -0.20695467021E+02  0.59301935681E+02  0.49999984778E+02 0.  0.
        -12    1    1    2    0    0  0.18498110983E+02  0.15691992625E+02  0.20695467021E+02  0.31886064319E+02  0.00000000000E+00 0.  1.
         11    1    3    3    0    0 -0.56382836443E+01  0.12351327859E+02 -0.33684731464E+01  0.13989001177E+02  0.51100000000E-03 0. -1.
        -11    1    3    3    0    0 -0.34785442396E+01 -0.12818204851E+02  0.70834908496E+01  0.15052657191E+02  0.51100000000E-03 0.  1.
        -12    1    3    3    0    0 -0.93812830991E+01 -0.15225115633E+02 -0.24410484725E+02  0.30260277314E+02  0.00000000000E+00 0.  1.
</event>
<event>
 7    1  0.6152255E-013  0.5930195E+02  0.7816164E-02  0.1266605E+00
        -11   -1    0    0    0    0  0.00000000000E+00  0.00000000000E+00  0.45593999997E+02  0.45594000000E+02  0.51100000000E-03 0.  1.
         11   -1    0    0    0    0 -0.00000000000E+00 -0.00000000000E+00 -0.45593999997E+02  0.45594000000E+02  0.51100000000E-03 0. -1.
    9900012    2    1    2    0    0 -0.57141849563E+01  0.11778431515E+01 -0.31347740692E+02  0.59301951786E+02  0.50000014150E+02 0.  0.
        -12    1    1    2    0    0  0.57141849563E+01 -0.11778431515E+01  0.31347740692E+02  0.31886048214E+02  0.00000000000E+00 0.  1.
         11    1    3    3    0    0  0.79172561216E+01 -0.13548978328E+02 -0.71612059808E+01  0.17249366064E+02  0.51100000000E-03 0. -1.
        -11    1    3    3    0    0 -0.12569431038E+02  0.90018535899E+01  0.16683602189E+01  0.15550157258E+02  0.51100000000E-03 0.  1.
         12    1    3    3    0    0 -0.10620100399E+01  0.57249678899E+01 -0.25854894930E+02  0.26502428464E+02  0.00000000000E+00 0. -1.
</event>
<event>
 7    1  0.6152255E-013  0.5930195E+02  0.7816164E-02  0.1266605E+00
        -11   -1    0    0    0    0  0.00000000000E+00  0.00000000000E+00  0.45593999997E+02  0.45594000000E+02  0.51100000000E-03 0. -1.
         11   -1    0    0    0    0 -0.00000000000E+00 -0.00000000000E+00 -0.45593999997E+02  0.45594000000E+02  0.51100000000E-03 0.  1.
    9900012    2    1    2    0    0  0.62088354080E+01 -0.26179128215E+02  0.17112091872E+02  0.59301951649E+02  0.50000013899E+02 0.  0.
        -12    1    1    2    0    0 -0.62088354080E+01  0.26179128215E+02 -0.17112091872E+02  0.31886048351E+02  0.00000000000E+00 0.  1.
         11    1    3    3    0    0  0.28143075549E+01 -0.25709591347E+02  0.11127146525E+02  0.28155226944E+02  0.51100000000E-03 0. -1.
        -11    1    3    3    0    0 -0.28495252682E+01 -0.69932337936E+01 -0.10153370775E+02  0.12653697148E+02  0.51100000000E-03 0.  1.
        -12    1    3    3    0    0  0.62440531213E+01  0.65236969256E+01  0.16138316122E+02  0.18493027557E+02  0.00000000000E+00 0.  1.
</event>
<event>
 7    1  0.6152255E-013  0.5930195E+02  0.7816164E-02  0.1266605E+00
        -11   -1    0    0    0    0  0.00000000000E+00  0.00000000000E+00  0.45593999997E+02  0.45594000000E+02  0.51100000000E-03 0. -1.
         11   -1    0    0    0    0 -0.00000000000E+00 -0.00000000000E+00 -0.45593999997E+02  0.45594000000E+02  0.51100000000E-03 0.  1.
    9900012    2    1    2    0    0  0.26043737555E+02 -0.15258355214E+02 -0.10277466552E+02  0.59301953077E+02  0.50000016504E+02 0.  0.
        -12    1    1    2    0    0 -0.26043737555E+02  0.15258355214E+02  0.10277466552E+02  0.31886046923E+02  0.00000000000E+00 0.  1.
         11    1    3    3    0    0  0.31341225417E+01  0.22001271265E+00  0.58333488724E+00  0.31955296199E+01  0.51100000000E-03 0. -1.
        -11    1    3    3    0    0  0.46431694519E+01 -0.22546540836E+02  0.12035126825E+02  0.25975946647E+02  0.51100000000E-03 0.  1.
        -12    1    3    3    0    0  0.18266445561E+02  0.70681729096E+01 -0.22895928264E+02  0.30130476810E+02  0.00000000000E+00 0.  1.
</event>
<event>
 7    1  0.6152255E-013  0.5930196E+02  0.7816164E-02  0.1266605E+00
        -11   -1    0    0    0    0  0.00000000000E+00  0.00000000000E+00  0.45593999997E+02  0.45594000000E+02  0.51100000000E-03 0.  1.
         11   -1    0    0    0    0 -0.00000000000E+00 -0.00000000000E+00 -0.45593999997E+02  0.45594000000E+02  0.51100000000E-03 0. -1.
    9900012    2    1    2    0    0 -0.20778149125E+02 -0.23850813229E+02 -0.40158180178E+01  0.59301959684E+02  0.50000028553E+02 0.  0.
        -12    1    1    2    0    0  0.20778149125E+02  0.23850813229E+02  0.40158180178E+01  0.31886040316E+02  0.00000000000E+00 0.  1.
         11    1    3    3    0    0 -0.30443533239E+02 -0.13852518041E+02 -0.41403749206E+01  0.33702279995E+02  0.51100000000E-03 0. -1.
        -11    1    3    3    0    0 -0.44493585798E+01 -0.66145956654E+01  0.59625175415E+01  0.99549627464E+01  0.51100000000E-03 0.  1.
        -12    1    3    3    0    0  0.14114742694E+02 -0.33836995225E+01 -0.58379606387E+01  0.15644716942E+02  0.00000000000E+00 0.  1.
</event>
<event>
 7    1  0.6152255E-013  0.5930194E+02  0.7816164E-02  0.1266605E+00
        -11   -1    0    0    0    0  0.00000000000E+00  0.00000000000E+00  0.45593999997E+02  0.45594000000E+02  0.51100000000E-03 0.  1.
         11   -1    0    0    0    0 -0.00000000000E+00 -0.00000000000E+00 -0.45593999997E+02  0.45594000000E+02  0.51100000000E-03 0. -1.
    9900012    2    1    2    0    0 -0.11468763365E+02  0.83049893228E+01 -0.28569481381E+02  0.59301942747E+02  0.49999997664E+02 0.  0.
        -12    1    1    2    0    0  0.11468763365E+02 -0.83049893228E+01  0.28569481381E+02  0.31886057253E+02  0.00000000000E+00 0.  1.
         11    1    3    3    0    0 -0.11632043057E+02  0.11852131334E+02 -0.20857887217E+02  0.26661374726E+02  0.51100000000E-03 0. -1.
        -11    1    3    3    0    0 -0.11379586605E+02 -0.23556189885E+01 -0.14971635813E+02  0.18952409116E+02  0.51100000000E-03 0.  1.
         12    1    3    3    0    0  0.11542866297E+02 -0.11915230224E+01  0.72600416490E+01  0.13688158905E+02  0.00000000000E+00 0. -1.
</event>
<event>
 7    1  0.6152255E-013  0.5930205E+02  0.7816164E-02  0.1266604E+00
        -11   -1    0    0    0    0  0.00000000000E+00  0.00000000000E+00  0.45593999997E+02  0.45594000000E+02  0.51100000000E-03 0. -1.
         11   -1    0    0    0    0 -0.00000000000E+00 -0.00000000000E+00 -0.45593999997E+02  0.45594000000E+02  0.51100000000E-03 0.  1.
    9900012    2    1    2    0    0 -0.10609855927E+02  0.22005113310E+02  0.20491946440E+02  0.59302048180E+02  0.50000189948E+02 0.  0.
        -12    1    1    2    0    0  0.10609855927E+02 -0.22005113310E+02 -0.20491946440E+02  0.31885951820E+02  0.00000000000E+00 0.  1.
         11    1    3    3    0    0 -0.43127898980E+01  0.90329888388E+01  0.58178909569E+01  0.11577689731E+02  0.51100000000E-03 0. -1.
        -11    1    3    3    0    0 -0.19926169696E+02  0.47983212118E+01  0.22135970685E+02  0.30167487858E+02  0.51100000000E-03 0.  1.
        -12    1    3    3    0    0  0.13629103667E+02  0.81738032591E+01 -0.74619152017E+01  0.17556870591E+02  0.00000000000E+00 0.  1.
</event>
<event>
 7    1  0.6152255E-013  0.5930209E+02  0.7816164E-02  0.1266604E+00
        -11   -1    0    0    0    0  0.00000000000E+00  0.00000000000E+00  0.45593999997E+02  0.45594000000E+02  0.51100000000E-03 0.  1.
         11   -1    0    0    0    0 -0.00000000000E+00 -0.00000000000E+00 -0.45593999997E+02  0.45594000000E+02  0.51100000000E-03 0. -1.
    9900012    2    1    2    0    0  0.66524263827E+00  0.31874030880E+02 -0.56141090104E+00  0.59302085013E+02  0.50000257123E+02 0.  0.
        -12    1    1    2    0    0 -0.66524263827E+00 -0.31874030880E+02  0.56141090104E+00  0.31885914987E+02  0.00000000000E+00 0.  1.
         11    1    3    3    0    0  0.16495346879E+01  0.16762450419E+02 -0.14003131467E+02  0.21904072678E+02  0.51100000000E-03 0. -1.
        -11    1    3    3    0    0  0.92562897371E+00 -0.40488841890E+01 -0.77327554736E+01  0.87775713981E+01  0.51100000000E-03 0.  1.
        -12    1    3    3    0    0 -0.19099210233E+01  0.19160464650E+02  0.21174476039E+02  0.28620440938E+02  0.00000000000E+00 0.  1.
</event>
<event>
 7    1  0.6152255E-013  0.5930194E+02  0.7816164E-02  0.1266605E+00
        -11   -1    0    0    0    0  0.00000000000E+00  0.00000000000E+00  0.45593999997E+02  0.45594000000E+02  0.51100000000E-03 0. -1.
         11   -1    0    0    0    0 -0.00000000000E+00 -0.00000000000E+00 -0.45593999997E+02  0.45594000000E+02  0.51100000000E-03 0.  1.
    9900012    2    1    2    0    0  0.21301064363E+02  0.21084252002E+02  0.10882993498E+02  0.59301943910E+02  0.49999999785E+02 0.  0.
        -12    1    1    2    0    0 -0.21301064363E+02 -0.21084252002E+02 -0.10882993498E+02  0.31886056090E+02  0.00000000000E+00 0.  1.
         11    1    3    3    0    0  0.26019442673E+01  0.41106740250E+01  0.48879869389E+01  0.68963882929E+01  0.51100000000E-03 0. -1.
        -11    1    3    3    0    0 -0.11489944058E+02  0.70339248643E+00  0.13041060788E+02  0.17394908513E+02  0.51100000000E-03 0.  1.
         12    1    3    3    0    0  0.30189064154E+02  0.16270185491E+02 -0.70460542287E+01  0.35010647103E+02  0.00000000000E+00 0. -1.
</event>
<event>
 7    1  0.6152255E-013  0.5930195E+02  0.7816164E-02  0.1266605E+00
        -11   -1    0    0    0    0  0.00000000000E+00  0.00000000000E+00  0.45593999997E+02  0.45594000000E+02  0.51100000000E-03 0.  1.
         11   -1    0    0    0    0 -0.00000000000E+00 -0.00000000000E+00 -0.45593999997E+02  0.45594000000E+02  0.51100000000E-03 0. -1.
    9900012    2    1    2    0    0 -0.17296877441E+02  0.18899337738E+02 -0.18982964652E+02  0.59301954727E+02  0.50000019513E+02 0.  0.
        -12    1    1    2    0    0  0.17296877441E+02 -0.18899337738E+02  0.18982964652E+02  0.31886045273E+02  0.00000000000E+00 0.  1.
         11    1    3    3    0    0  0.22574803794E+01  0.69505647636E+01 -0.59907662073E+01  0.94496480468E+01  0.51100000000E-03 0. -1.
        -11    1    3    3    0    0  0.20597829973E+01  0.15050219616E+01 -0.23507245328E+02  0.23645261264E+02  0.51100000000E-03 0.  1.
        -12    1    3    3    0    0 -0.21614140818E+02  0.10443751012E+02  0.10515046883E+02  0.26207045416E+02  0.00000000000E+00 0.  1.
</event>
<event>
 7    1  0.6152255E-013  0.5930194E+02  0.7816164E-02  0.1266605E+00
        -11   -1    0    0    0    0  0.00000000000E+00  0.00000000000E+00  0.45593999997E+02  0.45594000000E+02  0.51100000000E-03 0. -1.
         11   -1    0    0    0    0 -0.00000000000E+00 -0.00000000000E+00 -0.45593999997E+02  0.45594000000E+02  0.51100000000E-03 0.  1.
    9900012    2    1    2    0    0  0.14265086059E+02  0.19555989767E+02 -0.20755519723E+02  0.59301936978E+02  0.49999987143E+02 0.  0.
        -12    1    1    2    0    0 -0.14265086059E+02 -0.19555989767E+02  0.20755519723E+02  0.31886063022E+02  0.00000000000E+00 0.  1.
         11    1    3    3    0    0  0.98004959814E+01 -0.34114801256E+01 -0.13418155159E+02  0.16962747603E+02  0.51100000000E-03 0. -1.
        -11    1    3    3    0    0  0.19441047832E+02  0.10085656917E+02 -0.48139703216E+01  0.22424297688E+02  0.51100000000E-03 0.  1.
         12    1    3    3    0    0 -0.14976457755E+02  0.12881812975E+02 -0.25233942429E+01  0.19914891687E+02  0.00000000000E+00 0. -1.
</event>
<event>
 7    1  0.6152255E-013  0.5930195E+02  0.7816164E-02  0.1266605E+00
        -11   -1    0    0    0    0  0.00000000000E+00  0.00000000000E+00  0.45593999997E+02  0.45594000000E+02  0.51100000000E-03 0. -1.
         11   -1    0    0    0    0 -0.00000000000E+00 -0.00000000000E+00 -0.45593999997E+02  0.45594000000E+02  0.51100000000E-03 0.  1.
    9900012    2    1    2    0    0  0.11801883309E+01 -0.26643893880E+02  0.17476564874E+02  0.59301949047E+02  0.50000009155E+02 0.  0.
        -12    1    1    2    0    0 -0.11801883309E+01  0.26643893880E+02 -0.17476564874E+02  0.31886050953E+02  0.00000000000E+00 0.  1.
         11    1    3    3    0    0 -0.90475042129E+01 -0.12070916284E+02  0.83395267768E+01  0.17236938810E+02  0.51100000000E-03 0. -1.
        -11    1    3    3    0    0 -0.14752331063E+01  0.69921238901E+01 -0.90444604088E+01  0.11526854452E+02  0.51100000000E-03 0.  1.
         12    1    3    3    0    0  0.11702925650E+02 -0.21565101485E+02  0.18181498506E+02  0.30538155785E+02  0.00000000000E+00 0. -1.
</event>
<event>
 7    1  0.6152255E-013  0.5930193E+02  0.7816164E-02  0.1266605E+00
        -11   -1    0    0    0    0  0.00000000000E+00  0.00000000000E+00  0.45593999997E+02  0.45594000000E+02  0.51100000000E-03 0.  1.
         11   -1    0    0    0    0 -0.00000000000E+00 -0.00000000000E+00 -0.45593999997E+02  0.45594000000E+02  0.51100000000E-03 0. -1.
    9900012    2    1    2    0    0 -0.51230240683E+01  0.21487084246E+02 -0.22995248832E+02  0.59301927275E+02  0.49999969446E+02 0.  0.
        -12    1    1    2    0    0  0.51230240683E+01 -0.21487084246E+02  0.22995248832E+02  0.31886072725E+02  0.00000000000E+00 0.  1.
         11    1    3    3    0    0 -0.17277168285E+02  0.19698841293E+02 -0.40615760988E+01  0.26514925851E+02  0.51100000000E-03 0. -1.
        -11    1    3    3    0    0  0.79313064039E+01  0.11942275537E+02 -0.53314201914E+01  0.15295345952E+02  0.51100000000E-03 0.  1.
         12    1    3    3    0    0  0.42228378129E+01 -0.10154032584E+02 -0.13602252542E+02  0.17491655471E+02  0.00000000000E+00 0. -1.
</event>
<event>
 7    1  0.6152255E-013  0.5930190E+02  0.7816164E-02  0.1266605E+00
        -11   -1    0    0    0    0  0.00000000000E+00  0.00000000000E+00  0.45593999997E+02  0.45594000000E+02  0.51100000000E-03 0.  1.
         11   -1    0    0    0    0 -0.00000000000E+00 -0.00000000000E+00 -0.45593999997E+02  0.45594000000E+02  0.51100000000E-03 0. -1.
    9900012    2    1    2    0    0  0.45341769457E+00  0.10907299160E+02 -0.29959114551E+02  0.59301901034E+02  0.49999921590E+02 0.  0.
        -12    1    1    2    0    0 -0.45341769457E+00 -0.10907299160E+02  0.29959114551E+02  0.31886098966E+02  0.00000000000E+00 0.  1.
         11    1    3    3    0    0 -0.51606698821E+01  0.87646088466E+01 -0.14444608958E+01  0.10273137272E+02  0.51100000000E-03 0. -1.
        -11    1    3    3    0    0  0.20724862561E+02  0.89266156247E+01 -0.11669835533E+02  0.25404516455E+02  0.51100000000E-03 0.  1.
         12    1    3    3    0    0 -0.15110774984E+02 -0.67839253111E+01 -0.16844818123E+02  0.23624247307E+02  0.00000000000E+00 0. -1.
</event>
<event>
 7    1  0.6152255E-013  0.5930201E+02  0.7816164E-02  0.1266605E+00
        -11   -1    0    0    0    0  0.00000000000E+00  0.00000000000E+00  0.45593999997E+02  0.45594000000E+02  0.51100000000E-03 0.  1.
         11   -1    0    0    0    0 -0.00000000000E+00 -0.00000000000E+00 -0.45593999997E+02  0.45594000000E+02  0.51100000000E-03 0. -1.
    9900012    2    1    2    0    0 -0.12321920989E+02  0.11943586017E+02 -0.26874479292E+02  0.59302005880E+02  0.50000112803E+02 0.  0.
        -12    1    1    2    0    0  0.12321920989E+02 -0.11943586017E+02  0.26874479292E+02  0.31885994120E+02  0.00000000000E+00 0.  1.
         11    1    3    3    0    0 -0.56421975397E+01  0.84442325985E+01 -0.13491156425E+01  0.10244977820E+02  0.51100000000E-03 0. -1.
        -11    1    3    3    0    0 -0.81944690272E+01  0.16322239783E+02  0.22745516493E+01  0.18404847721E+02  0.51100000000E-03 0.  1.
        -12    1    3    3    0    0  0.15147455782E+01 -0.12822886365E+02 -0.27799915299E+02  0.30652180339E+02  0.00000000000E+00 0.  1.
</event>
<event>
 7    1  0.7358152E-013  0.5930194E+02  0.7816164E-02  0.1266605E+00
        -11   -1    0    0    0    0  0.00000000000E+00  0.00000000000E+00  0.45593999997E+02  0.45594000000E+02  0.51100000000E-03 0.  1.
         11   -1    0    0    0    0 -0.00000000000E+00 -0.00000000000E+00 -0.45593999997E+02  0.45594000000E+02  0.51100000000E-03 0. -1.
    9900012    2    1    2    0    0  0.29863558955E+02  0.10591157895E+02 -0.35659775680E+01  0.59301937606E+02  0.49999988288E+02 0.  0.
        -12    1    1    2    0    0 -0.29863558955E+02 -0.10591157895E+02  0.35659775680E+01  0.31886062394E+02  0.00000000000E+00 0.  1.
         11    1    3    3    0    0  0.15341679279E+02  0.11715529961E+02 -0.15549873519E+02  0.24787483376E+02  0.51100000000E-03 0. -1.
        -11    1    3    3    0    0  0.97453972902E+01  0.12682665748E+02  0.11846643969E+02  0.19903912992E+02  0.51100000000E-03 0.  1.
        -12    1    3    3    0    0  0.47764823857E+01 -0.13807037814E+02  0.13725198294E+00  0.14610541238E+02  0.00000000000E+00 0.  1.
</event>
<event>
 7    1  0.6152255E-013  0.5930193E+02  0.7816164E-02  0.1266605E+00
        -11   -1    0    0    0    0  0.00000000000E+00  0.00000000000E+00  0.45593999997E+02  0.45594000000E+02  0.51100000000E-03 0. -1.
         11   -1    0    0    0    0 -0.00000000000E+00 -0.00000000000E+00 -0.45593999997E+02  0.45594000000E+02  0.51100000000E-03 0.  1.
    9900012    2    1    2    0    0  0.21434905192E+02 -0.22635768789E+02  0.66998624361E+01  0.59301931790E+02  0.49999977681E+02 0.  0.
        -12    1    1    2    0    0 -0.21434905192E+02  0.22635768789E+02 -0.66998624361E+01  0.31886068210E+02  0.00000000000E+00 0.  1.
         11    1    3    3    0    0  0.16613891516E+02 -0.13770574323E+02  0.45174041659E+01  0.22046701548E+02  0.51100000000E-03 0.  1.
        -11    1    3    3    0    0  0.49657440742E+01 -0.21232261247E+02  0.84557127526E+01  0.23387317296E+02  0.51100000000E-03 0. -1.
        -12    1    3    3    0    0 -0.14473039883E+00  0.12367066782E+02 -0.62732544824E+01  0.13867912946E+02  0.00000000000E+00 0.  1.
</event>
<event>
 7    1  0.6152255E-013  0.5930193E+02  0.7816164E-02  0.1266605E+00
        -11   -1    0    0    0    0  0.00000000000E+00  0.00000000000E+00  0.45593999997E+02  0.45594000000E+02  0.51100000000E-03 0.  1.
         11   -1    0    0    0    0 -0.00000000000E+00 -0.00000000000E+00 -0.45593999997E+02  0.45594000000E+02  0.51100000000E-03 0. -1.
    9900012    2    1    2    0    0  0.25119512960E+02  0.87995111389E+01 -0.17558478721E+02  0.59301929333E+02  0.49999973199E+02 0.  0.
        -12    1    1    2    0    0 -0.25119512960E+02 -0.87995111389E+01  0.17558478721E+02  0.31886070667E+02  0.00000000000E+00 0.  1.
         11    1    3    3    0    0  0.13692729137E+02 -0.65963803057E+01  0.39762291736E+01  0.15710297994E+02  0.51100000000E-03 0. -1.
        -11    1    3    3    0    0 -0.72199106148E+01  0.16908106276E+02 -0.62011782881E+01  0.19402726086E+02  0.51100000000E-03 0.  1.
         12    1    3    3    0    0  0.18646694438E+02 -0.15122148317E+01 -0.15333529606E+02  0.24188905253E+02  0.00000000000E+00 0. -1.
</event>
<event>
 7    1  0.6152255E-013  0.5930188E+02  0.7816164E-02  0.1266605E+00
        -11   -1    0    0    0    0  0.00000000000E+00  0.00000000000E+00  0.45593999997E+02  0.45594000000E+02  0.51100000000E-03 0.  1.
         11   -1    0    0    0    0 -0.00000000000E+00 -0.00000000000E+00 -0.45593999997E+02  0.45594000000E+02  0.51100000000E-03 0. -1.
    9900012    2    1    2    0    0  0.11679618984E+02  0.12367202297E+00 -0.29669785210E+02  0.59301875293E+02  0.49999874645E+02 0.  0.
        -12    1    1    2    0    0 -0.11679618984E+02 -0.12367202297E+00  0.29669785210E+02  0.31886124707E+02  0.00000000000E+00 0.  1.
         11    1    3    3    0    0 -0.97554764933E+01 -0.48485856433E+01  0.46451829278E+00  0.10903847113E+02  0.51100000000E-03 0. -1.
        -11    1    3    3    0    0  0.17696447593E+02  0.99457324721E+01 -0.29527212527E+01  0.20513420360E+02  0.51100000000E-03 0.  1.
         12    1    3    3    0    0  0.37386478843E+01 -0.49734748058E+01 -0.27181582250E+02  0.27884607820E+02  0.00000000000E+00 0. -1.
</event>
<event>
 7    1  0.6152255E-013  0.5930195E+02  0.7816164E-02  0.1266605E+00
        -11   -1    0    0    0    0  0.00000000000E+00  0.00000000000E+00  0.45593999997E+02  0.45594000000E+02  0.51100000000E-03 0. -1.
         11   -1    0    0    0    0 -0.00000000000E+00 -0.00000000000E+00 -0.45593999997E+02  0.45594000000E+02  0.51100000000E-03 0.  1.
    9900012    2    1    2    0    0  0.25743414216E+02  0.13348336235E+02  0.13259675756E+02  0.59301945731E+02  0.50000003106E+02 0.  0.
        -12    1    1    2    0    0 -0.25743414216E+02 -0.13348336235E+02 -0.13259675756E+02  0.31886054269E+02  0.00000000000E+00 0.  1.
         11    1    3    3    0    0  0.82596092510E+01  0.21189743213E+02  0.23264200664E+02  0.32533819253E+02  0.51100000000E-03 0. -1.
        -11    1    3    3    0    0  0.13535277845E+01  0.42341854713E+01 -0.32860860971E+01  0.55279947691E+01  0.51100000000E-03 0.  1.
        -12    1    3    3    0    0  0.16130277180E+02 -0.12075592450E+02 -0.67184388111E+01  0.21240131708E+02  0.00000000000E+00 0.  1.
</event>
<event>
 7    1  0.6152255E-013  0.5930195E+02  0.7816164E-02  0.1266605E+00
        -11   -1    0    0    0    0  0.00000000000E+00  0.00000000000E+00  0.45593999997E+02  0.45594000000E+02  0.51100000000E-03 0.  1.
         11   -1    0    0    0    0 -0.00000000000E+00 -0.00000000000E+00 -0.45593999997E+02  0.45594000000E+02  0.51100000000E-03 0. -1.
    9900012    2    1    2    0    0 -0.12302697213E+02 -0.15524163963E+02 -0.24987281137E+02  0.59301949067E+02  0.50000009191E+02 0.  0.
        -12    1    1    2    0    0  0.12302697213E+02  0.15524163963E+02  0.24987281137E+02  0.31886050933E+02  0.00000000000E+00 0.  1.
         11    1    3    3    0    0 -0.14072388878E+02 -0.14319031955E+02 -0.56185678524E+01  0.20847904207E+02  0.51100000000E-03 0. -1.
        -11    1    3    3    0    0 -0.14239514965E+01 -0.52291857861E+01 -0.27940167373E+02  0.28460937704E+02  0.51100000000E-03 0.  1.
        -12    1    3    3    0    0  0.31936431616E+01  0.40240537781E+01  0.85714540886E+01  0.99931071567E+01  0.00000000000E+00 0.  1.
</event>
<event>
 7    1  0.6152255E-013  0.5930193E+02  0.7816164E-02  0.1266605E+00
        -11   -1    0    0    0    0  0.00000000000E+00  0.00000000000E+00  0.45593999997E+02  0.45594000000E+02  0.51100000000E-03 0. -1.
         11   -1    0    0    0    0 -0.00000000000E+00 -0.00000000000E+00 -0.45593999997E+02  0.45594000000E+02  0.51100000000E-03 0.  1.
    9900012    2    1    2    0    0  0.21648765460E+02 -0.10277854180E+02 -0.21033735788E+02  0.59301931354E+02  0.49999976886E+02 0.  0.
        -12    1    1    2    0    0 -0.21648765460E+02  0.10277854180E+02  0.21033735788E+02  0.31886068646E+02  0.00000000000E+00 0.  1.
         11    1    3    3    0    0  0.11209439215E+01 -0.36482550987E+01  0.10219931536E+02  0.10909320850E+02  0.51100000000E-03 0. -1.
        -11    1    3    3    0    0  0.13560617744E+02  0.59110311855E+01 -0.90093514945E+00  0.14820334938E+02  0.51100000000E-03 0.  1.
         12    1    3    3    0    0  0.69672037954E+01 -0.12540630266E+02 -0.30352732175E+02  0.33572275566E+02  0.00000000000E+00 0. -1.
</event>
<event>
 7    1  0.6605067E-013  0.5930197E+02  0.7816164E-02  0.1266605E+00
        -11   -1    0    0    0    0  0.00000000000E+00  0.00000000000E+00  0.45593999997E+02  0.45594000000E+02  0.51100000000E-03 0. -1.
         11   -1    0    0    0    0 -0.00000000000E+00 -0.00000000000E+00 -0.45593999997E+02  0.45594000000E+02  0.51100000000E-03 0.  1.
    9900012    2    1    2    0    0 -0.31173799338E+02 -0.16731403485E+01  0.64895068283E+01  0.59301970729E+02  0.50000048697E+02 0.  0.
        -12    1    1    2    0    0  0.31173799338E+02  0.16731403485E+01 -0.64895068283E+01  0.31886029271E+02  0.00000000000E+00 0.  1.
         11    1    3    3    0    0 -0.26080111081E+02 -0.71096107917E+01  0.14297532659E+02  0.30580029431E+02  0.51100000000E-03 0. -1.
        -11    1    3    3    0    0 -0.14053970484E+02 -0.32250976059E+01 -0.83960037404E+00  0.14443693086E+02  0.51100000000E-03 0.  1.
        -12    1    3    3    0    0  0.89602822268E+01  0.86615680490E+01 -0.69684254568E+01  0.14278248212E+02  0.00000000000E+00 0.  1.
</event>
<event>
 7    1  0.6152255E-013  0.5930191E+02  0.7816164E-02  0.1266605E+00
        -11   -1    0    0    0    0  0.00000000000E+00  0.00000000000E+00  0.45593999997E+02  0.45594000000E+02  0.51100000000E-03 0. -1.
         11   -1    0    0    0    0 -0.00000000000E+00 -0.00000000000E+00 -0.45593999997E+02  0.45594000000E+02  0.51100000000E-03 0.  1.
    9900012    2    1    2    0    0 -0.20531909482E+02  0.24149164290E+02  0.34613562535E+01  0.59301914790E+02  0.49999946678E+02 0.  0.
        -12    1    1    2    0    0  0.20531909482E+02 -0.24149164290E+02 -0.34613562535E+01  0.31886085210E+02  0.00000000000E+00 0.  1.
         11    1    3    3    0    0 -0.29133947330E+02  0.11827540880E+02  0.52651722644E+01  0.31881023345E+02  0.51100000000E-03 0. -1.
        -11    1    3    3    0    0 -0.33309831087E+01 -0.21744354374E+01 -0.69010589013E+01  0.79654398599E+01  0.51100000000E-03 0.  1.
        -12    1    3    3    0    0  0.11933020957E+02  0.14496058848E+02  0.50972428903E+01  0.19455451585E+02  0.00000000000E+00 0.  1.
</event>
<event>
 7    1  0.6152255E-013  0.5930193E+02  0.7816164E-02  0.1266605E+00
        -11   -1    0    0    0    0  0.00000000000E+00  0.00000000000E+00  0.45593999997E+02  0.45594000000E+02  0.51100000000E-03 0. -1.
         11   -1    0    0    0    0 -0.00000000000E+00 -0.00000000000E+00 -0.45593999997E+02  0.45594000000E+02  0.51100000000E-03 0.  1.
    9900012    2    1    2    0    0  0.17500437993E+02 -0.17935502138E+02  0.19717346871E+02  0.59301931969E+02  0.49999978007E+02 0.  0.
        -12    1    1    2    0    0 -0.17500437993E+02  0.17935502138E+02 -0.19717346871E+02  0.31886068031E+02  0.00000000000E+00 0.  1.
         11    1    3    3    0    0 -0.13556433331E+01 -0.24407573205E+02  0.27771406608E+02  0.36997546187E+02  0.51100000000E-03 0. -1.
        -11    1    3    3    0    0  0.89350442346E+01  0.85391902357E+00 -0.13461679146E+01  0.90761424343E+01  0.51100000000E-03 0.  1.
        -12    1    3    3    0    0  0.99210370915E+01  0.56181520434E+01 -0.67078918226E+01  0.13228243347E+02  0.00000000000E+00 0.  1.
</event>
<event>
 7    1  0.6152255E-013  0.5930194E+02  0.7816164E-02  0.1266605E+00
        -11   -1    0    0    0    0  0.00000000000E+00  0.00000000000E+00  0.45593999997E+02  0.45594000000E+02  0.51100000000E-03 0.  1.
         11   -1    0    0    0    0 -0.00000000000E+00 -0.00000000000E+00 -0.45593999997E+02  0.45594000000E+02  0.51100000000E-03 0. -1.
    9900012    2    1    2    0    0  0.28176395394E+02  0.18497061410E+00 -0.14925736444E+02  0.59301935961E+02  0.49999985287E+02 0.  0.
        -12    1    1    2    0    0 -0.28176395394E+02 -0.18497061410E+00  0.14925736444E+02  0.31886064039E+02  0.00000000000E+00 0.  1.
         11    1    3    3    0    0  0.13315024372E+02 -0.48583834885E-02 -0.95144846913E+01  0.16365063912E+02  0.51100000000E-03 0. -1.
        -11    1    3    3    0    0  0.32179753103E+01 -0.55867604304E+01 -0.21389316367E+02  0.22339877173E+02  0.51100000000E-03 0.  1.
        -12    1    3    3    0    0  0.11643395712E+02  0.57765894280E+01  0.15978064614E+02  0.20596994876E+02  0.00000000000E+00 0.  1.
</event>
<event>
 7    1  0.6152255E-013  0.5930196E+02  0.7816164E-02  0.1266605E+00
        -11   -1    0    0    0    0  0.00000000000E+00  0.00000000000E+00  0.45593999997E+02  0.45594000000E+02  0.51100000000E-03 0. -1.
         11   -1    0    0    0    0 -0.00000000000E+00 -0.00000000000E+00 -0.45593999997E+02  0.45594000000E+02  0.51100000000E-03 0.  1.
    9900012    2    1    2    0    0 -0.21354902906E+02  0.13568596796E+01  0.23639931471E+02  0.59301963773E+02  0.50000036011E+02 0.  0.
        -12    1    1    2    0    0  0.21354902906E+02 -0.13568596796E+01 -0.23639931471E+02  0.31886036227E+02  0.00000000000E+00 0.  1.
         11    1    3    3    0    0 -0.11266656036E+02 -0.68741354714E+01  0.19146316318E+02  0.23254520110E+02  0.51100000000E-03 0. -1.
        -11    1    3    3    0    0 -0.20109857307E+02 -0.79288755879E+00 -0.34160155771E+01  0.20413333737E+02  0.51100000000E-03 0.  1.
         12    1    3    3    0    0  0.10021610437E+02  0.90238827097E+01  0.79096307294E+01  0.15634109926E+02  0.00000000000E+00 0. -1.
</event>
<event>
 7    1  0.6152255E-013  0.5930192E+02  0.7816164E-02  0.1266605E+00
        -11   -1    0    0    0    0  0.00000000000E+00  0.00000000000E+00  0.45593999997E+02  0.45594000000E+02  0.51100000000E-03 0.  1.
         11   -1    0    0    0    0 -0.00000000000E+00 -0.00000000000E+00 -0.45593999997E+02  0.45594000000E+02  0.51100000000E-03 0. -1.
    9900012    2    1    2    0    0 -0.16396207232E+02  0.25742630185E+02  0.92305701266E+01  0.59301920823E+02  0.49999957680E+02 0.  0.
        -12    1    1    2    0    0  0.16396207232E+02 -0.25742630185E+02 -0.92305701266E+01  0.31886079177E+02  0.00000000000E+00 0.  1.
         11    1    3    3    0    0 -0.22974417049E+02  0.14982714471E+02  0.81167138570E+01  0.28603961540E+02  0.51100000000E-03 0. -1.
        -11    1    3    3    0    0 -0.72655580782E+01  0.17064125025E+01 -0.87014981977E+01  0.11463692641E+02  0.51100000000E-03 0.  1.
        -12    1    3    3    0    0  0.13843767896E+02  0.90535032116E+01  0.98153544673E+01  0.19234266643E+02  0.00000000000E+00 0.  1.
</event>
<event>
 7    1  0.6152255E-013  0.5930195E+02  0.7816164E-02  0.1266605E+00
        -11   -1    0    0    0    0  0.00000000000E+00  0.00000000000E+00  0.45593999997E+02  0.45594000000E+02  0.51100000000E-03 0. -1.
         11   -1    0    0    0    0 -0.00000000000E+00 -0.00000000000E+00 -0.45593999997E+02  0.45594000000E+02  0.51100000000E-03 0.  1.
    9900012    2    1    2    0    0 -0.17660421691E+02 -0.12614550894E+02 -0.23360281129E+02  0.59301950966E+02  0.50000012653E+02 0.  0.
        -12    1    1    2    0    0  0.17660421691E+02  0.12614550894E+02  0.23360281129E+02  0.31886049034E+02  0.00000000000E+00 0.  1.
         11    1    3    3    0    0 -0.15732705115E+02 -0.63728940854E+01 -0.17537574279E+02  0.24406931415E+02  0.51100000000E-03 0. -1.
        -11    1    3    3    0    0 -0.17058056371E+02 -0.80775945682E+01 -0.54661871607E+01  0.19649529855E+02  0.51100000000E-03 0.  1.
        -12    1    3    3    0    0  0.15130339795E+02  0.18359377593E+01 -0.35651969003E+00  0.15245489696E+02  0.00000000000E+00 0.  1.
</event>
<event>
 7    1  0.6152255E-013  0.5930194E+02  0.7816164E-02  0.1266605E+00
        -11   -1    0    0    0    0  0.00000000000E+00  0.00000000000E+00  0.45593999997E+02  0.45594000000E+02  0.51100000000E-03 0.  1.
         11   -1    0    0    0    0 -0.00000000000E+00 -0.00000000000E+00 -0.45593999997E+02  0.45594000000E+02  0.51100000000E-03 0. -1.
    9900012    2    1    2    0    0  0.43098139566E+01  0.33616692569E+00 -0.31591664896E+02  0.59301940422E+02  0.49999993424E+02 0.  0.
        -12    1    1    2    0    0 -0.43098139566E+01 -0.33616692569E+00  0.31591664896E+02  0.31886059578E+02  0.00000000000E+00 0.  1.
         11    1    3    3    0    0  0.94405061230E+01  0.12940011512E+02 -0.41271765594E+01  0.16540877861E+02  0.51100000000E-03 0. -1.
        -11    1    3    3    0    0 -0.98981669659E+01  0.48700759145E+01 -0.15434848360E+01  0.11138837210E+02  0.51100000000E-03 0.  1.
        -12    1    3    3    0    0  0.47674747995E+01 -0.17473920501E+02 -0.25921003500E+02  0.31622225350E+02  0.00000000000E+00 0.  1.
</event>
<event>
 7    1  0.6152255E-013  0.5930194E+02  0.7816164E-02  0.1266605E+00
        -11   -1    0    0    0    0  0.00000000000E+00  0.00000000000E+00  0.45593999997E+02  0.45594000000E+02  0.51100000000E-03 0.  1.
         11   -1    0    0    0    0 -0.00000000000E+00 -0.00000000000E+00 -0.45593999997E+02  0.45594000000E+02  0.51100000000E-03 0. -1.
    9900012    2    1    2    0    0 -0.20249878253E+02  0.83320472975E+01 -0.23178448647E+02  0.59301936224E+02  0.49999985768E+02 0.  0.
        -12    1    1    2    0    0  0.20249878253E+02 -0.83320472975E+01  0.23178448647E+02  0.31886063776E+02  0.00000000000E+00 0.  1.
         11    1    3    3    0    0  0.11992567137E+02 -0.25717917671E+01 -0.70598418082E+01  0.14151930824E+02  0.51100000000E-03 0. -1.
        -11    1    3    3    0    0 -0.12033800033E+02 -0.57310859326E+01 -0.13291048285E+02  0.18823114885E+02  0.51100000000E-03 0.  1.
        -12    1    3    3    0    0 -0.20208645357E+02  0.16634924997E+02 -0.28275585532E+01  0.26326890515E+02  0.00000000000E+00 0.  1.
</event>
<event>
 7    1  0.6152255E-013  0.5930195E+02  0.7816164E-02  0.1266605E+00
        -11   -1    0    0    0    0  0.00000000000E+00  0.00000000000E+00  0.45593999997E+02  0.45594000000E+02  0.51100000000E-03 0. -1.
         11   -1    0    0    0    0 -0.00000000000E+00 -0.00000000000E+00 -0.45593999997E+02  0.45594000000E+02  0.51100000000E-03 0.  1.
    9900012    2    1    2    0    0 -0.27816008059E+02 -0.15224900401E+02 -0.33455321379E+01  0.59301945339E+02  0.50000002391E+02 0.  0.
        -12    1    1    2    0    0  0.27816008059E+02  0.15224900401E+02  0.33455321379E+01  0.31886054661E+02  0.00000000000E+00 0.  1.
         11    1    3    3    0    0 -0.33291990872E+01 -0.11741721470E+02 -0.15845356050E+02  0.20000672444E+02  0.51100000000E-03 0. -1.
        -11    1    3    3    0    0  0.52317419796E+01 -0.21347961436E+01 -0.22675536871E+01  0.60885366633E+01  0.51100000000E-03 0.  1.
         12    1    3    3    0    0 -0.29718550952E+02 -0.13483827883E+01  0.14767377599E+02  0.33212736231E+02  0.00000000000E+00 0. -1.
</event>
<event>
 7    1  0.6152255E-013  0.5930195E+02  0.7816164E-02  0.1266605E+00
        -11   -1    0    0    0    0  0.00000000000E+00  0.00000000000E+00  0.45593999997E+02  0.45594000000E+02  0.51100000000E-03 0.  1.
         11   -1    0    0    0    0 -0.00000000000E+00 -0.00000000000E+00 -0.45593999997E+02  0.45594000000E+02  0.51100000000E-03 0. -1.
    9900012    2    1    2    0    0 -0.52448505609E+01  0.13158604309E+02 -0.28566815115E+02  0.59301948965E+02  0.50000009005E+02 0.  0.
        -12    1    1    2    0    0  0.52448505609E+01 -0.13158604309E+02  0.28566815115E+02  0.31886051035E+02  0.00000000000E+00 0.  1.
         11    1    3    3    0    0 -0.14765024616E+02  0.18998857029E+02 -0.31253129285E+02  0.39442624288E+02  0.51100000000E-03 0. -1.
        -11    1    3    3    0    0 -0.24394081927E+01  0.34799588943E+01  0.19587854544E+01  0.46794943054E+01  0.51100000000E-03 0.  1.
        -12    1    3    3    0    0  0.11959582248E+02 -0.93202116144E+01  0.72752871599E+00  0.15179830372E+02  0.00000000000E+00 0.  1.
</event>
<event>
 7    1  0.6152255E-013  0.5930195E+02  0.7816164E-02  0.1266605E+00
        -11   -1    0    0    0    0  0.00000000000E+00  0.00000000000E+00  0.45593999997E+02  0.45594000000E+02  0.51100000000E-03 0. -1.
         11   -1    0    0    0    0 -0.00000000000E+00 -0.00000000000E+00 -0.45593999997E+02  0.45594000000E+02  0.51100000000E-03 0.  1.
    9900012    2    1    2    0    0 -0.29723856667E+02  0.80806648747E+01 -0.82410770040E+01  0.59301950540E+02  0.50000011876E+02 0.  0.
        -12    1    1    2    0    0  0.29723856667E+02 -0.80806648747E+01  0.82410770040E+01  0.31886049460E+02  0.00000000000E+00 0.  1.
         11    1    3    3    0    0 -0.92571355715E+01 -0.16243612340E+01  0.90017671137E+01  0.13014027810E+02  0.51100000000E-03 0. -1.
        -11    1    3    3    0    0 -0.57243602216E+01 -0.13880217899E+02 -0.43528382665E+01  0.15632528590E+02  0.51100000000E-03 0.  1.
        -12    1    3    3    0    0 -0.14742360874E+02  0.23585244008E+02 -0.12890005851E+02  0.30655394140E+02  0.00000000000E+00 0.  1.
</event>
<event>
 7    1  0.6152255E-013  0.5930195E+02  0.7816164E-02  0.1266605E+00
        -11   -1    0    0    0    0  0.00000000000E+00  0.00000000000E+00  0.45593999997E+02  0.45594000000E+02  0.51100000000E-03 0.  1.
         11   -1    0    0    0    0 -0.00000000000E+00 -0.00000000000E+00 -0.45593999997E+02  0.45594000000E+02  0.51100000000E-03 0. -1.
    9900012    2    1    2    0    0  0.27128293391E+02  0.92157412392E+00 -0.16731013673E+02  0.59301946314E+02  0.50000004169E+02 0.  0.
        -12    1    1    2    0    0 -0.27128293391E+02 -0.92157412392E+00  0.16731013673E+02  0.31886053686E+02  0.00000000000E+00 0.  1.
         11    1    3    3    0    0 -0.95448344532E+01  0.83306103495E+00 -0.24985423344E+01  0.99015437930E+01  0.51100000000E-03 0. -1.
        -11    1    3    3    0    0  0.12210458497E+02  0.12910137127E+02  0.11127573619E+01  0.17804638905E+02  0.51100000000E-03 0.  1.
         12    1    3    3    0    0  0.24462669347E+02 -0.12821624038E+02 -0.15345228701E+02  0.31595763615E+02  0.00000000000E+00 0. -1.
</event>
<event>
 7    1  0.6152255E-013  0.5930194E+02  0.7816164E-02  0.1266605E+00
        -11   -1    0    0    0    0  0.00000000000E+00  0.00000000000E+00  0.45593999997E+02  0.45594000000E+02  0.51100000000E-03 0.  1.
         11   -1    0    0    0    0 -0.00000000000E+00 -0.00000000000E+00 -0.45593999997E+02  0.45594000000E+02  0.51100000000E-03 0. -1.
    9900012    2    1    2    0    0  0.27341112910E+02 -0.12323316410E+02 -0.10831433061E+02  0.59301944667E+02  0.50000001167E+02 0.  0.
        -12    1    1    2    0    0 -0.27341112910E+02  0.12323316410E+02  0.10831433061E+02  0.31886055333E+02  0.00000000000E+00 0.  1.
         11    1    3    3    0    0  0.15784558323E+01  0.11960630328E+02  0.41827331449E+01  0.12768847148E+02  0.51100000000E-03 0.  1.
        -11    1    3    3    0    0  0.82723343111E+01  0.22633450720E+01 -0.11789439947E+02  0.14578927958E+02  0.51100000000E-03 0. -1.
         12    1    3    3    0    0  0.17490322767E+02 -0.26547291810E+02 -0.32247262591E+01  0.31954169562E+02  0.00000000000E+00 0. -1.
</event>
<event>
 7    1  0.6152255E-013  0.5930196E+02  0.7816164E-02  0.1266605E+00
        -11   -1    0    0    0    0  0.00000000000E+00  0.00000000000E+00  0.45593999997E+02  0.45594000000E+02  0.51100000000E-03 0. -1.
         11   -1    0    0    0    0 -0.00000000000E+00 -0.00000000000E+00 -0.45593999997E+02  0.45594000000E+02  0.51100000000E-03 0.  1.
    9900012    2    1    2    0    0 -0.22252356751E+02 -0.13478820788E+02  0.18435662471E+02  0.59301958515E+02  0.50000026422E+02 0.  0.
        -12    1    1    2    0    0  0.22252356751E+02  0.13478820788E+02 -0.18435662471E+02  0.31886041485E+02  0.00000000000E+00 0.  1.
         11    1    3    3    0    0 -0.20259860642E+02 -0.97202542430E+01 -0.18319072843E+01  0.22545535707E+02  0.51100000000E-03 0. -1.
        -11    1    3    3    0    0 -0.15080780948E+02  0.35446481172E+01  0.82897341825E+01  0.17570264009E+02  0.51100000000E-03 0.  1.
         12    1    3    3    0    0  0.13088284839E+02 -0.73032146624E+01  0.11977835573E+02  0.19186158799E+02  0.00000000000E+00 0. -1.
</event>
<event>
 7    1  0.6152255E-013  0.5930196E+02  0.7816164E-02  0.1266605E+00
        -11   -1    0    0    0    0  0.00000000000E+00  0.00000000000E+00  0.45593999997E+02  0.45594000000E+02  0.51100000000E-03 0.  1.
         11   -1    0    0    0    0 -0.00000000000E+00 -0.00000000000E+00 -0.45593999997E+02  0.45594000000E+02  0.51100000000E-03 0. -1.
    9900012    2    1    2    0    0  0.59118618972E+01 -0.89350036728E+01 -0.30032231975E+02  0.59301962944E+02  0.50000034500E+02 0.  0.
        -12    1    1    2    0    0 -0.59118618972E+01  0.89350036728E+01  0.30032231975E+02  0.31886037056E+02  0.00000000000E+00 0.  1.
         11    1    3    3    0    0  0.50310937877E+01  0.70732095299E+01 -0.11525465480E+01  0.87561727690E+01  0.51100000000E-03 0. -1.
        -11    1    3    3    0    0  0.18715704489E+02 -0.53739220707E+01 -0.20148895011E+02  0.28020253449E+02  0.51100000000E-03 0.  1.
        -12    1    3    3    0    0 -0.17834936379E+02 -0.10634291132E+02 -0.87307904156E+01  0.22525536726E+02  0.00000000000E+00 0.  1.
</event>
<event>
 7    1  0.6152255E-013  0.5930195E+02  0.7816164E-02  0.1266605E+00
        -11   -1    0    0    0    0  0.00000000000E+00  0.00000000000E+00  0.45593999997E+02  0.45594000000E+02  0.51100000000E-03 0. -1.
         11   -1    0    0    0    0 -0.00000000000E+00 -0.00000000000E+00 -0.45593999997E+02  0.45594000000E+02  0.51100000000E-03 0.  1.
    9900012    2    1    2    0    0 -0.17779276442E+02  0.26456487352E+02 -0.81952761961E+00  0.59301952592E+02  0.50000015619E+02 0.  0.
        -12    1    1    2    0    0  0.17779276442E+02 -0.26456487352E+02  0.81952761961E+00  0.31886047408E+02  0.00000000000E+00 0.  1.
         11    1    3    3    0    0 -0.50251409370E+01  0.12170027153E+02 -0.17128774870E+02  0.21604548854E+02  0.51100000000E-03 0. -1.
        -11    1    3    3    0    0  0.20354741686E+01 -0.15093453209E+01 -0.60637863071E+01  0.65719694939E+01  0.51100000000E-03 0.  1.
         12    1    3    3    0    0 -0.14789609673E+02  0.15795805520E+02  0.22373033558E+02  0.31125434244E+02  0.00000000000E+00 0. -1.
</event>
<event>
 7    1  0.6152255E-013  0.5930196E+02  0.7816164E-02  0.1266605E+00
        -11   -1    0    0    0    0  0.00000000000E+00  0.00000000000E+00  0.45593999997E+02  0.45594000000E+02  0.51100000000E-03 0.  1.
         11   -1    0    0    0    0 -0.00000000000E+00 -0.00000000000E+00 -0.45593999997E+02  0.45594000000E+02  0.51100000000E-03 0. -1.
    9900012    2    1    2    0    0 -0.27210055413E+02  0.28168431981E+01 -0.16382854891E+02  0.59301958295E+02  0.50000026021E+02 0.  0.
        -12    1    1    2    0    0  0.27210055413E+02 -0.28168431981E+01  0.16382854891E+02  0.31886041705E+02  0.00000000000E+00 0.  1.
         11    1    3    3    0    0 -0.13354394813E+02  0.51616169995E+01 -0.15544115187E+02  0.21132952186E+02  0.51100000000E-03 0. -1.
        -11    1    3    3    0    0 -0.22674134865E+02  0.79380096373E+01 -0.37473316155E+01  0.24314005910E+02  0.51100000000E-03 0.  1.
        -12    1    3    3    0    0  0.88184742654E+01 -0.10282783439E+02  0.29085919115E+01  0.13855000199E+02  0.00000000000E+00 0.  1.
</event>
<event>
 7    1  0.6152255E-013  0.5930197E+02  0.7816164E-02  0.1266605E+00
        -11   -1    0    0    0    0  0.00000000000E+00  0.00000000000E+00  0.45593999997E+02  0.45594000000E+02  0.51100000000E-03 0.  1.
         11   -1    0    0    0    0 -0.00000000000E+00 -0.00000000000E+00 -0.45593999997E+02  0.45594000000E+02  0.51100000000E-03 0. -1.
    9900012    2    1    2    0    0 -0.25415434818E+02  0.12948072333E+02 -0.14252085935E+02  0.59301970809E+02  0.50000048842E+02 0.  0.
        -12    1    1    2    0    0  0.25415434818E+02 -0.12948072333E+02  0.14252085935E+02  0.31886029191E+02  0.00000000000E+00 0.  1.
         11    1    3    3    0    0  0.38080524378E+00 -0.94057220964E+01 -0.91438028577E+01  0.13123328532E+02  0.51100000000E-03 0. -1.
        -11    1    3    3    0    0  0.11051393012E+01  0.45518679016E+01 -0.12271131616E+02  0.13134744218E+02  0.51100000000E-03 0.  1.
         12    1    3    3    0    0 -0.26901379363E+02  0.17801926527E+02  0.71628485395E+01  0.33043898059E+02  0.00000000000E+00 0. -1.
</event>
<event>
 7    1  0.6152255E-013  0.5930196E+02  0.7816164E-02  0.1266605E+00
        -11   -1    0    0    0    0  0.00000000000E+00  0.00000000000E+00  0.45593999997E+02  0.45594000000E+02  0.51100000000E-03 0.  1.
         11   -1    0    0    0    0 -0.00000000000E+00 -0.00000000000E+00 -0.45593999997E+02  0.45594000000E+02  0.51100000000E-03 0. -1.
    9900012    2    1    2    0    0 -0.20821920189E+02 -0.19232985587E+01 -0.24072146287E+02  0.59301958155E+02  0.50000025764E+02 0.  0.
        -12    1    1    2    0    0  0.20821920189E+02  0.19232985587E+01  0.24072146287E+02  0.31886041845E+02  0.00000000000E+00 0.  1.
         11    1    3    3    0    0 -0.15402976778E+02  0.50614331919E+01  0.12027191374E+01  0.16257808375E+02  0.51100000000E-03 0. -1.
        -11    1    3    3    0    0 -0.19725625185E+01  0.13414897819E+02 -0.13970204985E+02  0.19468361872E+02  0.51100000000E-03 0.  1.
         12    1    3    3    0    0 -0.34463808923E+01 -0.20399629569E+02 -0.11304660439E+02  0.23575787908E+02  0.00000000000E+00 0. -1.
</event>
<event>
 7    1  0.6152255E-013  0.5930195E+02  0.7816164E-02  0.1266605E+00
        -11   -1    0    0    0    0  0.00000000000E+00  0.00000000000E+00  0.45593999997E+02  0.45594000000E+02  0.51100000000E-03 0. -1.
         11   -1    0    0    0    0 -0.00000000000E+00 -0.00000000000E+00 -0.45593999997E+02  0.45594000000E+02  0.51100000000E-03 0.  1.
    9900012    2    1    2    0    0  0.25483858496E+02 -0.18711689083E+02 -0.41431842781E+01  0.59301947749E+02  0.50000006787E+02 0.  0.
        -12    1    1    2    0    0 -0.25483858496E+02  0.18711689083E+02  0.41431842781E+01  0.31886052251E+02  0.00000000000E+00 0.  1.
         11    1    3    3    0    0  0.10611710029E+01  0.10587552201E+02  0.53321087743E+01  0.11901837242E+02  0.51100000000E-03 0. -1.
        -11    1    3    3    0    0  0.48425386881E+00 -0.10339439876E+01 -0.10287849909E+02  0.10351009516E+02  0.51100000000E-03 0.  1.
         12    1    3    3    0    0  0.23938433624E+02 -0.28265297296E+02  0.81255685690E+00  0.37049100991E+02  0.00000000000E+00 0. -1.
</event>
<event>
 7    1  0.6152255E-013  0.5930195E+02  0.7816164E-02  0.1266605E+00
        -11   -1    0    0    0    0  0.00000000000E+00  0.00000000000E+00  0.45593999997E+02  0.45594000000E+02  0.51100000000E-03 0.  1.
         11   -1    0    0    0    0 -0.00000000000E+00 -0.00000000000E+00 -0.45593999997E+02  0.45594000000E+02  0.51100000000E-03 0. -1.
    9900012    2    1    2    0    0  0.11831409666E+02  0.10100040613E+02 -0.27833918706E+02  0.59301951239E+02  0.50000013151E+02 0.  0.
        -12    1    1    2    0    0 -0.11831409666E+02 -0.10100040613E+02  0.27833918706E+02  0.31886048761E+02  0.00000000000E+00 0.  1.
         11    1    3    3    0    0 -0.74528458705E+01 -0.56827278296E+01 -0.77955927038E+01  0.12190552613E+02  0.51100000000E-03 0. -1.
        -11    1    3    3    0    0  0.48943513952E+01  0.20473208796E+02 -0.23537397088E+02  0.31577143884E+02  0.51100000000E-03 0.  1.
         12    1    3    3    0    0  0.14389904141E+02 -0.46904403534E+01  0.34990710849E+01  0.15534254741E+02  0.00000000000E+00 0. -1.
</event>
<event>
 7    1  0.6152255E-013  0.5930183E+02  0.7816164E-02  0.1266605E+00
        -11   -1    0    0    0    0  0.00000000000E+00  0.00000000000E+00  0.45593999997E+02  0.45594000000E+02  0.51100000000E-03 0. -1.
         11   -1    0    0    0    0 -0.00000000000E+00 -0.00000000000E+00 -0.45593999997E+02  0.45594000000E+02  0.51100000000E-03 0.  1.
    9900012    2    1    2    0    0  0.25004913561E+02 -0.19360245821E+02  0.40820401906E+01  0.59301829446E+02  0.49999791031E+02 0.  0.
        -12    1    1    2    0    0 -0.25004913561E+02  0.19360245821E+02 -0.40820401906E+01  0.31886170554E+02  0.00000000000E+00 0.  1.
         11    1    3    3    0    0  0.22197927262E+01 -0.77062381285E+01 -0.29558670339E+00  0.80250207227E+01  0.51100000000E-03 0. -1.
        -11    1    3    3    0    0  0.52467657898E+01  0.16478326877E+02 -0.23414565508E+01  0.17451252876E+02  0.51100000000E-03 0.  1.
         12    1    3    3    0    0  0.17538355045E+02 -0.28132334570E+02  0.67190834448E+01  0.33825555847E+02  0.00000000000E+00 0. -1.
</event>
<event>
 7    1  0.6152255E-013  0.5930191E+02  0.7816164E-02  0.1266605E+00
        -11   -1    0    0    0    0  0.00000000000E+00  0.00000000000E+00  0.45593999997E+02  0.45594000000E+02  0.51100000000E-03 0. -1.
         11   -1    0    0    0    0 -0.00000000000E+00 -0.00000000000E+00 -0.45593999997E+02  0.45594000000E+02  0.51100000000E-03 0.  1.
    9900012    2    1    2    0    0 -0.21976573465E+02 -0.22633666219E+02 -0.46336167115E+01  0.59301905356E+02  0.49999929473E+02 0.  0.
        -12    1    1    2    0    0  0.21976573465E+02  0.22633666219E+02  0.46336167115E+01  0.31886094644E+02  0.00000000000E+00 0.  1.
         11    1    3    3    0    0  0.27655269769E+00  0.94315174988E+01  0.66934484003E+01  0.11568589174E+02  0.51100000000E-03 0. -1.
        -11    1    3    3    0    0  0.31688398643E+01 -0.15729178842E+02 -0.23974616178E+01  0.16223329979E+02  0.51100000000E-03 0.  1.
        -12    1    3    3    0    0 -0.25421966027E+02 -0.16336004876E+02 -0.89296034940E+01  0.31509986204E+02  0.00000000000E+00 0.  1.
</event>
<event>
 7    1  0.6152255E-013  0.5930197E+02  0.7816164E-02  0.1266605E+00
        -11   -1    0    0    0    0  0.00000000000E+00  0.00000000000E+00  0.45593999997E+02  0.45594000000E+02  0.51100000000E-03 0. -1.
         11   -1    0    0    0    0 -0.00000000000E+00 -0.00000000000E+00 -0.45593999997E+02  0.45594000000E+02  0.51100000000E-03 0.  1.
    9900012    2    1    2    0    0  0.22789904312E+02 -0.19637499055E+02 -0.10569196738E+02  0.59301968147E+02  0.50000043987E+02 0.  0.
        -12    1    1    2    0    0 -0.22789904312E+02  0.19637499055E+02  0.10569196738E+02  0.31886031853E+02  0.00000000000E+00 0.  1.
         11    1    3    3    0    0 -0.87490864894E+00  0.12526148403E+02  0.28447894391E+01  0.12874885870E+02  0.51100000000E-03 0. -1.
        -11    1    3    3    0    0  0.84055061888E+01 -0.37693060169E+01  0.37043040261E+01  0.99288504228E+01  0.51100000000E-03 0.  1.
        -12    1    3    3    0    0  0.15259306772E+02 -0.28394341440E+02 -0.17118290203E+02  0.36498231854E+02  0.00000000000E+00 0.  1.
</event>
<event>
 7    1  0.6152255E-013  0.5930194E+02  0.7816164E-02  0.1266605E+00
        -11   -1    0    0    0    0  0.00000000000E+00  0.00000000000E+00  0.45593999997E+02  0.45594000000E+02  0.51100000000E-03 0. -1.
         11   -1    0    0    0    0 -0.00000000000E+00 -0.00000000000E+00 -0.45593999997E+02  0.45594000000E+02  0.51100000000E-03 0.  1.
    9900012    2    1    2    0    0  0.19741221663E+02 -0.20706996444E+02 -0.14079254034E+02  0.59301938333E+02  0.49999989614E+02 0.  0.
        -12    1    1    2    0    0 -0.19741221663E+02  0.20706996444E+02  0.14079254034E+02  0.31886061667E+02  0.00000000000E+00 0.  1.
         11    1    3    3    0    0  0.17832401047E+01 -0.96614222365E+01 -0.15903343196E+02  0.18693296927E+02  0.51100000000E-03 0. -1.
        -11    1    3    3    0    0  0.62309901573E+01 -0.21724959212E+02 -0.53112491841E+01  0.23216555715E+02  0.51100000000E-03 0.  1.
         12    1    3    3    0    0  0.11726991401E+02  0.10679385004E+02  0.71353383469E+01  0.17392085692E+02  0.00000000000E+00 0. -1.
</event>
<event>
 7    1  0.6152255E-013  0.5930196E+02  0.7816164E-02  0.1266605E+00
        -11   -1    0    0    0    0  0.00000000000E+00  0.00000000000E+00  0.45593999997E+02  0.45594000000E+02  0.51100000000E-03 0. -1.
         11   -1    0    0    0    0 -0.00000000000E+00 -0.00000000000E+00 -0.45593999997E+02  0.45594000000E+02  0.51100000000E-03 0.  1.
    9900012    2    1    2    0    0 -0.12550672165E+02  0.21387939280E+02 -0.20043854979E+02  0.59301961663E+02  0.50000032162E+02 0.  0.
        -12    1    1    2    0    0  0.12550672165E+02 -0.21387939280E+02  0.20043854979E+02  0.31886038337E+02  0.00000000000E+00 0.  1.
         11    1    3    3    0    0 -0.16526490630E+02  0.18597933463E+02 -0.23074775853E+01  0.24986645928E+02  0.51100000000E-03 0. -1.
        -11    1    3    3    0    0  0.86256707424E+00  0.91027824949E+01  0.50646832209E+01  0.10452544547E+02  0.51100000000E-03 0.  1.
        -12    1    3    3    0    0  0.31132513912E+01 -0.63127766784E+01 -0.22801060615E+02  0.23862771188E+02  0.00000000000E+00 0.  1.
</event>
<event>
 7    1  0.6152255E-013  0.5930202E+02  0.7816164E-02  0.1266604E+00
        -11   -1    0    0    0    0  0.00000000000E+00  0.00000000000E+00  0.45593999997E+02  0.45594000000E+02  0.51100000000E-03 0.  1.
         11   -1    0    0    0    0 -0.00000000000E+00 -0.00000000000E+00 -0.45593999997E+02  0.45594000000E+02  0.51100000000E-03 0. -1.
    9900012    2    1    2    0    0  0.30152966606E+02 -0.10338337285E+02  0.79565274751E+00  0.59302020694E+02  0.50000139821E+02 0.  0.
        -12    1    1    2    0    0 -0.30152966606E+02  0.10338337285E+02 -0.79565274751E+00  0.31885979306E+02  0.00000000000E+00 0.  1.
         11    1    3    3    0    0  0.23793612862E+02  0.14611455196E+01 -0.15098100577E+02  0.28217434337E+02  0.51100000000E-03 0. -1.
        -11    1    3    3    0    0  0.10519363434E+02 -0.81022678611E+01 -0.98255798703E+00  0.13314246956E+02  0.51100000000E-03 0.  1.
         12    1    3    3    0    0 -0.41600096894E+01 -0.36972149435E+01  0.16876311312E+02  0.17770339401E+02  0.00000000000E+00 0. -1.
</event>
<event>
 7    1  0.6152255E-013  0.5930193E+02  0.7816164E-02  0.1266605E+00
        -11   -1    0    0    0    0  0.00000000000E+00  0.00000000000E+00  0.45593999997E+02  0.45594000000E+02  0.51100000000E-03 0. -1.
         11   -1    0    0    0    0 -0.00000000000E+00 -0.00000000000E+00 -0.45593999997E+02  0.45594000000E+02  0.51100000000E-03 0.  1.
    9900012    2    1    2    0    0  0.28717427543E+02  0.96944202968E+01  0.99019649271E+01  0.59301931898E+02  0.49999977879E+02 0.  0.
        -12    1    1    2    0    0 -0.28717427543E+02 -0.96944202968E+01 -0.99019649271E+01  0.31886068102E+02  0.00000000000E+00 0.  1.
         11    1    3    3    0    0  0.96870151394E+01  0.59939831651E+01 -0.21597941281E+01  0.11594430018E+02  0.51100000000E-03 0. -1.
        -11    1    3    3    0    0  0.12688842018E+02  0.21915140947E+02  0.12864385871E+02  0.28403741630E+02  0.51100000000E-03 0.  1.
         12    1    3    3    0    0  0.63415703858E+01 -0.18214703815E+02 -0.80262681622E+00  0.19303760251E+02  0.00000000000E+00 0. -1.
</event>
<event>
 7    1  0.6152255E-013  0.5930194E+02  0.7816164E-02  0.1266605E+00
        -11   -1    0    0    0    0  0.00000000000E+00  0.00000000000E+00  0.45593999997E+02  0.45594000000E+02  0.51100000000E-03 0. -1.
         11   -1    0    0    0    0 -0.00000000000E+00 -0.00000000000E+00 -0.45593999997E+02  0.45594000000E+02  0.51100000000E-03 0.  1.
    9900012    2    1    2    0    0 -0.12528482821E+02 -0.28473622846E+02 -0.70007803615E+01  0.59301937129E+02  0.49999987418E+02 0.  0.
        -12    1    1    2    0    0  0.12528482821E+02  0.28473622846E+02  0.70007803615E+01  0.31886062871E+02  0.00000000000E+00 0.  1.
         11    1    3    3    0    0 -0.29573904997E+01  0.11184346766E+02 -0.10072434018E+02  0.15339155728E+02  0.51100000000E-03 0. -1.
        -11    1    3    3    0    0 -0.52440592766E+01 -0.15140196692E+01  0.96905216365E-01  0.54591028693E+01  0.51100000000E-03 0.  1.
         12    1    3    3    0    0 -0.43270330444E+01 -0.38143949942E+02  0.29747484403E+01  0.38503678531E+02  0.00000000000E+00 0. -1.
</event>
<event>
 7    1  0.6152255E-013  0.5930195E+02  0.7816164E-02  0.1266605E+00
        -11   -1    0    0    0    0  0.00000000000E+00  0.00000000000E+00  0.45593999997E+02  0.45594000000E+02  0.51100000000E-03 0.  1.
         11   -1    0    0    0    0 -0.00000000000E+00 -0.00000000000E+00 -0.45593999997E+02  0.45594000000E+02  0.51100000000E-03 0. -1.
    9900012    2    1    2    0    0  0.42835477257E+01 -0.10390805719E+01 -0.31579930656E+02  0.59301945214E+02  0.50000002163E+02 0.  0.
        -12    1    1    2    0    0 -0.42835477257E+01  0.10390805719E+01  0.31579930656E+02  0.31886054786E+02  0.00000000000E+00 0.  1.
         11    1    3    3    0    0 -0.18132432149E+01  0.14023630169E+02 -0.76101197214E+01  0.16058143620E+02  0.51100000000E-03 0. -1.
        -11    1    3    3    0    0 -0.70056373667E+01  0.61866208673E+01 -0.12913486076E+02  0.15940870603E+02  0.51100000000E-03 0.  1.
        -12    1    3    3    0    0  0.13102428307E+02 -0.21249331608E+02 -0.11056324859E+02  0.27302930991E+02  0.00000000000E+00 0.  1.
</event>
<event>
 7    1  0.6152255E-013  0.5930195E+02  0.7816164E-02  0.1266605E+00
        -11   -1    0    0    0    0  0.00000000000E+00  0.00000000000E+00  0.45593999997E+02  0.45594000000E+02  0.51100000000E-03 0. -1.
         11   -1    0    0    0    0 -0.00000000000E+00 -0.00000000000E+00 -0.45593999997E+02  0.45594000000E+02  0.51100000000E-03 0.  1.
    9900012    2    1    2    0    0  0.75498740461E+01 -0.30070461559E+02  0.74489491939E+01  0.59301951318E+02  0.50000013295E+02 0.  0.
        -12    1    1    2    0    0 -0.75498740461E+01  0.30070461559E+02 -0.74489491939E+01  0.31886048682E+02  0.00000000000E+00 0.  1.
         11    1    3    3    0    0  0.13638303670E+01 -0.11491536292E+02  0.16990521673E+02  0.20557073396E+02  0.51100000000E-03 0. -1.
        -11    1    3    3    0    0 -0.62494750964E+01 -0.19118389092E+02  0.38313584927E+01  0.20475547578E+02  0.51100000000E-03 0.  1.
        -12    1    3    3    0    0  0.12435518775E+02  0.53946382526E+00 -0.13372930972E+02  0.18269330344E+02  0.00000000000E+00 0.  1.
</event>
<event>
 7    1  0.6152255E-013  0.5930158E+02  0.7816164E-02  0.1266606E+00
        -11   -1    0    0    0    0  0.00000000000E+00  0.00000000000E+00  0.45593999997E+02  0.45594000000E+02  0.51100000000E-03 0. -1.
         11   -1    0    0    0    0 -0.00000000000E+00 -0.00000000000E+00 -0.45593999997E+02  0.45594000000E+02  0.51100000000E-03 0.  1.
    9900012    2    1    2    0    0  0.29257505401E+02  0.12239642309E+02  0.33065510331E+01  0.59301580542E+02  0.49999337084E+02 0.  0.
        -12    1    1    2    0    0 -0.29257505401E+02 -0.12239642309E+02 -0.33065510331E+01  0.31886419458E+02  0.00000000000E+00 0.  1.
         11    1    3    3    0    0  0.72812743344E+01 -0.55354613461E+01  0.11014861524E+02  0.14317313397E+02  0.51100000000E-03 0. -1.
        -11    1    3    3    0    0  0.26104525786E+02  0.66380395923E+00 -0.82151222679E+01  0.27374717101E+02  0.51100000000E-03 0.  1.
        -12    1    3    3    0    0 -0.41282947193E+01  0.17111299695E+02  0.50681177659E+00  0.17609550044E+02  0.00000000000E+00 0.  1.
</event>
<event>
 7    1  0.6152255E-013  0.5930196E+02  0.7816164E-02  0.1266605E+00
        -11   -1    0    0    0    0  0.00000000000E+00  0.00000000000E+00  0.45593999997E+02  0.45594000000E+02  0.51100000000E-03 0.  1.
         11   -1    0    0    0    0 -0.00000000000E+00 -0.00000000000E+00 -0.45593999997E+02  0.45594000000E+02  0.51100000000E-03 0. -1.
    9900012    2    1    2    0    0  0.89424411064E+01  0.26758479901E+02 -0.14857194115E+02  0.59301957340E+02  0.50000024278E+02 0.  0.
        -12    1    1    2    0    0 -0.89424411064E+01 -0.26758479901E+02  0.14857194115E+02  0.31886042660E+02  0.00000000000E+00 0.  1.
         11    1    3    3    0    0  0.14420626247E+02  0.18486117500E+02 -0.63290110806E+01  0.24284715009E+02  0.51100000000E-03 0. -1.
        -11    1    3    3    0    0  0.64806142079E+01  0.14648344369E+01  0.99584385986E+01  0.11971407604E+02  0.51100000000E-03 0.  1.
         12    1    3    3    0    0 -0.11958799349E+02  0.68075279648E+01 -0.18486621633E+02  0.23045834726E+02  0.00000000000E+00 0. -1.
</event>
<event>
 7    1  0.6152255E-013  0.5930193E+02  0.7816164E-02  0.1266605E+00
        -11   -1    0    0    0    0  0.00000000000E+00  0.00000000000E+00  0.45593999997E+02  0.45594000000E+02  0.51100000000E-03 0.  1.
         11   -1    0    0    0    0 -0.00000000000E+00 -0.00000000000E+00 -0.45593999997E+02  0.45594000000E+02  0.51100000000E-03 0. -1.
    9900012    2    1    2    0    0 -0.16354641402E+02 -0.26419847501E+02 -0.71581227300E+01  0.59301931594E+02  0.49999977324E+02 0.  0.
        -12    1    1    2    0    0  0.16354641402E+02  0.26419847501E+02  0.71581227300E+01  0.31886068406E+02  0.00000000000E+00 0.  1.
         11    1    3    3    0    0 -0.30267185201E+01 -0.61973018034E+01 -0.79633737045E+01  0.10534841986E+02  0.51100000000E-03 0. -1.
        -11    1    3    3    0    0  0.92523756496E+01 -0.22281346818E+02 -0.64274153083E+01  0.24967509668E+02  0.51100000000E-03 0.  1.
        -12    1    3    3    0    0 -0.22580298531E+02  0.20588011207E+01  0.72326662828E+01  0.23799579941E+02  0.00000000000E+00 0.  1.
</event>
<event>
 7    1  0.6152255E-013  0.5930199E+02  0.7816164E-02  0.1266605E+00
        -11   -1    0    0    0    0  0.00000000000E+00  0.00000000000E+00  0.45593999997E+02  0.45594000000E+02  0.51100000000E-03 0.  1.
         11   -1    0    0    0    0 -0.00000000000E+00 -0.00000000000E+00 -0.45593999997E+02  0.45594000000E+02  0.51100000000E-03 0. -1.
    9900012    2    1    2    0    0  0.20487914634E+02  0.84327731735E+01 -0.22931452968E+02  0.59301986692E+02  0.50000077810E+02 0.  0.
        -12    1    1    2    0    0 -0.20487914634E+02 -0.84327731735E+01  0.22931452968E+02  0.31886013308E+02  0.00000000000E+00 0.  1.
         11    1    3    3    0    0  0.92729645747E+01 -0.61576268000E+01 -0.41026733134E+01  0.11863227571E+02  0.51100000000E-03 0. -1.
        -11    1    3    3    0    0 -0.32510921853E-01 -0.12726953723E+02 -0.63345411526E+00  0.12742749798E+02  0.51100000000E-03 0.  1.
         12    1    3    3    0    0  0.11247460981E+02  0.27317353697E+02 -0.18195325540E+02  0.34696009324E+02  0.00000000000E+00 0. -1.
</event>
<event>
 7    1  0.6152255E-013  0.5930192E+02  0.7816164E-02  0.1266605E+00
        -11   -1    0    0    0    0  0.00000000000E+00  0.00000000000E+00  0.45593999997E+02  0.45594000000E+02  0.51100000000E-03 0.  1.
         11   -1    0    0    0    0 -0.00000000000E+00 -0.00000000000E+00 -0.45593999997E+02  0.45594000000E+02  0.51100000000E-03 0. -1.
    9900012    2    1    2    0    0 -0.17840632459E+02 -0.68599817753E+01 -0.25522035239E+02  0.59301924681E+02  0.49999964716E+02 0.  0.
        -12    1    1    2    0    0  0.17840632459E+02  0.68599817753E+01  0.25522035239E+02  0.31886075319E+02  0.00000000000E+00 0.  1.
         11    1    3    3    0    0 -0.65878108338E+01 -0.78127963987E+01 -0.11119410085E+02  0.15102328299E+02  0.51100000000E-03 0. -1.
        -11    1    3    3    0    0  0.11677197036E+02  0.66598566252E+01 -0.15533931395E+02  0.20542970713E+02  0.51100000000E-03 0.  1.
         12    1    3    3    0    0 -0.22930018661E+02 -0.57070420018E+01  0.11313062411E+01  0.23656625669E+02  0.00000000000E+00 0. -1.
</event>
<event>
 7    1  0.6152255E-013  0.5930196E+02  0.7816164E-02  0.1266605E+00
        -11   -1    0    0    0    0  0.00000000000E+00  0.00000000000E+00  0.45593999997E+02  0.45594000000E+02  0.51100000000E-03 0. -1.
         11   -1    0    0    0    0 -0.00000000000E+00 -0.00000000000E+00 -0.45593999997E+02  0.45594000000E+02  0.51100000000E-03 0.  1.
    9900012    2    1    2    0    0  0.27549277091E+02 -0.96087281778E+01  0.12861931782E+02  0.59301958938E+02  0.50000027193E+02 0.  0.
        -12    1    1    2    0    0 -0.27549277091E+02  0.96087281778E+01 -0.12861931782E+02  0.31886041062E+02  0.00000000000E+00 0.  1.
         11    1    3    3    0    0 -0.37687990184E+01  0.37591166388E+01  0.10932315908E+01  0.54341475429E+01  0.51100000000E-03 0. -1.
        -11    1    3    3    0    0  0.11523501011E+02 -0.19208898388E+02 -0.94097048674E+01  0.24296407117E+02  0.51100000000E-03 0.  1.
         12    1    3    3    0    0  0.19794575099E+02  0.58410535716E+01  0.21178405059E+02  0.29571404279E+02  0.00000000000E+00 0. -1.
</event>
<event>
 7    1  0.6152255E-013  0.5930220E+02  0.7816164E-02  0.1266604E+00
        -11   -1    0    0    0    0  0.00000000000E+00  0.00000000000E+00  0.45593999997E+02  0.45594000000E+02  0.51100000000E-03 0. -1.
         11   -1    0    0    0    0 -0.00000000000E+00 -0.00000000000E+00 -0.45593999997E+02  0.45594000000E+02  0.51100000000E-03 0.  1.
    9900012    2    1    2    0    0  0.18939443452E+02 -0.57740080481E+01  0.24993252589E+02  0.59302198109E+02  0.50000463382E+02 0.  0.
        -12    1    1    2    0    0 -0.18939443452E+02  0.57740080481E+01 -0.24993252589E+02  0.31885801891E+02  0.00000000000E+00 0.  1.
         11    1    3    3    0    0 -0.53334229498E+01  0.80464849147E+01  0.18447594159E+02  0.20820784096E+02  0.51100000000E-03 0. -1.
        -11    1    3    3    0    0  0.21550463090E+01 -0.36638245154E+01  0.12687044146E+02  0.13380169061E+02  0.51100000000E-03 0.  1.
        -12    1    3    3    0    0  0.22117820093E+02 -0.10156668447E+02 -0.61413857169E+01  0.25101244952E+02  0.00000000000E+00 0.  1.
</event>
<event>
 7    1  0.6152255E-013  0.5930197E+02  0.7816164E-02  0.1266605E+00
        -11   -1    0    0    0    0  0.00000000000E+00  0.00000000000E+00  0.45593999997E+02  0.45594000000E+02  0.51100000000E-03 0.  1.
         11   -1    0    0    0    0 -0.00000000000E+00 -0.00000000000E+00 -0.45593999997E+02  0.45594000000E+02  0.51100000000E-03 0. -1.
    9900012    2    1    2    0    0  0.17959842462E+02 -0.25656950704E+02  0.59903142543E+01  0.59301969743E+02  0.50000046898E+02 0.  0.
        -12    1    1    2    0    0 -0.17959842462E+02  0.25656950704E+02 -0.59903142543E+01  0.31886030257E+02  0.00000000000E+00 0.  1.
         11    1    3    3    0    0 -0.45873803926E+01 -0.10663136454E+01 -0.13795347939E+01  0.49075656048E+01  0.51100000000E-03 0. -1.
        -11    1    3    3    0    0 -0.22382970114E+01  0.19085757264E+01  0.16678041519E+02  0.16935457005E+02  0.51100000000E-03 0.  1.
         12    1    3    3    0    0  0.24785519866E+02 -0.26499212785E+02 -0.93081924704E+01  0.37458947133E+02  0.00000000000E+00 0. -1.
</event>
<event>
 7    1  0.6152255E-013  0.5930192E+02  0.7816164E-02  0.1266605E+00
        -11   -1    0    0    0    0  0.00000000000E+00  0.00000000000E+00  0.45593999997E+02  0.45594000000E+02  0.51100000000E-03 0.  1.
         11   -1    0    0    0    0 -0.00000000000E+00 -0.00000000000E+00 -0.45593999997E+02  0.45594000000E+02  0.51100000000E-03 0. -1.
    9900012    2    1    2    0    0  0.15695804095E+02  0.15864008812E+02  0.22774914983E+02  0.59301924760E+02  0.49999964860E+02 0.  0.
        -12    1    1    2    0    0 -0.15695804095E+02 -0.15864008812E+02 -0.22774914983E+02  0.31886075240E+02  0.00000000000E+00 0.  1.
         11    1    3    3    0    0 -0.96584799738E+01  0.13425498980E+02  0.13826518009E+02  0.21556967755E+02  0.51100000000E-03 0. -1.
        -11    1    3    3    0    0 -0.36110791622E+01 -0.55117629546E+01  0.91471532650E+00  0.66525279385E+01  0.51100000000E-03 0.  1.
         12    1    3    3    0    0  0.28965363231E+02  0.79502727865E+01  0.80336816474E+01  0.31092429067E+02  0.00000000000E+00 0. -1.
</event>
<event>
 7    1  0.6152255E-013  0.5930195E+02  0.7816164E-02  0.1266605E+00
        -11   -1    0    0    0    0  0.00000000000E+00  0.00000000000E+00  0.45593999997E+02  0.45594000000E+02  0.51100000000E-03 0.  1.
         11   -1    0    0    0    0 -0.00000000000E+00 -0.00000000000E+00 -0.45593999997E+02  0.45594000000E+02  0.51100000000E-03 0. -1.
    9900012    2    1    2    0    0  0.15803537556E+02  0.27174595990E+02 -0.53394476994E+01  0.59301950256E+02  0.50000011359E+02 0.  0.
        -12    1    1    2    0    0 -0.15803537556E+02 -0.27174595990E+02  0.53394476994E+01  0.31886049744E+02  0.00000000000E+00 0.  1.
         11    1    3    3    0    0 -0.57905839842E+01  0.20333602956E+02 -0.11780134646E+02  0.24202434684E+02  0.51100000000E-03 0. -1.
        -11    1    3    3    0    0  0.44871743192E+01  0.14796136350E+02  0.46648647029E+01  0.16149964310E+02  0.51100000000E-03 0.  1.
        -12    1    3    3    0    0  0.17106947221E+02 -0.79551433159E+01  0.17758222438E+01  0.18949551263E+02  0.00000000000E+00 0.  1.
</event>
<event>
 7    1  0.6152255E-013  0.5930195E+02  0.7816164E-02  0.1266605E+00
        -11   -1    0    0    0    0  0.00000000000E+00  0.00000000000E+00  0.45593999997E+02  0.45594000000E+02  0.51100000000E-03 0.  1.
         11   -1    0    0    0    0 -0.00000000000E+00 -0.00000000000E+00 -0.45593999997E+02  0.45594000000E+02  0.51100000000E-03 0. -1.
    9900012    2    1    2    0    0  0.12767200728E+02 -0.12948701233E+02 -0.26192559802E+02  0.59301945571E+02  0.50000002815E+02 0.  0.
        -12    1    1    2    0    0 -0.12767200728E+02  0.12948701233E+02  0.26192559802E+02  0.31886054429E+02  0.00000000000E+00 0.  1.
         11    1    3    3    0    0 -0.58892224808E+01  0.87894219758E+01 -0.19999903883E+02  0.22625937233E+02  0.51100000000E-03 0. -1.
        -11    1    3    3    0    0  0.16160676708E+02 -0.20856957736E+01 -0.18908406759E+01  0.16404050635E+02  0.51100000000E-03 0.  1.
        -12    1    3    3    0    0  0.24957465006E+01 -0.19652427435E+02 -0.43018152434E+01  0.20271957702E+02  0.00000000000E+00 0.  1.
</event>
<event>
 7    1  0.6152255E-013  0.5930197E+02  0.7816164E-02  0.1266605E+00
        -11   -1    0    0    0    0  0.00000000000E+00  0.00000000000E+00  0.45593999997E+02  0.45594000000E+02  0.51100000000E-03 0. -1.
         11   -1    0    0    0    0 -0.00000000000E+00 -0.00000000000E+00 -0.45593999997E+02  0.45594000000E+02  0.51100000000E-03 0.  1.
    9900012    2    1    2    0    0  0.15902273980E+02  0.25491618073E+02 -0.10677727318E+02  0.59301972176E+02  0.50000051335E+02 0.  0.
        -12    1    1    2    0    0 -0.15902273980E+02 -0.25491618073E+02  0.10677727318E+02  0.31886027824E+02  0.00000000000E+00 0.  1.
         11    1    3    3    0    0  0.10134656106E+02  0.21497818756E+02  0.58953098187E+01  0.24487183255E+02  0.51100000000E-03 0. -1.
        -11    1    3    3    0    0 -0.70781314277E+01 -0.42035060605E+01  0.40485031865E+01  0.91738642905E+01  0.51100000000E-03 0.  1.
        -12    1    3    3    0    0  0.12845749301E+02  0.81973053778E+01 -0.20621540324E+02  0.25640924630E+02  0.00000000000E+00 0.  1.
</event>
<event>
 7    1  0.6152255E-013  0.5930195E+02  0.7816164E-02  0.1266605E+00
        -11   -1    0    0    0    0  0.00000000000E+00  0.00000000000E+00  0.45593999997E+02  0.45594000000E+02  0.51100000000E-03 0. -1.
         11   -1    0    0    0    0 -0.00000000000E+00 -0.00000000000E+00 -0.45593999997E+02  0.45594000000E+02  0.51100000000E-03 0.  1.
    9900012    2    1    2    0    0  0.94546437438E+01  0.30442771714E+02  0.75343684720E+00  0.59301948112E+02  0.50000007448E+02 0.  0.
        -12    1    1    2    0    0 -0.94546437438E+01 -0.30442771714E+02 -0.75343684720E+00  0.31886051888E+02  0.00000000000E+00 0.  1.
         11    1    3    3    0    0 -0.53655854107E+01  0.49007100401E+01  0.89571427797E+01  0.11534161120E+02  0.51100000000E-03 0. -1.
        -11    1    3    3    0    0  0.52420512730E+01  0.12743734241E+02 -0.22458955614E+02  0.26349317857E+02  0.51100000000E-03 0.  1.
         12    1    3    3    0    0  0.95781778815E+01  0.12798327433E+02  0.14255249682E+02  0.21418469135E+02  0.00000000000E+00 0. -1.
</event>
<event>
 7    1  0.6152255E-013  0.5930196E+02  0.7816164E-02  0.1266605E+00
        -11   -1    0    0    0    0  0.00000000000E+00  0.00000000000E+00  0.45593999997E+02  0.45594000000E+02  0.51100000000E-03 0. -1.
         11   -1    0    0    0    0 -0.00000000000E+00 -0.00000000000E+00 -0.45593999997E+02  0.45594000000E+02  0.51100000000E-03 0.  1.
    9900012    2    1    2    0    0  0.27796851775E+02 -0.15532193717E+02 -0.16750255537E+01  0.59301957272E+02  0.50000024155E+02 0.  0.
        -12    1    1    2    0    0 -0.27796851775E+02  0.15532193717E+02  0.16750255537E+01  0.31886042728E+02  0.00000000000E+00 0.  1.
         11    1    3    3    0    0  0.63716535150E+01  0.29980048899E+00  0.60882114467E+01  0.88178323713E+01  0.51100000000E-03 0. -1.
        -11    1    3    3    0    0  0.89662556084E+00 -0.24642875800E+02 -0.12502300475E+02  0.27647473348E+02  0.51100000000E-03 0.  1.
         12    1    3    3    0    0  0.20528572699E+02  0.88108815946E+01  0.47390634746E+01  0.22836651553E+02  0.00000000000E+00 0. -1.
</event>
<event>
 7    1  0.6152255E-013  0.5930195E+02  0.7816164E-02  0.1266605E+00
        -11   -1    0    0    0    0  0.00000000000E+00  0.00000000000E+00  0.45593999997E+02  0.45594000000E+02  0.51100000000E-03 0.  1.
         11   -1    0    0    0    0 -0.00000000000E+00 -0.00000000000E+00 -0.45593999997E+02  0.45594000000E+02  0.51100000000E-03 0. -1.
    9900012    2    1    2    0    0  0.31859638241E+02 -0.12518191106E+01  0.34142673745E+00  0.59301950195E+02  0.50000011248E+02 0.  0.
        -12    1    1    2    0    0 -0.31859638241E+02  0.12518191106E+01 -0.34142673745E+00  0.31886049805E+02  0.00000000000E+00 0.  1.
         11    1    3    3    0    0 -0.14965444366E+01  0.69354378055E+01 -0.22088371510E+01  0.74309423780E+01  0.51100000000E-03 0. -1.
        -11    1    3    3    0    0  0.33585280825E+02  0.77259332598E+01  0.73713029751E+01  0.35241981225E+02  0.51100000000E-03 0.  1.
         12    1    3    3    0    0 -0.22909814706E+00 -0.15913190176E+02 -0.48210390866E+01  0.16629026592E+02  0.00000000000E+00 0. -1.
</event>
<event>
 7    1  0.6152255E-013  0.5930194E+02  0.7816164E-02  0.1266605E+00
        -11   -1    0    0    0    0  0.00000000000E+00  0.00000000000E+00  0.45593999997E+02  0.45594000000E+02  0.51100000000E-03 0. -1.
         11   -1    0    0    0    0 -0.00000000000E+00 -0.00000000000E+00 -0.45593999997E+02  0.45594000000E+02  0.51100000000E-03 0.  1.
    9900012    2    1    2    0    0  0.28753457281E+02  0.29359488332E+01 -0.13466246360E+02  0.59301938904E+02  0.49999990656E+02 0.  0.
        -12    1    1    2    0    0 -0.28753457281E+02 -0.29359488332E+01  0.13466246360E+02  0.31886061096E+02  0.00000000000E+00 0.  1.
         11    1    3    3    0    0  0.40543912869E+01  0.39880577385E+01 -0.22549440421E+02  0.23255536046E+02  0.51100000000E-03 0. -1.
        -11    1    3    3    0    0  0.62658433141E+01  0.10472848444E+02 -0.66292989619E+00  0.12222144791E+02  0.51100000000E-03 0.  1.
         12    1    3    3    0    0  0.18433222680E+02 -0.11524957350E+02  0.97461239567E+01  0.23824258068E+02  0.00000000000E+00 0. -1.
</event>
<event>
 7    1  0.6152255E-013  0.5930190E+02  0.7816164E-02  0.1266605E+00
        -11   -1    0    0    0    0  0.00000000000E+00  0.00000000000E+00  0.45593999997E+02  0.45594000000E+02  0.51100000000E-03 0.  1.
         11   -1    0    0    0    0 -0.00000000000E+00 -0.00000000000E+00 -0.45593999997E+02  0.45594000000E+02  0.51100000000E-03 0. -1.
    9900012    2    1    2    0    0 -0.41425347237E+01  0.27720807314E+02  0.15202618480E+02  0.59301900196E+02  0.49999920061E+02 0.  0.
        -12    1    1    2    0    0  0.41425347237E+01 -0.27720807314E+02 -0.15202618480E+02  0.31886099804E+02  0.00000000000E+00 0.  1.
         11    1    3    3    0    0 -0.17487661912E+01  0.93356950478E+01  0.29994644813E+01  0.99604303447E+01  0.51100000000E-03 0. -1.
        -11    1    3    3    0    0 -0.20972530877E+02  0.16656393923E+02  0.14642758297E+02  0.30523644617E+02  0.51100000000E-03 0.  1.
        -12    1    3    3    0    0  0.18578762345E+02  0.17287183436E+01 -0.24396042986E+01  0.18817825233E+02  0.00000000000E+00 0.  1.
</event>
<event>
 7    1  0.6152255E-013  0.5930191E+02  0.7816164E-02  0.1266605E+00
        -11   -1    0    0    0    0  0.00000000000E+00  0.00000000000E+00  0.45593999997E+02  0.45594000000E+02  0.51100000000E-03 0.  1.
         11   -1    0    0    0    0 -0.00000000000E+00 -0.00000000000E+00 -0.45593999997E+02  0.45594000000E+02  0.51100000000E-03 0. -1.
    9900012    2    1    2    0    0 -0.17820652051E+02 -0.13520989141E+02 -0.22722887937E+02  0.59301914900E+02  0.49999946877E+02 0.  0.
        -12    1    1    2    0    0  0.17820652051E+02  0.13520989141E+02  0.22722887937E+02  0.31886085100E+02  0.00000000000E+00 0.  1.
         11    1    3    3    0    0 -0.17929187668E+02 -0.83153197851E+01 -0.14480892940E+02  0.24500950475E+02  0.51100000000E-03 0. -1.
        -11    1    3    3    0    0 -0.10151009108E+02  0.43050045570E+01  0.78072743273E+01  0.13510350952E+02  0.51100000000E-03 0.  1.
         12    1    3    3    0    0  0.10259544725E+02 -0.95106739125E+01 -0.16049269324E+02  0.21290613473E+02  0.00000000000E+00 0. -1.
</event>
<event>
 7    1  0.6152255E-013  0.5930193E+02  0.7816164E-02  0.1266605E+00
        -11   -1    0    0    0    0  0.00000000000E+00  0.00000000000E+00  0.45593999997E+02  0.45594000000E+02  0.51100000000E-03 0.  1.
         11   -1    0    0    0    0 -0.00000000000E+00 -0.00000000000E+00 -0.45593999997E+02  0.45594000000E+02  0.51100000000E-03 0. -1.
    9900012    2    1    2    0    0 -0.93655118438E+01 -0.49219487880E+01 -0.30079607710E+02  0.59301934204E+02  0.49999982084E+02 0.  0.
        -12    1    1    2    0    0  0.93655118438E+01  0.49219487880E+01  0.30079607710E+02  0.31886065796E+02  0.00000000000E+00 0.  1.
         11    1    3    3    0    0  0.63736901554E+01  0.67959291317E+01  0.87889893337E+01  0.12808392277E+02  0.51100000000E-03 0.  1.
        -11    1    3    3    0    0  0.18873330344E+01 -0.46390618520E+01 -0.15997975310E+02  0.16763595532E+02  0.51100000000E-03 0. -1.
        -12    1    3    3    0    0 -0.17626535034E+02 -0.70788160677E+01 -0.22870621733E+02  0.29729946395E+02  0.00000000000E+00 0.  1.
</event>
<event>
 7    1  0.6152255E-013  0.5930178E+02  0.7816164E-02  0.1266605E+00
        -11   -1    0    0    0    0  0.00000000000E+00  0.00000000000E+00  0.45593999997E+02  0.45594000000E+02  0.51100000000E-03 0.  1.
         11   -1    0    0    0    0 -0.00000000000E+00 -0.00000000000E+00 -0.45593999997E+02  0.45594000000E+02  0.51100000000E-03 0. -1.
    9900012    2    1    2    0    0  0.26474313628E+02  0.17747798896E+02  0.92583737833E+00  0.59301783188E+02  0.49999706667E+02 0.  0.
        -12    1    1    2    0    0 -0.26474313628E+02 -0.17747798896E+02 -0.92583737833E+00  0.31886216812E+02  0.00000000000E+00 0.  1.
         11    1    3    3    0    0  0.24101893676E+02  0.67943518374E+01 -0.10000250971E+01  0.25061215974E+02  0.51100000000E-03 0. -1.
        -11    1    3    3    0    0  0.13684611557E+02  0.10001466736E+02 -0.83799084801E+01  0.18908220348E+02  0.51100000000E-03 0.  1.
        -12    1    3    3    0    0 -0.11312191605E+02  0.95198032221E+00  0.10305770956E+02  0.15332346866E+02  0.00000000000E+00 0.  1.
</event>
<event>
 7    1  0.6152255E-013  0.5930198E+02  0.7816164E-02  0.1266605E+00
        -11   -1    0    0    0    0  0.00000000000E+00  0.00000000000E+00  0.45593999997E+02  0.45594000000E+02  0.51100000000E-03 0.  1.
         11   -1    0    0    0    0 -0.00000000000E+00 -0.00000000000E+00 -0.45593999997E+02  0.45594000000E+02  0.51100000000E-03 0. -1.
    9900012    2    1    2    0    0  0.34721239498E+00  0.25221784165E+02 -0.19505358725E+02  0.59301984697E+02  0.50000074171E+02 0.  0.
        -12    1    1    2    0    0 -0.34721239498E+00 -0.25221784165E+02  0.19505358725E+02  0.31886015303E+02  0.00000000000E+00 0.  1.
         11    1    3    3    0    0 -0.82224439938E+01  0.12681557588E+02 -0.22724041048E+02  0.27291253726E+02  0.51100000000E-03 0. -1.
        -11    1    3    3    0    0 -0.49280524070E+01 -0.65680295751E+01 -0.88499682319E+00  0.82588093975E+01  0.51100000000E-03 0.  1.
         12    1    3    3    0    0  0.13497708796E+02  0.19108256152E+02  0.41036791469E+01  0.23751921574E+02  0.00000000000E+00 0. -1.
</event>
<event>
 7    1  0.6152255E-013  0.5930194E+02  0.7816164E-02  0.1266605E+00
        -11   -1    0    0    0    0  0.00000000000E+00  0.00000000000E+00  0.45593999997E+02  0.45594000000E+02  0.51100000000E-03 0. -1.
         11   -1    0    0    0    0 -0.00000000000E+00 -0.00000000000E+00 -0.45593999997E+02  0.45594000000E+02  0.51100000000E-03 0.  1.
    9900012    2    1    2    0    0 -0.26905797909E+02  0.33902200793E+01  0.16772156195E+02  0.59301940715E+02  0.49999993958E+02 0.  0.
        -12    1    1    2    0    0  0.26905797909E+02 -0.33902200793E+01 -0.16772156195E+02  0.31886059285E+02  0.00000000000E+00 0.  1.
         11    1    3    3    0    0 -0.22079623839E+01  0.47442230799E+01 -0.76432286748E+01  0.92629204551E+01  0.51100000000E-03 0. -1.
        -11    1    3    3    0    0  0.46235730429E+00 -0.10976175008E+02 -0.32190189759E+01  0.11447806580E+02  0.51100000000E-03 0.  1.
         12    1    3    3    0    0 -0.25160192830E+02  0.96221720070E+01  0.27634403845E+02  0.38591213679E+02  0.00000000000E+00 0. -1.
</event>
<event>
 7    1  0.6152255E-013  0.5930192E+02  0.7816164E-02  0.1266605E+00
        -11   -1    0    0    0    0  0.00000000000E+00  0.00000000000E+00  0.45593999997E+02  0.45594000000E+02  0.51100000000E-03 0. -1.
         11   -1    0    0    0    0 -0.00000000000E+00 -0.00000000000E+00 -0.45593999997E+02  0.45594000000E+02  0.51100000000E-03 0.  1.
    9900012    2    1    2    0    0 -0.26558364010E+02  0.80373376155E+01  0.15709118475E+02  0.59301923131E+02  0.49999961889E+02 0.  0.
        -12    1    1    2    0    0  0.26558364010E+02 -0.80373376155E+01 -0.15709118475E+02  0.31886076869E+02  0.00000000000E+00 0.  1.
         11    1    3    3    0    0 -0.31624045410E+02  0.47178777558E+01  0.13608015691E+02  0.34749341144E+02  0.51100000000E-03 0. -1.
        -11    1    3    3    0    0 -0.85219456775E+01  0.42045616512E+01 -0.30714694942E+01  0.99867823609E+01  0.51100000000E-03 0.  1.
         12    1    3    3    0    0  0.13587627077E+02 -0.88510179146E+00  0.51725722780E+01  0.14565799626E+02  0.00000000000E+00 0. -1.
</event>
<event>
 7    1  0.6152255E-013  0.5930194E+02  0.7816164E-02  0.1266605E+00
        -11   -1    0    0    0    0  0.00000000000E+00  0.00000000000E+00  0.45593999997E+02  0.45594000000E+02  0.51100000000E-03 0. -1.
         11   -1    0    0    0    0 -0.00000000000E+00 -0.00000000000E+00 -0.45593999997E+02  0.45594000000E+02  0.51100000000E-03 0.  1.
    9900012    2    1    2    0    0  0.20102088611E+02  0.18446398647E+02  0.16503256671E+02  0.59301936111E+02  0.49999985563E+02 0.  0.
        -12    1    1    2    0    0 -0.20102088611E+02 -0.18446398647E+02 -0.16503256671E+02  0.31886063889E+02  0.00000000000E+00 0.  1.
         11    1    3    3    0    0  0.21108991782E+02  0.13644917105E+02  0.19591663298E+02  0.31868582772E+02  0.51100000000E-03 0. -1.
        -11    1    3    3    0    0  0.96456472799E+01  0.10797080657E+02  0.10798257888E+01  0.14518315541E+02  0.51100000000E-03 0.  1.
        -12    1    3    3    0    0 -0.10652550451E+02 -0.59955991146E+01 -0.41682324155E+01  0.12915037798E+02  0.00000000000E+00 0.  1.
</event>
<event>
 7    1  0.6152255E-013  0.5930196E+02  0.7816164E-02  0.1266605E+00
        -11   -1    0    0    0    0  0.00000000000E+00  0.00000000000E+00  0.45593999997E+02  0.45594000000E+02  0.51100000000E-03 0.  1.
         11   -1    0    0    0    0 -0.00000000000E+00 -0.00000000000E+00 -0.45593999997E+02  0.45594000000E+02  0.51100000000E-03 0. -1.
    9900012    2    1    2    0    0  0.69818687776E+01 -0.28745940316E+02 -0.11901437268E+02  0.59301956261E+02  0.50000022311E+02 0.  0.
        -12    1    1    2    0    0 -0.69818687776E+01  0.28745940316E+02  0.11901437268E+02  0.31886043739E+02  0.00000000000E+00 0.  1.
         11    1    3    3    0    0  0.68474647043E+01 -0.19914149513E+02 -0.71984062545E+01  0.22254846137E+02  0.51100000000E-03 0. -1.
        -11    1    3    3    0    0  0.71236136818E+01 -0.20019823581E+02  0.34668552950E+01  0.21530403944E+02  0.51100000000E-03 0.  1.
        -12    1    3    3    0    0 -0.69892096086E+01  0.11188032778E+02 -0.81698863089E+01  0.15516706181E+02  0.00000000000E+00 0.  1.
</event>
<event>
 7    1  0.6152255E-013  0.5930185E+02  0.7816164E-02  0.1266605E+00
        -11   -1    0    0    0    0  0.00000000000E+00  0.00000000000E+00  0.45593999997E+02  0.45594000000E+02  0.51100000000E-03 0.  1.
         11   -1    0    0    0    0 -0.00000000000E+00 -0.00000000000E+00 -0.45593999997E+02  0.45594000000E+02  0.51100000000E-03 0. -1.
    9900012    2    1    2    0    0  0.12592825534E+02  0.21860198509E+02  0.19500741353E+02  0.59301851799E+02  0.49999831796E+02 0.  0.
        -12    1    1    2    0    0 -0.12592825534E+02 -0.21860198509E+02 -0.19500741353E+02  0.31886148201E+02  0.00000000000E+00 0.  1.
         11    1    3    3    0    0  0.53978282012E+01  0.20250808328E+02  0.26019962150E-01  0.20957873569E+02  0.51100000000E-03 0. -1.
        -11    1    3    3    0    0  0.10488081119E+02 -0.31720474693E+01 -0.58092700077E+01  0.12401989719E+02  0.51100000000E-03 0.  1.
        -12    1    3    3    0    0 -0.32930837857E+01  0.47814376499E+01  0.25283991399E+02  0.25941988511E+02  0.00000000000E+00 0.  1.
</event>
<event>
 7    1  0.6152255E-013  0.5930194E+02  0.7816164E-02  0.1266605E+00
        -11   -1    0    0    0    0  0.00000000000E+00  0.00000000000E+00  0.45593999997E+02  0.45594000000E+02  0.51100000000E-03 0. -1.
         11   -1    0    0    0    0 -0.00000000000E+00 -0.00000000000E+00 -0.45593999997E+02  0.45594000000E+02  0.51100000000E-03 0.  1.
    9900012    2    1    2    0    0  0.29925660192E+01  0.20973095368E+02  0.23830536959E+02  0.59301942350E+02  0.49999996941E+02 0.  0.
        -12    1    1    2    0    0 -0.29925660192E+01 -0.20973095368E+02 -0.23830536959E+02  0.31886057650E+02  0.00000000000E+00 0.  1.
         11    1    3    3    0    0  0.17368340045E+02 -0.58696874693E+01  0.11007283059E+02  0.21383936670E+02  0.51100000000E-03 0. -1.
        -11    1    3    3    0    0  0.29028448950E+01  0.67591766428E+01 -0.19146166956E+01  0.76012324477E+01  0.51100000000E-03 0.  1.
         12    1    3    3    0    0 -0.17278618920E+02  0.20083606195E+02  0.14737870596E+02  0.30316773233E+02  0.00000000000E+00 0. -1.
</event>
<event>
 7    1  0.6152255E-013  0.5930193E+02  0.7816164E-02  0.1266605E+00
        -11   -1    0    0    0    0  0.00000000000E+00  0.00000000000E+00  0.45593999997E+02  0.45594000000E+02  0.51100000000E-03 0. -1.
         11   -1    0    0    0    0 -0.00000000000E+00 -0.00000000000E+00 -0.45593999997E+02  0.45594000000E+02  0.51100000000E-03 0.  1.
    9900012    2    1    2    0    0 -0.18715165894E+02 -0.51784033721E+01 -0.25291267852E+02  0.59301928974E+02  0.49999972545E+02 0.  0.
        -12    1    1    2    0    0  0.18715165894E+02  0.51784033721E+01  0.25291267852E+02  0.31886071026E+02  0.00000000000E+00 0.  1.
         11    1    3    3    0    0 -0.20480822143E+02  0.25093308079E+01 -0.20876912085E+02  0.29353130586E+02  0.51100000000E-03 0. -1.
        -11    1    3    3    0    0  0.15616813128E+01  0.97967981585E+00 -0.15649358068E+02  0.15757570539E+02  0.51100000000E-03 0.  1.
         12    1    3    3    0    0  0.20397493636E+00 -0.86674139959E+01  0.11235002301E+02  0.14191227849E+02  0.00000000000E+00 0. -1.
</event>
<event>
 7    1  0.6152255E-013  0.5930195E+02  0.7816164E-02  0.1266605E+00
        -11   -1    0    0    0    0  0.00000000000E+00  0.00000000000E+00  0.45593999997E+02  0.45594000000E+02  0.51100000000E-03 0.  1.
         11   -1    0    0    0    0 -0.00000000000E+00 -0.00000000000E+00 -0.45593999997E+02  0.45594000000E+02  0.51100000000E-03 0. -1.
    9900012    2    1    2    0    0  0.18000973931E+02  0.43739596217E+01 -0.25952914786E+02  0.59301947075E+02  0.50000005558E+02 0.  0.
        -12    1    1    2    0    0 -0.18000973931E+02 -0.43739596217E+01  0.25952914786E+02  0.31886052925E+02  0.00000000000E+00 0.  1.
         11    1    3    3    0    0  0.39614492345E+01  0.94223184439E+01  0.69902785713E+01  0.12382938248E+02  0.51100000000E-03 0. -1.
        -11    1    3    3    0    0 -0.72842419772E+01  0.36762382227E+01 -0.21083633236E+01  0.84273426902E+01  0.51100000000E-03 0.  1.
        -12    1    3    3    0    0  0.21323766674E+02 -0.87245970449E+01 -0.30834830034E+02  0.38491666137E+02  0.00000000000E+00 0.  1.
</event>
<event>
 7    1  0.6152255E-013  0.5930195E+02  0.7816164E-02  0.1266605E+00
        -11   -1    0    0    0    0  0.00000000000E+00  0.00000000000E+00  0.45593999997E+02  0.45594000000E+02  0.51100000000E-03 0. -1.
         11   -1    0    0    0    0 -0.00000000000E+00 -0.00000000000E+00 -0.45593999997E+02  0.45594000000E+02  0.51100000000E-03 0.  1.
    9900012    2    1    2    0    0  0.59492809326E+01 -0.12022527612E+02  0.28927238349E+02  0.59301949252E+02  0.50000009529E+02 0.  0.
        -12    1    1    2    0    0 -0.59492809326E+01  0.12022527612E+02 -0.28927238349E+02  0.31886050748E+02  0.00000000000E+00 0.  1.
         11    1    3    3    0    0  0.42293176824E+01 -0.86871468411E+01  0.66550412965E+01  0.11732144869E+02  0.51100000000E-03 0.  1.
        -11    1    3    3    0    0 -0.56863681953E+00 -0.78007377851E+01 -0.11234766989E+02  0.13689223769E+02  0.51100000000E-03 0. -1.
         12    1    3    3    0    0  0.22886000697E+01  0.44653570141E+01  0.33506964041E+02  0.33880580615E+02  0.00000000000E+00 0. -1.
</event>
<event>
 7    1  0.6152255E-013  0.5930196E+02  0.7816164E-02  0.1266605E+00
        -11   -1    0    0    0    0  0.00000000000E+00  0.00000000000E+00  0.45593999997E+02  0.45594000000E+02  0.51100000000E-03 0. -1.
         11   -1    0    0    0    0 -0.00000000000E+00 -0.00000000000E+00 -0.45593999997E+02  0.45594000000E+02  0.51100000000E-03 0.  1.
    9900012    2    1    2    0    0  0.29451846150E+02  0.12205874110E+02  0.57013067551E+00  0.59301958329E+02  0.50000026083E+02 0.  0.
        -12    1    1    2    0    0 -0.29451846150E+02 -0.12205874110E+02 -0.57013067551E+00  0.31886041671E+02  0.00000000000E+00 0.  1.
         11    1    3    3    0    0  0.21216395733E+02  0.62995790680E+01  0.16425511651E+02  0.27561160672E+02  0.51100000000E-03 0. -1.
        -11    1    3    3    0    0  0.11186125430E+02  0.12513881625E+02 -0.30897344424E+01  0.17066724777E+02  0.51100000000E-03 0.  1.
         12    1    3    3    0    0 -0.29506750122E+01 -0.66075865828E+01 -0.12765646533E+02  0.14674072880E+02  0.00000000000E+00 0. -1.
</event>
<event>
 7    1  0.6152255E-013  0.5930193E+02  0.7816164E-02  0.1266605E+00
        -11   -1    0    0    0    0  0.00000000000E+00  0.00000000000E+00  0.45593999997E+02  0.45594000000E+02  0.51100000000E-03 0. -1.
         11   -1    0    0    0    0 -0.00000000000E+00 -0.00000000000E+00 -0.45593999997E+02  0.45594000000E+02  0.51100000000E-03 0.  1.
    9900012    2    1    2    0    0 -0.95896849832E+01 -0.61268709318E+01  0.29786252430E+02  0.59301930325E+02  0.49999975009E+02 0.  0.
        -12    1    1    2    0    0  0.95896849832E+01  0.61268709318E+01 -0.29786252430E+02  0.31886069675E+02  0.00000000000E+00 0.  1.
         11    1    3    3    0    0  0.68744985152E+01 -0.18046600385E+01  0.96049922846E+01  0.11948698872E+02  0.51100000000E-03 0. -1.
        -11    1    3    3    0    0  0.11675139323E+02  0.43550258465E+01  0.16726315577E+01  0.12572701576E+02  0.51100000000E-03 0.  1.
        -12    1    3    3    0    0 -0.28139322821E+02 -0.86772367399E+01  0.18508628588E+02  0.34780529876E+02  0.00000000000E+00 0.  1.
</event>
<event>
 7    1  0.6152255E-013  0.5930197E+02  0.7816164E-02  0.1266605E+00
        -11   -1    0    0    0    0  0.00000000000E+00  0.00000000000E+00  0.45593999997E+02  0.45594000000E+02  0.51100000000E-03 0.  1.
         11   -1    0    0    0    0 -0.00000000000E+00 -0.00000000000E+00 -0.45593999997E+02  0.45594000000E+02  0.51100000000E-03 0. -1.
    9900012    2    1    2    0    0  0.18863099507E+02  0.23012305525E+02  0.11460200201E+02  0.59301969873E+02  0.50000047136E+02 0.  0.
        -12    1    1    2    0    0 -0.18863099507E+02 -0.23012305525E+02 -0.11460200201E+02  0.31886030127E+02  0.00000000000E+00 0.  1.
         11    1    3    3    0    0  0.76089193334E+01  0.90411203461E+01  0.20949209224E+02  0.24052169921E+02  0.51100000000E-03 0. -1.
        -11    1    3    3    0    0  0.25601337220E+00  0.28361499178E+01  0.99177462542E+01  0.10318477612E+02  0.51100000000E-03 0.  1.
         12    1    3    3    0    0  0.10998166802E+02  0.11135035261E+02 -0.19406755277E+02  0.24931322341E+02  0.00000000000E+00 0. -1.
</event>
<event>
 7    1  0.6152255E-013  0.5930188E+02  0.7816164E-02  0.1266605E+00
        -11   -1    0    0    0    0  0.00000000000E+00  0.00000000000E+00  0.45593999997E+02  0.45594000000E+02  0.51100000000E-03 0. -1.
         11   -1    0    0    0    0 -0.00000000000E+00 -0.00000000000E+00 -0.45593999997E+02  0.45594000000E+02  0.51100000000E-03 0.  1.
    9900012    2    1    2    0    0 -0.25855843802E+02 -0.14627955439E+02  0.11585455279E+02  0.59301882127E+02  0.49999887107E+02 0.  0.
        -12    1    1    2    0    0  0.25855843802E+02  0.14627955439E+02 -0.11585455279E+02  0.31886117873E+02  0.00000000000E+00 0.  1.
         11    1    3    3    0    0 -0.15036357813E+02 -0.25415472352E+02  0.29631632067E+01  0.29678588707E+02  0.51100000000E-03 0. -1.
        -11    1    3    3    0    0 -0.16502089792E+00 -0.16758136031E+01 -0.68651321913E+01  0.70686366008E+01  0.51100000000E-03 0.  1.
         12    1    3    3    0    0 -0.10654465091E+02  0.12463330516E+02  0.15487424263E+02  0.22554656819E+02  0.00000000000E+00 0. -1.
</event>
<event>
 7    1  0.6152255E-013  0.5930195E+02  0.7816164E-02  0.1266605E+00
        -11   -1    0    0    0    0  0.00000000000E+00  0.00000000000E+00  0.45593999997E+02  0.45594000000E+02  0.51100000000E-03 0. -1.
         11   -1    0    0    0    0 -0.00000000000E+00 -0.00000000000E+00 -0.45593999997E+02  0.45594000000E+02  0.51100000000E-03 0.  1.
    9900012    2    1    2    0    0  0.21821069962E+02  0.97053463574E+01  0.21127400538E+02  0.59301954530E+02  0.50000019154E+02 0.  0.
        -12    1    1    2    0    0 -0.21821069962E+02 -0.97053463574E+01 -0.21127400538E+02  0.31886045470E+02  0.00000000000E+00 0.  1.
         11    1    3    3    0    0  0.14641310792E+01  0.10601281856E+02 -0.63951117331E+01  0.12467089121E+02  0.51100000000E-03 0. -1.
        -11    1    3    3    0    0  0.12066862154E+02 -0.12283397915E+01 -0.51118161340E+01  0.13162395121E+02  0.51100000000E-03 0.  1.
        -12    1    3    3    0    0  0.82900767291E+01  0.33240429273E+00  0.32634328405E+02  0.33672470288E+02  0.00000000000E+00 0.  1.
</event>
<event>
 7    1  0.6152255E-013  0.5930192E+02  0.7816164E-02  0.1266605E+00
        -11   -1    0    0    0    0  0.00000000000E+00  0.00000000000E+00  0.45593999997E+02  0.45594000000E+02  0.51100000000E-03 0.  1.
         11   -1    0    0    0    0 -0.00000000000E+00 -0.00000000000E+00 -0.45593999997E+02  0.45594000000E+02  0.51100000000E-03 0. -1.
    9900012    2    1    2    0    0  0.30218538044E+01  0.28296730825E+02 -0.14383519866E+02  0.59301918090E+02  0.49999952697E+02 0.  0.
        -12    1    1    2    0    0 -0.30218538044E+01 -0.28296730825E+02  0.14383519866E+02  0.31886081910E+02  0.00000000000E+00 0.  1.
         11    1    3    3    0    0  0.31868078031E+00 -0.11556215896E+01  0.59592882598E+01  0.60786623136E+01  0.51100000000E-03 0.  1.
        -11    1    3    3    0    0 -0.16400687300E+02  0.19775017420E+02 -0.33975003009E+01  0.25914800142E+02  0.51100000000E-03 0. -1.
         12    1    3    3    0    0  0.19103860324E+02  0.96773349950E+01 -0.16945307825E+02  0.27308455635E+02  0.00000000000E+00 0. -1.
</event>
<event>
 7    1  0.6152255E-013  0.5930197E+02  0.7816164E-02  0.1266605E+00
        -11   -1    0    0    0    0  0.00000000000E+00  0.00000000000E+00  0.45593999997E+02  0.45594000000E+02  0.51100000000E-03 0.  1.
         11   -1    0    0    0    0 -0.00000000000E+00 -0.00000000000E+00 -0.45593999997E+02  0.45594000000E+02  0.51100000000E-03 0. -1.
    9900012    2    1    2    0    0 -0.29179369343E+02 -0.66900618972E+01 -0.10978457205E+02  0.59301967853E+02  0.50000043452E+02 0.  0.
        -12    1    1    2    0    0  0.29179369343E+02  0.66900618972E+01  0.10978457205E+02  0.31886032147E+02  0.00000000000E+00 0.  1.
         11    1    3    3    0    0 -0.94611352006E+01  0.23942731632E+01 -0.18774407844E+02  0.21159489914E+02  0.51100000000E-03 0. -1.
        -11    1    3    3    0    0 -0.24168694112E+02 -0.92776751005E+01 -0.33832914400E+01  0.26108383550E+02  0.51100000000E-03 0.  1.
        -12    1    3    3    0    0  0.44504599696E+01  0.19334004012E+00  0.11179242079E+02  0.12034094389E+02  0.00000000000E+00 0.  1.
</event>
<event>
 7    1  0.6152255E-013  0.5930194E+02  0.7816164E-02  0.1266605E+00
        -11   -1    0    0    0    0  0.00000000000E+00  0.00000000000E+00  0.45593999997E+02  0.45594000000E+02  0.51100000000E-03 0.  1.
         11   -1    0    0    0    0 -0.00000000000E+00 -0.00000000000E+00 -0.45593999997E+02  0.45594000000E+02  0.51100000000E-03 0. -1.
    9900012    2    1    2    0    0  0.91752947975E+01 -0.29422216950E+01 -0.30395360489E+02  0.59301942822E+02  0.49999997801E+02 0.  0.
        -12    1    1    2    0    0 -0.91752947975E+01  0.29422216950E+01  0.30395360489E+02  0.31886057178E+02  0.00000000000E+00 0.  1.
         11    1    3    3    0    0 -0.49415341695E+01 -0.14350354910E+01 -0.29510402963E+02  0.29955666745E+02  0.51100000000E-03 0. -1.
        -11    1    3    3    0    0 -0.67190982062E+01 -0.63407882690E-01 -0.45857159980E+01  0.81350533336E+01  0.51100000000E-03 0.  1.
         12    1    3    3    0    0  0.20835927173E+02 -0.14437783213E+01  0.37007584727E+01  0.21211222744E+02  0.00000000000E+00 0. -1.
</event>
<event>
 7    1  0.6152255E-013  0.5930194E+02  0.7816164E-02  0.1266605E+00
        -11   -1    0    0    0    0  0.00000000000E+00  0.00000000000E+00  0.45593999997E+02  0.45594000000E+02  0.51100000000E-03 0.  1.
         11   -1    0    0    0    0 -0.00000000000E+00 -0.00000000000E+00 -0.45593999997E+02  0.45594000000E+02  0.51100000000E-03 0. -1.
    9900012    2    1    2    0    0 -0.29986054863E+02  0.10295699543E+02 -0.33994018617E+01  0.59301939592E+02  0.49999991910E+02 0.  0.
        -12    1    1    2    0    0  0.29986054863E+02 -0.10295699543E+02  0.33994018617E+01  0.31886060408E+02  0.00000000000E+00 0.  1.
         11    1    3    3    0    0  0.19541259635E+01 -0.34151739659E+01  0.10987425975E+02  0.11670713402E+02  0.51100000000E-03 0. -1.
        -11    1    3    3    0    0 -0.62781025129E+00 -0.74516401527E+01 -0.10368507469E+01  0.75495792206E+01  0.51100000000E-03 0.  1.
         12    1    3    3    0    0 -0.31312370575E+02  0.21162513661E+02 -0.13349977089E+02  0.40081646970E+02  0.00000000000E+00 0. -1.
</event>
<event>
 7    1  0.6152255E-013  0.5930196E+02  0.7816164E-02  0.1266605E+00
        -11   -1    0    0    0    0  0.00000000000E+00  0.00000000000E+00  0.45593999997E+02  0.45594000000E+02  0.51100000000E-03 0. -1.
         11   -1    0    0    0    0 -0.00000000000E+00 -0.00000000000E+00 -0.45593999997E+02  0.45594000000E+02  0.51100000000E-03 0.  1.
    9900012    2    1    2    0    0 -0.11394412995E+02  0.29203784069E+02  0.58331888559E+01  0.59301956914E+02  0.50000023501E+02 0.  0.
        -12    1    1    2    0    0  0.11394412995E+02 -0.29203784069E+02 -0.58331888559E+01  0.31886043086E+02  0.00000000000E+00 0.  1.
         11    1    3    3    0    0  0.12396106303E+02  0.27440466446E+01 -0.10662223706E+01  0.12740881989E+02  0.51100000000E-03 0. -1.
        -11    1    3    3    0    0  0.13940852978E+01 -0.20222737428E+01 -0.59434016449E+01  0.64309476971E+01  0.51100000000E-03 0.  1.
         12    1    3    3    0    0 -0.25184604596E+02  0.28482011168E+02  0.12842812871E+02  0.40130127227E+02  0.00000000000E+00 0. -1.
</event>
<event>
 7    1  0.6152255E-013  0.5930196E+02  0.7816164E-02  0.1266605E+00
        -11   -1    0    0    0    0  0.00000000000E+00  0.00000000000E+00  0.45593999997E+02  0.45594000000E+02  0.51100000000E-03 0.  1.
         11   -1    0    0    0    0 -0.00000000000E+00 -0.00000000000E+00 -0.45593999997E+02  0.45594000000E+02  0.51100000000E-03 0. -1.
    9900012    2    1    2    0    0 -0.33204208497E+01  0.31163236777E+02  0.58776777787E+01  0.59301958899E+02  0.50000027122E+02 0.  0.
        -12    1    1    2    0    0  0.33204208497E+01 -0.31163236777E+02 -0.58776777787E+01  0.31886041101E+02  0.00000000000E+00 0.  1.
         11    1    3    3    0    0  0.17137424335E+02  0.73215744549E+01  0.49129917358E+01  0.19272629644E+02  0.51100000000E-03 0. -1.
        -11    1    3    3    0    0 -0.76069829339E+01 -0.38124156649E+01  0.39661810816E+01  0.93878269686E+01  0.51100000000E-03 0.  1.
         12    1    3    3    0    0 -0.12850862251E+02  0.27654077987E+02 -0.30014950387E+01  0.30641502286E+02  0.00000000000E+00 0. -1.
</event>
<event>
 7    1  0.6152255E-013  0.5930194E+02  0.7816164E-02  0.1266605E+00
        -11   -1    0    0    0    0  0.00000000000E+00  0.00000000000E+00  0.45593999997E+02  0.45594000000E+02  0.51100000000E-03 0.  1.
         11   -1    0    0    0    0 -0.00000000000E+00 -0.00000000000E+00 -0.45593999997E+02  0.45594000000E+02  0.51100000000E-03 0. -1.
    9900012    2    1    2    0    0 -0.17420018583E+02  0.22577291965E+02 -0.14266373210E+02  0.59301944043E+02  0.50000000028E+02 0.  0.
        -12    1    1    2    0    0  0.17420018583E+02 -0.22577291965E+02  0.14266373210E+02  0.31886055957E+02  0.00000000000E+00 0.  1.
         11    1    3    3    0    0  0.98062718996E+01  0.22563635130E+02  0.12903651902E+00  0.24602789466E+02  0.51100000000E-03 0. -1.
        -11    1    3    3    0    0 -0.97422392922E+01  0.69618657686E+01 -0.94282246632E+01  0.15240414101E+02  0.51100000000E-03 0.  1.
        -12    1    3    3    0    0 -0.17484051191E+02 -0.69482089331E+01 -0.49671850656E+01  0.19458740476E+02  0.00000000000E+00 0.  1.
</event>
<event>
 7    1  0.6152255E-013  0.5930195E+02  0.7816164E-02  0.1266605E+00
        -11   -1    0    0    0    0  0.00000000000E+00  0.00000000000E+00  0.45593999997E+02  0.45594000000E+02  0.51100000000E-03 0.  1.
         11   -1    0    0    0    0 -0.00000000000E+00 -0.00000000000E+00 -0.45593999997E+02  0.45594000000E+02  0.51100000000E-03 0. -1.
    9900012    2    1    2    0    0  0.11407040033E+02  0.18315601672E+02 -0.23476339629E+02  0.59301947417E+02  0.50000006182E+02 0.  0.
        -12    1    1    2    0    0 -0.11407040033E+02 -0.18315601672E+02  0.23476339629E+02  0.31886052583E+02  0.00000000000E+00 0.  1.
         11    1    3    3    0    0  0.48211060920E+01  0.24716345761E+02 -0.12181334964E+02  0.27973661424E+02  0.51100000000E-03 0.  1.
        -11    1    3    3    0    0 -0.79667798358E+01  0.58740947360E+01 -0.59707485526E+01  0.11559602435E+02  0.51100000000E-03 0. -1.
         12    1    3    3    0    0  0.14552713777E+02 -0.12274838825E+02 -0.53242561126E+01  0.19768683558E+02  0.00000000000E+00 0. -1.
</event>
<event>
 7    1  0.6152255E-013  0.5930196E+02  0.7816164E-02  0.1266605E+00
        -11   -1    0    0    0    0  0.00000000000E+00  0.00000000000E+00  0.45593999997E+02  0.45594000000E+02  0.51100000000E-03 0. -1.
         11   -1    0    0    0    0 -0.00000000000E+00 -0.00000000000E+00 -0.45593999997E+02  0.45594000000E+02  0.51100000000E-03 0.  1.
    9900012    2    1    2    0    0 -0.73887303557E+01  0.29415218323E+02 -0.98423290381E+01  0.59301955307E+02  0.50000020571E+02 0.  0.
        -12    1    1    2    0    0  0.73887303557E+01 -0.29415218323E+02  0.98423290381E+01  0.31886044693E+02  0.00000000000E+00 0.  1.
         11    1    3    3    0    0  0.18777216880E+02  0.96315552326E+01  0.50923340069E+01  0.21709044103E+02  0.51100000000E-03 0. -1.
        -11    1    3    3    0    0 -0.34039858046E+01  0.19616181664E+01 -0.62951615992E+01  0.74205205349E+01  0.51100000000E-03 0.  1.
        -12    1    3    3    0    0 -0.22761961431E+02  0.17822044924E+02 -0.86395014459E+01  0.30172390669E+02  0.00000000000E+00 0.  1.
</event>
<event>
 7    1  0.6152255E-013  0.5930194E+02  0.7816164E-02  0.1266605E+00
        -11   -1    0    0    0    0  0.00000000000E+00  0.00000000000E+00  0.45593999997E+02  0.45594000000E+02  0.51100000000E-03 0.  1.
         11   -1    0    0    0    0 -0.00000000000E+00 -0.00000000000E+00 -0.45593999997E+02  0.45594000000E+02  0.51100000000E-03 0. -1.
    9900012    2    1    2    0    0 -0.12207756239E+02 -0.24047297292E+02 -0.17012318283E+02  0.59301940462E+02  0.49999993498E+02 0.  0.
        -12    1    1    2    0    0  0.12207756239E+02  0.24047297292E+02  0.17012318283E+02  0.31886059538E+02  0.00000000000E+00 0.  1.
         11    1    3    3    0    0  0.36266539827E+01 -0.13494415712E+02 -0.24655044938E+02  0.28339426876E+02  0.51100000000E-03 0. -1.
        -11    1    3    3    0    0 -0.11337823952E+02 -0.12140678392E+01 -0.67312557297E+01  0.13241224137E+02  0.51100000000E-03 0.  1.
        -12    1    3    3    0    0 -0.44965862701E+01 -0.93388137414E+01  0.14373982384E+02  0.17721289450E+02  0.00000000000E+00 0.  1.
</event>
<event>
 7    1  0.6152255E-013  0.5930181E+02  0.7816164E-02  0.1266605E+00
        -11   -1    0    0    0    0  0.00000000000E+00  0.00000000000E+00  0.45593999997E+02  0.45594000000E+02  0.51100000000E-03 0. -1.
         11   -1    0    0    0    0 -0.00000000000E+00 -0.00000000000E+00 -0.45593999997E+02  0.45594000000E+02  0.51100000000E-03 0.  1.
    9900012    2    1    2    0    0 -0.12836656575E+02 -0.13350093879E+02  0.25956198309E+02  0.59301811936E+02  0.49999759095E+02 0.  0.
        -12    1    1    2    0    0  0.12836656575E+02  0.13350093879E+02 -0.25956198309E+02  0.31886188064E+02  0.00000000000E+00 0.  1.
         11    1    3    3    0    0 -0.15849104474E+02  0.58208013575E+01  0.15900322279E+02  0.23192586960E+02  0.51100000000E-03 0. -1.
        -11    1    3    3    0    0 -0.10954999449E+02 -0.15963326711E+02  0.15007450364E+01  0.19418858065E+02  0.51100000000E-03 0.  1.
         12    1    3    3    0    0  0.13967447348E+02 -0.32075685254E+01  0.85551309940E+01  0.16690366910E+02  0.00000000000E+00 0. -1.
</event>
<event>
 7    1  0.6152255E-013  0.5930195E+02  0.7816164E-02  0.1266605E+00
        -11   -1    0    0    0    0  0.00000000000E+00  0.00000000000E+00  0.45593999997E+02  0.45594000000E+02  0.51100000000E-03 0. -1.
         11   -1    0    0    0    0 -0.00000000000E+00 -0.00000000000E+00 -0.45593999997E+02  0.45594000000E+02  0.51100000000E-03 0.  1.
    9900012    2    1    2    0    0  0.67845855713E+01 -0.20576854733E+01  0.31087870338E+02  0.59301947358E+02  0.50000006074E+02 0.  0.
        -12    1    1    2    0    0 -0.67845855713E+01  0.20576854733E+01 -0.31087870338E+02  0.31886052642E+02  0.00000000000E+00 0.  1.
         11    1    3    3    0    0  0.52620961314E+00 -0.46070777802E+01 -0.48256856852E+01  0.66924812158E+01  0.51100000000E-03 0. -1.
        -11    1    3    3    0    0 -0.16047678079E+02  0.10403301692E+01  0.14567423837E+02  0.21698389252E+02  0.51100000000E-03 0.  1.
         12    1    3    3    0    0  0.22306054037E+02  0.15090621377E+01  0.21346132186E+02  0.30911076891E+02  0.00000000000E+00 0. -1.
</event>
<event>
 7    1  0.6152255E-013  0.5930196E+02  0.7816164E-02  0.1266605E+00
        -11   -1    0    0    0    0  0.00000000000E+00  0.00000000000E+00  0.45593999997E+02  0.45594000000E+02  0.51100000000E-03 0. -1.
         11   -1    0    0    0    0 -0.00000000000E+00 -0.00000000000E+00 -0.45593999997E+02  0.45594000000E+02  0.51100000000E-03 0.  1.
    9900012    2    1    2    0    0  0.10764768277E+02 -0.41594884032E+01  0.29724370816E+02  0.59301956027E+02  0.50000021884E+02 0.  0.
        -12    1    1    2    0    0 -0.10764768277E+02  0.41594884032E+01 -0.29724370816E+02  0.31886043973E+02  0.00000000000E+00 0.  1.
         11    1    3    3    0    0  0.97148406736E+01 -0.51760833230E+01  0.20252174601E+02  0.23050391411E+02  0.51100000000E-03 0. -1.
        -11    1    3    3    0    0 -0.75881423330E+01  0.10111323839E+02  0.17329488208E+02  0.21450639516E+02  0.51100000000E-03 0.  1.
        -12    1    3    3    0    0  0.86380699359E+01 -0.90947289190E+01 -0.78572919937E+01  0.14800925100E+02  0.00000000000E+00 0.  1.
</event>
<event>
 7    1  0.6152255E-013  0.5930193E+02  0.7816164E-02  0.1266605E+00
        -11   -1    0    0    0    0  0.00000000000E+00  0.00000000000E+00  0.45593999997E+02  0.45594000000E+02  0.51100000000E-03 0. -1.
         11   -1    0    0    0    0 -0.00000000000E+00 -0.00000000000E+00 -0.45593999997E+02  0.45594000000E+02  0.51100000000E-03 0.  1.
    9900012    2    1    2    0    0 -0.18359404195E+02 -0.21744990728E+02  0.14380849437E+02  0.59301934475E+02  0.49999982578E+02 0.  0.
        -12    1    1    2    0    0  0.18359404195E+02  0.21744990728E+02 -0.14380849437E+02  0.31886065525E+02  0.00000000000E+00 0.  1.
         11    1    3    3    0    0 -0.99540457341E+01  0.57196985822E+01 -0.38653150642E+01  0.12113572518E+02  0.51100000000E-03 0.  1.
        -11    1    3    3    0    0  0.65643002318E+01 -0.11225459468E+02  0.21235458498E+02  0.24900716369E+02  0.51100000000E-03 0. -1.
         12    1    3    3    0    0 -0.14969658693E+02 -0.16239229842E+02 -0.29892939970E+01  0.22287645588E+02  0.00000000000E+00 0. -1.
</event>
<event>
 7    1  0.6152255E-013  0.5930195E+02  0.7816164E-02  0.1266605E+00
        -11   -1    0    0    0    0  0.00000000000E+00  0.00000000000E+00  0.45593999997E+02  0.45594000000E+02  0.51100000000E-03 0.  1.
         11   -1    0    0    0    0 -0.00000000000E+00 -0.00000000000E+00 -0.45593999997E+02  0.45594000000E+02  0.51100000000E-03 0. -1.
    9900012    2    1    2    0    0  0.18023134781E+01 -0.31663581725E+02  0.32999300917E+01  0.59301948502E+02  0.50000008161E+02 0.  0.
        -12    1    1    2    0    0 -0.18023134781E+01  0.31663581725E+02 -0.32999300917E+01  0.31886051498E+02  0.00000000000E+00 0.  1.
         11    1    3    3    0    0 -0.75289965228E+00 -0.28029376752E+00  0.72905278420E+01  0.73346587486E+01  0.51100000000E-03 0. -1.
        -11    1    3    3    0    0  0.18001083021E+02 -0.22968412636E+01  0.27418105781E+01  0.18352983278E+02  0.51100000000E-03 0.  1.
         12    1    3    3    0    0 -0.15445869890E+02 -0.29086446694E+02 -0.67324083284E+01  0.33614306475E+02  0.00000000000E+00 0. -1.
</event>
<event>
 7    1  0.6152255E-013  0.5930193E+02  0.7816164E-02  0.1266605E+00
        -11   -1    0    0    0    0  0.00000000000E+00  0.00000000000E+00  0.45593999997E+02  0.45594000000E+02  0.51100000000E-03 0. -1.
         11   -1    0    0    0    0 -0.00000000000E+00 -0.00000000000E+00 -0.45593999997E+02  0.45594000000E+02  0.51100000000E-03 0.  1.
    9900012    2    1    2    0    0 -0.18207975315E+02  0.90407640791E+01  0.24565328769E+02  0.59301934741E+02  0.49999983063E+02 0.  0.
        -12    1    1    2    0    0  0.18207975315E+02 -0.90407640791E+01 -0.24565328769E+02  0.31886065259E+02  0.00000000000E+00 0.  1.
         11    1    3    3    0    0 -0.10457119250E+02 -0.70582659306E+01  0.10271107753E+02  0.16268562189E+02  0.51100000000E-03 0. -1.
        -11    1    3    3    0    0  0.42364089020E+01 -0.67848678275E+01  0.15208533270E+02  0.17183744537E+02  0.51100000000E-03 0.  1.
         12    1    3    3    0    0 -0.11987264967E+02  0.22883897837E+02 -0.91431225431E+00  0.25849628015E+02  0.00000000000E+00 0. -1.
</event>
<event>
 7    1  0.6152255E-013  0.5930197E+02  0.7816164E-02  0.1266605E+00
        -11   -1    0    0    0    0  0.00000000000E+00  0.00000000000E+00  0.45593999997E+02  0.45594000000E+02  0.51100000000E-03 0.  1.
         11   -1    0    0    0    0 -0.00000000000E+00 -0.00000000000E+00 -0.45593999997E+02  0.45594000000E+02  0.51100000000E-03 0. -1.
    9900012    2    1    2    0    0 -0.22318045683E+02  0.21508869532E+02 -0.74828116317E+01  0.59301966983E+02  0.50000041865E+02 0.  0.
        -12    1    1    2    0    0  0.22318045683E+02 -0.21508869532E+02  0.74828116317E+01  0.31886033017E+02  0.00000000000E+00 0.  1.
         11    1    3    3    0    0 -0.20679110535E+02  0.12451293989E+02  0.65799646863E+01  0.25019118091E+02  0.51100000000E-03 0. -1.
        -11    1    3    3    0    0  0.36300725530E+01  0.15930785269E+02  0.15669611996E+01  0.16414101063E+02  0.51100000000E-03 0.  1.
         12    1    3    3    0    0 -0.52690077006E+01 -0.68732097270E+01 -0.15629737518E+02  0.17868747829E+02  0.00000000000E+00 0. -1.
</event>
<event>
 7    1  0.6152255E-013  0.5930198E+02  0.7816164E-02  0.1266605E+00
        -11   -1    0    0    0    0  0.00000000000E+00  0.00000000000E+00  0.45593999997E+02  0.45594000000E+02  0.51100000000E-03 0.  1.
         11   -1    0    0    0    0 -0.00000000000E+00 -0.00000000000E+00 -0.45593999997E+02  0.45594000000E+02  0.51100000000E-03 0. -1.
    9900012    2    1    2    0    0  0.84845005170E+01  0.27677283303E+02 -0.13367859993E+02  0.59301977344E+02  0.50000060760E+02 0.  0.
        -12    1    1    2    0    0 -0.84845005170E+01 -0.27677283303E+02  0.13367859993E+02  0.31886022656E+02  0.00000000000E+00 0.  1.
         11    1    3    3    0    0 -0.46059135082E+01  0.77745848764E+01  0.14295637882E+01  0.91488940386E+01  0.51100000000E-03 0. -1.
        -11    1    3    3    0    0 -0.97784912757E+01  0.62177490440E+00 -0.17565058099E+02  0.20113099263E+02  0.51100000000E-03 0.  1.
         12    1    3    3    0    0  0.22868905301E+02  0.19280923522E+02  0.27676343184E+01  0.30039984042E+02  0.00000000000E+00 0. -1.
</event>
<event>
 7    1  0.6152255E-013  0.5930193E+02  0.7816164E-02  0.1266605E+00
        -11   -1    0    0    0    0  0.00000000000E+00  0.00000000000E+00  0.45593999997E+02  0.45594000000E+02  0.51100000000E-03 0. -1.
         11   -1    0    0    0    0 -0.00000000000E+00 -0.00000000000E+00 -0.45593999997E+02  0.45594000000E+02  0.51100000000E-03 0.  1.
    9900012    2    1    2    0    0  0.95788646548E+01 -0.29266907699E+02 -0.82713429630E+01  0.59301927041E+02  0.49999969019E+02 0.  0.
        -12    1    1    2    0    0 -0.95788646548E+01  0.29266907699E+02  0.82713429630E+01  0.31886072959E+02  0.00000000000E+00 0.  1.
         11    1    3    3    0    0 -0.56177998244E+00 -0.21970384556E+02  0.10532621345E+02  0.24371079314E+02  0.51100000000E-03 0. -1.
        -11    1    3    3    0    0  0.10621754982E+02 -0.13827437024E+02 -0.28269434940E+01  0.17663841692E+02  0.51100000000E-03 0.  1.
        -12    1    3    3    0    0 -0.48111034473E+00  0.65309138806E+01 -0.15977020814E+02  0.17267006034E+02  0.00000000000E+00 0.  1.
</event>
<event>
 7    1  0.6152255E-013  0.5930215E+02  0.7816164E-02  0.1266604E+00
        -11   -1    0    0    0    0  0.00000000000E+00  0.00000000000E+00  0.45593999997E+02  0.45594000000E+02  0.51100000000E-03 0. -1.
         11   -1    0    0    0    0 -0.00000000000E+00 -0.00000000000E+00 -0.45593999997E+02  0.45594000000E+02  0.51100000000E-03 0.  1.
    9900012    2    1    2    0    0 -0.21488845059E+01  0.28619739679E+02  0.13892460022E+02  0.59302146563E+02  0.50000369375E+02 0.  0.
        -12    1    1    2    0    0  0.21488845059E+01 -0.28619739679E+02 -0.13892460022E+02  0.31885853437E+02  0.00000000000E+00 0.  1.
         11    1    3    3    0    0 -0.87982854777E+01  0.62071242864E+01  0.26265136387E+02  0.28386539221E+02  0.51100000000E-03 0. -1.
        -11    1    3    3    0    0  0.47483346703E+00  0.63190985557E+01  0.37079599580E+01  0.73420324631E+01  0.51100000000E-03 0.  1.
        -12    1    3    3    0    0  0.61745675048E+01  0.16093516837E+02 -0.16080636322E+02  0.23573574879E+02  0.00000000000E+00 0.  1.
</event>
<event>
 7    1  0.6152255E-013  0.5930196E+02  0.7816164E-02  0.1266605E+00
        -11   -1    0    0    0    0  0.00000000000E+00  0.00000000000E+00  0.45593999997E+02  0.45594000000E+02  0.51100000000E-03 0. -1.
         11   -1    0    0    0    0 -0.00000000000E+00 -0.00000000000E+00 -0.45593999997E+02  0.45594000000E+02  0.51100000000E-03 0.  1.
    9900012    2    1    2    0    0  0.17272171614E+02 -0.21921649208E+02  0.15421838856E+02  0.59301957129E+02  0.50000023893E+02 0.  0.
        -12    1    1    2    0    0 -0.17272171614E+02  0.21921649208E+02 -0.15421838856E+02  0.31886042871E+02  0.00000000000E+00 0.  1.
         11    1    3    3    0    0  0.11183828125E+02 -0.36577949300E+01 -0.44861618046E+01  0.12592979127E+02  0.51100000000E-03 0. -1.
        -11    1    3    3    0    0  0.13137784364E+01  0.11394853836E+02  0.17392727580E+01  0.11601455844E+02  0.51100000000E-03 0.  1.
         12    1    3    3    0    0  0.47745650526E+01 -0.29658708114E+02  0.18168727903E+02  0.35107522158E+02  0.00000000000E+00 0. -1.
</event>
<event>
 7    1  0.6152255E-013  0.5930196E+02  0.7816164E-02  0.1266605E+00
        -11   -1    0    0    0    0  0.00000000000E+00  0.00000000000E+00  0.45593999997E+02  0.45594000000E+02  0.51100000000E-03 0.  1.
         11   -1    0    0    0    0 -0.00000000000E+00 -0.00000000000E+00 -0.45593999997E+02  0.45594000000E+02  0.51100000000E-03 0. -1.
    9900012    2    1    2    0    0 -0.17025314232E+02  0.26960165118E+02 -0.89065369743E-01  0.59301956650E+02  0.50000023019E+02 0.  0.
        -12    1    1    2    0    0  0.17025314232E+02 -0.26960165118E+02  0.89065369743E-01  0.31886043350E+02  0.00000000000E+00 0.  1.
         11    1    3    3    0    0 -0.13598092833E+02 -0.61748783606E+01 -0.47990527237E+01  0.15686559813E+02  0.51100000000E-03 0. -1.
        -11    1    3    3    0    0  0.70190211573E+01 -0.14690710854E+01  0.15029594676E+01  0.73269171745E+01  0.51100000000E-03 0.  1.
         12    1    3    3    0    0 -0.10446242557E+02  0.34604114564E+02  0.32070278864E+01  0.36288479662E+02  0.00000000000E+00 0. -1.
</event>
<event>
 7    1  0.6152255E-013  0.5930196E+02  0.7816164E-02  0.1266605E+00
        -11   -1    0    0    0    0  0.00000000000E+00  0.00000000000E+00  0.45593999997E+02  0.45594000000E+02  0.51100000000E-03 0.  1.
         11   -1    0    0    0    0 -0.00000000000E+00 -0.00000000000E+00 -0.45593999997E+02  0.45594000000E+02  0.51100000000E-03 0. -1.
    9900012    2    1    2    0    0  0.25266870569E+02 -0.79518940915E+00 -0.19433790801E+02  0.59301963880E+02  0.50000036206E+02 0.  0.
        -12    1    1    2    0    0 -0.25266870569E+02  0.79518940915E+00  0.19433790801E+02  0.31886036120E+02  0.00000000000E+00 0.  1.
         11    1    3    3    0    0  0.26479222703E+02  0.31421857220E+01 -0.24949704956E+00  0.26666173612E+02  0.51100000000E-03 0.  1.
        -11    1    3    3    0    0 -0.20167370552E+00  0.11128949708E+02 -0.63268244607E+01  0.12803237946E+02  0.51100000000E-03 0. -1.
         12    1    3    3    0    0 -0.10106784286E+01 -0.15066324839E+02 -0.12857469291E+02  0.19832552322E+02  0.00000000000E+00 0. -1.
</event>
<event>
 7    1  0.6152255E-013  0.5930196E+02  0.7816164E-02  0.1266605E+00
        -11   -1    0    0    0    0  0.00000000000E+00  0.00000000000E+00  0.45593999997E+02  0.45594000000E+02  0.51100000000E-03 0. -1.
         11   -1    0    0    0    0 -0.00000000000E+00 -0.00000000000E+00 -0.45593999997E+02  0.45594000000E+02  0.51100000000E-03 0.  1.
    9900012    2    1    2    0    0 -0.17149614473E+02 -0.26877564305E+02  0.45504947831E+00  0.59301955881E+02  0.50000021617E+02 0.  0.
        -12    1    1    2    0    0  0.17149614473E+02  0.26877564305E+02 -0.45504947831E+00  0.31886044119E+02  0.00000000000E+00 0.  1.
         11    1    3    3    0    0 -0.45519420461E+01 -0.15775316229E+02 -0.92185391372E+01  0.18829823223E+02  0.51100000000E-03 0. -1.
        -11    1    3    3    0    0  0.10796823197E+02 -0.12321825279E+01 -0.40649265303E+01  0.11602296880E+02  0.51100000000E-03 0.  1.
         12    1    3    3    0    0 -0.23394495624E+02 -0.98700655476E+01  0.13738515146E+02  0.28869835778E+02  0.00000000000E+00 0. -1.
</event>
<event>
 7    1  0.6152255E-013  0.5930190E+02  0.7816164E-02  0.1266605E+00
        -11   -1    0    0    0    0  0.00000000000E+00  0.00000000000E+00  0.45593999997E+02  0.45594000000E+02  0.51100000000E-03 0.  1.
         11   -1    0    0    0    0 -0.00000000000E+00 -0.00000000000E+00 -0.45593999997E+02  0.45594000000E+02  0.51100000000E-03 0. -1.
    9900012    2    1    2    0    0  0.18362473318E+02  0.25939465197E+02 -0.25858817119E+01  0.59301904828E+02  0.49999928509E+02 0.  0.
        -12    1    1    2    0    0 -0.18362473318E+02 -0.25939465197E+02  0.25858817119E+01  0.31886095172E+02  0.00000000000E+00 0.  1.
         11    1    3    3    0    0  0.20808212857E+02  0.71793878624E+00  0.81101526565E+01  0.22344389335E+02  0.51100000000E-03 0. -1.
        -11    1    3    3    0    0 -0.10536020272E+02  0.19903970538E+01 -0.23149513598E+01  0.10969430416E+02  0.51100000000E-03 0.  1.
         12    1    3    3    0    0  0.80902807333E+01  0.23231129357E+02 -0.83810830087E+01  0.25988085077E+02  0.00000000000E+00 0. -1.
</event>
<event>
 7    1  0.6152255E-013  0.5930195E+02  0.7816164E-02  0.1266605E+00
        -11   -1    0    0    0    0  0.00000000000E+00  0.00000000000E+00  0.45593999997E+02  0.45594000000E+02  0.51100000000E-03 0.  1.
         11   -1    0    0    0    0 -0.00000000000E+00 -0.00000000000E+00 -0.45593999997E+02  0.45594000000E+02  0.51100000000E-03 0. -1.
    9900012    2    1    2    0    0  0.20138245234E+02 -0.22034356674E+02  0.11209746399E+02  0.59301949610E+02  0.50000010180E+02 0.  0.
        -12    1    1    2    0    0 -0.20138245234E+02  0.22034356674E+02 -0.11209746399E+02  0.31886050390E+02  0.00000000000E+00 0.  1.
         11    1    3    3    0    0  0.59996187130E+01 -0.99497796443E+01 -0.55748585623E+01  0.12886915377E+02  0.51100000000E-03 0. -1.
        -11    1    3    3    0    0  0.18307779404E+02 -0.38473269353E+01 -0.77131751951E+01  0.20235359723E+02  0.51100000000E-03 0.  1.
         12    1    3    3    0    0 -0.41691528827E+01 -0.82372500949E+01  0.24497780156E+02  0.26179674510E+02  0.00000000000E+00 0. -1.
</event>
<event>
 7    1  0.6152255E-013  0.5930194E+02  0.7816164E-02  0.1266605E+00
        -11   -1    0    0    0    0  0.00000000000E+00  0.00000000000E+00  0.45593999997E+02  0.45594000000E+02  0.51100000000E-03 0. -1.
         11   -1    0    0    0    0 -0.00000000000E+00 -0.00000000000E+00 -0.45593999997E+02  0.45594000000E+02  0.51100000000E-03 0.  1.
    9900012    2    1    2    0    0 -0.27409569825E+01  0.20972726028E+02  0.23861116143E+02  0.59301938064E+02  0.49999989123E+02 0.  0.
        -12    1    1    2    0    0  0.27409569825E+01 -0.20972726028E+02 -0.23861116143E+02  0.31886061936E+02  0.00000000000E+00 0.  1.
         11    1    3    3    0    0 -0.10869583906E+01  0.23074140703E+02  0.17088400376E+02  0.28733445241E+02  0.51100000000E-03 0. -1.
        -11    1    3    3    0    0 -0.12313291921E+01  0.98850092362E+01 -0.70978604097E+01  0.12231484041E+02  0.51100000000E-03 0.  1.
        -12    1    3    3    0    0 -0.42266939982E+00 -0.11986423911E+02  0.13870576177E+02  0.18337008782E+02  0.00000000000E+00 0.  1.
</event>
<event>
 7    1  0.6152255E-013  0.5930193E+02  0.7816164E-02  0.1266605E+00
        -11   -1    0    0    0    0  0.00000000000E+00  0.00000000000E+00  0.45593999997E+02  0.45594000000E+02  0.51100000000E-03 0. -1.
         11   -1    0    0    0    0 -0.00000000000E+00 -0.00000000000E+00 -0.45593999997E+02  0.45594000000E+02  0.51100000000E-03 0.  1.
    9900012    2    1    2    0    0 -0.24946869352E+01  0.22597000115E+02  0.22357858206E+02  0.59301926227E+02  0.49999967535E+02 0.  0.
        -12    1    1    2    0    0  0.24946869352E+01 -0.22597000115E+02 -0.22357858206E+02  0.31886073773E+02  0.00000000000E+00 0.  1.
         11    1    3    3    0    0  0.32533518351E+00 -0.49984115480E+01  0.15394568358E+02  0.16188968348E+02  0.51100000000E-03 0. -1.
        -11    1    3    3    0    0  0.11575966734E+01  0.84853517902E+01  0.18537313677E+02  0.20419922225E+02  0.51100000000E-03 0.  1.
        -12    1    3    3    0    0 -0.39776187921E+01  0.19110059873E+02 -0.11574023829E+02  0.22693035654E+02  0.00000000000E+00 0.  1.
</event>
<event>
 7    1  0.6152255E-013  0.5930197E+02  0.7816164E-02  0.1266605E+00
        -11   -1    0    0    0    0  0.00000000000E+00  0.00000000000E+00  0.45593999997E+02  0.45594000000E+02  0.51100000000E-03 0. -1.
         11   -1    0    0    0    0 -0.00000000000E+00 -0.00000000000E+00 -0.45593999997E+02  0.45594000000E+02  0.51100000000E-03 0.  1.
    9900012    2    1    2    0    0 -0.25181274167E+02 -0.19517132259E+02  0.13053257294E+01  0.59301970213E+02  0.50000047756E+02 0.  0.
        -12    1    1    2    0    0  0.25181274167E+02  0.19517132259E+02 -0.13053257294E+01  0.31886029787E+02  0.00000000000E+00 0.  1.
         11    1    3    3    0    0 -0.15304143671E+02 -0.12910907243E+01 -0.44397431811E+01  0.15987340258E+02  0.51100000000E-03 0. -1.
        -11    1    3    3    0    0 -0.12827882584E+02 -0.12056708795E+01  0.17999077296E+02  0.22135378868E+02  0.51100000000E-03 0.  1.
        -12    1    3    3    0    0  0.29507520872E+01 -0.17020370655E+02 -0.12254008385E+02  0.21179251087E+02  0.00000000000E+00 0.  1.
</event>
<event>
 7    1  0.6152255E-013  0.5930221E+02  0.7816164E-02  0.1266604E+00
        -11   -1    0    0    0    0  0.00000000000E+00  0.00000000000E+00  0.45593999997E+02  0.45594000000E+02  0.51100000000E-03 0.  1.
         11   -1    0    0    0    0 -0.00000000000E+00 -0.00000000000E+00 -0.45593999997E+02  0.45594000000E+02  0.51100000000E-03 0. -1.
    9900012    2    1    2    0    0 -0.24720522063E+02 -0.16308529291E+02 -0.11816556454E+02  0.59302214059E+02  0.50000492469E+02 0.  0.
        -12    1    1    2    0    0  0.24720522063E+02  0.16308529291E+02  0.11816556454E+02  0.31885785941E+02  0.00000000000E+00 0.  1.
         11    1    3    3    0    0  0.14611688134E+01 -0.30488652035E+01 -0.32017010732E+01  0.46563379768E+01  0.51100000000E-03 0.  1.
        -11    1    3    3    0    0 -0.61157496566E+01  0.12374370863E+02  0.10092923402E+02  0.17099548274E+02  0.51100000000E-03 0. -1.
         12    1    3    3    0    0 -0.20065941219E+02 -0.25634034950E+02 -0.18707778783E+02  0.37546327808E+02  0.00000000000E+00 0. -1.
</event>
<event>
 7    1  0.6152255E-013  0.5930208E+02  0.7816164E-02  0.1266604E+00
        -11   -1    0    0    0    0  0.00000000000E+00  0.00000000000E+00  0.45593999997E+02  0.45594000000E+02  0.51100000000E-03 0.  1.
         11   -1    0    0    0    0 -0.00000000000E+00 -0.00000000000E+00 -0.45593999997E+02  0.45594000000E+02  0.51100000000E-03 0. -1.
    9900012    2    1    2    0    0 -0.15020128462E+02 -0.79132925571E+01 -0.26990511556E+02  0.59302075642E+02  0.50000240032E+02 0.  0.
        -12    1    1    2    0    0  0.15020128462E+02  0.79132925571E+01  0.26990511556E+02  0.31885924358E+02  0.00000000000E+00 0.  1.
         11    1    3    3    0    0 -0.18143202676E+01  0.16953972676E+02 -0.47094768678E+01  0.17689209145E+02  0.51100000000E-03 0. -1.
        -11    1    3    3    0    0 -0.24104470375E+01 -0.73802981184E+01 -0.19355895921E+02  0.20854969729E+02  0.51100000000E-03 0.  1.
        -12    1    3    3    0    0 -0.10795361157E+02 -0.17486967115E+02 -0.29251387673E+01  0.20757896767E+02  0.00000000000E+00 0.  1.
</event>
<event>
 7    1  0.6152255E-013  0.5930187E+02  0.7816164E-02  0.1266605E+00
        -11   -1    0    0    0    0  0.00000000000E+00  0.00000000000E+00  0.45593999997E+02  0.45594000000E+02  0.51100000000E-03 0. -1.
         11   -1    0    0    0    0 -0.00000000000E+00 -0.00000000000E+00 -0.45593999997E+02  0.45594000000E+02  0.51100000000E-03 0.  1.
    9900012    2    1    2    0    0  0.71774011729E+01 -0.24539872750E+02  0.19052680072E+02  0.59301873548E+02  0.49999871462E+02 0.  0.
        -12    1    1    2    0    0 -0.71774011729E+01  0.24539872750E+02 -0.19052680072E+02  0.31886126452E+02  0.00000000000E+00 0.  1.
         11    1    3    3    0    0 -0.59936262014E+01  0.83948812617E+00 -0.86361580339E+01  0.10545687327E+02  0.51100000000E-03 0.  1.
        -11    1    3    3    0    0  0.16575158335E+02 -0.20014507261E+02  0.67140443954E+01  0.26840170773E+02  0.51100000000E-03 0. -1.
        -12    1    3    3    0    0 -0.34041309609E+01 -0.53648536152E+01  0.20974793710E+02  0.21916015448E+02  0.00000000000E+00 0.  1.
</event>
<event>
 7    1  0.6152255E-013  0.5930192E+02  0.7816164E-02  0.1266605E+00
        -11   -1    0    0    0    0  0.00000000000E+00  0.00000000000E+00  0.45593999997E+02  0.45594000000E+02  0.51100000000E-03 0. -1.
         11   -1    0    0    0    0 -0.00000000000E+00 -0.00000000000E+00 -0.45593999997E+02  0.45594000000E+02  0.51100000000E-03 0.  1.
    9900012    2    1    2    0    0 -0.59463984999E+01  0.13245140129E+02  0.28388880490E+02  0.59301922668E+02  0.49999961045E+02 0.  0.
        -12    1    1    2    0    0  0.59463984999E+01 -0.13245140129E+02 -0.28388880490E+02  0.31886077332E+02  0.00000000000E+00 0.  1.
         11    1    3    3    0    0  0.59824005636E+01  0.48358787836E+01  0.15784416524E+02  0.17559118582E+02  0.51100000000E-03 0. -1.
        -11    1    3    3    0    0 -0.71997085819E+01  0.13405645971E+02  0.24008403210E+02  0.28424471368E+02  0.51100000000E-03 0.  1.
         12    1    3    3    0    0 -0.47290904816E+01 -0.49963846256E+01 -0.11403939244E+02  0.13318332718E+02  0.00000000000E+00 0. -1.
</event>
<event>
 7    1  0.6152255E-013  0.5930189E+02  0.7816164E-02  0.1266605E+00
        -11   -1    0    0    0    0  0.00000000000E+00  0.00000000000E+00  0.45593999997E+02  0.45594000000E+02  0.51100000000E-03 0. -1.
         11   -1    0    0    0    0 -0.00000000000E+00 -0.00000000000E+00 -0.45593999997E+02  0.45594000000E+02  0.51100000000E-03 0.  1.
    9900012    2    1    2    0    0  0.28560076677E+01  0.30688029791E+02  0.81738520091E+01  0.59301893168E+02  0.49999907244E+02 0.  0.
        -12    1    1    2    0    0 -0.28560076677E+01 -0.30688029791E+02 -0.81738520091E+01  0.31886106832E+02  0.00000000000E+00 0.  1.
         11    1    3    3    0    0 -0.18075856378E+00  0.13025653118E+02 -0.71983223482E+01  0.14883418885E+02  0.51100000000E-03 0. -1.
        -11    1    3    3    0    0  0.14459801783E+02  0.58118329517E+01 -0.66343101293E+01  0.16937453793E+02  0.51100000000E-03 0.  1.
        -12    1    3    3    0    0 -0.11423035551E+02  0.11850543721E+02  0.22006484487E+02  0.27481020490E+02  0.00000000000E+00 0.  1.
</event>
<event>
 7    1  0.6152255E-013  0.5930194E+02  0.7816164E-02  0.1266605E+00
        -11   -1    0    0    0    0  0.00000000000E+00  0.00000000000E+00  0.45593999997E+02  0.45594000000E+02  0.51100000000E-03 0.  1.
         11   -1    0    0    0    0 -0.00000000000E+00 -0.00000000000E+00 -0.45593999997E+02  0.45594000000E+02  0.51100000000E-03 0. -1.
    9900012    2    1    2    0    0  0.21946677907E+02  0.10088146011E+02 -0.20815708246E+02  0.59301936103E+02  0.49999985547E+02 0.  0.
        -12    1    1    2    0    0 -0.21946677907E+02 -0.10088146011E+02  0.20815708246E+02  0.31886063897E+02  0.00000000000E+00 0.  1.
         11    1    3    3    0    0  0.12194160212E+02 -0.57868203570E+01 -0.16856589223E+02  0.21594662156E+02  0.51100000000E-03 0. -1.
        -11    1    3    3    0    0  0.14217482585E+02 -0.54310971099E+01  0.14140718859E+01  0.15285065471E+02  0.51100000000E-03 0.  1.
         12    1    3    3    0    0 -0.44649648908E+01  0.21306063478E+02 -0.53731909087E+01  0.22422208476E+02  0.00000000000E+00 0. -1.
</event>
<event>
 7    1  0.6152255E-013  0.5930194E+02  0.7816164E-02  0.1266605E+00
        -11   -1    0    0    0    0  0.00000000000E+00  0.00000000000E+00  0.45593999997E+02  0.45594000000E+02  0.51100000000E-03 0. -1.
         11   -1    0    0    0    0 -0.00000000000E+00 -0.00000000000E+00 -0.45593999997E+02  0.45594000000E+02  0.51100000000E-03 0.  1.
    9900012    2    1    2    0    0 -0.18504498742E+02  0.20060344081E+02 -0.16489000840E+02  0.59301936790E+02  0.49999986800E+02 0.  0.
        -12    1    1    2    0    0  0.18504498742E+02 -0.20060344081E+02  0.16489000840E+02  0.31886063210E+02  0.00000000000E+00 0.  1.
         11    1    3    3    0    0  0.14304388541E+02  0.16193895512E+01  0.30896536189E+01  0.14723583592E+02  0.51100000000E-03 0. -1.
        -11    1    3    3    0    0 -0.13480919290E+02  0.18762640317E+01 -0.11653487538E+02  0.17918128353E+02  0.51100000000E-03 0.  1.
        -12    1    3    3    0    0 -0.19327967992E+02  0.16564690498E+02 -0.79251669214E+01  0.26660224844E+02  0.00000000000E+00 0.  1.
</event>
<event>
 7    1  0.6152255E-013  0.5930191E+02  0.7816164E-02  0.1266605E+00
        -11   -1    0    0    0    0  0.00000000000E+00  0.00000000000E+00  0.45593999997E+02  0.45594000000E+02  0.51100000000E-03 0.  1.
         11   -1    0    0    0    0 -0.00000000000E+00 -0.00000000000E+00 -0.45593999997E+02  0.45594000000E+02  0.51100000000E-03 0. -1.
    9900012    2    1    2    0    0 -0.67502033718E+01 -0.16984888457E+02 -0.26127978398E+02  0.59301906847E+02  0.49999932190E+02 0.  0.
        -12    1    1    2    0    0  0.67502033718E+01  0.16984888457E+02  0.26127978398E+02  0.31886093153E+02  0.00000000000E+00 0.  1.
         11    1    3    3    0    0  0.98946115566E+01 -0.14344197423E+02 -0.57822009671E+01  0.18360097653E+02  0.51100000000E-03 0. -1.
        -11    1    3    3    0    0 -0.84851008172E+01 -0.10662101973E+02  0.38645498250E+01  0.14163760093E+02  0.51100000000E-03 0.  1.
         12    1    3    3    0    0 -0.81597141111E+01  0.80214109384E+01 -0.24210327255E+02  0.26778049101E+02  0.00000000000E+00 0. -1.
</event>
<event>
 7    1  0.6152255E-013  0.5930192E+02  0.7816164E-02  0.1266605E+00
        -11   -1    0    0    0    0  0.00000000000E+00  0.00000000000E+00  0.45593999997E+02  0.45594000000E+02  0.51100000000E-03 0.  1.
         11   -1    0    0    0    0 -0.00000000000E+00 -0.00000000000E+00 -0.45593999997E+02  0.45594000000E+02  0.51100000000E-03 0. -1.
    9900012    2    1    2    0    0  0.23032088369E+02  0.21890019436E+02 -0.26592952371E+01  0.59301923153E+02  0.49999961930E+02 0.  0.
        -12    1    1    2    0    0 -0.23032088369E+02 -0.21890019436E+02  0.26592952371E+01  0.31886076847E+02  0.00000000000E+00 0.  1.
         11    1    3    3    0    0  0.13076132536E+01  0.76154957373E+01 -0.26448434602E+01  0.81670572996E+01  0.51100000000E-03 0. -1.
        -11    1    3    3    0    0 -0.80119886124E+01  0.28609772326E+01  0.13963558821E+02  0.16351089488E+02  0.51100000000E-03 0.  1.
         12    1    3    3    0    0  0.29736463727E+02  0.11413546466E+02 -0.13978010598E+02  0.34783776365E+02  0.00000000000E+00 0. -1.
</event>
<event>
 7    1  0.6152255E-013  0.5930196E+02  0.7816164E-02  0.1266605E+00
        -11   -1    0    0    0    0  0.00000000000E+00  0.00000000000E+00  0.45593999997E+02  0.45594000000E+02  0.51100000000E-03 0. -1.
         11   -1    0    0    0    0 -0.00000000000E+00 -0.00000000000E+00 -0.45593999997E+02  0.45594000000E+02  0.51100000000E-03 0.  1.
    9900012    2    1    2    0    0 -0.28098627759E+02  0.12451147368E+02  0.84944584041E+01  0.59301956403E+02  0.50000022569E+02 0.  0.
        -12    1    1    2    0    0  0.28098627759E+02 -0.12451147368E+02 -0.84944584041E+01  0.31886043597E+02  0.00000000000E+00 0.  1.
         11    1    3    3    0    0 -0.74492012125E+01  0.18024819890E+02  0.19906784383E+02  0.27868706384E+02  0.51100000000E-03 0. -1.
        -11    1    3    3    0    0 -0.15114816347E+02  0.56597327449E+01 -0.96026419144E+01  0.18780334927E+02  0.51100000000E-03 0.  1.
        -12    1    3    3    0    0 -0.55346101987E+01 -0.11233405266E+02 -0.18096840645E+01  0.12652915093E+02  0.00000000000E+00 0.  1.
</event>
<event>
 7    1  0.6152255E-013  0.5930197E+02  0.7816164E-02  0.1266605E+00
        -11   -1    0    0    0    0  0.00000000000E+00  0.00000000000E+00  0.45593999997E+02  0.45594000000E+02  0.51100000000E-03 0.  1.
         11   -1    0    0    0    0 -0.00000000000E+00 -0.00000000000E+00 -0.45593999997E+02  0.45594000000E+02  0.51100000000E-03 0. -1.
    9900012    2    1    2    0    0  0.28384546044E+02 -0.14161896539E+02 -0.32368722394E+01  0.59301966857E+02  0.50000041635E+02 0.  0.
        -12    1    1    2    0    0 -0.28384546044E+02  0.14161896539E+02  0.32368722394E+01  0.31886033143E+02  0.00000000000E+00 0.  1.
         11    1    3    3    0    0 -0.64654818417E+01  0.45597981426E+01 -0.40311855577E+01  0.88794522246E+01  0.51100000000E-03 0. -1.
        -11    1    3    3    0    0  0.29681612701E+01  0.42209547713E+01  0.89266541139E+01  0.10310751400E+02  0.51100000000E-03 0.  1.
         12    1    3    3    0    0  0.31881866615E+02 -0.22942649453E+02 -0.81323407956E+01  0.40111763232E+02  0.00000000000E+00 0. -1.
</event>
<event>
 7    1  0.6152255E-013  0.5930224E+02  0.7816164E-02  0.1266604E+00
        -11   -1    0    0    0    0  0.00000000000E+00  0.00000000000E+00  0.45593999997E+02  0.45594000000E+02  0.51100000000E-03 0. -1.
         11   -1    0    0    0    0 -0.00000000000E+00 -0.00000000000E+00 -0.45593999997E+02  0.45594000000E+02  0.51100000000E-03 0.  1.
    9900012    2    1    2    0    0 -0.38252893591E-01 -0.13999219548E+02  0.28648251933E+02  0.59302235934E+02  0.50000532365E+02 0.  0.
        -12    1    1    2    0    0  0.38252893591E-01  0.13999219548E+02 -0.28648251933E+02  0.31885764066E+02  0.00000000000E+00 0.  1.
         11    1    3    3    0    0  0.14198467955E+02 -0.73498796209E+01  0.23823019641E+02  0.28690651575E+02  0.51100000000E-03 0. -1.
        -11    1    3    3    0    0 -0.17357602275E+02 -0.28067995023E+01  0.12433249134E+02  0.21534859286E+02  0.51100000000E-03 0.  1.
        -12    1    3    3    0    0  0.31208814263E+01 -0.38425404247E+01 -0.76080168421E+01  0.90767250736E+01  0.00000000000E+00 0.  1.
</event>
<event>
 7    1  0.6152255E-013  0.5930195E+02  0.7816164E-02  0.1266605E+00
        -11   -1    0    0    0    0  0.00000000000E+00  0.00000000000E+00  0.45593999997E+02  0.45594000000E+02  0.51100000000E-03 0.  1.
         11   -1    0    0    0    0 -0.00000000000E+00 -0.00000000000E+00 -0.45593999997E+02  0.45594000000E+02  0.51100000000E-03 0. -1.
    9900012    2    1    2    0    0 -0.64868184989E+01  0.24392172891E+02 -0.19484957000E+02  0.59301945653E+02  0.50000002964E+02 0.  0.
        -12    1    1    2    0    0  0.64868184989E+01 -0.24392172891E+02  0.19484957000E+02  0.31886054347E+02  0.00000000000E+00 0.  1.
         11    1    3    3    0    0 -0.38004015068E+01  0.29971967749E+01  0.56136795138E+01  0.74121277691E+01  0.51100000000E-03 0. -1.
        -11    1    3    3    0    0 -0.10520212045E+02 -0.74537975543E+01 -0.56503652570E-01  0.12893298739E+02  0.51100000000E-03 0.  1.
         12    1    3    3    0    0  0.78337950526E+01  0.28848773670E+02 -0.25042132861E+02  0.38996519145E+02  0.00000000000E+00 0. -1.
</event>
<event>
 7    1  0.6152255E-013  0.5930194E+02  0.7816164E-02  0.1266605E+00
        -11   -1    0    0    0    0  0.00000000000E+00  0.00000000000E+00  0.45593999997E+02  0.45594000000E+02  0.51100000000E-03 0. -1.
         11   -1    0    0    0    0 -0.00000000000E+00 -0.00000000000E+00 -0.45593999997E+02  0.45594000000E+02  0.51100000000E-03 0.  1.
    9900012    2    1    2    0    0  0.16722622076E+02 -0.26271279937E+02  0.68479777199E+01  0.59301936626E+02  0.49999986501E+02 0.  0.
        -12    1    1    2    0    0 -0.16722622076E+02  0.26271279937E+02 -0.68479777199E+01  0.31886063374E+02  0.00000000000E+00 0.  1.
         11    1    3    3    0    0  0.12013507458E+02  0.23442987197E+01  0.19580902824E+01  0.12395733772E+02  0.51100000000E-03 0. -1.
        -11    1    3    3    0    0 -0.19637142742E+01  0.29303839055E+01 -0.10573224327E+02  0.11146138189E+02  0.51100000000E-03 0.  1.
         12    1    3    3    0    0  0.66728288928E+01 -0.31545962562E+02  0.15463111765E+02  0.35760064665E+02  0.00000000000E+00 0. -1.
</event>
<event>
 7    1  0.6152255E-013  0.5930194E+02  0.7816164E-02  0.1266605E+00
        -11   -1    0    0    0    0  0.00000000000E+00  0.00000000000E+00  0.45593999997E+02  0.45594000000E+02  0.51100000000E-03 0.  1.
         11   -1    0    0    0    0 -0.00000000000E+00 -0.00000000000E+00 -0.45593999997E+02  0.45594000000E+02  0.51100000000E-03 0. -1.
    9900012    2    1    2    0    0  0.29407346052E+02 -0.80545259585E+01 -0.93302563381E+01  0.59301936060E+02  0.49999985469E+02 0.  0.
        -12    1    1    2    0    0 -0.29407346052E+02  0.80545259585E+01  0.93302563381E+01  0.31886063940E+02  0.00000000000E+00 0.  1.
         11    1    3    3    0    0  0.90971725654E+01 -0.42732364843E+01 -0.24663889088E+01  0.10349017985E+02  0.51100000000E-03 0. -1.
        -11    1    3    3    0    0  0.89006226424E+01 -0.72468566145E+01  0.18016932311E+02  0.21362300072E+02  0.51100000000E-03 0.  1.
         12    1    3    3    0    0  0.11409550845E+02  0.34655671403E+01 -0.24880799740E+02  0.27590618003E+02  0.00000000000E+00 0. -1.
</event>
<event>
 7    1  0.6152255E-013  0.5930196E+02  0.7816164E-02  0.1266605E+00
        -11   -1    0    0    0    0  0.00000000000E+00  0.00000000000E+00  0.45593999997E+02  0.45594000000E+02  0.51100000000E-03 0.  1.
         11   -1    0    0    0    0 -0.00000000000E+00 -0.00000000000E+00 -0.45593999997E+02  0.45594000000E+02  0.51100000000E-03 0. -1.
    9900012    2    1    2    0    0  0.13419035180E+02 -0.37615282609E+01 -0.28679259832E+02  0.59301960037E+02  0.50000029197E+02 0.  0.
        -12    1    1    2    0    0 -0.13419035180E+02  0.37615282609E+01  0.28679259832E+02  0.31886039963E+02  0.00000000000E+00 0.  1.
         11    1    3    3    0    0 -0.20120304610E+01  0.66410311194E+00 -0.82574860660E+01  0.85249853906E+01  0.51100000000E-03 0. -1.
        -11    1    3    3    0    0 -0.10216224623E+02 -0.15403834359E+02 -0.98369436091E+01  0.20938357585E+02  0.51100000000E-03 0.  1.
         12    1    3    3    0    0  0.25647290265E+02  0.10978202986E+02 -0.10584830157E+02  0.29838617062E+02  0.00000000000E+00 0. -1.
</event>
<event>
 7    1  0.6152255E-013  0.5930193E+02  0.7816164E-02  0.1266605E+00
        -11   -1    0    0    0    0  0.00000000000E+00  0.00000000000E+00  0.45593999997E+02  0.45594000000E+02  0.51100000000E-03 0.  1.
         11   -1    0    0    0    0 -0.00000000000E+00 -0.00000000000E+00 -0.45593999997E+02  0.45594000000E+02  0.51100000000E-03 0. -1.
    9900012    2    1    2    0    0  0.11343303756E+02 -0.26377955950E+02  0.13865584583E+02  0.59301928808E+02  0.49999972243E+02 0.  0.
        -12    1    1    2    0    0 -0.11343303756E+02  0.26377955950E+02 -0.13865584583E+02  0.31886071192E+02  0.00000000000E+00 0.  1.
         11    1    3    3    0    0  0.59508426980E+01 -0.19918862922E+02  0.77329995725E+01  0.22180462384E+02  0.51100000000E-03 0. -1.
        -11    1    3    3    0    0  0.36699284616E+01 -0.11131403910E+02 -0.12910973717E+02  0.17437596466E+02  0.51100000000E-03 0.  1.
        -12    1    3    3    0    0  0.17225325964E+01  0.46723108819E+01  0.19043558728E+02  0.19683869958E+02  0.00000000000E+00 0.  1.
</event>
<event>
 7    1  0.6152255E-013  0.5930195E+02  0.7816164E-02  0.1266605E+00
        -11   -1    0    0    0    0  0.00000000000E+00  0.00000000000E+00  0.45593999997E+02  0.45594000000E+02  0.51100000000E-03 0.  1.
         11   -1    0    0    0    0 -0.00000000000E+00 -0.00000000000E+00 -0.45593999997E+02  0.45594000000E+02  0.51100000000E-03 0. -1.
    9900012    2    1    2    0    0 -0.21290979533E+02  0.13994233018E+02 -0.19172274671E+02  0.59301945316E+02  0.50000002350E+02 0.  0.
        -12    1    1    2    0    0  0.21290979533E+02 -0.13994233018E+02  0.19172274671E+02  0.31886054684E+02  0.00000000000E+00 0.  1.
         11    1    3    3    0    0  0.37854836547E+01  0.48094971081E+01  0.45744384157E+01  0.76411148410E+01  0.51100000000E-03 0. -1.
        -11    1    3    3    0    0 -0.53172170152E+01  0.18369725191E+02  0.41068377026E+00  0.19128205923E+02  0.51100000000E-03 0.  1.
         12    1    3    3    0    0 -0.19759246172E+02 -0.91849892810E+01 -0.24157396857E+02  0.32532624553E+02  0.00000000000E+00 0. -1.
</event>
<event>
 7    1  0.6152255E-013  0.5930195E+02  0.7816164E-02  0.1266605E+00
        -11   -1    0    0    0    0  0.00000000000E+00  0.00000000000E+00  0.45593999997E+02  0.45594000000E+02  0.51100000000E-03 0.  1.
         11   -1    0    0    0    0 -0.00000000000E+00 -0.00000000000E+00 -0.45593999997E+02  0.45594000000E+02  0.51100000000E-03 0. -1.
    9900012    2    1    2    0    0 -0.21810812750E+02  0.18573651616E+02 -0.14000992695E+02  0.59301954720E+02  0.50000019500E+02 0.  0.
        -12    1    1    2    0    0  0.21810812750E+02 -0.18573651616E+02  0.14000992695E+02  0.31886045280E+02  0.00000000000E+00 0.  1.
         11    1    3    3    0    0 -0.11049132552E+02 -0.39233258731E+01 -0.68007374055E+01  0.13554550733E+02  0.51100000000E-03 0. -1.
        -11    1    3    3    0    0 -0.60777928133E+01 -0.97495519824E+01  0.24830752117E+01  0.11754105330E+02  0.51100000000E-03 0.  1.
        -12    1    3    3    0    0 -0.46838873847E+01  0.32246529472E+02 -0.96833305009E+01  0.33993298657E+02  0.00000000000E+00 0.  1.
</event>
<event>
 7    1  0.6152255E-013  0.5930196E+02  0.7816164E-02  0.1266605E+00
        -11   -1    0    0    0    0  0.00000000000E+00  0.00000000000E+00  0.45593999997E+02  0.45594000000E+02  0.51100000000E-03 0.  1.
         11   -1    0    0    0    0 -0.00000000000E+00 -0.00000000000E+00 -0.45593999997E+02  0.45594000000E+02  0.51100000000E-03 0. -1.
    9900012    2    1    2    0    0 -0.87764890661E+01  0.20663750235E+01 -0.30584686617E+02  0.59301957262E+02  0.50000024136E+02 0.  0.
        -12    1    1    2    0    0  0.87764890661E+01 -0.20663750235E+01  0.30584686617E+02  0.31886042738E+02  0.00000000000E+00 0.  1.
         11    1    3    3    0    0 -0.16086236382E+02  0.18378296010E+01 -0.22163340709E+02  0.27447373102E+02  0.51100000000E-03 0. -1.
        -11    1    3    3    0    0 -0.34928444388E+01  0.11827803253E+02 -0.10065679643E+02  0.15919007476E+02  0.51100000000E-03 0.  1.
        -12    1    3    3    0    0  0.10802591754E+02 -0.11599257831E+02  0.16443337352E+01  0.15935576684E+02  0.00000000000E+00 0.  1.
</event>
<event>
 7    1  0.6152255E-013  0.5930193E+02  0.7816164E-02  0.1266605E+00
        -11   -1    0    0    0    0  0.00000000000E+00  0.00000000000E+00  0.45593999997E+02  0.45594000000E+02  0.51100000000E-03 0. -1.
         11   -1    0    0    0    0 -0.00000000000E+00 -0.00000000000E+00 -0.45593999997E+02  0.45594000000E+02  0.51100000000E-03 0.  1.
    9900012    2    1    2    0    0  0.12339032378E+02 -0.25305317738E+02  0.14970326974E+02  0.59301929130E+02  0.49999972829E+02 0.  0.
        -12    1    1    2    0    0 -0.12339032378E+02  0.25305317738E+02 -0.14970326974E+02  0.31886070870E+02  0.00000000000E+00 0.  1.
         11    1    3    3    0    0 -0.10474864765E+02 -0.19036700577E+02  0.15377540705E+02  0.26619307262E+02  0.51100000000E-03 0. -1.
        -11    1    3    3    0    0  0.17418375118E+01  0.79702807595E+00  0.85192206334E+01  0.87319168647E+01  0.51100000000E-03 0.  1.
        -12    1    3    3    0    0  0.21072059631E+02 -0.70656452370E+01 -0.89264343639E+01  0.23950705003E+02  0.00000000000E+00 0.  1.
</event>
<event>
 7    1  0.6152255E-013  0.5930194E+02  0.7816164E-02  0.1266605E+00
        -11   -1    0    0    0    0  0.00000000000E+00  0.00000000000E+00  0.45593999997E+02  0.45594000000E+02  0.51100000000E-03 0. -1.
         11   -1    0    0    0    0 -0.00000000000E+00 -0.00000000000E+00 -0.45593999997E+02  0.45594000000E+02  0.51100000000E-03 0.  1.
    9900012    2    1    2    0    0  0.26673575332E+01 -0.17732625102E+02  0.26365885351E+02  0.59301941925E+02  0.49999996165E+02 0.  0.
        -12    1    1    2    0    0 -0.26673575332E+01  0.17732625102E+02 -0.26365885351E+02  0.31886058075E+02  0.00000000000E+00 0.  1.
         11    1    3    3    0    0 -0.11010204597E+02 -0.96647938297E+01  0.93561866021E+01  0.17383068573E+02  0.51100000000E-03 0. -1.
        -11    1    3    3    0    0 -0.25850043731E+01 -0.14251977910E+02 -0.36218205547E+01  0.14930462363E+02  0.51100000000E-03 0.  1.
         12    1    3    3    0    0  0.16262566503E+02  0.61841466382E+01  0.20631519304E+02  0.26988410989E+02  0.00000000000E+00 0. -1.
</event>
<event>
 7    1  0.6152255E-013  0.5930196E+02  0.7816164E-02  0.1266605E+00
        -11   -1    0    0    0    0  0.00000000000E+00  0.00000000000E+00  0.45593999997E+02  0.45594000000E+02  0.51100000000E-03 0.  1.
         11   -1    0    0    0    0 -0.00000000000E+00 -0.00000000000E+00 -0.45593999997E+02  0.45594000000E+02  0.51100000000E-03 0. -1.
    9900012    2    1    2    0    0 -0.22348816987E+01  0.35837822430E+00 -0.31805607129E+02  0.59301956407E+02  0.50000022577E+02 0.  0.
        -12    1    1    2    0    0  0.22348816987E+01 -0.35837822430E+00  0.31805607129E+02  0.31886043593E+02  0.00000000000E+00 0.  1.
         11    1    3    3    0    0 -0.11418316620E+02  0.57081598887E+01 -0.67633422817E+01  0.14446585854E+02  0.51100000000E-03 0. -1.
        -11    1    3    3    0    0 -0.20982537507E+01 -0.18506398311E+02 -0.18719966028E+02  0.26406941807E+02  0.51100000000E-03 0.  1.
        -12    1    3    3    0    0  0.11281688672E+02  0.13156616646E+02 -0.63222988198E+01  0.18448428747E+02  0.00000000000E+00 0.  1.
</event>
<event>
 7    1  0.6152255E-013  0.5930190E+02  0.7816164E-02  0.1266605E+00
        -11   -1    0    0    0    0  0.00000000000E+00  0.00000000000E+00  0.45593999997E+02  0.45594000000E+02  0.51100000000E-03 0.  1.
         11   -1    0    0    0    0 -0.00000000000E+00 -0.00000000000E+00 -0.45593999997E+02  0.45594000000E+02  0.51100000000E-03 0. -1.
    9900012    2    1    2    0    0  0.27882479335E+01 -0.23491837620E+02 -0.21379492341E+02  0.59301898732E+02  0.49999917391E+02 0.  0.
        -12    1    1    2    0    0 -0.27882479335E+01  0.23491837620E+02  0.21379492341E+02  0.31886101268E+02  0.00000000000E+00 0.  1.
         11    1    3    3    0    0  0.16345728006E+02  0.67768829135E+00 -0.55763990861E+01  0.17284047919E+02  0.51100000000E-03 0. -1.
        -11    1    3    3    0    0 -0.80085909219E+01 -0.91291716722E+01  0.70956552034E+01  0.14065120938E+02  0.51100000000E-03 0.  1.
         12    1    3    3    0    0 -0.55488891501E+01 -0.15040354240E+02 -0.22898748459E+02  0.27952729874E+02  0.00000000000E+00 0. -1.
</event>
<event>
 7    1  0.6152255E-013  0.5930200E+02  0.7816164E-02  0.1266605E+00
        -11   -1    0    0    0    0  0.00000000000E+00  0.00000000000E+00  0.45593999997E+02  0.45594000000E+02  0.51100000000E-03 0.  1.
         11   -1    0    0    0    0 -0.00000000000E+00 -0.00000000000E+00 -0.45593999997E+02  0.45594000000E+02  0.51100000000E-03 0. -1.
    9900012    2    1    2    0    0 -0.26433035443E+02 -0.16672197114E+02  0.63284868667E+01  0.59301995776E+02  0.50000094376E+02 0.  0.
        -12    1    1    2    0    0  0.26433035443E+02  0.16672197114E+02 -0.63284868667E+01  0.31886004224E+02  0.00000000000E+00 0.  1.
         11    1    3    3    0    0 -0.57035543013E+01  0.30246585274E+01 -0.97399232722E+01  0.11685255516E+02  0.51100000000E-03 0. -1.
        -11    1    3    3    0    0  0.11074329533E+01  0.46640844335E+01  0.14042893045E+02  0.14838562488E+02  0.51100000000E-03 0.  1.
        -12    1    3    3    0    0 -0.21836914095E+02 -0.24360940075E+02  0.20255170934E+01  0.32778177772E+02  0.00000000000E+00 0.  1.
</event>
<event>
 7    1  0.6152255E-013  0.5930193E+02  0.7816164E-02  0.1266605E+00
        -11   -1    0    0    0    0  0.00000000000E+00  0.00000000000E+00  0.45593999997E+02  0.45594000000E+02  0.51100000000E-03 0.  1.
         11   -1    0    0    0    0 -0.00000000000E+00 -0.00000000000E+00 -0.45593999997E+02  0.45594000000E+02  0.51100000000E-03 0. -1.
    9900012    2    1    2    0    0 -0.13954873128E+02  0.27733700994E+02 -0.72680508624E+01  0.59301933793E+02  0.49999981333E+02 0.  0.
        -12    1    1    2    0    0  0.13954873128E+02 -0.27733700994E+02  0.72680508624E+01  0.31886066207E+02  0.00000000000E+00 0.  1.
         11    1    3    3    0    0 -0.22349534286E+01 -0.35013551602E+01  0.22751070160E+01  0.47360972310E+01  0.51100000000E-03 0. -1.
        -11    1    3    3    0    0 -0.44204058705E+01  0.83735622477E+01  0.16579585815E+02  0.19092909648E+02  0.51100000000E-03 0.  1.
        -12    1    3    3    0    0 -0.72995138291E+01  0.22861493906E+02 -0.26122743693E+02  0.35472926914E+02  0.00000000000E+00 0.  1.
</event>
<event>
 7    1  0.6152255E-013  0.5930197E+02  0.7816164E-02  0.1266605E+00
        -11   -1    0    0    0    0  0.00000000000E+00  0.00000000000E+00  0.45593999997E+02  0.45594000000E+02  0.51100000000E-03 0. -1.
         11   -1    0    0    0    0 -0.00000000000E+00 -0.00000000000E+00 -0.45593999997E+02  0.45594000000E+02  0.51100000000E-03 0.  1.
    9900012    2    1    2    0    0  0.10398221099E+02 -0.13972049699E+01  0.30110525069E+02  0.59301970086E+02  0.50000047523E+02 0.  0.
        -12    1    1    2    0    0 -0.10398221099E+02  0.13972049699E+01 -0.30110525069E+02  0.31886029914E+02  0.00000000000E+00 0.  1.
         11    1    3    3    0    0  0.10187208011E+02 -0.41146585506E+01  0.14921906671E+02  0.18530324364E+02  0.51100000000E-03 0. -1.
        -11    1    3    3    0    0 -0.26390444861E+01 -0.17288235947E+02  0.88027098893E+01  0.19578951954E+02  0.51100000000E-03 0.  1.
        -12    1    3    3    0    0  0.28500575736E+01  0.20005689528E+02  0.63859085088E+01  0.21192693768E+02  0.00000000000E+00 0.  1.
</event>
<event>
 7    1  0.6152255E-013  0.5930197E+02  0.7816164E-02  0.1266605E+00
        -11   -1    0    0    0    0  0.00000000000E+00  0.00000000000E+00  0.45593999997E+02  0.45594000000E+02  0.51100000000E-03 0.  1.
         11   -1    0    0    0    0 -0.00000000000E+00 -0.00000000000E+00 -0.45593999997E+02  0.45594000000E+02  0.51100000000E-03 0. -1.
    9900012    2    1    2    0    0 -0.16009989010E+02  0.21571220251E+02 -0.17177940559E+02  0.59301969625E+02  0.50000046684E+02 0.  0.
        -12    1    1    2    0    0  0.16009989010E+02 -0.21571220251E+02  0.17177940559E+02  0.31886030375E+02  0.00000000000E+00 0.  1.
         11    1    3    3    0    0  0.65189385359E+00 -0.23815600606E+01 -0.93963020799E+01  0.97153119845E+01  0.51100000000E-03 0. -1.
        -11    1    3    3    0    0 -0.18005387316E+02 -0.59783983220E+01 -0.20544860982E+01  0.19082875367E+02  0.51100000000E-03 0.  1.
         12    1    3    3    0    0  0.13435044521E+01  0.29931178634E+02 -0.57271523806E+01  0.30503782274E+02  0.00000000000E+00 0. -1.
</event>
<event>
 7    1  0.6152255E-013  0.5930195E+02  0.7816164E-02  0.1266605E+00
        -11   -1    0    0    0    0  0.00000000000E+00  0.00000000000E+00  0.45593999997E+02  0.45594000000E+02  0.51100000000E-03 0. -1.
         11   -1    0    0    0    0 -0.00000000000E+00 -0.00000000000E+00 -0.45593999997E+02  0.45594000000E+02  0.51100000000E-03 0.  1.
    9900012    2    1    2    0    0 -0.28399581864E+02  0.24882171609E+01  0.14282608965E+02  0.59301946724E+02  0.50000004918E+02 0.  0.
        -12    1    1    2    0    0  0.28399581864E+02 -0.24882171609E+01 -0.14282608965E+02  0.31886053276E+02  0.00000000000E+00 0.  1.
         11    1    3    3    0    0 -0.22673382333E+02  0.11740719537E+01 -0.31007820790E+00  0.22705877215E+02  0.51100000000E-03 0. -1.
        -11    1    3    3    0    0 -0.14871072082E+02 -0.95462913567E+01  0.23084262192E+01  0.17821596320E+02  0.51100000000E-03 0.  1.
         12    1    3    3    0    0  0.91448725511E+01  0.10860436564E+02  0.12284260953E+02  0.18774473188E+02  0.00000000000E+00 0. -1.
</event>
<event>
 7    1  0.6152255E-013  0.5930193E+02  0.7816164E-02  0.1266605E+00
        -11   -1    0    0    0    0  0.00000000000E+00  0.00000000000E+00  0.45593999997E+02  0.45594000000E+02  0.51100000000E-03 0.  1.
         11   -1    0    0    0    0 -0.00000000000E+00 -0.00000000000E+00 -0.45593999997E+02  0.45594000000E+02  0.51100000000E-03 0. -1.
    9900012    2    1    2    0    0 -0.34215559203E+01  0.30302320019E+02 -0.93157687983E+01  0.59301934207E+02  0.49999982090E+02 0.  0.
        -12    1    1    2    0    0  0.34215559203E+01 -0.30302320019E+02  0.93157687983E+01  0.31886065793E+02  0.00000000000E+00 0.  1.
         11    1    3    3    0    0 -0.53736049403E+01 -0.94239174368E+01 -0.48545421278E+01  0.11884966531E+02  0.51100000000E-03 0. -1.
        -11    1    3    3    0    0 -0.11324261403E+02  0.17472614207E+02  0.13330605896E+01  0.20864040700E+02  0.51100000000E-03 0.  1.
        -12    1    3    3    0    0  0.13276310423E+02  0.22253623249E+02 -0.57942872601E+01  0.26552926976E+02  0.00000000000E+00 0.  1.
</event>
<event>
 7    1  0.6152255E-013  0.5930196E+02  0.7816164E-02  0.1266605E+00
        -11   -1    0    0    0    0  0.00000000000E+00  0.00000000000E+00  0.45593999997E+02  0.45594000000E+02  0.51100000000E-03 0.  1.
         11   -1    0    0    0    0 -0.00000000000E+00 -0.00000000000E+00 -0.45593999997E+02  0.45594000000E+02  0.51100000000E-03 0. -1.
    9900012    2    1    2    0    0 -0.22798760252E+01  0.42367883802E+01 -0.31520964950E+02  0.59301961647E+02  0.50000032133E+02 0.  0.
        -12    1    1    2    0    0  0.22798760252E+01 -0.42367883802E+01  0.31520964950E+02  0.31886038353E+02  0.00000000000E+00 0.  1.
         11    1    3    3    0    0 -0.14981181001E+02 -0.12622477712E+01 -0.28845544339E+02  0.32528364270E+02  0.51100000000E-03 0. -1.
        -11    1    3    3    0    0 -0.42514626791E+01  0.75626735020E+01 -0.41786746577E+01  0.96296566691E+01  0.51100000000E-03 0.  1.
        -12    1    3    3    0    0  0.16952767655E+02 -0.20636373506E+01  0.15032540463E+01  0.17143940708E+02  0.00000000000E+00 0.  1.
</event>
<event>
 7    1  0.6152255E-013  0.5930184E+02  0.7816164E-02  0.1266605E+00
        -11   -1    0    0    0    0  0.00000000000E+00  0.00000000000E+00  0.45593999997E+02  0.45594000000E+02  0.51100000000E-03 0.  1.
         11   -1    0    0    0    0 -0.00000000000E+00 -0.00000000000E+00 -0.45593999997E+02  0.45594000000E+02  0.51100000000E-03 0. -1.
    9900012    2    1    2    0    0 -0.21327802954E+02  0.20624838447E+02  0.11681949383E+02  0.59301841856E+02  0.49999813663E+02 0.  0.
        -12    1    1    2    0    0  0.21327802954E+02 -0.20624838447E+02 -0.11681949383E+02  0.31886158144E+02  0.00000000000E+00 0.  1.
         11    1    3    3    0    0 -0.16999398378E+00 -0.94624446468E+01 -0.25053004837E+01  0.97899584996E+01  0.51100000000E-03 0. -1.
        -11    1    3    3    0    0  0.70710642233E+01  0.15225394885E+01  0.29305686070E+01  0.78042493788E+01  0.51100000000E-03 0.  1.
        -12    1    3    3    0    0 -0.28228873194E+02  0.28564743605E+02  0.11256681260E+02  0.41707633977E+02  0.00000000000E+00 0.  1.
</event>
<event>
 7    1  0.6152255E-013  0.5930207E+02  0.7816164E-02  0.1266604E+00
        -11   -1    0    0    0    0  0.00000000000E+00  0.00000000000E+00  0.45593999997E+02  0.45594000000E+02  0.51100000000E-03 0.  1.
         11   -1    0    0    0    0 -0.00000000000E+00 -0.00000000000E+00 -0.45593999997E+02  0.45594000000E+02  0.51100000000E-03 0. -1.
    9900012    2    1    2    0    0  0.71129467518E+01 -0.27728460502E+02 -0.14044610484E+02  0.59302068667E+02  0.50000227312E+02 0.  0.
        -12    1    1    2    0    0 -0.71129467518E+01  0.27728460502E+02  0.14044610484E+02  0.31885931333E+02  0.00000000000E+00 0.  1.
         11    1    3    3    0    0  0.92427934740E+01 -0.23792881509E+01 -0.96762607837E+00  0.95930466379E+01  0.51100000000E-03 0. -1.
        -11    1    3    3    0    0  0.14659522788E-01 -0.49557588596E+01  0.14511507577E+02  0.15334393148E+02  0.51100000000E-03 0.  1.
        -12    1    3    3    0    0 -0.21445062450E+01 -0.20393413491E+02 -0.27588491983E+02  0.34374628882E+02  0.00000000000E+00 0.  1.
</event>
<event>
 7    1  0.6152255E-013  0.5930196E+02  0.7816164E-02  0.1266605E+00
        -11   -1    0    0    0    0  0.00000000000E+00  0.00000000000E+00  0.45593999997E+02  0.45594000000E+02  0.51100000000E-03 0.  1.
         11   -1    0    0    0    0 -0.00000000000E+00 -0.00000000000E+00 -0.45593999997E+02  0.45594000000E+02  0.51100000000E-03 0. -1.
    9900012    2    1    2    0    0  0.20525881959E+02 -0.22418005572E+02 -0.96354018813E+01  0.59301956447E+02  0.50000022650E+02 0.  0.
        -12    1    1    2    0    0 -0.20525881959E+02  0.22418005572E+02  0.96354018813E+01  0.31886043553E+02  0.00000000000E+00 0.  1.
         11    1    3    3    0    0 -0.30582528819E+01 -0.39052214725E+00  0.34025450670E+01  0.45915935612E+01  0.51100000000E-03 0. -1.
        -11    1    3    3    0    0  0.40685390603E+01  0.11802139497E+02  0.24043233297E+01  0.12713153728E+02  0.51100000000E-03 0.  1.
         12    1    3    3    0    0  0.19515595780E+02 -0.33829622922E+02 -0.15442270278E+02  0.41997209158E+02  0.00000000000E+00 0. -1.
</event>
<event>
 7    1  0.6152255E-013  0.5930196E+02  0.7816164E-02  0.1266605E+00
        -11   -1    0    0    0    0  0.00000000000E+00  0.00000000000E+00  0.45593999997E+02  0.45594000000E+02  0.51100000000E-03 0.  1.
         11   -1    0    0    0    0 -0.00000000000E+00 -0.00000000000E+00 -0.45593999997E+02  0.45594000000E+02  0.51100000000E-03 0. -1.
    9900012    2    1    2    0    0  0.21473283430E+02 -0.14044047586E+02 -0.18930997986E+02  0.59301955112E+02  0.50000020214E+02 0.  0.
        -12    1    1    2    0    0 -0.21473283430E+02  0.14044047586E+02  0.18930997986E+02  0.31886044888E+02  0.00000000000E+00 0.  1.
         11    1    3    3    0    0 -0.70200026849E+01  0.18570066467E+01  0.13406055956E+01  0.73841814040E+01  0.51100000000E-03 0.  1.
        -11    1    3    3    0    0  0.12795974366E+02 -0.15882684540E+02  0.60469313684E+01  0.21273504822E+02  0.51100000000E-03 0. -1.
        -12    1    3    3    0    0  0.15697311750E+02 -0.18369692036E-01 -0.26318534950E+02  0.30644268886E+02  0.00000000000E+00 0.  1.
</event>
<event>
 7    1  0.6152255E-013  0.5930188E+02  0.7816164E-02  0.1266605E+00
        -11   -1    0    0    0    0  0.00000000000E+00  0.00000000000E+00  0.45593999997E+02  0.45594000000E+02  0.51100000000E-03 0. -1.
         11   -1    0    0    0    0 -0.00000000000E+00 -0.00000000000E+00 -0.45593999997E+02  0.45594000000E+02  0.51100000000E-03 0.  1.
    9900012    2    1    2    0    0  0.31127471149E+02 -0.61948553006E+01  0.30707053684E+01  0.59301875685E+02  0.49999875360E+02 0.  0.
        -12    1    1    2    0    0 -0.31127471149E+02  0.61948553006E+01 -0.30707053684E+01  0.31886124315E+02  0.00000000000E+00 0.  1.
         11    1    3    3    0    0  0.10300927981E+02 -0.60175065059E+01  0.21048773639E+01  0.12114041885E+02  0.51100000000E-03 0. -1.
        -11    1    3    3    0    0 -0.79672849258E+01  0.35900196554E+01  0.13073804293E+02  0.15725464354E+02  0.51100000000E-03 0.  1.
         12    1    3    3    0    0  0.28793828094E+02 -0.37673684501E+01 -0.12107976288E+02  0.31462369446E+02  0.00000000000E+00 0. -1.
</event>
<event>
 7    1  0.6152255E-013  0.5930194E+02  0.7816164E-02  0.1266605E+00
        -11   -1    0    0    0    0  0.00000000000E+00  0.00000000000E+00  0.45593999997E+02  0.45594000000E+02  0.51100000000E-03 0.  1.
         11   -1    0    0    0    0 -0.00000000000E+00 -0.00000000000E+00 -0.45593999997E+02  0.45594000000E+02  0.51100000000E-03 0. -1.
    9900012    2    1    2    0    0 -0.78875921365E+01 -0.30125973154E+02  0.68507301676E+01  0.59301939220E+02  0.49999991233E+02 0.  0.
        -12    1    1    2    0    0  0.78875921365E+01  0.30125973154E+02 -0.68507301676E+01  0.31886060780E+02  0.00000000000E+00 0.  1.
         11    1    3    3    0    0  0.86215813484E+01 -0.11480352694E+02 -0.90299907440E+01  0.16960863658E+02  0.51100000000E-03 0. -1.
        -11    1    3    3    0    0  0.89787988547E+01 -0.38062255456E+01  0.36633536005E+01  0.10417597690E+02  0.51100000000E-03 0.  1.
        -12    1    3    3    0    0 -0.25487972340E+02 -0.14839394915E+02  0.12217367311E+02  0.31923477872E+02  0.00000000000E+00 0.  1.
</event>
<event>
 7    1  0.6152255E-013  0.5930193E+02  0.7816164E-02  0.1266605E+00
        -11   -1    0    0    0    0  0.00000000000E+00  0.00000000000E+00  0.45593999997E+02  0.45594000000E+02  0.51100000000E-03 0.  1.
         11   -1    0    0    0    0 -0.00000000000E+00 -0.00000000000E+00 -0.45593999997E+02  0.45594000000E+02  0.51100000000E-03 0. -1.
    9900012    2    1    2    0    0  0.29000675444E+02 -0.11306408847E+02 -0.69171830351E+01  0.59301929712E+02  0.49999973892E+02 0.  0.
        -12    1    1    2    0    0 -0.29000675444E+02  0.11306408847E+02  0.69171830351E+01  0.31886070288E+02  0.00000000000E+00 0.  1.
         11    1    3    3    0    0 -0.41607076728E+01  0.64498990337E+01 -0.13136998908E+02  0.15214908033E+02  0.51100000000E-03 0. -1.
        -11    1    3    3    0    0 -0.30519187869E+01 -0.36379136125E+01  0.17603383658E+00  0.47518009119E+01  0.51100000000E-03 0.  1.
         12    1    3    3    0    0  0.36213301904E+02 -0.14118394268E+02  0.60437820365E+01  0.39335220767E+02  0.00000000000E+00 0. -1.
</event>
<event>
 7    1  0.6152255E-013  0.5930195E+02  0.7816164E-02  0.1266605E+00
        -11   -1    0    0    0    0  0.00000000000E+00  0.00000000000E+00  0.45593999997E+02  0.45594000000E+02  0.51100000000E-03 0.  1.
         11   -1    0    0    0    0 -0.00000000000E+00 -0.00000000000E+00 -0.45593999997E+02  0.45594000000E+02  0.51100000000E-03 0. -1.
    9900012    2    1    2    0    0 -0.21214147198E+02 -0.19992665002E+02 -0.12921817439E+02  0.59301951935E+02  0.50000014422E+02 0.  0.
        -12    1    1    2    0    0  0.21214147198E+02  0.19992665002E+02  0.12921817439E+02  0.31886048065E+02  0.00000000000E+00 0.  1.
         11    1    3    3    0    0 -0.36960241128E+00 -0.89531782605E+00 -0.56234252105E+01  0.57062344248E+01  0.51100000000E-03 0. -1.
        -11    1    3    3    0    0 -0.26981777608E+02  0.12835258196E+01  0.70612214500E+01  0.27919967945E+02  0.51100000000E-03 0.  1.
         12    1    3    3    0    0  0.61372328207E+01 -0.20380872996E+02 -0.14359613679E+02  0.25675749566E+02  0.00000000000E+00 0. -1.
</event>
<event>
 7    1  0.6152255E-013  0.5930194E+02  0.7816164E-02  0.1266605E+00
        -11   -1    0    0    0    0  0.00000000000E+00  0.00000000000E+00  0.45593999997E+02  0.45594000000E+02  0.51100000000E-03 0.  1.
         11   -1    0    0    0    0 -0.00000000000E+00 -0.00000000000E+00 -0.45593999997E+02  0.45594000000E+02  0.51100000000E-03 0. -1.
    9900012    2    1    2    0    0 -0.66964946512E+01 -0.10001256391E+02 -0.29527155425E+02  0.59301935999E+02  0.49999985357E+02 0.  0.
        -12    1    1    2    0    0  0.66964946512E+01  0.10001256391E+02  0.29527155425E+02  0.31886064001E+02  0.00000000000E+00 0.  1.
         11    1    3    3    0    0 -0.12163311805E+02 -0.15557233389E+02 -0.34153717685E+02  0.39451870637E+02  0.51100000000E-03 0. -1.
        -11    1    3    3    0    0  0.49783544298E+01 -0.49318060763E+01  0.60461054980E+01  0.92553830799E+01  0.51100000000E-03 0.  1.
        -12    1    3    3    0    0  0.48846272436E+00  0.10487783074E+02 -0.14195432384E+01  0.10594682282E+02  0.00000000000E+00 0.  1.
</event>
<event>
 7    1  0.6152255E-013  0.5930163E+02  0.7816164E-02  0.1266606E+00
        -11   -1    0    0    0    0  0.00000000000E+00  0.00000000000E+00  0.45593999997E+02  0.45594000000E+02  0.51100000000E-03 0.  1.
         11   -1    0    0    0    0 -0.00000000000E+00 -0.00000000000E+00 -0.45593999997E+02  0.45594000000E+02  0.51100000000E-03 0. -1.
    9900012    2    1    2    0    0  0.30724035374E+02  0.33236095273E+01  0.78567264779E+01  0.59301625467E+02  0.49999419018E+02 0.  0.
        -12    1    1    2    0    0 -0.30724035374E+02 -0.33236095273E+01 -0.78567264779E+01  0.31886374533E+02  0.00000000000E+00 0.  1.
         11    1    3    3    0    0  0.11335152160E+02  0.34921200331E+01 -0.13577765919E+02  0.18028763253E+02  0.51100000000E-03 0. -1.
        -11    1    3    3    0    0  0.24722947351E+01  0.12173261269E+02  0.17706932040E+01  0.12547345770E+02  0.51100000000E-03 0.  1.
         12    1    3    3    0    0  0.16916588478E+02 -0.12341771775E+02  0.19663799192E+02  0.28725516444E+02  0.00000000000E+00 0. -1.
</event>
<event>
 7    1  0.6152255E-013  0.5930174E+02  0.7816164E-02  0.1266605E+00
        -11   -1    0    0    0    0  0.00000000000E+00  0.00000000000E+00  0.45593999997E+02  0.45594000000E+02  0.51100000000E-03 0.  1.
         11   -1    0    0    0    0 -0.00000000000E+00 -0.00000000000E+00 -0.45593999997E+02  0.45594000000E+02  0.51100000000E-03 0. -1.
    9900012    2    1    2    0    0 -0.25148522552E+02  0.12701226774E+02 -0.14931994971E+02  0.59301736156E+02  0.49999620890E+02 0.  0.
        -12    1    1    2    0    0  0.25148522552E+02 -0.12701226774E+02  0.14931994971E+02  0.31886263844E+02  0.00000000000E+00 0.  1.
         11    1    3    3    0    0  0.75809868864E+01  0.28788894837E+01  0.35775187175E+01  0.88632955083E+01  0.51100000000E-03 0.  1.
        -11    1    3    3    0    0 -0.34921224684E+01 -0.84097400959E+00  0.85020984463E+01  0.92297256118E+01  0.51100000000E-03 0. -1.
         12    1    3    3    0    0 -0.29237386970E+02  0.10663311300E+02 -0.27011612135E+02  0.41208715035E+02  0.00000000000E+00 0. -1.
</event>
<event>
 7    1  0.6152255E-013  0.5930195E+02  0.7816164E-02  0.1266605E+00
        -11   -1    0    0    0    0  0.00000000000E+00  0.00000000000E+00  0.45593999997E+02  0.45594000000E+02  0.51100000000E-03 0.  1.
         11   -1    0    0    0    0 -0.00000000000E+00 -0.00000000000E+00 -0.45593999997E+02  0.45594000000E+02  0.51100000000E-03 0. -1.
    9900012    2    1    2    0    0 -0.32042719797E+01 -0.18898947817E+02 -0.25481025250E+02  0.59301949205E+02  0.50000009443E+02 0.  0.
        -12    1    1    2    0    0  0.32042719797E+01  0.18898947817E+02  0.25481025250E+02  0.31886050795E+02  0.00000000000E+00 0.  1.
         11    1    3    3    0    0  0.71717391886E+01 -0.11907315944E+01 -0.22101126222E+02  0.23266101205E+02  0.51100000000E-03 0. -1.
        -11    1    3    3    0    0  0.37137145888E+01  0.66634803207E+01  0.36095480891E+00  0.76370108463E+01  0.51100000000E-03 0.  1.
        -12    1    3    3    0    0 -0.14089725757E+02 -0.24371696543E+02 -0.37408538362E+01  0.28398837154E+02  0.00000000000E+00 0.  1.
</event>
<event>
 7    1  0.6152255E-013  0.5930195E+02  0.7816164E-02  0.1266605E+00
        -11   -1    0    0    0    0  0.00000000000E+00  0.00000000000E+00  0.45593999997E+02  0.45594000000E+02  0.51100000000E-03 0.  1.
         11   -1    0    0    0    0 -0.00000000000E+00 -0.00000000000E+00 -0.45593999997E+02  0.45594000000E+02  0.51100000000E-03 0. -1.
    9900012    2    1    2    0    0 -0.16473433340E+02  0.24740145399E+02 -0.11544323740E+02  0.59301949586E+02  0.50000010138E+02 0.  0.
        -12    1    1    2    0    0  0.16473433340E+02 -0.24740145399E+02  0.11544323740E+02  0.31886050414E+02  0.00000000000E+00 0.  1.
         11    1    3    3    0    0 -0.17274638206E+02  0.13301931964E+02 -0.16425179845E+02  0.27297271884E+02  0.51100000000E-03 0. -1.
        -11    1    3    3    0    0  0.17726448503E+01  0.21466608135E+02  0.37883945255E+01  0.21870287331E+02  0.51100000000E-03 0.  1.
         12    1    3    3    0    0 -0.97143998510E+00 -0.10028394700E+02  0.10924615796E+01  0.10134390372E+02  0.00000000000E+00 0. -1.
</event>
<event>
 7    1  0.6152255E-013  0.5930191E+02  0.7816164E-02  0.1266605E+00
        -11   -1    0    0    0    0  0.00000000000E+00  0.00000000000E+00  0.45593999997E+02  0.45594000000E+02  0.51100000000E-03 0.  1.
         11   -1    0    0    0    0 -0.00000000000E+00 -0.00000000000E+00 -0.45593999997E+02  0.45594000000E+02  0.51100000000E-03 0. -1.
    9900012    2    1    2    0    0  0.24099026249E+02  0.48969686305E+01 -0.20297280919E+02  0.59301906156E+02  0.49999930932E+02 0.  0.
        -12    1    1    2    0    0 -0.24099026249E+02 -0.48969686305E+01  0.20297280919E+02  0.31886093844E+02  0.00000000000E+00 0.  1.
         11    1    3    3    0    0  0.89511143967E+01 -0.16434806608E+01 -0.10487163000E+02  0.13885390368E+02  0.51100000000E-03 0. -1.
        -11    1    3    3    0    0 -0.10553399216E+02 -0.93039511850E+01 -0.44151430499E+01  0.14745549535E+02  0.51100000000E-03 0.  1.
         12    1    3    3    0    0  0.25701311068E+02  0.15844400476E+02 -0.53949748689E+01  0.30670966253E+02  0.00000000000E+00 0. -1.
</event>
<event>
 7    1  0.6152255E-013  0.5930195E+02  0.7816164E-02  0.1266605E+00
        -11   -1    0    0    0    0  0.00000000000E+00  0.00000000000E+00  0.45593999997E+02  0.45594000000E+02  0.51100000000E-03 0.  1.
         11   -1    0    0    0    0 -0.00000000000E+00 -0.00000000000E+00 -0.45593999997E+02  0.45594000000E+02  0.51100000000E-03 0. -1.
    9900012    2    1    2    0    0 -0.11337950570E+02  0.71888609820E+01 -0.28922165206E+02  0.59301945281E+02  0.50000002286E+02 0.  0.
        -12    1    1    2    0    0  0.11337950570E+02 -0.71888609820E+01  0.28922165206E+02  0.31886054719E+02  0.00000000000E+00 0.  1.
         11    1    3    3    0    0  0.17500891803E+02  0.37669307122E+01 -0.18319742579E+02  0.25614135732E+02  0.51100000000E-03 0. -1.
        -11    1    3    3    0    0  0.14506367506E+00  0.68057085428E+00  0.18850933114E+01  0.20094270854E+01  0.51100000000E-03 0.  1.
         12    1    3    3    0    0 -0.28983906047E+02  0.27413594156E+01 -0.12487515938E+02  0.31678382464E+02  0.00000000000E+00 0. -1.
</event>
<event>
 7    1  0.6152255E-013  0.5930200E+02  0.7816164E-02  0.1266605E+00
        -11   -1    0    0    0    0  0.00000000000E+00  0.00000000000E+00  0.45593999997E+02  0.45594000000E+02  0.51100000000E-03 0. -1.
         11   -1    0    0    0    0 -0.00000000000E+00 -0.00000000000E+00 -0.45593999997E+02  0.45594000000E+02  0.51100000000E-03 0.  1.
    9900012    2    1    2    0    0  0.29025529294E+02 -0.27695817730E+01  0.12905999972E+02  0.59302003555E+02  0.50000108563E+02 0.  0.
        -12    1    1    2    0    0 -0.29025529294E+02  0.27695817730E+01 -0.12905999972E+02  0.31885996445E+02  0.00000000000E+00 0.  1.
         11    1    3    3    0    0  0.24230366918E+02 -0.20590815606E+02  0.19352905664E+02  0.37224015450E+02  0.51100000000E-03 0. -1.
        -11    1    3    3    0    0  0.96029509401E-01  0.27332593643E+01 -0.56240271509E+01  0.62537676703E+01  0.51100000000E-03 0.  1.
        -12    1    3    3    0    0  0.46991328665E+01  0.15087974469E+02 -0.82287854161E+00  0.15824220434E+02  0.00000000000E+00 0.  1.
</event>
<event>
 7    1  0.6152255E-013  0.5930183E+02  0.7816164E-02  0.1266605E+00
        -11   -1    0    0    0    0  0.00000000000E+00  0.00000000000E+00  0.45593999997E+02  0.45594000000E+02  0.51100000000E-03 0. -1.
         11   -1    0    0    0    0 -0.00000000000E+00 -0.00000000000E+00 -0.45593999997E+02  0.45594000000E+02  0.51100000000E-03 0.  1.
    9900012    2    1    2    0    0 -0.28171702056E+02 -0.57321708632E+01  0.13792221649E+02  0.59301828114E+02  0.49999788601E+02 0.  0.
        -12    1    1    2    0    0  0.28171702056E+02  0.57321708632E+01 -0.13792221649E+02  0.31886171886E+02  0.00000000000E+00 0.  1.
         11    1    3    3    0    0 -0.16895937181E+02  0.11932734886E+02  0.87822152492E+01  0.22471986117E+02  0.51100000000E-03 0. -1.
        -11    1    3    3    0    0 -0.49617908494E+01  0.59252799847E+01 -0.62490649777E+01  0.99387687712E+01  0.51100000000E-03 0.  1.
        -12    1    3    3    0    0 -0.63139740251E+01 -0.23590185734E+02  0.11259071378E+02  0.26891073226E+02  0.00000000000E+00 0.  1.
</event>
<event>
 7    1  0.6152255E-013  0.5930196E+02  0.7816164E-02  0.1266605E+00
        -11   -1    0    0    0    0  0.00000000000E+00  0.00000000000E+00  0.45593999997E+02  0.45594000000E+02  0.51100000000E-03 0.  1.
         11   -1    0    0    0    0 -0.00000000000E+00 -0.00000000000E+00 -0.45593999997E+02  0.45594000000E+02  0.51100000000E-03 0. -1.
    9900012    2    1    2    0    0 -0.73815963500E+00  0.22370919007E+02 -0.22709396872E+02  0.59301959118E+02  0.50000027520E+02 0.  0.
        -12    1    1    2    0    0  0.73815963500E+00 -0.22370919007E+02  0.22709396872E+02  0.31886040882E+02  0.00000000000E+00 0.  1.
         11    1    3    3    0    0 -0.42792033627E+01  0.47001921775E+01 -0.71510599830E+01  0.95677085588E+01  0.51100000000E-03 0. -1.
        -11    1    3    3    0    0  0.72480503771E+01  0.25934774400E+02  0.48907418669E+01  0.27369072211E+02  0.51100000000E-03 0.  1.
         12    1    3    3    0    0 -0.37070066494E+01 -0.82640475705E+01 -0.20449078756E+02  0.22365178347E+02  0.00000000000E+00 0. -1.
</event>
<event>
 7    1  0.6152255E-013  0.5930195E+02  0.7816164E-02  0.1266605E+00
        -11   -1    0    0    0    0  0.00000000000E+00  0.00000000000E+00  0.45593999997E+02  0.45594000000E+02  0.51100000000E-03 0. -1.
         11   -1    0    0    0    0 -0.00000000000E+00 -0.00000000000E+00 -0.45593999997E+02  0.45594000000E+02  0.51100000000E-03 0.  1.
    9900012    2    1    2    0    0  0.12864197169E+02  0.22108879074E+02  0.19037597807E+02  0.59301949242E+02  0.50000009509E+02 0.  0.
        -12    1    1    2    0    0 -0.12864197169E+02 -0.22108879074E+02 -0.19037597807E+02  0.31886050758E+02  0.00000000000E+00 0.  1.
         11    1    3    3    0    0  0.38961417135E+01  0.12611397135E+02  0.13816181476E+02  0.19107959828E+02  0.51100000000E-03 0. -1.
        -11    1    3    3    0    0  0.45867068356E+01  0.22504116501E+02 -0.44630911554E+01  0.23396416862E+02  0.51100000000E-03 0.  1.
         12    1    3    3    0    0  0.43813486199E+01 -0.13006634562E+02  0.96845074869E+01  0.16797572551E+02  0.00000000000E+00 0. -1.
</event>
<event>
 7    1  0.8996344E-013  0.5930193E+02  0.7816164E-02  0.1266605E+00
        -11   -1    0    0    0    0  0.00000000000E+00  0.00000000000E+00  0.45593999997E+02  0.45594000000E+02  0.51100000000E-03 0. -1.
         11   -1    0    0    0    0 -0.00000000000E+00 -0.00000000000E+00 -0.45593999997E+02  0.45594000000E+02  0.51100000000E-03 0.  1.
    9900012    2    1    2    0    0 -0.28306607626E+02 -0.11515914447E+02  0.91017040140E+01  0.59301931932E+02  0.49999977941E+02 0.  0.
        -12    1    1    2    0    0  0.28306607626E+02  0.11515914447E+02 -0.91017040140E+01  0.31886068068E+02  0.00000000000E+00 0.  1.
         11    1    3    3    0    0 -0.18204053301E+02 -0.65425732029E+01 -0.41017891894E+01  0.19774162322E+02  0.51100000000E-03 0. -1.
        -11    1    3    3    0    0 -0.49720588243E+01  0.15414846852E+02  0.66169210853E+01  0.17496357259E+02  0.51100000000E-03 0.  1.
         12    1    3    3    0    0 -0.51304955009E+01 -0.20388188096E+02  0.65865721181E+01  0.22031412352E+02  0.00000000000E+00 0. -1.
</event>
<event>
 7    1  0.6152255E-013  0.5930199E+02  0.7816164E-02  0.1266605E+00
        -11   -1    0    0    0    0  0.00000000000E+00  0.00000000000E+00  0.45593999997E+02  0.45594000000E+02  0.51100000000E-03 0. -1.
         11   -1    0    0    0    0 -0.00000000000E+00 -0.00000000000E+00 -0.45593999997E+02  0.45594000000E+02  0.51100000000E-03 0.  1.
    9900012    2    1    2    0    0 -0.10421663352E+02  0.12997931218E+02  0.27187507499E+02  0.59301986656E+02  0.50000077743E+02 0.  0.
        -12    1    1    2    0    0  0.10421663352E+02 -0.12997931218E+02 -0.27187507499E+02  0.31886013344E+02  0.00000000000E+00 0.  1.
         11    1    3    3    0    0 -0.67723032574E+01  0.17917926723E+02  0.10605162519E+02  0.21894877524E+02  0.51100000000E-03 0. -1.
        -11    1    3    3    0    0  0.98463656944E+01  0.24518066659E+01 -0.46737283758E+01  0.11171661045E+02  0.51100000000E-03 0.  1.
         12    1    3    3    0    0 -0.13495725789E+02 -0.73718021710E+01  0.21256073356E+02  0.26235448087E+02  0.00000000000E+00 0. -1.
</event>
<event>
 7    1  0.6152255E-013  0.5930192E+02  0.7816164E-02  0.1266605E+00
        -11   -1    0    0    0    0  0.00000000000E+00  0.00000000000E+00  0.45593999997E+02  0.45594000000E+02  0.51100000000E-03 0.  1.
         11   -1    0    0    0    0 -0.00000000000E+00 -0.00000000000E+00 -0.45593999997E+02  0.45594000000E+02  0.51100000000E-03 0. -1.
    9900012    2    1    2    0    0 -0.13869212076E+02 -0.28245836317E+02 -0.51517086877E+01  0.59301915021E+02  0.49999947099E+02 0.  0.
        -12    1    1    2    0    0  0.13869212076E+02  0.28245836317E+02  0.51517086877E+01  0.31886084979E+02  0.00000000000E+00 0.  1.
         11    1    3    3    0    0  0.18776734512E+01 -0.13736873616E+02  0.42812477933E+01  0.14510562954E+02  0.51100000000E-03 0. -1.
        -11    1    3    3    0    0  0.12749314831E+01  0.11931173972E+02 -0.13460704089E+00  0.11999853414E+02  0.51100000000E-03 0.  1.
         12    1    3    3    0    0 -0.17021817011E+02 -0.26440136673E+02 -0.92983494402E+01  0.32791498654E+02  0.00000000000E+00 0. -1.
</event>
<event>
 7    1  0.6152255E-013  0.5930193E+02  0.7816164E-02  0.1266605E+00
        -11   -1    0    0    0    0  0.00000000000E+00  0.00000000000E+00  0.45593999997E+02  0.45594000000E+02  0.51100000000E-03 0. -1.
         11   -1    0    0    0    0 -0.00000000000E+00 -0.00000000000E+00 -0.45593999997E+02  0.45594000000E+02  0.51100000000E-03 0.  1.
    9900012    2    1    2    0    0  0.51720657690E+01  0.31123258605E+02 -0.46166787138E+01  0.59301933876E+02  0.49999981486E+02 0.  0.
        -12    1    1    2    0    0 -0.51720657690E+01 -0.31123258605E+02  0.46166787138E+01  0.31886066124E+02  0.00000000000E+00 0.  1.
         11    1    3    3    0    0 -0.39605138579E+01  0.66969731907E+01  0.10114696535E+02  0.12760964156E+02  0.51100000000E-03 0. -1.
        -11    1    3    3    0    0  0.20589508435E+02  0.88193180479E+01 -0.15377585633E+02  0.27169438135E+02  0.51100000000E-03 0.  1.
         12    1    3    3    0    0 -0.11456928808E+02  0.15606967366E+02  0.64621038363E+00  0.19371531585E+02  0.00000000000E+00 0. -1.
</event>
<event>
 7    1  0.6152255E-013  0.5930193E+02  0.7816164E-02  0.1266605E+00
        -11   -1    0    0    0    0  0.00000000000E+00  0.00000000000E+00  0.45593999997E+02  0.45594000000E+02  0.51100000000E-03 0.  1.
         11   -1    0    0    0    0 -0.00000000000E+00 -0.00000000000E+00 -0.45593999997E+02  0.45594000000E+02  0.51100000000E-03 0. -1.
    9900012    2    1    2    0    0  0.14328708096E+02  0.23808855846E+02  0.15638032211E+02  0.59301928686E+02  0.49999972021E+02 0.  0.
        -12    1    1    2    0    0 -0.14328708096E+02 -0.23808855846E+02 -0.15638032211E+02  0.31886071314E+02  0.00000000000E+00 0.  1.
         11    1    3    3    0    0  0.14225133466E+02  0.18913256952E+02  0.10907539380E+01  0.23690830612E+02  0.51100000000E-03 0. -1.
        -11    1    3    3    0    0  0.11790897379E+01  0.18266612716E+02  0.12187854433E+02  0.21990979711E+02  0.51100000000E-03 0.  1.
         12    1    3    3    0    0 -0.10755151078E+01 -0.13371013822E+02  0.23594238402E+01  0.13620118363E+02  0.00000000000E+00 0. -1.
</event>
<event>
 7    1  0.6152255E-013  0.5930209E+02  0.7816164E-02  0.1266604E+00
        -11   -1    0    0    0    0  0.00000000000E+00  0.00000000000E+00  0.45593999997E+02  0.45594000000E+02  0.51100000000E-03 0. -1.
         11   -1    0    0    0    0 -0.00000000000E+00 -0.00000000000E+00 -0.45593999997E+02  0.45594000000E+02  0.51100000000E-03 0.  1.
    9900012    2    1    2    0    0 -0.18708587090E+02  0.19483229578E+02  0.16944138104E+02  0.59302089604E+02  0.50000265495E+02 0.  0.
        -12    1    1    2    0    0  0.18708587090E+02 -0.19483229578E+02 -0.16944138104E+02  0.31885910396E+02  0.00000000000E+00 0.  1.
         11    1    3    3    0    0  0.13516618829E+02  0.78464851342E+01 -0.64423739893E+01  0.16904747747E+02  0.51100000000E-03 0.  1.
        -11    1    3    3    0    0 -0.44026616484E+01  0.35452269890E+01  0.73761416677E+01  0.92929828449E+01  0.51100000000E-03 0. -1.
        -12    1    3    3    0    0 -0.27822544271E+02  0.80915174549E+01  0.16010370425E+02  0.33104359012E+02  0.00000000000E+00 0.  1.
</event>
<event>
 7    1  0.6152255E-013  0.5930198E+02  0.7816164E-02  0.1266605E+00
        -11   -1    0    0    0    0  0.00000000000E+00  0.00000000000E+00  0.45593999997E+02  0.45594000000E+02  0.51100000000E-03 0.  1.
         11   -1    0    0    0    0 -0.00000000000E+00 -0.00000000000E+00 -0.45593999997E+02  0.45594000000E+02  0.51100000000E-03 0. -1.
    9900012    2    1    2    0    0 -0.23635657538E+02  0.18446994048E+02  0.10852755888E+02  0.59301981010E+02  0.50000067448E+02 0.  0.
        -12    1    1    2    0    0  0.23635657538E+02 -0.18446994048E+02 -0.10852755888E+02  0.31886018990E+02  0.00000000000E+00 0.  1.
         11    1    3    3    0    0 -0.20956696793E+02  0.19272706979E+02  0.10583740312E+01  0.28491060539E+02  0.51100000000E-03 0. -1.
        -11    1    3    3    0    0  0.53801748090E+01  0.12123627876E+02  0.12355130767E+01  0.13321228422E+02  0.51100000000E-03 0.  1.
         12    1    3    3    0    0 -0.80591355534E+01 -0.12949340807E+02  0.85588687805E+01  0.17489692050E+02  0.00000000000E+00 0. -1.
</event>
<event>
 7    1  0.6152255E-013  0.5930195E+02  0.7816164E-02  0.1266605E+00
        -11   -1    0    0    0    0  0.00000000000E+00  0.00000000000E+00  0.45593999997E+02  0.45594000000E+02  0.51100000000E-03 0.  1.
         11   -1    0    0    0    0 -0.00000000000E+00 -0.00000000000E+00 -0.45593999997E+02  0.45594000000E+02  0.51100000000E-03 0. -1.
    9900012    2    1    2    0    0  0.16052688716E+02  0.11027151614E+02 -0.25247447227E+02  0.59301945380E+02  0.50000002466E+02 0.  0.
        -12    1    1    2    0    0 -0.16052688716E+02 -0.11027151614E+02  0.25247447227E+02  0.31886054620E+02  0.00000000000E+00 0.  1.
         11    1    3    3    0    0  0.69140300735E+01  0.71712963385E+01 -0.76742389390E+01  0.12574786145E+02  0.51100000000E-03 0. -1.
        -11    1    3    3    0    0 -0.41899697484E+01  0.21094217373E+02 -0.86532076176E+01  0.23181886365E+02  0.51100000000E-03 0.  1.
        -12    1    3    3    0    0  0.13328628391E+02 -0.17238362098E+02 -0.89200006709E+01  0.23545272871E+02  0.00000000000E+00 0.  1.
</event>
<event>
 7    1  0.6152255E-013  0.5930209E+02  0.7816164E-02  0.1266604E+00
        -11   -1    0    0    0    0  0.00000000000E+00  0.00000000000E+00  0.45593999997E+02  0.45594000000E+02  0.51100000000E-03 0.  1.
         11   -1    0    0    0    0 -0.00000000000E+00 -0.00000000000E+00 -0.45593999997E+02  0.45594000000E+02  0.51100000000E-03 0. -1.
    9900012    2    1    2    0    0  0.13218900614E+02 -0.16256073963E+02 -0.24035641434E+02  0.59302088796E+02  0.50000264023E+02 0.  0.
        -12    1    1    2    0    0 -0.13218900614E+02  0.16256073963E+02  0.24035641434E+02  0.31885911204E+02  0.00000000000E+00 0.  1.
         11    1    3    3    0    0 -0.31599523719E+01 -0.97839966264E+01 -0.24268260210E+02  0.26356409901E+02  0.51100000000E-03 0. -1.
        -11    1    3    3    0    0  0.13091501573E+01 -0.11236946289E+02 -0.91634532170E+01  0.14558561438E+02  0.51100000000E-03 0.  1.
        -12    1    3    3    0    0  0.15069702828E+02  0.47648689521E+01  0.93960719932E+01  0.18387117457E+02  0.00000000000E+00 0.  1.
</event>
<event>
 7    1  0.6152255E-013  0.5930195E+02  0.7816164E-02  0.1266605E+00
        -11   -1    0    0    0    0  0.00000000000E+00  0.00000000000E+00  0.45593999997E+02  0.45594000000E+02  0.51100000000E-03 0. -1.
         11   -1    0    0    0    0 -0.00000000000E+00 -0.00000000000E+00 -0.45593999997E+02  0.45594000000E+02  0.51100000000E-03 0.  1.
    9900012    2    1    2    0    0 -0.11983793872E+02 -0.22045314967E+02 -0.19675179979E+02  0.59301953918E+02  0.50000018037E+02 0.  0.
        -12    1    1    2    0    0  0.11983793872E+02  0.22045314967E+02  0.19675179979E+02  0.31886046082E+02  0.00000000000E+00 0.  1.
         11    1    3    3    0    0  0.28340761023E+01 -0.29008266140E+01  0.11601056291E+02  0.12289478822E+02  0.51100000000E-03 0. -1.
        -11    1    3    3    0    0 -0.12444386845E+01  0.61542351344E+01 -0.42412390046E+01  0.75770275362E+01  0.51100000000E-03 0.  1.
        -12    1    3    3    0    0 -0.13573431289E+02 -0.25298723487E+02 -0.27034997265E+02  0.39435447559E+02  0.00000000000E+00 0.  1.
</event>
<event>
 7    1  0.6152255E-013  0.5930200E+02  0.7816164E-02  0.1266605E+00
        -11   -1    0    0    0    0  0.00000000000E+00  0.00000000000E+00  0.45593999997E+02  0.45594000000E+02  0.51100000000E-03 0. -1.
         11   -1    0    0    0    0 -0.00000000000E+00 -0.00000000000E+00 -0.45593999997E+02  0.45594000000E+02  0.51100000000E-03 0.  1.
    9900012    2    1    2    0    0 -0.40873497297E+01 -0.30504289447E+02 -0.83366046687E+01  0.59301998685E+02  0.50000099681E+02 0.  0.
        -12    1    1    2    0    0  0.40873497297E+01  0.30504289447E+02  0.83366046687E+01  0.31886001315E+02  0.00000000000E+00 0.  1.
         11    1    3    3    0    0  0.15900911309E+01 -0.96930697403E+01  0.35524427735E+01  0.10445278393E+02  0.51100000000E-03 0. -1.
        -11    1    3    3    0    0 -0.10152720557E+02 -0.21902323389E+02 -0.25124294009E+02  0.34842784824E+02  0.51100000000E-03 0.  1.
         12    1    3    3    0    0  0.44752796967E+01  0.10911036827E+01  0.13235246567E+02  0.14013935468E+02  0.00000000000E+00 0. -1.
</event>
<event>
 7    1  0.6152255E-013  0.5930193E+02  0.7816164E-02  0.1266605E+00
        -11   -1    0    0    0    0  0.00000000000E+00  0.00000000000E+00  0.45593999997E+02  0.45594000000E+02  0.51100000000E-03 0. -1.
         11   -1    0    0    0    0 -0.00000000000E+00 -0.00000000000E+00 -0.45593999997E+02  0.45594000000E+02  0.51100000000E-03 0.  1.
    9900012    2    1    2    0    0  0.31129286010E+02  0.58642907587E+01 -0.36467902542E+01  0.59301930428E+02  0.49999975198E+02 0.  0.
        -12    1    1    2    0    0 -0.31129286010E+02 -0.58642907587E+01  0.36467902542E+01  0.31886069572E+02  0.00000000000E+00 0.  1.
         11    1    3    3    0    0  0.17704223901E+02  0.86872405039E+01 -0.76983681629E+01  0.21170086540E+02  0.51100000000E-03 0. -1.
        -11    1    3    3    0    0  0.69307135500E+01  0.30808812182E+01 -0.15192649556E+02  0.16980671959E+02  0.51100000000E-03 0.  1.
         12    1    3    3    0    0  0.64943485590E+01 -0.59038309634E+01  0.19244227465E+02  0.21151171929E+02  0.00000000000E+00 0. -1.
</event>
<event>
 7    1  0.6152255E-013  0.5930194E+02  0.7816164E-02  0.1266605E+00
        -11   -1    0    0    0    0  0.00000000000E+00  0.00000000000E+00  0.45593999997E+02  0.45594000000E+02  0.51100000000E-03 0. -1.
         11   -1    0    0    0    0 -0.00000000000E+00 -0.00000000000E+00 -0.45593999997E+02  0.45594000000E+02  0.51100000000E-03 0.  1.
    9900012    2    1    2    0    0 -0.22296253739E+02 -0.18691678817E+02  0.13046807900E+02  0.59301937463E+02  0.49999988027E+02 0.  0.
        -12    1    1    2    0    0  0.22296253739E+02  0.18691678817E+02 -0.13046807900E+02  0.31886062537E+02  0.00000000000E+00 0.  1.
         11    1    3    3    0    0 -0.64308460713E+01 -0.20924873830E+02  0.31264525947E+01  0.22112910982E+02  0.51100000000E-03 0. -1.
        -11    1    3    3    0    0  0.91226017740E+01  0.45158342338E+01 -0.75077028023E-01  0.10179403655E+02  0.51100000000E-03 0.  1.
        -12    1    3    3    0    0 -0.24988009441E+02 -0.22826392199E+01  0.99954323331E+01  0.27009622825E+02  0.00000000000E+00 0.  1.
</event>
<event>
 7    1  0.6152255E-013  0.5930194E+02  0.7816164E-02  0.1266605E+00
        -11   -1    0    0    0    0  0.00000000000E+00  0.00000000000E+00  0.45593999997E+02  0.45594000000E+02  0.51100000000E-03 0.  1.
         11   -1    0    0    0    0 -0.00000000000E+00 -0.00000000000E+00 -0.45593999997E+02  0.45594000000E+02  0.51100000000E-03 0. -1.
    9900012    2    1    2    0    0  0.51042126448E+01 -0.23880477420E+02 -0.20503426813E+02  0.59301941924E+02  0.49999996164E+02 0.  0.
        -12    1    1    2    0    0 -0.51042126448E+01  0.23880477420E+02  0.20503426813E+02  0.31886058076E+02  0.00000000000E+00 0.  1.
         11    1    3    3    0    0  0.53467355862E+01 -0.12736888632E+00 -0.19603241454E+01  0.56961983180E+01  0.51100000000E-03 0. -1.
        -11    1    3    3    0    0  0.85369658365E+01 -0.30511893453E+02  0.37042290534E+00  0.31685842914E+02  0.51100000000E-03 0.  1.
         12    1    3    3    0    0 -0.87794887780E+01  0.67587849192E+01 -0.18913525573E+02  0.21919900693E+02  0.00000000000E+00 0. -1.
</event>
<event>
 7    1  0.6152255E-013  0.5930192E+02  0.7816164E-02  0.1266605E+00
        -11   -1    0    0    0    0  0.00000000000E+00  0.00000000000E+00  0.45593999997E+02  0.45594000000E+02  0.51100000000E-03 0. -1.
         11   -1    0    0    0    0 -0.00000000000E+00 -0.00000000000E+00 -0.45593999997E+02  0.45594000000E+02  0.51100000000E-03 0.  1.
    9900012    2    1    2    0    0 -0.26521450081E+02  0.12685436886E+02  0.12345631668E+02  0.59301917697E+02  0.49999951978E+02 0.  0.
        -12    1    1    2    0    0  0.26521450081E+02 -0.12685436886E+02 -0.12345631668E+02  0.31886082303E+02  0.00000000000E+00 0.  1.
         11    1    3    3    0    0 -0.24902543253E+02  0.18080221137E+01  0.12028166013E+02  0.27714299240E+02  0.51100000000E-03 0. -1.
        -11    1    3    3    0    0 -0.82274235046E+01 -0.47318591651E+01  0.85222020751E+01  0.12755740557E+02  0.51100000000E-03 0.  1.
        -12    1    3    3    0    0  0.66085166768E+01  0.15609273937E+02 -0.82047364206E+01  0.18831877900E+02  0.00000000000E+00 0.  1.
</event>
<event>
 7    1  0.6152255E-013  0.5930193E+02  0.7816164E-02  0.1266605E+00
        -11   -1    0    0    0    0  0.00000000000E+00  0.00000000000E+00  0.45593999997E+02  0.45594000000E+02  0.51100000000E-03 0.  1.
         11   -1    0    0    0    0 -0.00000000000E+00 -0.00000000000E+00 -0.45593999997E+02  0.45594000000E+02  0.51100000000E-03 0. -1.
    9900012    2    1    2    0    0 -0.15443771418E+02 -0.36220907014E+01 -0.27660296691E+02  0.59301927339E+02  0.49999969565E+02 0.  0.
        -12    1    1    2    0    0  0.15443771418E+02  0.36220907014E+01  0.27660296691E+02  0.31886072661E+02  0.00000000000E+00 0.  1.
         11    1    3    3    0    0  0.78738253154E+01  0.94383943298E+01 -0.10987482694E+02  0.16486515363E+02  0.51100000000E-03 0. -1.
        -11    1    3    3    0    0  0.46683356206E+01  0.17397134329E+01  0.27332606003E+01  0.56824883692E+01  0.51100000000E-03 0.  1.
         12    1    3    3    0    0 -0.27985932354E+02 -0.14800198464E+02 -0.19406074598E+02  0.37132923607E+02  0.00000000000E+00 0. -1.
</event>
<event>
 7    1  0.6152255E-013  0.5930194E+02  0.7816164E-02  0.1266605E+00
        -11   -1    0    0    0    0  0.00000000000E+00  0.00000000000E+00  0.45593999997E+02  0.45594000000E+02  0.51100000000E-03 0. -1.
         11   -1    0    0    0    0 -0.00000000000E+00 -0.00000000000E+00 -0.45593999997E+02  0.45594000000E+02  0.51100000000E-03 0.  1.
    9900012    2    1    2    0    0 -0.29686288370E+02 -0.11144024247E+02  0.33549843571E+01  0.59301938568E+02  0.49999990043E+02 0.  0.
        -12    1    1    2    0    0  0.29686288370E+02  0.11144024247E+02 -0.33549843571E+01  0.31886061432E+02  0.00000000000E+00 0.  1.
         11    1    3    3    0    0 -0.37872634647E+02 -0.25201506006E+01 -0.82650374802E+01  0.38845829364E+02  0.51100000000E-03 0. -1.
        -11    1    3    3    0    0  0.41363000173E+01  0.84716034506E+00 -0.82413186027E+00  0.43018428687E+01  0.51100000000E-03 0.  1.
        -12    1    3    3    0    0  0.40500462600E+01 -0.94710339916E+01  0.12444153698E+02  0.16154266335E+02  0.00000000000E+00 0.  1.
</event>
<event>
 7    1  0.6152255E-013  0.5930193E+02  0.7816164E-02  0.1266605E+00
        -11   -1    0    0    0    0  0.00000000000E+00  0.00000000000E+00  0.45593999997E+02  0.45594000000E+02  0.51100000000E-03 0.  1.
         11   -1    0    0    0    0 -0.00000000000E+00 -0.00000000000E+00 -0.45593999997E+02  0.45594000000E+02  0.51100000000E-03 0. -1.
    9900012    2    1    2    0    0  0.20286948754E+02  0.15430710613E+02 -0.19158660779E+02  0.59301930901E+02  0.49999976060E+02 0.  0.
        -12    1    1    2    0    0 -0.20286948754E+02 -0.15430710613E+02  0.19158660779E+02  0.31886069099E+02  0.00000000000E+00 0.  1.
         11    1    3    3    0    0  0.14212624267E+01  0.15790536439E+02 -0.60663568545E+01  0.16975326615E+02  0.51100000000E-03 0. -1.
        -11    1    3    3    0    0  0.18778600578E+02  0.14501258963E+02 -0.20547421427E+01  0.23814791973E+02  0.51100000000E-03 0.  1.
        -12    1    3    3    0    0  0.87085748935E-01 -0.14861084790E+02 -0.11037561781E+02  0.18511812314E+02  0.00000000000E+00 0.  1.
</event>
<event>
 7    1  0.6152255E-013  0.5930198E+02  0.7816164E-02  0.1266605E+00
        -11   -1    0    0    0    0  0.00000000000E+00  0.00000000000E+00  0.45593999997E+02  0.45594000000E+02  0.51100000000E-03 0. -1.
         11   -1    0    0    0    0 -0.00000000000E+00 -0.00000000000E+00 -0.45593999997E+02  0.45594000000E+02  0.51100000000E-03 0.  1.
    9900012    2    1    2    0    0 -0.11559682322E+02 -0.16163337204E+02  0.24936697076E+02  0.59301975067E+02  0.50000056609E+02 0.  0.
        -12    1    1    2    0    0  0.11559682322E+02  0.16163337204E+02 -0.24936697076E+02  0.31886024933E+02  0.00000000000E+00 0.  1.
         11    1    3    3    0    0  0.11604811675E+02 -0.29658581156E+01  0.28541957688E+01  0.12313180017E+02  0.51100000000E-03 0. -1.
        -11    1    3    3    0    0 -0.14953043694E+01  0.50772344347E+00 -0.76020456059E+01  0.77643297139E+01  0.51100000000E-03 0.  1.
         12    1    3    3    0    0 -0.21669189628E+02 -0.13705202532E+02  0.29684546913E+02  0.39224465337E+02  0.00000000000E+00 0. -1.
</event>
<event>
 7    1  0.6152255E-013  0.5930210E+02  0.7816164E-02  0.1266604E+00
        -11   -1    0    0    0    0  0.00000000000E+00  0.00000000000E+00  0.45593999997E+02  0.45594000000E+02  0.51100000000E-03 0.  1.
         11   -1    0    0    0    0 -0.00000000000E+00 -0.00000000000E+00 -0.45593999997E+02  0.45594000000E+02  0.51100000000E-03 0. -1.
    9900012    2    1    2    0    0  0.30855536796E+01 -0.26296711737E+02 -0.17767191484E+02  0.59302097427E+02  0.50000279763E+02 0.  0.
        -12    1    1    2    0    0 -0.30855536796E+01  0.26296711737E+02  0.17767191484E+02  0.31885902573E+02  0.00000000000E+00 0.  1.
         11    1    3    3    0    0  0.60118870327E+01 -0.63463665937E+01 -0.10744673566E+02  0.13851612359E+02  0.51100000000E-03 0. -1.
        -11    1    3    3    0    0  0.78128256560E+01  0.81270718209E+01  0.59064417057E+01  0.12726963306E+02  0.51100000000E-03 0.  1.
         12    1    3    3    0    0 -0.10739159009E+02 -0.28077416964E+02 -0.12928959623E+02  0.32723521762E+02  0.00000000000E+00 0. -1.
</event>
<event>
 7    1  0.6152255E-013  0.5930194E+02  0.7816164E-02  0.1266605E+00
        -11   -1    0    0    0    0  0.00000000000E+00  0.00000000000E+00  0.45593999997E+02  0.45594000000E+02  0.51100000000E-03 0. -1.
         11   -1    0    0    0    0 -0.00000000000E+00 -0.00000000000E+00 -0.45593999997E+02  0.45594000000E+02  0.51100000000E-03 0.  1.
    9900012    2    1    2    0    0  0.21760728447E+02 -0.10364270343E+02  0.20875182658E+02  0.59301942651E+02  0.49999997489E+02 0.  0.
        -12    1    1    2    0    0 -0.21760728447E+02  0.10364270343E+02 -0.20875182658E+02  0.31886057349E+02  0.00000000000E+00 0.  1.
         11    1    3    3    0    0 -0.26745909695E+01 -0.46343773638E+01 -0.87406539775E+01  0.10248410736E+02  0.51100000000E-03 0. -1.
        -11    1    3    3    0    0 -0.66642885090E+01 -0.13000215007E+01  0.16319593240E+01  0.69832720647E+01  0.51100000000E-03 0.  1.
         12    1    3    3    0    0  0.31099607925E+02 -0.44298714784E+01  0.27983877312E+02  0.42070259850E+02  0.00000000000E+00 0. -1.
</event>
<event>
 7    1  0.6152255E-013  0.5930195E+02  0.7816164E-02  0.1266605E+00
        -11   -1    0    0    0    0  0.00000000000E+00  0.00000000000E+00  0.45593999997E+02  0.45594000000E+02  0.51100000000E-03 0.  1.
         11   -1    0    0    0    0 -0.00000000000E+00 -0.00000000000E+00 -0.45593999997E+02  0.45594000000E+02  0.51100000000E-03 0. -1.
    9900012    2    1    2    0    0  0.27616728200E+02  0.21388868937E-01 -0.15938507744E+02  0.59301950337E+02  0.50000011507E+02 0.  0.
        -12    1    1    2    0    0 -0.27616728200E+02 -0.21388868937E-01  0.15938507744E+02  0.31886049663E+02  0.00000000000E+00 0.  1.
         11    1    3    3    0    0  0.90995760110E+00  0.53742103138E+01 -0.25102583085E+01  0.60009629535E+01  0.51100000000E-03 0. -1.
        -11    1    3    3    0    0  0.32623904720E+02  0.89881673200E+01 -0.16239873105E+02  0.37534514645E+02  0.51100000000E-03 0.  1.
         12    1    3    3    0    0 -0.59171341210E+01 -0.14340988765E+02  0.28116236690E+01  0.15766472738E+02  0.00000000000E+00 0. -1.
</event>
<event>
 7    1  0.6152255E-013  0.5930195E+02  0.7816164E-02  0.1266605E+00
        -11   -1    0    0    0    0  0.00000000000E+00  0.00000000000E+00  0.45593999997E+02  0.45594000000E+02  0.51100000000E-03 0.  1.
         11   -1    0    0    0    0 -0.00000000000E+00 -0.00000000000E+00 -0.45593999997E+02  0.45594000000E+02  0.51100000000E-03 0. -1.
    9900012    2    1    2    0    0 -0.52637190031E+01 -0.15281516674E+02 -0.27486157245E+02  0.59301947725E+02  0.50000006743E+02 0.  0.
        -12    1    1    2    0    0  0.52637190031E+01  0.15281516674E+02  0.27486157245E+02  0.31886052275E+02  0.00000000000E+00 0.  1.
         11    1    3    3    0    0  0.60159850277E+01  0.80100833624E+01 -0.18772949405E+02  0.21278560594E+02  0.51100000000E-03 0. -1.
        -11    1    3    3    0    0 -0.36905286022E+01 -0.80491851181E+01  0.95707892949E+01  0.13038764911E+02  0.51100000000E-03 0.  1.
        -12    1    3    3    0    0 -0.75891754286E+01 -0.15242414918E+02 -0.18283997135E+02  0.24984622219E+02  0.00000000000E+00 0.  1.
</event>
<event>
 7    1  0.6152255E-013  0.5930194E+02  0.7816164E-02  0.1266605E+00
        -11   -1    0    0    0    0  0.00000000000E+00  0.00000000000E+00  0.45593999997E+02  0.45594000000E+02  0.51100000000E-03 0. -1.
         11   -1    0    0    0    0 -0.00000000000E+00 -0.00000000000E+00 -0.45593999997E+02  0.45594000000E+02  0.51100000000E-03 0.  1.
    9900012    2    1    2    0    0 -0.15008391497E+02 -0.27004391249E+02 -0.78887005632E+01  0.59301944135E+02  0.50000000196E+02 0.  0.
        -12    1    1    2    0    0  0.15008391497E+02  0.27004391249E+02  0.78887005632E+01  0.31886055865E+02  0.00000000000E+00 0.  1.
         11    1    3    3    0    0 -0.15306612962E+02  0.51823901790E+00  0.10666134241E+02  0.18663531068E+02  0.51100000000E-03 0. -1.
        -11    1    3    3    0    0 -0.74609305855E+01 -0.33890520677E+01 -0.11866008216E+02  0.14420586339E+02  0.51100000000E-03 0.  1.
        -12    1    3    3    0    0  0.77591520506E+01 -0.24133578199E+02 -0.66888265876E+01  0.26217826728E+02  0.00000000000E+00 0.  1.
</event>
<event>
 7    1  0.6152255E-013  0.5930194E+02  0.7816164E-02  0.1266605E+00
        -11   -1    0    0    0    0  0.00000000000E+00  0.00000000000E+00  0.45593999997E+02  0.45594000000E+02  0.51100000000E-03 0.  1.
         11   -1    0    0    0    0 -0.00000000000E+00 -0.00000000000E+00 -0.45593999997E+02  0.45594000000E+02  0.51100000000E-03 0. -1.
    9900012    2    1    2    0    0 -0.19558825162E+02 -0.15733212530E+02  0.19663144612E+02  0.59301939185E+02  0.49999991169E+02 0.  0.
        -12    1    1    2    0    0  0.19558825162E+02  0.15733212530E+02 -0.19663144612E+02  0.31886060815E+02  0.00000000000E+00 0.  1.
         11    1    3    3    0    0 -0.58531390589E+01  0.39189260845E+01 -0.39998230443E+01  0.81003582109E+01  0.51100000000E-03 0. -1.
        -11    1    3    3    0    0  0.65972330281E+01  0.81617886041E+01  0.87969444233E+01  0.13693958825E+02  0.51100000000E-03 0.  1.
        -12    1    3    3    0    0 -0.20302919131E+02 -0.27813927218E+02  0.14866023233E+02  0.37507622150E+02  0.00000000000E+00 0.  1.
</event>
<event>
 7    1  0.6152255E-013  0.5930193E+02  0.7816164E-02  0.1266605E+00
        -11   -1    0    0    0    0  0.00000000000E+00  0.00000000000E+00  0.45593999997E+02  0.45594000000E+02  0.51100000000E-03 0.  1.
         11   -1    0    0    0    0 -0.00000000000E+00 -0.00000000000E+00 -0.45593999997E+02  0.45594000000E+02  0.51100000000E-03 0. -1.
    9900012    2    1    2    0    0  0.19779471701E+02  0.13471212895E+02 -0.21071787500E+02  0.59301932415E+02  0.49999978820E+02 0.  0.
        -12    1    1    2    0    0 -0.19779471701E+02 -0.13471212895E+02  0.21071787500E+02  0.31886067585E+02  0.00000000000E+00 0.  1.
         11    1    3    3    0    0  0.92367156634E+01  0.81564385482E+01 -0.26113477895E+02  0.28874870287E+02  0.51100000000E-03 0. -1.
        -11    1    3    3    0    0  0.13597284471E+02  0.98426733551E+01 -0.62276722439E+01  0.17903861751E+02  0.51100000000E-03 0.  1.
         12    1    3    3    0    0 -0.30545284339E+01 -0.45278990084E+01  0.11269362639E+02  0.12523200377E+02  0.00000000000E+00 0. -1.
</event>
<event>
 7    1  0.6152255E-013  0.5930217E+02  0.7816164E-02  0.1266604E+00
        -11   -1    0    0    0    0  0.00000000000E+00  0.00000000000E+00  0.45593999997E+02  0.45594000000E+02  0.51100000000E-03 0. -1.
         11   -1    0    0    0    0 -0.00000000000E+00 -0.00000000000E+00 -0.45593999997E+02  0.45594000000E+02  0.51100000000E-03 0.  1.
    9900012    2    1    2    0    0  0.28574120591E+02  0.12683359442E+02 -0.62736192802E+01  0.59302168144E+02  0.50000408733E+02 0.  0.
        -12    1    1    2    0    0 -0.28574120591E+02 -0.12683359442E+02  0.62736192802E+01  0.31885831856E+02  0.00000000000E+00 0.  1.
         11    1    3    3    0    0 -0.18666385541E+01 -0.13218766273E+00 -0.12837817783E+01  0.22693410905E+01  0.51100000000E-03 0.  1.
        -11    1    3    3    0    0  0.19585152231E+02 -0.70112346617E+01 -0.20824222614E+02  0.29434399045E+02  0.51100000000E-03 0. -1.
         12    1    3    3    0    0  0.10855606913E+02  0.19826781766E+02  0.15834385112E+02  0.27598428009E+02  0.00000000000E+00 0. -1.
</event>
<event>
 7    1  0.6152255E-013  0.5930195E+02  0.7816164E-02  0.1266605E+00
        -11   -1    0    0    0    0  0.00000000000E+00  0.00000000000E+00  0.45593999997E+02  0.45594000000E+02  0.51100000000E-03 0.  1.
         11   -1    0    0    0    0 -0.00000000000E+00 -0.00000000000E+00 -0.45593999997E+02  0.45594000000E+02  0.51100000000E-03 0. -1.
    9900012    2    1    2    0    0  0.26763801756E+02  0.16618393159E+02 -0.49242085933E+01  0.59301954370E+02  0.50000018862E+02 0.  0.
        -12    1    1    2    0    0 -0.26763801756E+02 -0.16618393159E+02  0.49242085933E+01  0.31886045630E+02  0.00000000000E+00 0.  1.
         11    1    3    3    0    0  0.16615283238E+02  0.22205385865E+02  0.58196042869E+01  0.28337512113E+02  0.51100000000E-03 0. -1.
        -11    1    3    3    0    0 -0.88950920470E+00  0.67468062852E+01  0.47448022577E+01  0.82960093058E+01  0.51100000000E-03 0.  1.
        -12    1    3    3    0    0  0.11038027723E+02 -0.12333798991E+02 -0.15488615138E+02  0.22668432951E+02  0.00000000000E+00 0.  1.
</event>
<event>
 7    1  0.6152255E-013  0.5930196E+02  0.7816164E-02  0.1266605E+00
        -11   -1    0    0    0    0  0.00000000000E+00  0.00000000000E+00  0.45593999997E+02  0.45594000000E+02  0.51100000000E-03 0.  1.
         11   -1    0    0    0    0 -0.00000000000E+00 -0.00000000000E+00 -0.45593999997E+02  0.45594000000E+02  0.51100000000E-03 0. -1.
    9900012    2    1    2    0    0  0.17685790846E+02  0.26511048127E+02 -0.10472635314E+01  0.59301958673E+02  0.50000026709E+02 0.  0.
        -12    1    1    2    0    0 -0.17685790846E+02 -0.26511048127E+02  0.10472635314E+01  0.31886041327E+02  0.00000000000E+00 0.  1.
         11    1    3    3    0    0  0.45796675248E+01 -0.54688695818E+01 -0.12380401603E+02  0.14288325068E+02  0.51100000000E-03 0. -1.
        -11    1    3    3    0    0 -0.89423457733E+00 -0.40564941575E+01  0.37922270200E+01  0.56245698823E+01  0.51100000000E-03 0.  1.
         12    1    3    3    0    0  0.14000357898E+02  0.36036411866E+02  0.75409110516E+01  0.39389063722E+02  0.00000000000E+00 0. -1.
</event>
<event>
 7    1  0.6152255E-013  0.5930195E+02  0.7816164E-02  0.1266605E+00
        -11   -1    0    0    0    0  0.00000000000E+00  0.00000000000E+00  0.45593999997E+02  0.45594000000E+02  0.51100000000E-03 0.  1.
         11   -1    0    0    0    0 -0.00000000000E+00 -0.00000000000E+00 -0.45593999997E+02  0.45594000000E+02  0.51100000000E-03 0. -1.
    9900012    2    1    2    0    0 -0.88385288053E+01 -0.29875390962E+02  0.67868488855E+01  0.59301954551E+02  0.50000019193E+02 0.  0.
        -12    1    1    2    0    0  0.88385288053E+01  0.29875390962E+02 -0.67868488855E+01  0.31886045449E+02  0.00000000000E+00 0.  1.
         11    1    3    3    0    0  0.64037097709E+01  0.77043521341E+01 -0.45576666586E+01  0.11006219436E+02  0.51100000000E-03 0. -1.
        -11    1    3    3    0    0 -0.37771276936E+00  0.33625243732E+01  0.66303733016E+00  0.34480220212E+01  0.51100000000E-03 0.  1.
         12    1    3    3    0    0 -0.14864525807E+02 -0.40942267469E+02  0.10681478214E+02  0.44847713094E+02  0.00000000000E+00 0. -1.
</event>
<event>
 7    1  0.6152255E-013  0.5930195E+02  0.7816164E-02  0.1266605E+00
        -11   -1    0    0    0    0  0.00000000000E+00  0.00000000000E+00  0.45593999997E+02  0.45594000000E+02  0.51100000000E-03 0. -1.
         11   -1    0    0    0    0 -0.00000000000E+00 -0.00000000000E+00 -0.45593999997E+02  0.45594000000E+02  0.51100000000E-03 0.  1.
    9900012    2    1    2    0    0  0.13933148391E+02  0.16349268312E+02  0.23564575945E+02  0.59301946028E+02  0.50000003648E+02 0.  0.
        -12    1    1    2    0    0 -0.13933148391E+02 -0.16349268312E+02 -0.23564575945E+02  0.31886053972E+02  0.00000000000E+00 0.  1.
         11    1    3    3    0    0  0.49788412684E+01  0.55207379630E+01  0.30634497628E+02  0.31523639593E+02  0.51100000000E-03 0. -1.
        -11    1    3    3    0    0  0.54131487132E+01 -0.19183364929E+01  0.66041285485E+01  0.87519545267E+01  0.51100000000E-03 0.  1.
        -12    1    3    3    0    0  0.35411584098E+01  0.12746866842E+02 -0.13674050232E+02  0.19026351908E+02  0.00000000000E+00 0.  1.
</event>
<event>
 7    1  0.6152255E-013  0.5930196E+02  0.7816164E-02  0.1266605E+00
        -11   -1    0    0    0    0  0.00000000000E+00  0.00000000000E+00  0.45593999997E+02  0.45594000000E+02  0.51100000000E-03 0. -1.
         11   -1    0    0    0    0 -0.00000000000E+00 -0.00000000000E+00 -0.45593999997E+02  0.45594000000E+02  0.51100000000E-03 0.  1.
    9900012    2    1    2    0    0 -0.20579541887E+02  0.11983849210E+02  0.21203519030E+02  0.59301962219E+02  0.50000033176E+02 0.  0.
        -12    1    1    2    0    0  0.20579541887E+02 -0.11983849210E+02 -0.21203519030E+02  0.31886037781E+02  0.00000000000E+00 0.  1.
         11    1    3    3    0    0 -0.29107339076E+02  0.13741969286E+02  0.12298574129E+02  0.34457710803E+02  0.51100000000E-03 0. -1.
        -11    1    3    3    0    0 -0.57038956949E+01 -0.99257210884E+00  0.88695859887E+01  0.10591939452E+02  0.51100000000E-03 0.  1.
        -12    1    3    3    0    0  0.14231692884E+02 -0.76554796736E+00  0.35358911838E-01  0.14252311963E+02  0.00000000000E+00 0.  1.
</event>
<event>
 7    1  0.6152255E-013  0.5930195E+02  0.7816164E-02  0.1266605E+00
        -11   -1    0    0    0    0  0.00000000000E+00  0.00000000000E+00  0.45593999997E+02  0.45594000000E+02  0.51100000000E-03 0. -1.
         11   -1    0    0    0    0 -0.00000000000E+00 -0.00000000000E+00 -0.45593999997E+02  0.45594000000E+02  0.51100000000E-03 0.  1.
    9900012    2    1    2    0    0  0.25471031123E+02  0.16447220993E+01  0.19111299031E+02  0.59301948380E+02  0.50000007938E+02 0.  0.
        -12    1    1    2    0    0 -0.25471031123E+02 -0.16447220993E+01 -0.19111299031E+02  0.31886051620E+02  0.00000000000E+00 0.  1.
         11    1    3    3    0    0 -0.37219320035E+01  0.77459564024E+01  0.72129526090E+01  0.11219594646E+02  0.51100000000E-03 0. -1.
        -11    1    3    3    0    0  0.16860388301E+02  0.10751485792E+02 -0.56778405138E+01  0.20787135771E+02  0.51100000000E-03 0.  1.
        -12    1    3    3    0    0  0.12332574826E+02 -0.16852720095E+02  0.17576186936E+02  0.27295217963E+02  0.00000000000E+00 0.  1.
</event>
<event>
 7    1  0.6152255E-013  0.5930195E+02  0.7816164E-02  0.1266605E+00
        -11   -1    0    0    0    0  0.00000000000E+00  0.00000000000E+00  0.45593999997E+02  0.45594000000E+02  0.51100000000E-03 0.  1.
         11   -1    0    0    0    0 -0.00000000000E+00 -0.00000000000E+00 -0.45593999997E+02  0.45594000000E+02  0.51100000000E-03 0. -1.
    9900012    2    1    2    0    0 -0.11296877225E+02  0.21326868386E+02  0.20839040449E+02  0.59301947296E+02  0.50000005961E+02 0.  0.
        -12    1    1    2    0    0  0.11296877225E+02 -0.21326868386E+02 -0.20839040449E+02  0.31886052704E+02  0.00000000000E+00 0.  1.
         11    1    3    3    0    0 -0.53795217059E+01 -0.51731643139E+01 -0.21127462660E+01  0.77565830008E+01  0.51100000000E-03 0. -1.
        -11    1    3    3    0    0  0.62800933240E+01  0.39628071082E+01  0.24765661605E+02  0.25855007394E+02  0.51100000000E-03 0.  1.
        -12    1    3    3    0    0 -0.12197448843E+02  0.22537225592E+02 -0.18138748900E+01  0.25690356902E+02  0.00000000000E+00 0.  1.
</event>
<event>
 7    1  0.6152255E-013  0.5930191E+02  0.7816164E-02  0.1266605E+00
        -11   -1    0    0    0    0  0.00000000000E+00  0.00000000000E+00  0.45593999997E+02  0.45594000000E+02  0.51100000000E-03 0.  1.
         11   -1    0    0    0    0 -0.00000000000E+00 -0.00000000000E+00 -0.45593999997E+02  0.45594000000E+02  0.51100000000E-03 0. -1.
    9900012    2    1    2    0    0  0.73830564076E+01 -0.16905731862E+02 -0.26007867180E+02  0.59301914524E+02  0.49999946192E+02 0.  0.
        -12    1    1    2    0    0 -0.73830564076E+01  0.16905731862E+02  0.26007867180E+02  0.31886085476E+02  0.00000000000E+00 0.  1.
         11    1    3    3    0    0 -0.77766689767E+01 -0.50595781401E+01  0.70256296737E+01  0.11637670897E+02  0.51100000000E-03 0. -1.
        -11    1    3    3    0    0 -0.21893717982E+01  0.42884853921E+01  0.21290201951E+01  0.52647111109E+01  0.51100000000E-03 0.  1.
         12    1    3    3    0    0  0.17349097183E+02 -0.16134639114E+02 -0.35162517049E+02  0.42399532516E+02  0.00000000000E+00 0. -1.
</event>
<event>
 7    1  0.6152255E-013  0.5930194E+02  0.7816164E-02  0.1266605E+00
        -11   -1    0    0    0    0  0.00000000000E+00  0.00000000000E+00  0.45593999997E+02  0.45594000000E+02  0.51100000000E-03 0.  1.
         11   -1    0    0    0    0 -0.00000000000E+00 -0.00000000000E+00 -0.45593999997E+02  0.45594000000E+02  0.51100000000E-03 0. -1.
    9900012    2    1    2    0    0 -0.82032439380E+01  0.20839617389E+02  0.22696655463E+02  0.59301936693E+02  0.49999986623E+02 0.  0.
        -12    1    1    2    0    0  0.82032439380E+01 -0.20839617389E+02 -0.22696655463E+02  0.31886063307E+02  0.00000000000E+00 0.  1.
         11    1    3    3    0    0  0.11799820095E+02  0.67845025595E+01 -0.62261563849E+01  0.14967640190E+02  0.51100000000E-03 0. -1.
        -11    1    3    3    0    0 -0.62318366152E+01  0.13982567317E+02  0.39401356303E+01  0.15807360483E+02  0.51100000000E-03 0.  1.
        -12    1    3    3    0    0 -0.13771227418E+02  0.72547512405E-01  0.24982676217E+02  0.28526936020E+02  0.00000000000E+00 0.  1.
</event>
<event>
 7    1  0.6152255E-013  0.5930202E+02  0.7816164E-02  0.1266604E+00
        -11   -1    0    0    0    0  0.00000000000E+00  0.00000000000E+00  0.45593999997E+02  0.45594000000E+02  0.51100000000E-03 0. -1.
         11   -1    0    0    0    0 -0.00000000000E+00 -0.00000000000E+00 -0.45593999997E+02  0.45594000000E+02  0.51100000000E-03 0.  1.
    9900012    2    1    2    0    0 -0.29210899608E+02  0.91311742746E+00  0.12751667272E+02  0.59302024124E+02  0.50000146076E+02 0.  0.
        -12    1    1    2    0    0  0.29210899608E+02 -0.91311742746E+00 -0.12751667272E+02  0.31885975876E+02  0.00000000000E+00 0.  1.
         11    1    3    3    0    0 -0.36769983606E+02 -0.31371873435E+01 -0.27113053046E+01  0.37003037923E+02  0.51100000000E-03 0. -1.
        -11    1    3    3    0    0 -0.21651108602E+01 -0.29996716259E+01  0.18219570405E+01  0.41237437625E+01  0.51100000000E-03 0.  1.
         12    1    3    3    0    0  0.97241948583E+01  0.70499763969E+01  0.13641015536E+02  0.18175242438E+02  0.00000000000E+00 0. -1.
</event>
<event>
 7    1  0.6152255E-013  0.5930199E+02  0.7816164E-02  0.1266605E+00
        -11   -1    0    0    0    0  0.00000000000E+00  0.00000000000E+00  0.45593999997E+02  0.45594000000E+02  0.51100000000E-03 0. -1.
         11   -1    0    0    0    0 -0.00000000000E+00 -0.00000000000E+00 -0.45593999997E+02  0.45594000000E+02  0.51100000000E-03 0.  1.
    9900012    2    1    2    0    0  0.24926082018E+02  0.85796579637E+01  0.17938708673E+02  0.59301994223E+02  0.50000091544E+02 0.  0.
        -12    1    1    2    0    0 -0.24926082018E+02 -0.85796579637E+01 -0.17938708673E+02  0.31886005777E+02  0.00000000000E+00 0.  1.
         11    1    3    3    0    0  0.18194981798E+02  0.21651829464E+02  0.18690263115E+02  0.33899631522E+02  0.51100000000E-03 0. -1.
        -11    1    3    3    0    0 -0.41086822374E+01  0.36275401067E+01 -0.68942464723E-01  0.54813383656E+01  0.51100000000E-03 0.  1.
        -12    1    3    3    0    0  0.10839782458E+02 -0.16699711607E+02 -0.68261197754E+00  0.19921024336E+02  0.00000000000E+00 0.  1.
</event>
<event>
 7    1  0.6152255E-013  0.5930196E+02  0.7816164E-02  0.1266605E+00
        -11   -1    0    0    0    0  0.00000000000E+00  0.00000000000E+00  0.45593999997E+02  0.45594000000E+02  0.51100000000E-03 0.  1.
         11   -1    0    0    0    0 -0.00000000000E+00 -0.00000000000E+00 -0.45593999997E+02  0.45594000000E+02  0.51100000000E-03 0. -1.
    9900012    2    1    2    0    0 -0.31063025332E+02  0.37728586788E+00 -0.71879047443E+01  0.59301955058E+02  0.50000020117E+02 0.  0.
        -12    1    1    2    0    0  0.31063025332E+02 -0.37728586788E+00  0.71879047443E+01  0.31886044942E+02  0.00000000000E+00 0.  1.
         11    1    3    3    0    0 -0.19000515708E+02 -0.14526830542E+02  0.65399645501E+01  0.24795554830E+02  0.51100000000E-03 0. -1.
        -11    1    3    3    0    0  0.47518348654E+00 -0.61664945549E+01  0.41941324628E+00  0.61989807367E+01  0.51100000000E-03 0.  1.
         12    1    3    3    0    0 -0.12537693111E+02  0.21070610965E+02 -0.14147282541E+02  0.28307419491E+02  0.00000000000E+00 0. -1.
</event>
<event>
 7    1  0.6152255E-013  0.5930195E+02  0.7816164E-02  0.1266605E+00
        -11   -1    0    0    0    0  0.00000000000E+00  0.00000000000E+00  0.45593999997E+02  0.45594000000E+02  0.51100000000E-03 0.  1.
         11   -1    0    0    0    0 -0.00000000000E+00 -0.00000000000E+00 -0.45593999997E+02  0.45594000000E+02  0.51100000000E-03 0. -1.
    9900012    2    1    2    0    0 -0.87759351877E+01 -0.30642581848E+02  0.85741514163E+00  0.59301952558E+02  0.50000015558E+02 0.  0.
        -12    1    1    2    0    0  0.87759351877E+01  0.30642581848E+02 -0.85741514163E+00  0.31886047442E+02  0.00000000000E+00 0.  1.
         11    1    3    3    0    0 -0.21899462399E+02 -0.93879204567E+01 -0.56481373536E+01  0.24487159078E+02  0.51100000000E-03 0. -1.
        -11    1    3    3    0    0  0.11618834151E+01 -0.48567762837E+01 -0.83035124502E+01  0.96895081512E+01  0.51100000000E-03 0.  1.
        -12    1    3    3    0    0  0.11961643797E+02 -0.16397885108E+02  0.14809064945E+02  0.25125285329E+02  0.00000000000E+00 0.  1.
</event>
<event>
 7    1  0.6152255E-013  0.5930196E+02  0.7816164E-02  0.1266605E+00
        -11   -1    0    0    0    0  0.00000000000E+00  0.00000000000E+00  0.45593999997E+02  0.45594000000E+02  0.51100000000E-03 0.  1.
         11   -1    0    0    0    0 -0.00000000000E+00 -0.00000000000E+00 -0.45593999997E+02  0.45594000000E+02  0.51100000000E-03 0. -1.
    9900012    2    1    2    0    0  0.27926904956E+02 -0.11812754539E+02  0.98623791071E+01  0.59301957412E+02  0.50000024410E+02 0.  0.
        -12    1    1    2    0    0 -0.27926904956E+02  0.11812754539E+02 -0.98623791071E+01  0.31886042588E+02  0.00000000000E+00 0.  1.
         11    1    3    3    0    0  0.10901973572E+02 -0.15377970962E+02  0.10483866000E+02  0.21569572672E+02  0.51100000000E-03 0. -1.
        -11    1    3    3    0    0  0.20103563196E+02 -0.95961373381E+01  0.54211107061E+01  0.22926568573E+02  0.51100000000E-03 0.  1.
        -12    1    3    3    0    0 -0.30786318108E+01  0.13161353761E+02 -0.60425975991E+01  0.14805816168E+02  0.00000000000E+00 0.  1.
</event>
<event>
 7    1  0.6152255E-013  0.5930194E+02  0.7816164E-02  0.1266605E+00
        -11   -1    0    0    0    0  0.00000000000E+00  0.00000000000E+00  0.45593999997E+02  0.45594000000E+02  0.51100000000E-03 0.  1.
         11   -1    0    0    0    0 -0.00000000000E+00 -0.00000000000E+00 -0.45593999997E+02  0.45594000000E+02  0.51100000000E-03 0. -1.
    9900012    2    1    2    0    0  0.10416457101E+02 -0.71796355080E+01 -0.29268938741E+02  0.59301944747E+02  0.50000001311E+02 0.  0.
        -12    1    1    2    0    0 -0.10416457101E+02  0.71796355080E+01  0.29268938741E+02  0.31886055253E+02  0.00000000000E+00 0.  1.
         11    1    3    3    0    0  0.23349555500E+02  0.44257723569E+01 -0.20387326192E+02  0.31311855144E+02  0.51100000000E-03 0. -1.
        -11    1    3    3    0    0 -0.86098703046E+00 -0.68039522141E+01 -0.12713079455E+02  0.14444980231E+02  0.51100000000E-03 0.  1.
        -12    1    3    3    0    0 -0.12072111368E+02 -0.48014556508E+01  0.38314669052E+01  0.13545109372E+02  0.00000000000E+00 0.  1.
</event>
<event>
 7    1  0.6152255E-013  0.5930194E+02  0.7816164E-02  0.1266605E+00
        -11   -1    0    0    0    0  0.00000000000E+00  0.00000000000E+00  0.45593999997E+02  0.45594000000E+02  0.51100000000E-03 0.  1.
         11   -1    0    0    0    0 -0.00000000000E+00 -0.00000000000E+00 -0.45593999997E+02  0.45594000000E+02  0.51100000000E-03 0. -1.
    9900012    2    1    2    0    0 -0.21582188317E+01  0.18155779059E+02 -0.26123375363E+02  0.59301937808E+02  0.49999988657E+02 0.  0.
        -12    1    1    2    0    0  0.21582188317E+01 -0.18155779059E+02  0.26123375363E+02  0.31886062192E+02  0.00000000000E+00 0.  1.
         11    1    3    3    0    0 -0.66470492169E+00  0.15163594296E+02 -0.43291333047E+01  0.15783466667E+02  0.51100000000E-03 0. -1.
        -11    1    3    3    0    0  0.17464485925E+02  0.21430367416E+01 -0.53033252491E+01  0.18377326630E+02  0.51100000000E-03 0.  1.
        -12    1    3    3    0    0 -0.18957999835E+02  0.84914802109E+00 -0.16490916809E+02  0.25141144511E+02  0.00000000000E+00 0.  1.
</event>
<event>
 7    1  0.6152255E-013  0.5930190E+02  0.7816164E-02  0.1266605E+00
        -11   -1    0    0    0    0  0.00000000000E+00  0.00000000000E+00  0.45593999997E+02  0.45594000000E+02  0.51100000000E-03 0. -1.
         11   -1    0    0    0    0 -0.00000000000E+00 -0.00000000000E+00 -0.45593999997E+02  0.45594000000E+02  0.51100000000E-03 0.  1.
    9900012    2    1    2    0    0 -0.30532922227E+02  0.70230780468E+01  0.59279420978E+01  0.59301898600E+02  0.49999917150E+02 0.  0.
        -12    1    1    2    0    0  0.30532922227E+02 -0.70230780468E+01 -0.59279420978E+01  0.31886101400E+02  0.00000000000E+00 0.  1.
         11    1    3    3    0    0  0.73661704426E+00  0.64561694339E+01 -0.45534192427E+01  0.79346301420E+01  0.51100000000E-03 0. -1.
        -11    1    3    3    0    0 -0.13782601929E+02  0.81708162068E+01 -0.13343451302E+02  0.20851140169E+02  0.51100000000E-03 0.  1.
         12    1    3    3    0    0 -0.17486937342E+02 -0.76039075939E+01  0.23824812642E+02  0.30516128289E+02  0.00000000000E+00 0. -1.
</event>
<event>
 7    1  0.6152255E-013  0.5930196E+02  0.7816164E-02  0.1266605E+00
        -11   -1    0    0    0    0  0.00000000000E+00  0.00000000000E+00  0.45593999997E+02  0.45594000000E+02  0.51100000000E-03 0. -1.
         11   -1    0    0    0    0 -0.00000000000E+00 -0.00000000000E+00 -0.45593999997E+02  0.45594000000E+02  0.51100000000E-03 0.  1.
    9900012    2    1    2    0    0  0.22047643892E+02 -0.20951598602E+02 -0.95734891763E+01  0.59301956342E+02  0.50000022458E+02 0.  0.
        -12    1    1    2    0    0 -0.22047643892E+02  0.20951598602E+02  0.95734891763E+01  0.31886043658E+02  0.00000000000E+00 0.  1.
         11    1    3    3    0    0  0.37488843616E+01 -0.13881732565E+02  0.79180303024E+01  0.16414988185E+02  0.51100000000E-03 0. -1.
        -11    1    3    3    0    0  0.25052926351E+02 -0.83501883709E+00 -0.23539291012E+01  0.25177119726E+02  0.51100000000E-03 0.  1.
         12    1    3    3    0    0 -0.67541668207E+01 -0.62348471992E+01 -0.15137590378E+02  0.17709848432E+02  0.00000000000E+00 0. -1.
</event>
<event>
 7    1  0.6152255E-013  0.5930195E+02  0.7816164E-02  0.1266605E+00
        -11   -1    0    0    0    0  0.00000000000E+00  0.00000000000E+00  0.45593999997E+02  0.45594000000E+02  0.51100000000E-03 0.  1.
         11   -1    0    0    0    0 -0.00000000000E+00 -0.00000000000E+00 -0.45593999997E+02  0.45594000000E+02  0.51100000000E-03 0. -1.
    9900012    2    1    2    0    0  0.11165218387E+02  0.15382415901E+02 -0.25601552218E+02  0.59301948244E+02  0.50000007690E+02 0.  0.
        -12    1    1    2    0    0 -0.11165218387E+02 -0.15382415901E+02  0.25601552218E+02  0.31886051756E+02  0.00000000000E+00 0.  1.
         11    1    3    3    0    0  0.35148876976E+00 -0.14548661153E+01  0.72558291500E+00  0.16633251626E+01  0.51100000000E-03 0.  1.
        -11    1    3    3    0    0  0.91990352054E+01  0.20070956952E+02  0.77281357382E+01  0.23392085070E+02  0.51100000000E-03 0. -1.
         12    1    3    3    0    0  0.16146944117E+01 -0.32336749357E+01 -0.34055270872E+02  0.34246538011E+02  0.00000000000E+00 0. -1.
</event>
<event>
 7    1  0.6152255E-013  0.5930194E+02  0.7816164E-02  0.1266605E+00
        -11   -1    0    0    0    0  0.00000000000E+00  0.00000000000E+00  0.45593999997E+02  0.45594000000E+02  0.51100000000E-03 0. -1.
         11   -1    0    0    0    0 -0.00000000000E+00 -0.00000000000E+00 -0.45593999997E+02  0.45594000000E+02  0.51100000000E-03 0.  1.
    9900012    2    1    2    0    0 -0.54526739660E+01  0.14085798917E+02  0.28081651197E+02  0.59301944765E+02  0.50000001344E+02 0.  0.
        -12    1    1    2    0    0  0.54526739660E+01 -0.14085798917E+02 -0.28081651197E+02  0.31886055235E+02  0.00000000000E+00 0.  1.
         11    1    3    3    0    0 -0.84239994237E+01  0.23233527575E+02  0.85948180264E+01  0.26165463249E+02  0.51100000000E-03 0. -1.
        -11    1    3    3    0    0  0.13958975965E+02 -0.33160032635E+01  0.98999537862E+01  0.17431522391E+02  0.51100000000E-03 0.  1.
         12    1    3    3    0    0 -0.10987650508E+02 -0.58317253948E+01  0.95868793844E+01  0.15704959124E+02  0.00000000000E+00 0. -1.
</event>
<event>
 7    1  0.6152255E-013  0.5930191E+02  0.7816164E-02  0.1266605E+00
        -11   -1    0    0    0    0  0.00000000000E+00  0.00000000000E+00  0.45593999997E+02  0.45594000000E+02  0.51100000000E-03 0. -1.
         11   -1    0    0    0    0 -0.00000000000E+00 -0.00000000000E+00 -0.45593999997E+02  0.45594000000E+02  0.51100000000E-03 0.  1.
    9900012    2    1    2    0    0 -0.29108442876E+02  0.88411219267E+01  0.95527802318E+01  0.59301913791E+02  0.49999944855E+02 0.  0.
        -12    1    1    2    0    0  0.29108442876E+02 -0.88411219267E+01 -0.95527802318E+01  0.31886086209E+02  0.00000000000E+00 0.  1.
         11    1    3    3    0    0 -0.21790345748E+02 -0.77586180080E+01  0.17021185774E+02  0.28718218723E+02  0.51100000000E-03 0. -1.
        -11    1    3    3    0    0  0.31725400553E+01 -0.38900876596E+01  0.23687860661E+01  0.55505801580E+01  0.51100000000E-03 0.  1.
        -12    1    3    3    0    0 -0.10490637183E+02  0.20489827594E+02 -0.98371916082E+01  0.25033114910E+02  0.00000000000E+00 0.  1.
</event>
<event>
 7    1  0.6152255E-013  0.5930196E+02  0.7816164E-02  0.1266605E+00
        -11   -1    0    0    0    0  0.00000000000E+00  0.00000000000E+00  0.45593999997E+02  0.45594000000E+02  0.51100000000E-03 0. -1.
         11   -1    0    0    0    0 -0.00000000000E+00 -0.00000000000E+00 -0.45593999997E+02  0.45594000000E+02  0.51100000000E-03 0.  1.
    9900012    2    1    2    0    0  0.20961799119E+02 -0.84364397770E+01  0.22497754009E+02  0.59301961145E+02  0.50000031218E+02 0.  0.
        -12    1    1    2    0    0 -0.20961799119E+02  0.84364397770E+01 -0.22497754009E+02  0.31886038855E+02  0.00000000000E+00 0.  1.
         11    1    3    3    0    0  0.23437780389E+02  0.11636217937E+01  0.23443869368E+02  0.33170748808E+02  0.51100000000E-03 0. -1.
        -11    1    3    3    0    0  0.10417529908E+02 -0.47866986679E+01 -0.37957232746E+01  0.12076627384E+02  0.51100000000E-03 0.  1.
         12    1    3    3    0    0 -0.12893511179E+02 -0.48133629028E+01  0.28496079160E+01  0.14054584954E+02  0.00000000000E+00 0. -1.
</event>
<event>
 7    1  0.6152255E-013  0.5930190E+02  0.7816164E-02  0.1266605E+00
        -11   -1    0    0    0    0  0.00000000000E+00  0.00000000000E+00  0.45593999997E+02  0.45594000000E+02  0.51100000000E-03 0. -1.
         11   -1    0    0    0    0 -0.00000000000E+00 -0.00000000000E+00 -0.45593999997E+02  0.45594000000E+02  0.51100000000E-03 0.  1.
    9900012    2    1    2    0    0  0.24489307702E+02 -0.20264049260E+02  0.25229348828E+01  0.59301904527E+02  0.49999927959E+02 0.  0.
        -12    1    1    2    0    0 -0.24489307702E+02  0.20264049260E+02 -0.25229348828E+01  0.31886095473E+02  0.00000000000E+00 0.  1.
         11    1    3    3    0    0  0.29940790421E+02 -0.13027583213E+02 -0.12081627578E+02  0.34815723181E+02  0.51100000000E-03 0. -1.
        -11    1    3    3    0    0  0.10950678619E+01 -0.11678522872E+02  0.82846831130E+01  0.14360468120E+02  0.51100000000E-03 0.  1.
        -12    1    3    3    0    0 -0.65465505816E+01  0.44420568247E+01  0.63198793478E+01  0.10125713225E+02  0.00000000000E+00 0.  1.
</event>
<event>
 7    1  0.6152255E-013  0.5930188E+02  0.7816164E-02  0.1266605E+00
        -11   -1    0    0    0    0  0.00000000000E+00  0.00000000000E+00  0.45593999997E+02  0.45594000000E+02  0.51100000000E-03 0. -1.
         11   -1    0    0    0    0 -0.00000000000E+00 -0.00000000000E+00 -0.45593999997E+02  0.45594000000E+02  0.51100000000E-03 0.  1.
    9900012    2    1    2    0    0 -0.26905542181E+02  0.72519352546E+01 -0.15499231025E+02  0.59301875630E+02  0.49999875258E+02 0.  0.
        -12    1    1    2    0    0  0.26905542181E+02 -0.72519352546E+01  0.15499231025E+02  0.31886124370E+02  0.00000000000E+00 0.  1.
         11    1    3    3    0    0  0.47718309961E+01  0.23941554103E+01  0.81040937573E+01  0.97045704219E+01  0.51100000000E-03 0. -1.
        -11    1    3    3    0    0 -0.12024648604E+01  0.75301871029E+01 -0.16521540192E+02  0.18196453779E+02  0.51100000000E-03 0.  1.
         12    1    3    3    0    0 -0.30474908317E+02 -0.26724072586E+01 -0.70817845898E+01  0.31400851429E+02  0.00000000000E+00 0. -1.
</event>
<event>
 7    1  0.6152255E-013  0.5930187E+02  0.7816164E-02  0.1266605E+00
        -11   -1    0    0    0    0  0.00000000000E+00  0.00000000000E+00  0.45593999997E+02  0.45594000000E+02  0.51100000000E-03 0. -1.
         11   -1    0    0    0    0 -0.00000000000E+00 -0.00000000000E+00 -0.45593999997E+02  0.45594000000E+02  0.51100000000E-03 0.  1.
    9900012    2    1    2    0    0  0.34342190970E+01 -0.10606039260E+02  0.29873790144E+02  0.59301870302E+02  0.49999865541E+02 0.  0.
        -12    1    1    2    0    0 -0.34342190970E+01  0.10606039260E+02 -0.29873790144E+02  0.31886129698E+02  0.00000000000E+00 0.  1.
         11    1    3    3    0    0  0.18064703082E+01  0.39653340422E+01  0.23386242743E+01  0.49453384917E+01  0.51100000000E-03 0. -1.
        -11    1    3    3    0    0 -0.97736631847E+01 -0.15843897954E+02 -0.54793343204E+01  0.19405584230E+02  0.51100000000E-03 0.  1.
         12    1    3    3    0    0  0.11401411974E+02  0.12725246520E+01  0.33014500190E+02  0.34950947580E+02  0.00000000000E+00 0. -1.
</event>
<event>
 7    1  0.6152255E-013  0.5930198E+02  0.7816164E-02  0.1266605E+00
        -11   -1    0    0    0    0  0.00000000000E+00  0.00000000000E+00  0.45593999997E+02  0.45594000000E+02  0.51100000000E-03 0.  1.
         11   -1    0    0    0    0 -0.00000000000E+00 -0.00000000000E+00 -0.45593999997E+02  0.45594000000E+02  0.51100000000E-03 0. -1.
    9900012    2    1    2    0    0  0.75321688509E+01 -0.97491499351E+01 -0.29409845855E+02  0.59301976020E+02  0.50000058345E+02 0.  0.
        -12    1    1    2    0    0 -0.75321688509E+01  0.97491499351E+01  0.29409845855E+02  0.31886023980E+02  0.00000000000E+00 0.  1.
         11    1    3    3    0    0  0.27240318901E+01 -0.18377017043E+02 -0.25003723909E+02  0.31149980974E+02  0.51100000000E-03 0. -1.
        -11    1    3    3    0    0 -0.74484292102E+00 -0.77961649336E+01  0.41004576602E+01  0.88401771438E+01  0.51100000000E-03 0.  1.
        -12    1    3    3    0    0  0.55529798819E+01  0.16424032041E+02 -0.85065796064E+01  0.19311817901E+02  0.00000000000E+00 0.  1.
</event>
<event>
 7    1  0.6152255E-013  0.5930197E+02  0.7816164E-02  0.1266605E+00
        -11   -1    0    0    0    0  0.00000000000E+00  0.00000000000E+00  0.45593999997E+02  0.45594000000E+02  0.51100000000E-03 0.  1.
         11   -1    0    0    0    0 -0.00000000000E+00 -0.00000000000E+00 -0.45593999997E+02  0.45594000000E+02  0.51100000000E-03 0. -1.
    9900012    2    1    2    0    0 -0.24986548561E+02  0.14886849373E+02 -0.13068004363E+02  0.59301974357E+02  0.50000055314E+02 0.  0.
        -12    1    1    2    0    0  0.24986548561E+02 -0.14886849373E+02  0.13068004363E+02  0.31886025643E+02  0.00000000000E+00 0.  1.
         11    1    3    3    0    0 -0.27765104571E+02  0.20317199176E+02 -0.23770928053E+02  0.41818018066E+02  0.51100000000E-03 0. -1.
        -11    1    3    3    0    0 -0.12758006128E+01  0.30141122968E+01  0.63729623676E+01  0.71642996686E+01  0.51100000000E-03 0.  1.
        -12    1    3    3    0    0  0.40543566227E+01 -0.84444620995E+01  0.43299613217E+01  0.10319656623E+02  0.00000000000E+00 0.  1.
</event>
<event>
 7    1  0.6152255E-013  0.5930202E+02  0.7816164E-02  0.1266604E+00
        -11   -1    0    0    0    0  0.00000000000E+00  0.00000000000E+00  0.45593999997E+02  0.45594000000E+02  0.51100000000E-03 0. -1.
         11   -1    0    0    0    0 -0.00000000000E+00 -0.00000000000E+00 -0.45593999997E+02  0.45594000000E+02  0.51100000000E-03 0.  1.
    9900012    2    1    2    0    0 -0.69633129219E+01 -0.11482210107E+02  0.28920353916E+02  0.59302019594E+02  0.50000137815E+02 0.  0.
        -12    1    1    2    0    0  0.69633129219E+01  0.11482210107E+02 -0.28920353916E+02  0.31885980406E+02  0.00000000000E+00 0.  1.
         11    1    3    3    0    0 -0.55683025842E+01  0.10498737482E+02  0.64309930541E+01  0.13512481427E+02  0.51100000000E-03 0. -1.
        -11    1    3    3    0    0  0.13798594673E+02 -0.13008968113E+02  0.25025654731E+01  0.19128442187E+02  0.51100000000E-03 0.  1.
         12    1    3    3    0    0 -0.15193605010E+02 -0.89719794760E+01  0.19986795389E+02  0.26661095980E+02  0.00000000000E+00 0. -1.
</event>
<event>
 7    1  0.6152255E-013  0.5930196E+02  0.7816164E-02  0.1266605E+00
        -11   -1    0    0    0    0  0.00000000000E+00  0.00000000000E+00  0.45593999997E+02  0.45594000000E+02  0.51100000000E-03 0. -1.
         11   -1    0    0    0    0 -0.00000000000E+00 -0.00000000000E+00 -0.45593999997E+02  0.45594000000E+02  0.51100000000E-03 0.  1.
    9900012    2    1    2    0    0 -0.26513856033E+02 -0.97954071578E+01  0.14757547696E+02  0.59301956389E+02  0.50000022545E+02 0.  0.
        -12    1    1    2    0    0  0.26513856033E+02  0.97954071578E+01 -0.14757547696E+02  0.31886043611E+02  0.00000000000E+00 0.  1.
         11    1    3    3    0    0 -0.10743686717E+02 -0.21698292097E+01  0.81707145497E+01  0.13670974347E+02  0.51100000000E-03 0. -1.
        -11    1    3    3    0    0 -0.28576408798E+02  0.17940426242E+01  0.58601562110E+00  0.28638665180E+02  0.51100000000E-03 0.  1.
        -12    1    3    3    0    0  0.12806239482E+02 -0.94196205723E+01  0.60008175249E+01  0.16992316863E+02  0.00000000000E+00 0.  1.
</event>
<event>
 7    1  0.6152255E-013  0.5930213E+02  0.7816164E-02  0.1266604E+00
        -11   -1    0    0    0    0  0.00000000000E+00  0.00000000000E+00  0.45593999997E+02  0.45594000000E+02  0.51100000000E-03 0.  1.
         11   -1    0    0    0    0 -0.00000000000E+00 -0.00000000000E+00 -0.45593999997E+02  0.45594000000E+02  0.51100000000E-03 0. -1.
    9900012    2    1    2    0    0  0.13466032711E+02  0.18425319924E+02 -0.22268410913E+02  0.59302132035E+02  0.50000342880E+02 0.  0.
        -12    1    1    2    0    0 -0.13466032711E+02 -0.18425319924E+02  0.22268410913E+02  0.31885867965E+02  0.00000000000E+00 0.  1.
         11    1    3    3    0    0 -0.46584279512E+01  0.18164022320E+02 -0.12866030644E+02  0.22741314883E+02  0.51100000000E-03 0. -1.
        -11    1    3    3    0    0  0.29862388101E+00  0.64823442401E+01  0.83976391590E+01  0.10612742660E+02  0.51100000000E-03 0.  1.
         12    1    3    3    0    0  0.17825836781E+02 -0.62210466363E+01 -0.17800019428E+02  0.25948074492E+02  0.00000000000E+00 0. -1.
</event>
<event>
 7    1  0.6152255E-013  0.5930193E+02  0.7816164E-02  0.1266605E+00
        -11   -1    0    0    0    0  0.00000000000E+00  0.00000000000E+00  0.45593999997E+02  0.45594000000E+02  0.51100000000E-03 0.  1.
         11   -1    0    0    0    0 -0.00000000000E+00 -0.00000000000E+00 -0.45593999997E+02  0.45594000000E+02  0.51100000000E-03 0. -1.
    9900012    2    1    2    0    0  0.11409049169E+02 -0.49639149819E+01 -0.29358384466E+02  0.59301927910E+02  0.49999970604E+02 0.  0.
        -12    1    1    2    0    0 -0.11409049169E+02  0.49639149819E+01  0.29358384466E+02  0.31886072090E+02  0.00000000000E+00 0.  1.
         11    1    3    3    0    0  0.92805725421E+00 -0.22042526050E+01  0.47388780597E+01  0.53081998210E+01  0.51100000000E-03 0.  1.
        -11    1    3    3    0    0  0.25805622027E+02  0.18233696600E+01 -0.21039034971E+02  0.33345101558E+02  0.51100000000E-03 0. -1.
         12    1    3    3    0    0 -0.15324630112E+02 -0.45830320369E+01 -0.13058227554E+02  0.20648626530E+02  0.00000000000E+00 0. -1.
</event>
<event>
 7    1  0.6152255E-013  0.5930197E+02  0.7816164E-02  0.1266605E+00
        -11   -1    0    0    0    0  0.00000000000E+00  0.00000000000E+00  0.45593999997E+02  0.45594000000E+02  0.51100000000E-03 0. -1.
         11   -1    0    0    0    0 -0.00000000000E+00 -0.00000000000E+00 -0.45593999997E+02  0.45594000000E+02  0.51100000000E-03 0.  1.
    9900012    2    1    2    0    0 -0.31305346270E+02 -0.54645452035E+01  0.26139354035E+01  0.59301974571E+02  0.50000055704E+02 0.  0.
        -12    1    1    2    0    0  0.31305346270E+02  0.54645452035E+01 -0.26139354035E+01  0.31886025429E+02  0.00000000000E+00 0.  1.
         11    1    3    3    0    0 -0.31052157049E+02  0.69934806557E+01 -0.46247712000E+01  0.32164168542E+02  0.51100000000E-03 0.  1.
        -11    1    3    3    0    0 -0.76710158282E+01 -0.15335043357E+02  0.12738440832E+01  0.17193915133E+02  0.51100000000E-03 0. -1.
         12    1    3    3    0    0  0.74178266076E+01  0.28770174978E+01  0.59648625202E+01  0.99438908958E+01  0.00000000000E+00 0. -1.
</event>
<event>
 7    1  0.6152255E-013  0.5930205E+02  0.7816164E-02  0.1266604E+00
        -11   -1    0    0    0    0  0.00000000000E+00  0.00000000000E+00  0.45593999997E+02  0.45594000000E+02  0.51100000000E-03 0. -1.
         11   -1    0    0    0    0 -0.00000000000E+00 -0.00000000000E+00 -0.45593999997E+02  0.45594000000E+02  0.51100000000E-03 0.  1.
    9900012    2    1    2    0    0  0.27326831373E+02  0.21262262610E+01 -0.16292249627E+02  0.59302047781E+02  0.50000189221E+02 0.  0.
        -12    1    1    2    0    0 -0.27326831373E+02 -0.21262262610E+01  0.16292249627E+02  0.31885952219E+02  0.00000000000E+00 0.  1.
         11    1    3    3    0    0  0.22129524485E+02  0.17676076142E+02  0.80467030040E+00  0.28333849302E+02  0.51100000000E-03 0. -1.
        -11    1    3    3    0    0  0.48811296089E+01 -0.31847620974E+01  0.36046406097E+01  0.68528512359E+01  0.51100000000E-03 0.  1.
        -12    1    3    3    0    0  0.31617727880E+00 -0.12365087784E+02 -0.20701560537E+02  0.24115347243E+02  0.00000000000E+00 0.  1.
</event>
<event>
 7    1  0.6152255E-013  0.5930195E+02  0.7816164E-02  0.1266605E+00
        -11   -1    0    0    0    0  0.00000000000E+00  0.00000000000E+00  0.45593999997E+02  0.45594000000E+02  0.51100000000E-03 0.  1.
         11   -1    0    0    0    0 -0.00000000000E+00 -0.00000000000E+00 -0.45593999997E+02  0.45594000000E+02  0.51100000000E-03 0. -1.
    9900012    2    1    2    0    0  0.92901539768E+01  0.21123236495E+02 -0.22005048197E+02  0.59301949334E+02  0.50000009677E+02 0.  0.
        -12    1    1    2    0    0 -0.92901539768E+01 -0.21123236495E+02  0.22005048197E+02  0.31886050666E+02  0.00000000000E+00 0.  1.
         11    1    3    3    0    0  0.74828404371E+01  0.24419569831E+01 -0.85361560497E+01  0.11611288270E+02  0.51100000000E-03 0. -1.
        -11    1    3    3    0    0 -0.81439687884E+01  0.12018345649E+02  0.12458790525E+02  0.19130768970E+02  0.51100000000E-03 0.  1.
         12    1    3    3    0    0  0.99512823282E+01  0.66629338628E+01 -0.25927682673E+02  0.28559892094E+02  0.00000000000E+00 0. -1.
</event>
<event>
 7    1  0.6568258E-013  0.5930191E+02  0.7816164E-02  0.1266605E+00
        -11   -1    0    0    0    0  0.00000000000E+00  0.00000000000E+00  0.45593999997E+02  0.45594000000E+02  0.51100000000E-03 0.  1.
         11   -1    0    0    0    0 -0.00000000000E+00 -0.00000000000E+00 -0.45593999997E+02  0.45594000000E+02  0.51100000000E-03 0. -1.
    9900012    2    1    2    0    0  0.30048908559E+02  0.73683975405E+01 -0.77131306313E+01  0.59301912563E+02  0.49999942616E+02 0.  0.
        -12    1    1    2    0    0 -0.30048908559E+02 -0.73683975405E+01  0.77131306313E+01  0.31886087437E+02  0.00000000000E+00 0.  1.
         11    1    3    3    0    0  0.11762144194E+02  0.13966766935E+02 -0.94941967038E+01  0.20580534151E+02  0.51100000000E-03 0. -1.
        -11    1    3    3    0    0  0.54472179638E+01  0.13220421125E+02  0.44046712752E+01  0.14961712722E+02  0.51100000000E-03 0.  1.
         12    1    3    3    0    0  0.12839546401E+02 -0.19818790519E+02 -0.26236052026E+01  0.23759665690E+02  0.00000000000E+00 0. -1.
</event>
<event>
 7    1  0.6152255E-013  0.5930194E+02  0.7816164E-02  0.1266605E+00
        -11   -1    0    0    0    0  0.00000000000E+00  0.00000000000E+00  0.45593999997E+02  0.45594000000E+02  0.51100000000E-03 0.  1.
         11   -1    0    0    0    0 -0.00000000000E+00 -0.00000000000E+00 -0.45593999997E+02  0.45594000000E+02  0.51100000000E-03 0. -1.
    9900012    2    1    2    0    0  0.31038857029E+02  0.69928239874E+01 -0.21000875663E+01  0.59301943474E+02  0.49999998991E+02 0.  0.
        -12    1    1    2    0    0 -0.31038857029E+02 -0.69928239874E+01  0.21000875663E+01  0.31886056526E+02  0.00000000000E+00 0.  1.
         11    1    3    3    0    0  0.26004745198E+02 -0.28946653813E+01 -0.55221474345E+01  0.26741727189E+02  0.51100000000E-03 0. -1.
        -11    1    3    3    0    0  0.13548336630E+02  0.20319106598E+01  0.11946706050E+02  0.18177179982E+02  0.51100000000E-03 0.  1.
         12    1    3    3    0    0 -0.85142247999E+01  0.78555787088E+01 -0.85246461818E+01  0.14383036304E+02  0.00000000000E+00 0. -1.
</event>
<event>
 7    1  0.6152255E-013  0.5930195E+02  0.7816164E-02  0.1266605E+00
        -11   -1    0    0    0    0  0.00000000000E+00  0.00000000000E+00  0.45593999997E+02  0.45594000000E+02  0.51100000000E-03 0. -1.
         11   -1    0    0    0    0 -0.00000000000E+00 -0.00000000000E+00 -0.45593999997E+02  0.45594000000E+02  0.51100000000E-03 0.  1.
    9900012    2    1    2    0    0 -0.33052423810E+01 -0.16647835691E+01  0.31670557286E+02  0.59301947715E+02  0.50000006725E+02 0.  0.
        -12    1    1    2    0    0  0.33052423810E+01  0.16647835691E+01 -0.31670557286E+02  0.31886052285E+02  0.00000000000E+00 0.  1.
         11    1    3    3    0    0  0.45901445469E+01 -0.17069571906E+02  0.12043038922E+01  0.17716942742E+02  0.51100000000E-03 0. -1.
        -11    1    3    3    0    0 -0.48395538106E+01 -0.52974085572E+01  0.10054244294E+02  0.12351989600E+02  0.51100000000E-03 0.  1.
        -12    1    3    3    0    0 -0.30558331173E+01  0.20702196894E+02  0.20412009100E+02  0.29233015373E+02  0.00000000000E+00 0.  1.
</event>
<event>
 7    1  0.6152255E-013  0.5930198E+02  0.7816164E-02  0.1266605E+00
        -11   -1    0    0    0    0  0.00000000000E+00  0.00000000000E+00  0.45593999997E+02  0.45594000000E+02  0.51100000000E-03 0. -1.
         11   -1    0    0    0    0 -0.00000000000E+00 -0.00000000000E+00 -0.45593999997E+02  0.45594000000E+02  0.51100000000E-03 0.  1.
    9900012    2    1    2    0    0 -0.24123691645E+02 -0.67427570326E+01  0.19730715557E+02  0.59301977869E+02  0.50000061718E+02 0.  0.
        -12    1    1    2    0    0  0.24123691645E+02  0.67427570326E+01 -0.19730715557E+02  0.31886022131E+02  0.00000000000E+00 0.  1.
         11    1    3    3    0    0 -0.17564775979E+02 -0.99538115719E+01  0.10704481175E+02  0.22851381523E+02  0.51100000000E-03 0. -1.
        -11    1    3    3    0    0 -0.18581445904E+02  0.23602862796E+01 -0.35138855044E+01  0.19057504422E+02  0.51100000000E-03 0.  1.
        -12    1    3    3    0    0  0.12022530238E+02  0.85076825966E+00  0.12540119886E+02  0.17393091924E+02  0.00000000000E+00 0.  1.
</event>
<event>
 7    1  0.8025813E-013  0.5930195E+02  0.7816164E-02  0.1266605E+00
        -11   -1    0    0    0    0  0.00000000000E+00  0.00000000000E+00  0.45593999997E+02  0.45594000000E+02  0.51100000000E-03 0.  1.
         11   -1    0    0    0    0 -0.00000000000E+00 -0.00000000000E+00 -0.45593999997E+02  0.45594000000E+02  0.51100000000E-03 0. -1.
    9900012    2    1    2    0    0 -0.31217919564E+02  0.26515349069E+01 -0.59271535920E+01  0.59301948363E+02  0.50000007907E+02 0.  0.
        -12    1    1    2    0    0  0.31217919564E+02 -0.26515349069E+01  0.59271535920E+01  0.31886051637E+02  0.00000000000E+00 0.  1.
         11    1    3    3    0    0 -0.33702463392E+02 -0.35212758064E+00 -0.12834645509E+02  0.36065331804E+02  0.51100000000E-03 0. -1.
        -11    1    3    3    0    0  0.58007643846E+01  0.66051503968E+00 -0.67871469408E+01  0.89526818005E+01  0.51100000000E-03 0.  1.
        -12    1    3    3    0    0 -0.33162205568E+01  0.23431474479E+01  0.13694638858E+02  0.14283934759E+02  0.00000000000E+00 0.  1.
</event>
<event>
 7    1  0.6152255E-013  0.5930200E+02  0.7816164E-02  0.1266605E+00
        -11   -1    0    0    0    0  0.00000000000E+00  0.00000000000E+00  0.45593999997E+02  0.45594000000E+02  0.51100000000E-03 0. -1.
         11   -1    0    0    0    0 -0.00000000000E+00 -0.00000000000E+00 -0.45593999997E+02  0.45594000000E+02  0.51100000000E-03 0.  1.
    9900012    2    1    2    0    0  0.31584796203E+02 -0.16132038172E+01  0.40639100146E+01  0.59301997705E+02  0.50000097894E+02 0.  0.
        -12    1    1    2    0    0 -0.31584796203E+02  0.16132038172E+01 -0.40639100146E+01  0.31886002295E+02  0.00000000000E+00 0.  1.
         11    1    3    3    0    0 -0.49581189624E+01 -0.10423876034E+00  0.26301153587E+01  0.56134941370E+01  0.51100000000E-03 0. -1.
        -11    1    3    3    0    0  0.89119080597E+01  0.12328282523E+02  0.13670137018E+02  0.20451926598E+02  0.51100000000E-03 0.  1.
         12    1    3    3    0    0  0.27631007106E+02 -0.13837247580E+02 -0.12236342362E+02  0.33236576970E+02  0.00000000000E+00 0. -1.
</event>
<event>
 7    1  0.6152255E-013  0.5930195E+02  0.7816164E-02  0.1266605E+00
        -11   -1    0    0    0    0  0.00000000000E+00  0.00000000000E+00  0.45593999997E+02  0.45594000000E+02  0.51100000000E-03 0. -1.
         11   -1    0    0    0    0 -0.00000000000E+00 -0.00000000000E+00 -0.45593999997E+02  0.45594000000E+02  0.51100000000E-03 0.  1.
    9900012    2    1    2    0    0 -0.17907686526E+02  0.20013515673E+02  0.17189946373E+02  0.59301948150E+02  0.50000007517E+02 0.  0.
        -12    1    1    2    0    0  0.17907686526E+02 -0.20013515673E+02 -0.17189946373E+02  0.31886051850E+02  0.00000000000E+00 0.  1.
         11    1    3    3    0    0 -0.10878357013E+02  0.26251665652E+02  0.24490983433E+02  0.37513955678E+02  0.51100000000E-03 0. -1.
        -11    1    3    3    0    0 -0.39016644973E+01 -0.59291135890E+01  0.52634653984E+01  0.88363704122E+01  0.51100000000E-03 0.  1.
        -12    1    3    3    0    0 -0.31276650152E+01 -0.30903638990E+00 -0.12564502459E+02  0.12951622060E+02  0.00000000000E+00 0.  1.
</event>
<event>
 7    1  0.6152255E-013  0.5930195E+02  0.7816164E-02  0.1266605E+00
        -11   -1    0    0    0    0  0.00000000000E+00  0.00000000000E+00  0.45593999997E+02  0.45594000000E+02  0.51100000000E-03 0. -1.
         11   -1    0    0    0    0 -0.00000000000E+00 -0.00000000000E+00 -0.45593999997E+02  0.45594000000E+02  0.51100000000E-03 0.  1.
    9900012    2    1    2    0    0 -0.22630571797E+02  0.18834419856E+02 -0.12240990750E+02  0.59301952805E+02  0.50000016008E+02 0.  0.
        -12    1    1    2    0    0  0.22630571797E+02 -0.18834419856E+02  0.12240990750E+02  0.31886047195E+02  0.00000000000E+00 0.  1.
         11    1    3    3    0    0 -0.84971339844E+01 -0.35019576186E+01  0.48816967374E+01  0.10406534313E+02  0.51100000000E-03 0. -1.
        -11    1    3    3    0    0 -0.13091897444E+02 -0.75411067541E+01 -0.10138135901E+02  0.18194720926E+02  0.51100000000E-03 0.  1.
         12    1    3    3    0    0 -0.10415403682E+01  0.29877484229E+02 -0.69845515869E+01  0.30700697566E+02  0.00000000000E+00 0. -1.
</event>
<event>
 7    1  0.6152255E-013  0.5930194E+02  0.7816164E-02  0.1266605E+00
        -11   -1    0    0    0    0  0.00000000000E+00  0.00000000000E+00  0.45593999997E+02  0.45594000000E+02  0.51100000000E-03 0. -1.
         11   -1    0    0    0    0 -0.00000000000E+00 -0.00000000000E+00 -0.45593999997E+02  0.45594000000E+02  0.51100000000E-03 0.  1.
    9900012    2    1    2    0    0 -0.91948173303E+01 -0.65733273997E+01  0.29815563324E+02  0.59301935408E+02  0.49999984279E+02 0.  0.
        -12    1    1    2    0    0  0.91948173303E+01  0.65733273997E+01 -0.29815563324E+02  0.31886064592E+02  0.00000000000E+00 0.  1.
         11    1    3    3    0    0  0.95847498550E+01 -0.18418223339E+00  0.27168291598E+02  0.28810022935E+02  0.51100000000E-03 0. -1.
        -11    1    3    3    0    0  0.15702555096E+01 -0.86613050047E+01  0.45834284801E+01  0.99242996550E+01  0.51100000000E-03 0.  1.
         12    1    3    3    0    0 -0.20349822695E+02  0.22721598384E+01 -0.19361567538E+01  0.20567612818E+02  0.00000000000E+00 0. -1.
</event>
<event>
 7    1  0.6152255E-013  0.5930175E+02  0.7816164E-02  0.1266605E+00
        -11   -1    0    0    0    0  0.00000000000E+00  0.00000000000E+00  0.45593999997E+02  0.45594000000E+02  0.51100000000E-03 0.  1.
         11   -1    0    0    0    0 -0.00000000000E+00 -0.00000000000E+00 -0.45593999997E+02  0.45594000000E+02  0.51100000000E-03 0. -1.
    9900012    2    1    2    0    0  0.11663789090E+02  0.29641296173E+02 -0.14431330185E+01  0.59301748297E+02  0.49999643033E+02 0.  0.
        -12    1    1    2    0    0 -0.11663789090E+02 -0.29641296173E+02  0.14431330185E+01  0.31886251703E+02  0.00000000000E+00 0.  1.
         11    1    3    3    0    0  0.22916677896E+01 -0.40173641129E+01 -0.12720008562E+02  0.13534754292E+02  0.51100000000E-03 0. -1.
        -11    1    3    3    0    0  0.16448014082E+02  0.25362200979E+02  0.20824026346E+00  0.30229485110E+02  0.51100000000E-03 0.  1.
        -12    1    3    3    0    0 -0.70758927817E+01  0.82964593074E+01  0.11068635280E+02  0.15537508895E+02  0.00000000000E+00 0.  1.
</event>
<event>
 7    1  0.6152255E-013  0.5930194E+02  0.7816164E-02  0.1266605E+00
        -11   -1    0    0    0    0  0.00000000000E+00  0.00000000000E+00  0.45593999997E+02  0.45594000000E+02  0.51100000000E-03 0.  1.
         11   -1    0    0    0    0 -0.00000000000E+00 -0.00000000000E+00 -0.45593999997E+02  0.45594000000E+02  0.51100000000E-03 0. -1.
    9900012    2    1    2    0    0 -0.26579290033E+02  0.17349108708E+02  0.30447246751E+01  0.59301943800E+02  0.49999999585E+02 0.  0.
        -12    1    1    2    0    0  0.26579290033E+02 -0.17349108708E+02 -0.30447246751E+01  0.31886056200E+02  0.00000000000E+00 0.  1.
         11    1    3    3    0    0 -0.31413959579E+01 -0.17858917647E+00 -0.91547333460E+01  0.96803618504E+01  0.51100000000E-03 0.  1.
        -11    1    3    3    0    0 -0.14833214847E+02  0.25997197737E+02 -0.31456554703E+01  0.30096074519E+02  0.51100000000E-03 0. -1.
         12    1    3    3    0    0 -0.86046792280E+01 -0.84694998520E+01  0.15345113491E+02  0.19525507431E+02  0.00000000000E+00 0. -1.
</event>
<event>
 7    1  0.6152255E-013  0.5930196E+02  0.7816164E-02  0.1266605E+00
        -11   -1    0    0    0    0  0.00000000000E+00  0.00000000000E+00  0.45593999997E+02  0.45594000000E+02  0.51100000000E-03 0. -1.
         11   -1    0    0    0    0 -0.00000000000E+00 -0.00000000000E+00 -0.45593999997E+02  0.45594000000E+02  0.51100000000E-03 0.  1.
    9900012    2    1    2    0    0  0.31814926377E+02 -0.74429415895E+00 -0.19939354739E+01  0.59301963984E+02  0.50000036395E+02 0.  0.
        -12    1    1    2    0    0 -0.31814926377E+02  0.74429415895E+00  0.19939354739E+01  0.31886036016E+02  0.00000000000E+00 0.  1.
         11    1    3    3    0    0  0.14380315694E+02  0.80265240824E+01 -0.56441811190E+00  0.16478383913E+02  0.51100000000E-03 0. -1.
        -11    1    3    3    0    0  0.54687597419E+01  0.14788460884E+02 -0.40240213856E+01  0.16272635214E+02  0.51100000000E-03 0.  1.
         12    1    3    3    0    0  0.11965850941E+02 -0.23559279126E+02  0.25945040235E+01  0.26550944857E+02  0.00000000000E+00 0. -1.
</event>
<event>
 7    1  0.6152255E-013  0.5930190E+02  0.7816164E-02  0.1266605E+00
        -11   -1    0    0    0    0  0.00000000000E+00  0.00000000000E+00  0.45593999997E+02  0.45594000000E+02  0.51100000000E-03 0. -1.
         11   -1    0    0    0    0 -0.00000000000E+00 -0.00000000000E+00 -0.45593999997E+02  0.45594000000E+02  0.51100000000E-03 0.  1.
    9900012    2    1    2    0    0  0.22911314397E+02  0.14787433737E+02  0.16526544276E+02  0.59301902879E+02  0.49999924955E+02 0.  0.
        -12    1    1    2    0    0 -0.22911314397E+02 -0.14787433737E+02 -0.16526544276E+02  0.31886097121E+02  0.00000000000E+00 0.  1.
         11    1    3    3    0    0  0.20672961755E+02  0.25925617360E+02  0.18811548764E+02  0.38123265212E+02  0.51100000000E-03 0. -1.
        -11    1    3    3    0    0  0.35832140362E+01  0.12869965457E+01 -0.68797749108E+01  0.78630201591E+01  0.51100000000E-03 0.  1.
        -12    1    3    3    0    0 -0.13448613951E+01 -0.12425180169E+02  0.45947704220E+01  0.13315617508E+02  0.00000000000E+00 0.  1.
</event>
<event>
 7    1  0.6152255E-013  0.5930191E+02  0.7816164E-02  0.1266605E+00
        -11   -1    0    0    0    0  0.00000000000E+00  0.00000000000E+00  0.45593999997E+02  0.45594000000E+02  0.51100000000E-03 0. -1.
         11   -1    0    0    0    0 -0.00000000000E+00 -0.00000000000E+00 -0.45593999997E+02  0.45594000000E+02  0.51100000000E-03 0.  1.
    9900012    2    1    2    0    0 -0.25292885752E+02  0.18036592583E+02  0.71884434201E+01  0.59301914312E+02  0.49999945806E+02 0.  0.
        -12    1    1    2    0    0  0.25292885752E+02 -0.18036592583E+02 -0.71884434201E+01  0.31886085688E+02  0.00000000000E+00 0.  1.
         11    1    3    3    0    0 -0.10604258547E+02  0.63541358783E+00 -0.33575593655E+01  0.11141241175E+02  0.51100000000E-03 0.  1.
        -11    1    3    3    0    0 -0.14291273660E+02  0.76184633261E+00  0.23195483341E+02  0.27255299675E+02  0.51100000000E-03 0. -1.
        -12    1    3    3    0    0 -0.39735354507E+00  0.16639332663E+02 -0.12649480555E+02  0.20905373463E+02  0.00000000000E+00 0.  1.
</event>
<event>
 7    1  0.7991348E-013  0.5930193E+02  0.7816164E-02  0.1266605E+00
        -11   -1    0    0    0    0  0.00000000000E+00  0.00000000000E+00  0.45593999997E+02  0.45594000000E+02  0.51100000000E-03 0. -1.
         11   -1    0    0    0    0 -0.00000000000E+00 -0.00000000000E+00 -0.45593999997E+02  0.45594000000E+02  0.51100000000E-03 0.  1.
    9900012    2    1    2    0    0 -0.26100929798E+02  0.75076427499E+01  0.16706234330E+02  0.59301929350E+02  0.49999973232E+02 0.  0.
        -12    1    1    2    0    0  0.26100929798E+02 -0.75076427499E+01 -0.16706234330E+02  0.31886070650E+02  0.00000000000E+00 0.  1.
         11    1    3    3    0    0 -0.11114358006E+02 -0.12875261461E+01 -0.78434259781E+01  0.13664040720E+02  0.51100000000E-03 0. -1.
        -11    1    3    3    0    0 -0.12660546447E+01 -0.10662812754E+02  0.17974780673E+02  0.20937793835E+02  0.51100000000E-03 0.  1.
         12    1    3    3    0    0 -0.13720517148E+02  0.19457981650E+02  0.65748796358E+01  0.24700094796E+02  0.00000000000E+00 0. -1.
</event>
<event>
 7    1  0.6152255E-013  0.5930194E+02  0.7816164E-02  0.1266605E+00
        -11   -1    0    0    0    0  0.00000000000E+00  0.00000000000E+00  0.45593999997E+02  0.45594000000E+02  0.51100000000E-03 0.  1.
         11   -1    0    0    0    0 -0.00000000000E+00 -0.00000000000E+00 -0.45593999997E+02  0.45594000000E+02  0.51100000000E-03 0. -1.
    9900012    2    1    2    0    0  0.18068860950E+02 -0.19142296748E+02 -0.17994710524E+02  0.59301939289E+02  0.49999991358E+02 0.  0.
        -12    1    1    2    0    0 -0.18068860950E+02  0.19142296748E+02  0.17994710524E+02  0.31886060711E+02  0.00000000000E+00 0.  1.
         11    1    3    3    0    0  0.20850086122E+02 -0.57256101694E+01 -0.21882539459E+02  0.30762871072E+02  0.51100000000E-03 0. -1.
        -11    1    3    3    0    0  0.64459509800E+01  0.23978309872E+01  0.71727060691E+01  0.99371822010E+01  0.51100000000E-03 0.  1.
         12    1    3    3    0    0 -0.92271761523E+01 -0.15814517566E+02 -0.32848771336E+01  0.18601886017E+02  0.00000000000E+00 0. -1.
</event>
<event>
 7    1  0.6152255E-013  0.5930194E+02  0.7816164E-02  0.1266605E+00
        -11   -1    0    0    0    0  0.00000000000E+00  0.00000000000E+00  0.45593999997E+02  0.45594000000E+02  0.51100000000E-03 0. -1.
         11   -1    0    0    0    0 -0.00000000000E+00 -0.00000000000E+00 -0.45593999997E+02  0.45594000000E+02  0.51100000000E-03 0.  1.
    9900012    2    1    2    0    0 -0.11787365146E+02 -0.95726428051E+01  0.28038248600E+02  0.59301939536E+02  0.49999991808E+02 0.  0.
        -12    1    1    2    0    0  0.11787365146E+02  0.95726428051E+01 -0.28038248600E+02  0.31886060464E+02  0.00000000000E+00 0.  1.
         11    1    3    3    0    0 -0.23148875641E+02 -0.69637796441E+00  0.22920913935E+02  0.32584101670E+02  0.51100000000E-03 0.  1.
        -11    1    3    3    0    0  0.64994985012E+01  0.20747911584E+01  0.11326562402E+02  0.13222679578E+02  0.51100000000E-03 0. -1.
        -12    1    3    3    0    0  0.48620119943E+01 -0.10951055999E+02 -0.62092277370E+01  0.13495158288E+02  0.00000000000E+00 0.  1.
</event>
<event>
 7    1  0.6152255E-013  0.5930195E+02  0.7816164E-02  0.1266605E+00
        -11   -1    0    0    0    0  0.00000000000E+00  0.00000000000E+00  0.45593999997E+02  0.45594000000E+02  0.51100000000E-03 0. -1.
         11   -1    0    0    0    0 -0.00000000000E+00 -0.00000000000E+00 -0.45593999997E+02  0.45594000000E+02  0.51100000000E-03 0.  1.
    9900012    2    1    2    0    0 -0.16731310796E+02 -0.15200834514E+02  0.22488181494E+02  0.59301946030E+02  0.50000003652E+02 0.  0.
        -12    1    1    2    0    0  0.16731310796E+02  0.15200834514E+02 -0.22488181494E+02  0.31886053970E+02  0.00000000000E+00 0.  1.
         11    1    3    3    0    0  0.56186416928E+01 -0.14730592044E+02  0.10524250819E+02  0.18955720298E+02  0.51100000000E-03 0. -1.
        -11    1    3    3    0    0  0.11100017615E+01  0.94226595366E+01  0.11463808413E+02  0.14880776869E+02  0.51100000000E-03 0.  1.
         12    1    3    3    0    0 -0.23459954250E+02 -0.98929020061E+01  0.50012226241E+00  0.25465448863E+02  0.00000000000E+00 0. -1.
</event>
<event>
 7    1  0.6152255E-013  0.5930188E+02  0.7816164E-02  0.1266605E+00
        -11   -1    0    0    0    0  0.00000000000E+00  0.00000000000E+00  0.45593999997E+02  0.45594000000E+02  0.51100000000E-03 0.  1.
         11   -1    0    0    0    0 -0.00000000000E+00 -0.00000000000E+00 -0.45593999997E+02  0.45594000000E+02  0.51100000000E-03 0. -1.
    9900012    2    1    2    0    0  0.35630417429E+01  0.31428210509E+02 -0.40369375717E+01  0.59301881590E+02  0.49999886129E+02 0.  0.
        -12    1    1    2    0    0 -0.35630417429E+01 -0.31428210509E+02  0.40369375717E+01  0.31886118410E+02  0.00000000000E+00 0.  1.
         11    1    3    3    0    0 -0.29069989122E+01  0.18477661166E+02 -0.11076950292E+02  0.21738754170E+02  0.51100000000E-03 0. -1.
        -11    1    3    3    0    0 -0.56245440596E+01  0.20675915243E+02 -0.33037733536E+00  0.21429841727E+02  0.51100000000E-03 0.  1.
        -12    1    3    3    0    0  0.12094584715E+02 -0.77253658989E+01  0.73703900554E+01  0.16133285693E+02  0.00000000000E+00 0.  1.
</event>
<event>
 7    1  0.6152255E-013  0.5930198E+02  0.7816164E-02  0.1266605E+00
        -11   -1    0    0    0    0  0.00000000000E+00  0.00000000000E+00  0.45593999997E+02  0.45594000000E+02  0.51100000000E-03 0.  1.
         11   -1    0    0    0    0 -0.00000000000E+00 -0.00000000000E+00 -0.45593999997E+02  0.45594000000E+02  0.51100000000E-03 0. -1.
    9900012    2    1    2    0    0  0.10609402142E+02 -0.10048537767E+01 -0.30052436647E+02  0.59301982793E+02  0.50000070698E+02 0.  0.
        -12    1    1    2    0    0 -0.10609402142E+02  0.10048537767E+01  0.30052436647E+02  0.31886017207E+02  0.00000000000E+00 0.  1.
         11    1    3    3    0    0  0.14436935220E+02  0.16031759798E+02 -0.28896568090E+02  0.36061809001E+02  0.51100000000E-03 0. -1.
        -11    1    3    3    0    0  0.42660219847E+00 -0.75623039546E+01 -0.78307608445E+01  0.10894551216E+02  0.51100000000E-03 0.  1.
        -12    1    3    3    0    0 -0.42541352768E+01 -0.94743096206E+01  0.66748922870E+01  0.12345622576E+02  0.00000000000E+00 0.  1.
</event>
<event>
 7    1  0.6152255E-013  0.5930215E+02  0.7816164E-02  0.1266604E+00
        -11   -1    0    0    0    0  0.00000000000E+00  0.00000000000E+00  0.45593999997E+02  0.45594000000E+02  0.51100000000E-03 0. -1.
         11   -1    0    0    0    0 -0.00000000000E+00 -0.00000000000E+00 -0.45593999997E+02  0.45594000000E+02  0.51100000000E-03 0.  1.
    9900012    2    1    2    0    0 -0.36267005116E+01 -0.11115942887E+02  0.29664629315E+02  0.59302150862E+02  0.50000377214E+02 0.  0.
        -12    1    1    2    0    0  0.36267005116E+01  0.11115942887E+02 -0.29664629315E+02  0.31885849138E+02  0.00000000000E+00 0.  1.
         11    1    3    3    0    0  0.16732966783E+02 -0.17300003671E+02  0.15153828038E+02  0.28441533166E+02  0.51100000000E-03 0. -1.
        -11    1    3    3    0    0 -0.65742288781E+01  0.11468115848E+01 -0.35734429681E+01  0.75700169789E+01  0.51100000000E-03 0.  1.
        -12    1    3    3    0    0 -0.13785438417E+02  0.50372491994E+01  0.18084244245E+02  0.23290600717E+02  0.00000000000E+00 0.  1.
</event>
<event>
 7    1  0.6152255E-013  0.5930195E+02  0.7816164E-02  0.1266605E+00
        -11   -1    0    0    0    0  0.00000000000E+00  0.00000000000E+00  0.45593999997E+02  0.45594000000E+02  0.51100000000E-03 0.  1.
         11   -1    0    0    0    0 -0.00000000000E+00 -0.00000000000E+00 -0.45593999997E+02  0.45594000000E+02  0.51100000000E-03 0. -1.
    9900012    2    1    2    0    0  0.23099085964E+02 -0.11799826083E+02 -0.18544985659E+02  0.59301950369E+02  0.50000011565E+02 0.  0.
        -12    1    1    2    0    0 -0.23099085964E+02  0.11799826083E+02  0.18544985659E+02  0.31886049631E+02  0.00000000000E+00 0.  1.
         11    1    3    3    0    0 -0.51878901054E+01  0.80285971517E+01 -0.35904627348E+01  0.10210974434E+02  0.51100000000E-03 0.  1.
        -11    1    3    3    0    0  0.64472019553E+01 -0.10226396992E+02 -0.21222303293E+02  0.24423999792E+02  0.51100000000E-03 0. -1.
        -12    1    3    3    0    0  0.21839774114E+02 -0.96020262433E+01  0.62677803690E+01  0.24666976144E+02  0.00000000000E+00 0.  1.
</event>
<event>
 7    1  0.6152255E-013  0.5930186E+02  0.7816164E-02  0.1266605E+00
        -11   -1    0    0    0    0  0.00000000000E+00  0.00000000000E+00  0.45593999997E+02  0.45594000000E+02  0.51100000000E-03 0.  1.
         11   -1    0    0    0    0 -0.00000000000E+00 -0.00000000000E+00 -0.45593999997E+02  0.45594000000E+02  0.51100000000E-03 0. -1.
    9900012    2    1    2    0    0 -0.27735213079E+02 -0.62576562650E+01 -0.14433490304E+02  0.59301859612E+02  0.49999846046E+02 0.  0.
        -12    1    1    2    0    0  0.27735213079E+02  0.62576562650E+01  0.14433490304E+02  0.31886140388E+02  0.00000000000E+00 0.  1.
         11    1    3    3    0    0 -0.95116236697E+01  0.60426240342E+01 -0.62509294531E+01  0.12886365249E+02  0.51100000000E-03 0. -1.
        -11    1    3    3    0    0 -0.23020021625E+02  0.61065534931E+01  0.35311493392E+01  0.24076553057E+02  0.51100000000E-03 0.  1.
         12    1    3    3    0    0  0.47964322154E+01 -0.18406833792E+02 -0.11713710190E+02  0.22338941306E+02  0.00000000000E+00 0. -1.
</event>
<event>
 7    1  0.6152255E-013  0.5930194E+02  0.7816164E-02  0.1266605E+00
        -11   -1    0    0    0    0  0.00000000000E+00  0.00000000000E+00  0.45593999997E+02  0.45594000000E+02  0.51100000000E-03 0.  1.
         11   -1    0    0    0    0 -0.00000000000E+00 -0.00000000000E+00 -0.45593999997E+02  0.45594000000E+02  0.51100000000E-03 0. -1.
    9900012    2    1    2    0    0 -0.29447813653E+02 -0.11878407790E+02 -0.29070148286E+01  0.59301936653E+02  0.49999986549E+02 0.  0.
        -12    1    1    2    0    0  0.29447813653E+02  0.11878407790E+02  0.29070148286E+01  0.31886063347E+02  0.00000000000E+00 0.  1.
         11    1    3    3    0    0  0.68114071908E+01 -0.91682966137E+00  0.15913080590E+01  0.70546513838E+01  0.51100000000E-03 0. -1.
        -11    1    3    3    0    0 -0.20391848289E+02  0.39631837390E+00  0.14490776909E+02  0.25019335734E+02  0.51100000000E-03 0.  1.
         12    1    3    3    0    0 -0.15867372556E+02 -0.11357896502E+02 -0.18989099797E+02  0.27227949535E+02  0.00000000000E+00 0. -1.
</event>
<event>
 7    1  0.6152255E-013  0.5930194E+02  0.7816164E-02  0.1266605E+00
        -11   -1    0    0    0    0  0.00000000000E+00  0.00000000000E+00  0.45593999997E+02  0.45594000000E+02  0.51100000000E-03 0. -1.
         11   -1    0    0    0    0 -0.00000000000E+00 -0.00000000000E+00 -0.45593999997E+02  0.45594000000E+02  0.51100000000E-03 0.  1.
    9900012    2    1    2    0    0  0.82955649545E+01  0.77515333782E+01  0.29796275939E+02  0.59301941488E+02  0.49999995368E+02 0.  0.
        -12    1    1    2    0    0 -0.82955649545E+01 -0.77515333782E+01 -0.29796275939E+02  0.31886058512E+02  0.00000000000E+00 0.  1.
         11    1    3    3    0    0  0.12827015925E+02  0.24236220392E+02  0.88463877476E+01  0.28812936207E+02  0.51100000000E-03 0. -1.
        -11    1    3    3    0    0  0.35779005184E+01 -0.17855852679E+01  0.91017723237E+01  0.99414257811E+01  0.51100000000E-03 0.  1.
        -12    1    3    3    0    0 -0.81093514891E+01 -0.14699101746E+02  0.11848115867E+02  0.20547579500E+02  0.00000000000E+00 0.  1.
</event>
<event>
 7    1  0.6152255E-013  0.5930192E+02  0.7816164E-02  0.1266605E+00
        -11   -1    0    0    0    0  0.00000000000E+00  0.00000000000E+00  0.45593999997E+02  0.45594000000E+02  0.51100000000E-03 0.  1.
         11   -1    0    0    0    0 -0.00000000000E+00 -0.00000000000E+00 -0.45593999997E+02  0.45594000000E+02  0.51100000000E-03 0. -1.
    9900012    2    1    2    0    0  0.31468796322E+02  0.38001044226E+01  0.34635764215E+01  0.59301916872E+02  0.49999950475E+02 0.  0.
        -12    1    1    2    0    0 -0.31468796322E+02 -0.38001044226E+01 -0.34635764215E+01  0.31886083128E+02  0.00000000000E+00 0.  1.
         11    1    3    3    0    0  0.27264883464E+02 -0.66527422557E+01 -0.15530469711E+02  0.32075354083E+02  0.51100000000E-03 0. -1.
        -11    1    3    3    0    0  0.19379598211E+01 -0.98325531840E+00 -0.21654572189E+01  0.30678468862E+01  0.51100000000E-03 0.  1.
        -12    1    3    3    0    0  0.22659530372E+01  0.11436101997E+02  0.21159503351E+02  0.24158715904E+02  0.00000000000E+00 0.  1.
</event>
<event>
 7    1  0.6152255E-013  0.5930194E+02  0.7816164E-02  0.1266605E+00
        -11   -1    0    0    0    0  0.00000000000E+00  0.00000000000E+00  0.45593999997E+02  0.45594000000E+02  0.51100000000E-03 0.  1.
         11   -1    0    0    0    0 -0.00000000000E+00 -0.00000000000E+00 -0.45593999997E+02  0.45594000000E+02  0.51100000000E-03 0. -1.
    9900012    2    1    2    0    0  0.24269185411E+02 -0.26826119584E+01 -0.20506851450E+02  0.59301941545E+02  0.49999995471E+02 0.  0.
        -12    1    1    2    0    0 -0.24269185411E+02  0.26826119584E+01  0.20506851450E+02  0.31886058455E+02  0.00000000000E+00 0.  1.
         11    1    3    3    0    0  0.11757124694E+02  0.45836060476E+00 -0.21971844584E+02  0.24923924855E+02  0.51100000000E-03 0. -1.
        -11    1    3    3    0    0 -0.51891721709E+01 -0.11128993947E+02 -0.58809139188E+01  0.13614960994E+02  0.51100000000E-03 0.  1.
         12    1    3    3    0    0  0.17701232888E+02  0.79880213837E+01  0.73459070527E+01  0.20763055695E+02  0.00000000000E+00 0. -1.
</event>
<event>
 7    1  0.6152255E-013  0.5930194E+02  0.7816164E-02  0.1266605E+00
        -11   -1    0    0    0    0  0.00000000000E+00  0.00000000000E+00  0.45593999997E+02  0.45594000000E+02  0.51100000000E-03 0.  1.
         11   -1    0    0    0    0 -0.00000000000E+00 -0.00000000000E+00 -0.45593999997E+02  0.45594000000E+02  0.51100000000E-03 0. -1.
    9900012    2    1    2    0    0 -0.27338431505E+02 -0.62606089546E+01 -0.15170230096E+02  0.59301938111E+02  0.49999989209E+02 0.  0.
        -12    1    1    2    0    0  0.27338431505E+02  0.62606089546E+01  0.15170230096E+02  0.31886061889E+02  0.00000000000E+00 0.  1.
         11    1    3    3    0    0 -0.56369799465E+01 -0.21864252125E+01 -0.26187775309E+02  0.26876673418E+02  0.51100000000E-03 0. -1.
        -11    1    3    3    0    0 -0.14120412681E+02 -0.36646682495E+01 -0.44020843787E+01  0.15237919634E+02  0.51100000000E-03 0.  1.
        -12    1    3    3    0    0 -0.75810388778E+01 -0.40951549261E+00  0.15419629592E+02  0.17187345058E+02  0.00000000000E+00 0.  1.
</event>
<event>
 7    1  0.6152255E-013  0.5930230E+02  0.7816164E-02  0.1266604E+00
        -11   -1    0    0    0    0  0.00000000000E+00  0.00000000000E+00  0.45593999997E+02  0.45594000000E+02  0.51100000000E-03 0.  1.
         11   -1    0    0    0    0 -0.00000000000E+00 -0.00000000000E+00 -0.45593999997E+02  0.45594000000E+02  0.51100000000E-03 0. -1.
    9900012    2    1    2    0    0 -0.20832306328E+02 -0.21402299881E+02 -0.11164873151E+02  0.59302300704E+02  0.50000650487E+02 0.  0.
        -12    1    1    2    0    0  0.20832306328E+02  0.21402299881E+02  0.11164873151E+02  0.31885699296E+02  0.00000000000E+00 0.  1.
         11    1    3    3    0    0 -0.78279567281E+01 -0.43033172928E+01  0.50706966449E+01  0.10271680047E+02  0.51100000000E-03 0. -1.
        -11    1    3    3    0    0  0.15949536689E+01  0.10516078170E+02  0.44882368679E+01  0.11544524578E+02  0.51100000000E-03 0.  1.
         12    1    3    3    0    0 -0.14599303269E+02 -0.27615060758E+02 -0.20723806663E+02  0.37486096079E+02  0.00000000000E+00 0. -1.
</event>
<event>
 7    1  0.6152255E-013  0.5930194E+02  0.7816164E-02  0.1266605E+00
        -11   -1    0    0    0    0  0.00000000000E+00  0.00000000000E+00  0.45593999997E+02  0.45594000000E+02  0.51100000000E-03 0. -1.
         11   -1    0    0    0    0 -0.00000000000E+00 -0.00000000000E+00 -0.45593999997E+02  0.45594000000E+02  0.51100000000E-03 0.  1.
    9900012    2    1    2    0    0 -0.17724418097E+02 -0.13313574675E+01  0.26472498068E+02  0.59301942490E+02  0.49999997195E+02 0.  0.
        -12    1    1    2    0    0  0.17724418097E+02  0.13313574675E+01 -0.26472498068E+02  0.31886057510E+02  0.00000000000E+00 0.  1.
         11    1    3    3    0    0 -0.13092460821E+02 -0.12980508353E+02  0.26090569751E+02  0.31947205787E+02  0.51100000000E-03 0. -1.
        -11    1    3    3    0    0  0.49658229337E+01 -0.27012404637E+01  0.68832376968E+01  0.89070230101E+01  0.51100000000E-03 0.  1.
         12    1    3    3    0    0 -0.95977802100E+01  0.14350391349E+02 -0.65013093799E+01  0.18447713692E+02  0.00000000000E+00 0. -1.
</event>
<event>
 7    1  0.6152255E-013  0.5930196E+02  0.7816164E-02  0.1266605E+00
        -11   -1    0    0    0    0  0.00000000000E+00  0.00000000000E+00  0.45593999997E+02  0.45594000000E+02  0.51100000000E-03 0.  1.
         11   -1    0    0    0    0 -0.00000000000E+00 -0.00000000000E+00 -0.45593999997E+02  0.45594000000E+02  0.51100000000E-03 0. -1.
    9900012    2    1    2    0    0 -0.24114837319E+02 -0.19631555303E+02 -0.70566626049E+01  0.59301955566E+02  0.50000021044E+02 0.  0.
        -12    1    1    2    0    0  0.24114837319E+02  0.19631555303E+02  0.70566626049E+01  0.31886044434E+02  0.00000000000E+00 0.  1.
         11    1    3    3    0    0  0.13591545614E+01 -0.15454135674E+00 -0.34865706761E+01  0.37453116684E+01  0.51100000000E-03 0. -1.
        -11    1    3    3    0    0  0.76620445325E+01  0.65061135505E+01 -0.84957704764E+01  0.13161100114E+02  0.51100000000E-03 0.  1.
        -12    1    3    3    0    0 -0.33136036413E+02 -0.25983127496E+02  0.49256785476E+01  0.42395543784E+02  0.00000000000E+00 0.  1.
</event>
<event>
 7    1  0.6152255E-013  0.5930196E+02  0.7816164E-02  0.1266605E+00
        -11   -1    0    0    0    0  0.00000000000E+00  0.00000000000E+00  0.45593999997E+02  0.45594000000E+02  0.51100000000E-03 0. -1.
         11   -1    0    0    0    0 -0.00000000000E+00 -0.00000000000E+00 -0.45593999997E+02  0.45594000000E+02  0.51100000000E-03 0.  1.
    9900012    2    1    2    0    0 -0.84601554684E+01 -0.14150780016E+02  0.27292866258E+02  0.59301963021E+02  0.50000034640E+02 0.  0.
        -12    1    1    2    0    0  0.84601554684E+01  0.14150780016E+02 -0.27292866258E+02  0.31886036979E+02  0.00000000000E+00 0.  1.
         11    1    3    3    0    0 -0.69224454264E+00 -0.19766694038E+02  0.14536525531E+02  0.24546119255E+02  0.51100000000E-03 0. -1.
        -11    1    3    3    0    0 -0.15638142344E+02 -0.16688714418E+01 -0.26862666891E+01  0.15954706417E+02  0.51100000000E-03 0.  1.
         12    1    3    3    0    0  0.78702314179E+01  0.72847854641E+01  0.15442607416E+02  0.18801137350E+02  0.00000000000E+00 0. -1.
</event>
<event>
 7    1  0.6152255E-013  0.5930196E+02  0.7816164E-02  0.1266605E+00
        -11   -1    0    0    0    0  0.00000000000E+00  0.00000000000E+00  0.45593999997E+02  0.45594000000E+02  0.51100000000E-03 0.  1.
         11   -1    0    0    0    0 -0.00000000000E+00 -0.00000000000E+00 -0.45593999997E+02  0.45594000000E+02  0.51100000000E-03 0. -1.
    9900012    2    1    2    0    0  0.72863884081E+00  0.90082221509E+01 -0.30578428055E+02  0.59301964762E+02  0.50000037814E+02 0.  0.
        -12    1    1    2    0    0 -0.72863884081E+00 -0.90082221509E+01  0.30578428055E+02  0.31886035238E+02  0.00000000000E+00 0.  1.
         11    1    3    3    0    0 -0.14122080641E+01 -0.38708860428E+01  0.36596458214E+01  0.55109979288E+01  0.51100000000E-03 0. -1.
        -11    1    3    3    0    0  0.39614874638E+01  0.21209879585E+02 -0.34586253288E+01  0.21852104346E+02  0.51100000000E-03 0.  1.
         12    1    3    3    0    0 -0.18206405589E+01 -0.83307713912E+01 -0.30779448548E+02  0.31938862487E+02  0.00000000000E+00 0. -1.
</event>
<event>
 7    1  0.6152255E-013  0.5930194E+02  0.7816164E-02  0.1266605E+00
        -11   -1    0    0    0    0  0.00000000000E+00  0.00000000000E+00  0.45593999997E+02  0.45594000000E+02  0.51100000000E-03 0.  1.
         11   -1    0    0    0    0 -0.00000000000E+00 -0.00000000000E+00 -0.45593999997E+02  0.45594000000E+02  0.51100000000E-03 0. -1.
    9900012    2    1    2    0    0 -0.10695167609E+02 -0.10292563408E+02 -0.28220508334E+02  0.59301944077E+02  0.50000000091E+02 0.  0.
        -12    1    1    2    0    0  0.10695167609E+02  0.10292563408E+02  0.28220508334E+02  0.31886055923E+02  0.00000000000E+00 0.  1.
         11    1    3    3    0    0 -0.18866204943E+02 -0.42343161578E+01 -0.15169224062E+02  0.24575770205E+02  0.51100000000E-03 0. -1.
        -11    1    3    3    0    0 -0.40392003483E+01 -0.13259768638E+02  0.20519858082E+01  0.14012396291E+02  0.51100000000E-03 0.  1.
         12    1    3    3    0    0  0.12210237683E+02  0.72015213879E+01 -0.15103270080E+02  0.20713777581E+02  0.00000000000E+00 0. -1.
</event>
<event>
 7    1  0.6152255E-013  0.5930196E+02  0.7816164E-02  0.1266605E+00
        -11   -1    0    0    0    0  0.00000000000E+00  0.00000000000E+00  0.45593999997E+02  0.45594000000E+02  0.51100000000E-03 0. -1.
         11   -1    0    0    0    0 -0.00000000000E+00 -0.00000000000E+00 -0.45593999997E+02  0.45594000000E+02  0.51100000000E-03 0.  1.
    9900012    2    1    2    0    0  0.17573446297E+02 -0.25645716371E+02  0.70845514152E+01  0.59301958357E+02  0.50000026133E+02 0.  0.
        -12    1    1    2    0    0 -0.17573446297E+02  0.25645716371E+02 -0.70845514152E+01  0.31886041643E+02  0.00000000000E+00 0.  1.
         11    1    3    3    0    0 -0.48787261657E+01 -0.20325777462E+02  0.12699629982E+02  0.24458532262E+02  0.51100000000E-03 0. -1.
        -11    1    3    3    0    0 -0.70637829190E-01 -0.48511666622E+01 -0.10700371312E+02  0.11748904382E+02  0.51100000000E-03 0.  1.
         12    1    3    3    0    0  0.22522810292E+02 -0.46877224583E+00  0.50852927457E+01  0.23094521714E+02  0.00000000000E+00 0. -1.
</event>
<event>
 7    1  0.6152255E-013  0.5930193E+02  0.7816164E-02  0.1266605E+00
        -11   -1    0    0    0    0  0.00000000000E+00  0.00000000000E+00  0.45593999997E+02  0.45594000000E+02  0.51100000000E-03 0.  1.
         11   -1    0    0    0    0 -0.00000000000E+00 -0.00000000000E+00 -0.45593999997E+02  0.45594000000E+02  0.51100000000E-03 0. -1.
    9900012    2    1    2    0    0 -0.43963920808E+01  0.13504271708E+02 -0.28548687454E+02  0.59301934501E+02  0.49999982625E+02 0.  0.
        -12    1    1    2    0    0  0.43963920808E+01 -0.13504271708E+02  0.28548687454E+02  0.31886065499E+02  0.00000000000E+00 0.  1.
         11    1    3    3    0    0 -0.14239068025E+02  0.15974098653E+02 -0.81158364302E+01  0.22886452045E+02  0.51100000000E-03 0. -1.
        -11    1    3    3    0    0 -0.10072066640E+02 -0.12791924639E+01 -0.60190672438E+01  0.11803051745E+02  0.51100000000E-03 0.  1.
        -12    1    3    3    0    0  0.19914742584E+02 -0.11906344804E+01 -0.14413783780E+02  0.24612430711E+02  0.00000000000E+00 0.  1.
</event>
<event>
 7    1  0.6152255E-013  0.5930189E+02  0.7816164E-02  0.1266605E+00
        -11   -1    0    0    0    0  0.00000000000E+00  0.00000000000E+00  0.45593999997E+02  0.45594000000E+02  0.51100000000E-03 0. -1.
         11   -1    0    0    0    0 -0.00000000000E+00 -0.00000000000E+00 -0.45593999997E+02  0.45594000000E+02  0.51100000000E-03 0.  1.
    9900012    2    1    2    0    0  0.13044136746E+02  0.25394048068E+02  0.14202704890E+02  0.59301890063E+02  0.49999901581E+02 0.  0.
        -12    1    1    2    0    0 -0.13044136746E+02 -0.25394048068E+02 -0.14202704890E+02  0.31886109937E+02  0.00000000000E+00 0.  1.
         11    1    3    3    0    0 -0.31805489045E+01  0.36632459034E+01 -0.54217793332E+00  0.48815181097E+01  0.51100000000E-03 0. -1.
        -11    1    3    3    0    0  0.16163888554E+02 -0.49941903029E+01  0.21006118482E+02  0.26971656306E+02  0.51100000000E-03 0.  1.
         12    1    3    3    0    0  0.60797095752E-01  0.26724992468E+02 -0.62612356583E+01  0.27448715647E+02  0.00000000000E+00 0. -1.
</event>
<event>
 7    1  0.6152255E-013  0.5930197E+02  0.7816164E-02  0.1266605E+00
        -11   -1    0    0    0    0  0.00000000000E+00  0.00000000000E+00  0.45593999997E+02  0.45594000000E+02  0.51100000000E-03 0.  1.
         11   -1    0    0    0    0 -0.00000000000E+00 -0.00000000000E+00 -0.45593999997E+02  0.45594000000E+02  0.51100000000E-03 0. -1.
    9900012    2    1    2    0    0  0.13299909030E+02  0.10178610208E+02 -0.27133505509E+02  0.59301971599E+02  0.50000050283E+02 0.  0.
        -12    1    1    2    0    0 -0.13299909030E+02 -0.10178610208E+02  0.27133505509E+02  0.31886028401E+02  0.00000000000E+00 0.  1.
         11    1    3    3    0    0  0.16061145275E+02  0.66265278220E+01  0.43121680733E+01  0.17901565638E+02  0.51100000000E-03 0. -1.
        -11    1    3    3    0    0  0.17697676355E+01 -0.10986695516E+02 -0.91851351023E+01  0.14429354211E+02  0.51100000000E-03 0.  1.
         12    1    3    3    0    0 -0.45310038809E+01  0.14538777902E+02 -0.22260538480E+02  0.26971051750E+02  0.00000000000E+00 0. -1.
</event>
<event>
 7    1  0.6152255E-013  0.5930196E+02  0.7816164E-02  0.1266605E+00
        -11   -1    0    0    0    0  0.00000000000E+00  0.00000000000E+00  0.45593999997E+02  0.45594000000E+02  0.51100000000E-03 0. -1.
         11   -1    0    0    0    0 -0.00000000000E+00 -0.00000000000E+00 -0.45593999997E+02  0.45594000000E+02  0.51100000000E-03 0.  1.
    9900012    2    1    2    0    0  0.16215101587E+02  0.13013430059E+02  0.24175214145E+02  0.59301955085E+02  0.50000020166E+02 0.  0.
        -12    1    1    2    0    0 -0.16215101587E+02 -0.13013430059E+02 -0.24175214145E+02  0.31886044915E+02  0.00000000000E+00 0.  1.
         11    1    3    3    0    0 -0.48662487141E+01  0.20348896513E+02  0.16945843912E+02  0.26924330855E+02  0.51100000000E-03 0. -1.
        -11    1    3    3    0    0  0.72770781603E+01  0.78462715814E+01  0.47528784820E+01  0.11709385057E+02  0.51100000000E-03 0.  1.
         12    1    3    3    0    0  0.13804272141E+02 -0.15181738036E+02  0.24764917506E+01  0.20668239173E+02  0.00000000000E+00 0. -1.
</event>
<event>
 7    1  0.6152255E-013  0.5930194E+02  0.7816164E-02  0.1266605E+00
        -11   -1    0    0    0    0  0.00000000000E+00  0.00000000000E+00  0.45593999997E+02  0.45594000000E+02  0.51100000000E-03 0.  1.
         11   -1    0    0    0    0 -0.00000000000E+00 -0.00000000000E+00 -0.45593999997E+02  0.45594000000E+02  0.51100000000E-03 0. -1.
    9900012    2    1    2    0    0 -0.19544735231E+02 -0.11594594005E+02 -0.22367155649E+02  0.59301938198E+02  0.49999989368E+02 0.  0.
        -12    1    1    2    0    0  0.19544735231E+02  0.11594594005E+02  0.22367155649E+02  0.31886061802E+02  0.00000000000E+00 0.  1.
         11    1    3    3    0    0 -0.97748686676E+01 -0.25239547538E+02 -0.20400198928E+02  0.33893228438E+02  0.51100000000E-03 0. -1.
        -11    1    3    3    0    0 -0.10684943117E+02  0.10273583017E+01  0.39561205461E+01  0.11440033415E+02  0.51100000000E-03 0.  1.
        -12    1    3    3    0    0  0.91507655328E+00  0.12617595231E+02 -0.59230772668E+01  0.13968676345E+02  0.00000000000E+00 0.  1.
</event>
<event>
 7    1  0.6152255E-013  0.5930195E+02  0.7816164E-02  0.1266605E+00
        -11   -1    0    0    0    0  0.00000000000E+00  0.00000000000E+00  0.45593999997E+02  0.45594000000E+02  0.51100000000E-03 0. -1.
         11   -1    0    0    0    0 -0.00000000000E+00 -0.00000000000E+00 -0.45593999997E+02  0.45594000000E+02  0.51100000000E-03 0.  1.
    9900012    2    1    2    0    0 -0.22693239739E+02  0.86657605943E+01  0.20655301343E+02  0.59301952736E+02  0.50000015882E+02 0.  0.
        -12    1    1    2    0    0  0.22693239739E+02 -0.86657605943E+01 -0.20655301343E+02  0.31886047264E+02  0.00000000000E+00 0.  1.
         11    1    3    3    0    0 -0.79651765969E+01 -0.75738760957E+01 -0.46067348064E+01  0.11917619023E+02  0.51100000000E-03 0. -1.
        -11    1    3    3    0    0  0.92842621400E+01  0.57968136956E+01 -0.78349781339E-01  0.10945625220E+02  0.51100000000E-03 0.  1.
         12    1    3    3    0    0 -0.24012325282E+02  0.10442822994E+02  0.25340385931E+02  0.36438708494E+02  0.00000000000E+00 0. -1.
</event>
<event>
 7    1  0.6152255E-013  0.5930173E+02  0.7816164E-02  0.1266605E+00
        -11   -1    0    0    0    0  0.00000000000E+00  0.00000000000E+00  0.45593999997E+02  0.45594000000E+02  0.51100000000E-03 0. -1.
         11   -1    0    0    0    0 -0.00000000000E+00 -0.00000000000E+00 -0.45593999997E+02  0.45594000000E+02  0.51100000000E-03 0.  1.
    9900012    2    1    2    0    0 -0.26772500657E+02  0.87197431491E+01  0.14964399954E+02  0.59301733709E+02  0.49999616427E+02 0.  0.
        -12    1    1    2    0    0  0.26772500657E+02 -0.87197431491E+01 -0.14964399954E+02  0.31886266291E+02  0.00000000000E+00 0.  1.
         11    1    3    3    0    0 -0.18188015589E+02 -0.16807364734E+02  0.39528999970E+01  0.25078214430E+02  0.51100000000E-03 0. -1.
        -11    1    3    3    0    0 -0.15649052466E+00 -0.12214033861E+01 -0.27286505313E+01  0.29936348306E+01  0.51100000000E-03 0.  1.
         12    1    3    3    0    0 -0.84279945437E+01  0.26748511269E+02  0.13740150488E+02  0.31229884447E+02  0.00000000000E+00 0. -1.
</event>
<event>
 7    1  0.6152255E-013  0.5930195E+02  0.7816164E-02  0.1266605E+00
        -11   -1    0    0    0    0  0.00000000000E+00  0.00000000000E+00  0.45593999997E+02  0.45594000000E+02  0.51100000000E-03 0. -1.
         11   -1    0    0    0    0 -0.00000000000E+00 -0.00000000000E+00 -0.45593999997E+02  0.45594000000E+02  0.51100000000E-03 0.  1.
    9900012    2    1    2    0    0  0.29141599401E+02 -0.36544288692E+00  0.12936538106E+02  0.59301946900E+02  0.50000005238E+02 0.  0.
        -12    1    1    2    0    0 -0.29141599401E+02  0.36544288692E+00 -0.12936538106E+02  0.31886053100E+02  0.00000000000E+00 0.  1.
         11    1    3    3    0    0  0.15672584482E+02  0.25488278635E+01  0.28440419072E+02  0.32572747275E+02  0.51100000000E-03 0. -1.
        -11    1    3    3    0    0  0.76322098510E+01  0.44137041586E+01 -0.24024569413E+00  0.88198146162E+01  0.51100000000E-03 0.  1.
        -12    1    3    3    0    0  0.58368050680E+01 -0.73279749091E+01 -0.15263635272E+02  0.17909385009E+02  0.00000000000E+00 0.  1.
</event>
<event>
 7    1  0.6152255E-013  0.5930196E+02  0.7816164E-02  0.1266605E+00
        -11   -1    0    0    0    0  0.00000000000E+00  0.00000000000E+00  0.45593999997E+02  0.45594000000E+02  0.51100000000E-03 0.  1.
         11   -1    0    0    0    0 -0.00000000000E+00 -0.00000000000E+00 -0.45593999997E+02  0.45594000000E+02  0.51100000000E-03 0. -1.
    9900012    2    1    2    0    0  0.20443630305E+01  0.28774297428E+02 -0.13586022688E+02  0.59301958773E+02  0.50000026891E+02 0.  0.
        -12    1    1    2    0    0 -0.20443630305E+01 -0.28774297428E+02  0.13586022688E+02  0.31886041227E+02  0.00000000000E+00 0.  1.
         11    1    3    3    0    0  0.19065260716E+02  0.15510710071E+02 -0.16801176980E+02  0.29771560947E+02  0.51100000000E-03 0. -1.
        -11    1    3    3    0    0 -0.19956553232E+01 -0.50115810512E+01 -0.10354081924E+01  0.54927820990E+01  0.51100000000E-03 0.  1.
         12    1    3    3    0    0 -0.15025242362E+02  0.18275168408E+02  0.42505624844E+01  0.24037615726E+02  0.00000000000E+00 0. -1.
</event>
<event>
 7    1  0.6152255E-013  0.5930195E+02  0.7816164E-02  0.1266605E+00
        -11   -1    0    0    0    0  0.00000000000E+00  0.00000000000E+00  0.45593999997E+02  0.45594000000E+02  0.51100000000E-03 0.  1.
         11   -1    0    0    0    0 -0.00000000000E+00 -0.00000000000E+00 -0.45593999997E+02  0.45594000000E+02  0.51100000000E-03 0. -1.
    9900012    2    1    2    0    0 -0.59429084792E+00  0.98730915091E+01 -0.30313188017E+02  0.59301945285E+02  0.50000002292E+02 0.  0.
        -12    1    1    2    0    0  0.59429084792E+00 -0.98730915091E+01  0.30313188017E+02  0.31886054715E+02  0.00000000000E+00 0.  1.
         11    1    3    3    0    0 -0.83157109683E+01  0.60313667806E+00 -0.27906321341E+02  0.29125205473E+02  0.51100000000E-03 0. -1.
        -11    1    3    3    0    0  0.75892664604E+01 -0.64502589159E+01 -0.87179126327E+01  0.13236495247E+02  0.51100000000E-03 0.  1.
        -12    1    3    3    0    0  0.13215365995E+00  0.15720213747E+02  0.63110459571E+01  0.16940244565E+02  0.00000000000E+00 0.  1.
</event>
<event>
 7    1  0.6152255E-013  0.5930195E+02  0.7816164E-02  0.1266605E+00
        -11   -1    0    0    0    0  0.00000000000E+00  0.00000000000E+00  0.45593999997E+02  0.45594000000E+02  0.51100000000E-03 0. -1.
         11   -1    0    0    0    0 -0.00000000000E+00 -0.00000000000E+00 -0.45593999997E+02  0.45594000000E+02  0.51100000000E-03 0.  1.
    9900012    2    1    2    0    0 -0.24298492349E+02 -0.20455115161E+02  0.28092038391E+01  0.59301951438E+02  0.50000013515E+02 0.  0.
        -12    1    1    2    0    0  0.24298492349E+02  0.20455115161E+02 -0.28092038391E+01  0.31886048562E+02  0.00000000000E+00 0.  1.
         11    1    3    3    0    0  0.18164310802E+01 -0.32514057523E-02 -0.71427318863E+01  0.73700781204E+01  0.51100000000E-03 0. -1.
        -11    1    3    3    0    0 -0.11885242178E+02 -0.30565446549E+02  0.10590725399E+02  0.34462573454E+02  0.51100000000E-03 0.  1.
         12    1    3    3    0    0 -0.14229681252E+02  0.10113582794E+02 -0.63878967325E+00  0.17469299863E+02  0.00000000000E+00 0. -1.
</event>
<event>
 7    1  0.6152255E-013  0.5930192E+02  0.7816164E-02  0.1266605E+00
        -11   -1    0    0    0    0  0.00000000000E+00  0.00000000000E+00  0.45593999997E+02  0.45594000000E+02  0.51100000000E-03 0. -1.
         11   -1    0    0    0    0 -0.00000000000E+00 -0.00000000000E+00 -0.45593999997E+02  0.45594000000E+02  0.51100000000E-03 0.  1.
    9900012    2    1    2    0    0  0.31679153375E+02  0.27288770319E+01 -0.23887924850E+01  0.59301923760E+02  0.49999963037E+02 0.  0.
        -12    1    1    2    0    0 -0.31679153375E+02 -0.27288770319E+01  0.23887924850E+01  0.31886076240E+02  0.00000000000E+00 0.  1.
         11    1    3    3    0    0 -0.50095044435E+01 -0.40143975041E+01 -0.12525134320E+02  0.14074427594E+02  0.51100000000E-03 0. -1.
        -11    1    3    3    0    0  0.80681647413E+01  0.78637123776E+01 -0.55626472137E+01  0.12564883562E+02  0.51100000000E-03 0.  1.
         12    1    3    3    0    0  0.28620493077E+02 -0.11204378415E+01  0.15698989049E+02  0.32662612604E+02  0.00000000000E+00 0. -1.
</event>
<event>
 7    1  0.6152255E-013  0.5930186E+02  0.7816164E-02  0.1266605E+00
        -11   -1    0    0    0    0  0.00000000000E+00  0.00000000000E+00  0.45593999997E+02  0.45594000000E+02  0.51100000000E-03 0. -1.
         11   -1    0    0    0    0 -0.00000000000E+00 -0.00000000000E+00 -0.45593999997E+02  0.45594000000E+02  0.51100000000E-03 0.  1.
    9900012    2    1    2    0    0 -0.30553390443E+02 -0.22626583560E+01  0.88372372162E+01  0.59301857994E+02  0.49999843096E+02 0.  0.
        -12    1    1    2    0    0  0.30553390443E+02  0.22626583560E+01 -0.88372372162E+01  0.31886142006E+02  0.00000000000E+00 0.  1.
         11    1    3    3    0    0 -0.62522128042E+01  0.15310332346E+02  0.14151295040E+01  0.16598163551E+02  0.51100000000E-03 0. -1.
        -11    1    3    3    0    0  0.63263172771E+01 -0.39602965576E+01  0.52339477416E+01  0.91159447309E+01  0.51100000000E-03 0.  1.
        -12    1    3    3    0    0 -0.30627494916E+02 -0.13612694145E+02  0.21881599706E+01  0.33587749712E+02  0.00000000000E+00 0.  1.
</event>
<event>
 7    1  0.6152255E-013  0.5930195E+02  0.7816164E-02  0.1266605E+00
        -11   -1    0    0    0    0  0.00000000000E+00  0.00000000000E+00  0.45593999997E+02  0.45594000000E+02  0.51100000000E-03 0.  1.
         11   -1    0    0    0    0 -0.00000000000E+00 -0.00000000000E+00 -0.45593999997E+02  0.45594000000E+02  0.51100000000E-03 0. -1.
    9900012    2    1    2    0    0 -0.97450538182E+01 -0.19943070983E+02 -0.22891659872E+02  0.59301949040E+02  0.50000009141E+02 0.  0.
        -12    1    1    2    0    0  0.97450538182E+01  0.19943070983E+02  0.22891659872E+02  0.31886050960E+02  0.00000000000E+00 0.  1.
         11    1    3    3    0    0  0.39995578292E+01 -0.12331293492E+02 -0.16921720460E+02  0.21316704380E+02  0.51100000000E-03 0. -1.
        -11    1    3    3    0    0  0.10584861660E+02 -0.68488770530E+01 -0.51826702830E+01  0.13631085238E+02  0.51100000000E-03 0.  1.
         12    1    3    3    0    0 -0.24329473307E+02 -0.76290043822E+00 -0.78726912861E+00  0.24354159422E+02  0.00000000000E+00 0. -1.
</event>
<event>
 7    1  0.6152255E-013  0.5930195E+02  0.7816164E-02  0.1266605E+00
        -11   -1    0    0    0    0  0.00000000000E+00  0.00000000000E+00  0.45593999997E+02  0.45594000000E+02  0.51100000000E-03 0.  1.
         11   -1    0    0    0    0 -0.00000000000E+00 -0.00000000000E+00 -0.45593999997E+02  0.45594000000E+02  0.51100000000E-03 0. -1.
    9900012    2    1    2    0    0  0.85133259651E+00  0.78622798515E+01 -0.30889802618E+02  0.59301951053E+02  0.50000012812E+02 0.  0.
        -12    1    1    2    0    0 -0.85133259651E+00 -0.78622798515E+01  0.30889802618E+02  0.31886048947E+02  0.00000000000E+00 0.  1.
         11    1    3    3    0    0  0.94468238928E+01  0.74770562912E+01 -0.13731979949E+02  0.18267898785E+02  0.51100000000E-03 0. -1.
        -11    1    3    3    0    0 -0.19165885927E+01  0.18169194511E+02 -0.88344435647E+01  0.20293849669E+02  0.51100000000E-03 0.  1.
         12    1    3    3    0    0 -0.66789027036E+01 -0.17783970951E+02 -0.83233791045E+01  0.20740202599E+02  0.00000000000E+00 0. -1.
</event>
<event>
 7    1  0.6152255E-013  0.5930188E+02  0.7816164E-02  0.1266605E+00
        -11   -1    0    0    0    0  0.00000000000E+00  0.00000000000E+00  0.45593999997E+02  0.45594000000E+02  0.51100000000E-03 0.  1.
         11   -1    0    0    0    0 -0.00000000000E+00 -0.00000000000E+00 -0.45593999997E+02  0.45594000000E+02  0.51100000000E-03 0. -1.
    9900012    2    1    2    0    0  0.14886112102E+02 -0.21894781804E+02 -0.17769264872E+02  0.59301881110E+02  0.49999885254E+02 0.  0.
        -12    1    1    2    0    0 -0.14886112102E+02  0.21894781804E+02  0.17769264872E+02  0.31886118890E+02  0.00000000000E+00 0.  1.
         11    1    3    3    0    0  0.44607111938E+01 -0.22004621341E+02 -0.25540842922E+02  0.34006410604E+02  0.51100000000E-03 0. -1.
        -11    1    3    3    0    0 -0.66340255393E+01 -0.14728974356E+01  0.34736889551E+01  0.76319222304E+01  0.51100000000E-03 0.  1.
        -12    1    3    3    0    0  0.17059426447E+02  0.15827369725E+01  0.42978890948E+01  0.17663548276E+02  0.00000000000E+00 0.  1.
</event>
<event>
 7    1  0.6152255E-013  0.5930194E+02  0.7816164E-02  0.1266605E+00
        -11   -1    0    0    0    0  0.00000000000E+00  0.00000000000E+00  0.45593999997E+02  0.45594000000E+02  0.51100000000E-03 0.  1.
         11   -1    0    0    0    0 -0.00000000000E+00 -0.00000000000E+00 -0.45593999997E+02  0.45594000000E+02  0.51100000000E-03 0. -1.
    9900012    2    1    2    0    0 -0.89049233807E+01  0.30596793716E+02  0.11221209788E+01  0.59301943461E+02  0.49999998966E+02 0.  0.
        -12    1    1    2    0    0  0.89049233807E+01 -0.30596793716E+02 -0.11221209788E+01  0.31886056539E+02  0.00000000000E+00 0.  1.
         11    1    3    3    0    0 -0.10768943371E+02  0.15413775780E+02  0.16283184712E+02  0.24873615132E+02  0.51100000000E-03 0. -1.
        -11    1    3    3    0    0  0.10282099050E+02  0.26031464109E+01  0.27703512251E+01  0.10962334527E+02  0.51100000000E-03 0.  1.
         12    1    3    3    0    0 -0.84180790598E+01  0.12579871525E+02 -0.17931414959E+02  0.23465993801E+02  0.00000000000E+00 0. -1.
</event>
<event>
 7    1  0.6152255E-013  0.5930193E+02  0.7816164E-02  0.1266605E+00
        -11   -1    0    0    0    0  0.00000000000E+00  0.00000000000E+00  0.45593999997E+02  0.45594000000E+02  0.51100000000E-03 0.  1.
         11   -1    0    0    0    0 -0.00000000000E+00 -0.00000000000E+00 -0.45593999997E+02  0.45594000000E+02  0.51100000000E-03 0. -1.
    9900012    2    1    2    0    0  0.25101623646E+02 -0.16375286237E+02 -0.10884837670E+02  0.59301934076E+02  0.49999981851E+02 0.  0.
        -12    1    1    2    0    0 -0.25101623646E+02  0.16375286237E+02  0.10884837670E+02  0.31886065924E+02  0.00000000000E+00 0.  1.
         11    1    3    3    0    0 -0.74312611469E+01 -0.12381792379E+02 -0.10863132296E+02  0.18070419704E+02  0.51100000000E-03 0. -1.
        -11    1    3    3    0    0  0.26449633574E+02 -0.10374582427E+02 -0.78127100543E+01  0.29466141847E+02  0.51100000000E-03 0.  1.
        -12    1    3    3    0    0  0.60832512188E+01  0.63810885689E+01  0.77910046808E+01  0.11765372525E+02  0.00000000000E+00 0.  1.
</event>
<event>
 7    1  0.6152255E-013  0.5930195E+02  0.7816164E-02  0.1266605E+00
        -11   -1    0    0    0    0  0.00000000000E+00  0.00000000000E+00  0.45593999997E+02  0.45594000000E+02  0.51100000000E-03 0.  1.
         11   -1    0    0    0    0 -0.00000000000E+00 -0.00000000000E+00 -0.45593999997E+02  0.45594000000E+02  0.51100000000E-03 0. -1.
    9900012    2    1    2    0    0  0.11535250802E+02 -0.78448408519E+01 -0.28672575812E+02  0.59301950656E+02  0.50000012088E+02 0.  0.
        -12    1    1    2    0    0 -0.11535250802E+02  0.78448408519E+01  0.28672575812E+02  0.31886049344E+02  0.00000000000E+00 0.  1.
         11    1    3    3    0    0 -0.80857298933E+01  0.29900810996E+01 -0.11034470766E+02  0.14002826795E+02  0.51100000000E-03 0. -1.
        -11    1    3    3    0    0  0.10401762745E+01  0.65984353139E+01 -0.18639869488E+02  0.19800657819E+02  0.51100000000E-03 0.  1.
         12    1    3    3    0    0  0.18580804421E+02 -0.17433357265E+02  0.10017644423E+01  0.25498466042E+02  0.00000000000E+00 0. -1.
</event>
<event>
 7    1  0.6152255E-013  0.5930197E+02  0.7816164E-02  0.1266605E+00
        -11   -1    0    0    0    0  0.00000000000E+00  0.00000000000E+00  0.45593999997E+02  0.45594000000E+02  0.51100000000E-03 0.  1.
         11   -1    0    0    0    0 -0.00000000000E+00 -0.00000000000E+00 -0.45593999997E+02  0.45594000000E+02  0.51100000000E-03 0. -1.
    9900012    2    1    2    0    0 -0.12621474201E+02  0.24171489927E+02 -0.16527446438E+02  0.59301968230E+02  0.50000044139E+02 0.  0.
        -12    1    1    2    0    0  0.12621474201E+02 -0.24171489927E+02  0.16527446438E+02  0.31886031770E+02  0.00000000000E+00 0.  1.
         11    1    3    3    0    0  0.32685814580E+01  0.38257792589E+01 -0.16477032285E+01  0.52948217983E+01  0.51100000000E-03 0. -1.
        -11    1    3    3    0    0  0.39471181602E+01 -0.12723894466E+02 -0.46501400408E+01  0.14110316610E+02  0.51100000000E-03 0.  1.
         12    1    3    3    0    0 -0.19837173819E+02  0.33069605134E+02 -0.10229603168E+02  0.39896829822E+02  0.00000000000E+00 0. -1.
</event>
<event>
 7    1  0.6152255E-013  0.5930194E+02  0.7816164E-02  0.1266605E+00
        -11   -1    0    0    0    0  0.00000000000E+00  0.00000000000E+00  0.45593999997E+02  0.45594000000E+02  0.51100000000E-03 0.  1.
         11   -1    0    0    0    0 -0.00000000000E+00 -0.00000000000E+00 -0.45593999997E+02  0.45594000000E+02  0.51100000000E-03 0. -1.
    9900012    2    1    2    0    0  0.36386983952E+01 -0.29564804263E+02 -0.11375547998E+02  0.59301939262E+02  0.49999991309E+02 0.  0.
        -12    1    1    2    0    0 -0.36386983952E+01  0.29564804263E+02  0.11375547998E+02  0.31886060738E+02  0.00000000000E+00 0.  1.
         11    1    3    3    0    0 -0.62100548685E+01 -0.13046544460E+02 -0.12175362660E+02  0.18894881846E+02  0.51100000000E-03 0. -1.
        -11    1    3    3    0    0  0.10105136626E+02 -0.18536379625E+02 -0.14088088142E+02  0.25380807387E+02  0.51100000000E-03 0.  1.
        -12    1    3    3    0    0 -0.25638336277E+00  0.20181198216E+01  0.14887902804E+02  0.15026250030E+02  0.00000000000E+00 0.  1.
</event>
<event>
 7    1  0.6152255E-013  0.5930196E+02  0.7816164E-02  0.1266605E+00
        -11   -1    0    0    0    0  0.00000000000E+00  0.00000000000E+00  0.45593999997E+02  0.45594000000E+02  0.51100000000E-03 0.  1.
         11   -1    0    0    0    0 -0.00000000000E+00 -0.00000000000E+00 -0.45593999997E+02  0.45594000000E+02  0.51100000000E-03 0. -1.
    9900012    2    1    2    0    0 -0.32856492002E+01  0.25192530064E+01 -0.31616090989E+02  0.59301963310E+02  0.50000035165E+02 0.  0.
        -12    1    1    2    0    0  0.32856492002E+01 -0.25192530064E+01  0.31616090989E+02  0.31886036690E+02  0.00000000000E+00 0.  1.
         11    1    3    3    0    0 -0.55597673631E+01 -0.64057137488E+01 -0.32196732649E+02  0.33295251543E+02  0.51100000000E-03 0. -1.
        -11    1    3    3    0    0  0.11765439869E+02  0.69804817250E+01 -0.53023432516E+01  0.14671998659E+02  0.51100000000E-03 0.  1.
        -12    1    3    3    0    0 -0.94913217062E+01  0.19444850302E+01  0.58829849115E+01  0.11334713108E+02  0.00000000000E+00 0.  1.
</event>
<event>
 7    1  0.6152255E-013  0.5930193E+02  0.7816164E-02  0.1266605E+00
        -11   -1    0    0    0    0  0.00000000000E+00  0.00000000000E+00  0.45593999997E+02  0.45594000000E+02  0.51100000000E-03 0.  1.
         11   -1    0    0    0    0 -0.00000000000E+00 -0.00000000000E+00 -0.45593999997E+02  0.45594000000E+02  0.51100000000E-03 0. -1.
    9900012    2    1    2    0    0  0.88344894663E+01  0.14549942221E+02 -0.26962427863E+02  0.59301928762E+02  0.49999972159E+02 0.  0.
        -12    1    1    2    0    0 -0.88344894663E+01 -0.14549942221E+02  0.26962427863E+02  0.31886071238E+02  0.00000000000E+00 0.  1.
         11    1    3    3    0    0  0.18960047848E+02 -0.30174355714E+01  0.29070143122E+01  0.19417493770E+02  0.51100000000E-03 0. -1.
        -11    1    3    3    0    0  0.35657075619E+01  0.46265969978E+01 -0.18626630809E+01  0.61310018929E+01  0.51100000000E-03 0.  1.
        -12    1    3    3    0    0 -0.13691265944E+02  0.12940780794E+02 -0.28006779094E+02  0.33753433099E+02  0.00000000000E+00 0.  1.
</event>
<event>
 7    1  0.6152255E-013  0.5930194E+02  0.7816164E-02  0.1266605E+00
        -11   -1    0    0    0    0  0.00000000000E+00  0.00000000000E+00  0.45593999997E+02  0.45594000000E+02  0.51100000000E-03 0.  1.
         11   -1    0    0    0    0 -0.00000000000E+00 -0.00000000000E+00 -0.45593999997E+02  0.45594000000E+02  0.51100000000E-03 0. -1.
    9900012    2    1    2    0    0  0.14512350336E+02  0.44783833472E+01 -0.28036695313E+02  0.59301944839E+02  0.50000001479E+02 0.  0.
        -12    1    1    2    0    0 -0.14512350336E+02 -0.44783833472E+01  0.28036695313E+02  0.31886055161E+02  0.00000000000E+00 0.  1.
         11    1    3    3    0    0  0.11910476723E+01  0.94431950790E+01 -0.22777242825E+01  0.97867541108E+01  0.51100000000E-03 0. -1.
        -11    1    3    3    0    0 -0.76303898735E+01  0.50938227453E+01 -0.24588838806E+02  0.26244635145E+02  0.51100000000E-03 0.  1.
        -12    1    3    3    0    0  0.20951692538E+02 -0.10058634477E+02 -0.11701322241E+01  0.23270555583E+02  0.00000000000E+00 0.  1.
</event>
<event>
 7    1  0.6152255E-013  0.5930194E+02  0.7816164E-02  0.1266605E+00
        -11   -1    0    0    0    0  0.00000000000E+00  0.00000000000E+00  0.45593999997E+02  0.45594000000E+02  0.51100000000E-03 0.  1.
         11   -1    0    0    0    0 -0.00000000000E+00 -0.00000000000E+00 -0.45593999997E+02  0.45594000000E+02  0.51100000000E-03 0. -1.
    9900012    2    1    2    0    0 -0.53695582182E+01 -0.13404600377E+02 -0.28428953998E+02  0.59301938905E+02  0.49999990658E+02 0.  0.
        -12    1    1    2    0    0  0.53695582182E+01  0.13404600377E+02  0.28428953998E+02  0.31886061095E+02  0.00000000000E+00 0.  1.
         11    1    3    3    0    0 -0.99264191486E+01 -0.17522224442E+02  0.14395124860E+01  0.20189956488E+02  0.51100000000E-03 0. -1.
        -11    1    3    3    0    0  0.79281154662E+01  0.95014678245E+00  0.86570684771E+00  0.80316400791E+01  0.51100000000E-03 0.  1.
         12    1    3    3    0    0 -0.33712545358E+01  0.31674772829E+01 -0.30734173332E+02  0.31080342338E+02  0.00000000000E+00 0. -1.
</event>
<event>
 7    1  0.6152255E-013  0.5930194E+02  0.7816164E-02  0.1266605E+00
        -11   -1    0    0    0    0  0.00000000000E+00  0.00000000000E+00  0.45593999997E+02  0.45594000000E+02  0.51100000000E-03 0. -1.
         11   -1    0    0    0    0 -0.00000000000E+00 -0.00000000000E+00 -0.45593999997E+02  0.45594000000E+02  0.51100000000E-03 0.  1.
    9900012    2    1    2    0    0  0.39528340108E+00  0.24410763014E+02  0.20510468710E+02  0.59301938365E+02  0.49999989672E+02 0.  0.
        -12    1    1    2    0    0 -0.39528340108E+00 -0.24410763014E+02 -0.20510468710E+02  0.31886061635E+02  0.00000000000E+00 0.  1.
         11    1    3    3    0    0  0.21770478882E+01  0.25288631549E+02 -0.16209426985E-01  0.25382172605E+02  0.51100000000E-03 0. -1.
        -11    1    3    3    0    0  0.53360670329E+01 -0.69050051560E+01 -0.24985887559E+01  0.90772051655E+01  0.51100000000E-03 0.  1.
        -12    1    3    3    0    0 -0.71178315201E+01  0.60271366208E+01  0.23025266893E+02  0.24842560594E+02  0.00000000000E+00 0.  1.
</event>
<event>
 7    1  0.6152255E-013  0.5930193E+02  0.7816164E-02  0.1266605E+00
        -11   -1    0    0    0    0  0.00000000000E+00  0.00000000000E+00  0.45593999997E+02  0.45594000000E+02  0.51100000000E-03 0. -1.
         11   -1    0    0    0    0 -0.00000000000E+00 -0.00000000000E+00 -0.45593999997E+02  0.45594000000E+02  0.51100000000E-03 0.  1.
    9900012    2    1    2    0    0  0.26759525169E+02  0.75246889891E+01  0.15621414598E+02  0.59301925834E+02  0.49999966819E+02 0.  0.
        -12    1    1    2    0    0 -0.26759525169E+02 -0.75246889891E+01 -0.15621414598E+02  0.31886074166E+02  0.00000000000E+00 0.  1.
         11    1    3    3    0    0 -0.97498423216E+01 -0.56104317256E+00  0.61850282951E+01  0.11559791088E+02  0.51100000000E-03 0.  1.
        -11    1    3    3    0    0  0.15220632577E+02 -0.10393244971E+02  0.57811529345E+01  0.19316027712E+02  0.51100000000E-03 0. -1.
         12    1    3    3    0    0  0.21288734914E+02  0.18478977133E+02  0.36552333680E+01  0.28426107033E+02  0.00000000000E+00 0. -1.
</event>
<event>
 7    1  0.6152255E-013  0.5930194E+02  0.7816164E-02  0.1266605E+00
        -11   -1    0    0    0    0  0.00000000000E+00  0.00000000000E+00  0.45593999997E+02  0.45594000000E+02  0.51100000000E-03 0. -1.
         11   -1    0    0    0    0 -0.00000000000E+00 -0.00000000000E+00 -0.45593999997E+02  0.45594000000E+02  0.51100000000E-03 0.  1.
    9900012    2    1    2    0    0 -0.22112177137E+02 -0.22358242010E+02  0.52802627047E+01  0.59301944462E+02  0.50000000793E+02 0.  0.
        -12    1    1    2    0    0  0.22112177137E+02  0.22358242010E+02 -0.52802627047E+01  0.31886055538E+02  0.00000000000E+00 0.  1.
         11    1    3    3    0    0 -0.15389533624E+02 -0.26284985604E+02  0.37969175980E+01  0.30694540180E+02  0.51100000000E-03 0. -1.
        -11    1    3    3    0    0 -0.28871997162E+01 -0.97346934282E+01 -0.67588888846E+01  0.12197653773E+02  0.51100000000E-03 0.  1.
        -12    1    3    3    0    0 -0.38354437975E+01  0.13661437022E+02  0.82422339913E+01  0.16409750510E+02  0.00000000000E+00 0.  1.
</event>
<event>
 7    1  0.6152255E-013  0.5930190E+02  0.7816164E-02  0.1266605E+00
        -11   -1    0    0    0    0  0.00000000000E+00  0.00000000000E+00  0.45593999997E+02  0.45594000000E+02  0.51100000000E-03 0.  1.
         11   -1    0    0    0    0 -0.00000000000E+00 -0.00000000000E+00 -0.45593999997E+02  0.45594000000E+02  0.51100000000E-03 0. -1.
    9900012    2    1    2    0    0 -0.83835522612E+01 -0.19379063668E+02 -0.23893327407E+02  0.59301903473E+02  0.49999926038E+02 0.  0.
        -12    1    1    2    0    0  0.83835522612E+01  0.19379063668E+02  0.23893327407E+02  0.31886096527E+02  0.00000000000E+00 0.  1.
         11    1    3    3    0    0  0.13559798567E+02 -0.45197627641E+01  0.71666813027E+01  0.15989299978E+02  0.51100000000E-03 0. -1.
        -11    1    3    3    0    0 -0.36899398293E+01 -0.69442000911E+01 -0.20340104430E+01  0.81224854319E+01  0.51100000000E-03 0.  1.
        -12    1    3    3    0    0 -0.18253410999E+02 -0.79151008127E+01 -0.29025998266E+02  0.35190118064E+02  0.00000000000E+00 0.  1.
</event>
<event>
 7    1  0.6152255E-013  0.5930195E+02  0.7816164E-02  0.1266605E+00
        -11   -1    0    0    0    0  0.00000000000E+00  0.00000000000E+00  0.45593999997E+02  0.45594000000E+02  0.51100000000E-03 0.  1.
         11   -1    0    0    0    0 -0.00000000000E+00 -0.00000000000E+00 -0.45593999997E+02  0.45594000000E+02  0.51100000000E-03 0. -1.
    9900012    2    1    2    0    0 -0.13436038191E+02  0.11684062868E+02 -0.26451383454E+02  0.59301950794E+02  0.50000012340E+02 0.  0.
        -12    1    1    2    0    0  0.13436038191E+02 -0.11684062868E+02  0.26451383454E+02  0.31886049206E+02  0.00000000000E+00 0.  1.
         11    1    3    3    0    0  0.91991812463E+01 -0.55825368286E+00  0.77362931191E+01  0.12032739267E+02  0.51100000000E-03 0. -1.
        -11    1    3    3    0    0 -0.79716542032E-01  0.84365766043E+01 -0.38487324228E+01  0.92733446529E+01  0.51100000000E-03 0.  1.
         12    1    3    3    0    0 -0.22555502895E+02  0.38057399469E+01 -0.30338944150E+02  0.37995866874E+02  0.00000000000E+00 0. -1.
</event>
<event>
 7    1  0.6152255E-013  0.5930197E+02  0.7816164E-02  0.1266605E+00
        -11   -1    0    0    0    0  0.00000000000E+00  0.00000000000E+00  0.45593999997E+02  0.45594000000E+02  0.51100000000E-03 0.  1.
         11   -1    0    0    0    0 -0.00000000000E+00 -0.00000000000E+00 -0.45593999997E+02  0.45594000000E+02  0.51100000000E-03 0. -1.
    9900012    2    1    2    0    0 -0.73915068710E+01 -0.21779768067E+02 -0.22084519033E+02  0.59301974036E+02  0.50000054728E+02 0.  0.
        -12    1    1    2    0    0  0.73915068710E+01  0.21779768067E+02  0.22084519033E+02  0.31886025964E+02  0.00000000000E+00 0.  1.
         11    1    3    3    0    0 -0.37222818183E+01  0.54838009090E+01 -0.26814713475E+02  0.27621663841E+02  0.51100000000E-03 0. -1.
        -11    1    3    3    0    0  0.47001564200E+01 -0.99991592620E+01 -0.22285135016E+01  0.11271243454E+02  0.51100000000E-03 0.  1.
        -12    1    3    3    0    0 -0.83693814728E+01 -0.17264409714E+02  0.69587079434E+01  0.20409066741E+02  0.00000000000E+00 0.  1.
</event>
<event>
 7    1  0.6152255E-013  0.5930194E+02  0.7816164E-02  0.1266605E+00
        -11   -1    0    0    0    0  0.00000000000E+00  0.00000000000E+00  0.45593999997E+02  0.45594000000E+02  0.51100000000E-03 0.  1.
         11   -1    0    0    0    0 -0.00000000000E+00 -0.00000000000E+00 -0.45593999997E+02  0.45594000000E+02  0.51100000000E-03 0. -1.
    9900012    2    1    2    0    0  0.27253362285E+02  0.89171942209E+01 -0.13944849061E+02  0.59301938406E+02  0.49999989748E+02 0.  0.
        -12    1    1    2    0    0 -0.27253362285E+02 -0.89171942209E+01  0.13944849061E+02  0.31886061594E+02  0.00000000000E+00 0.  1.
         11    1    3    3    0    0  0.10473340450E+02  0.13396598474E+01 -0.11752135699E+02  0.15798678503E+02  0.51100000000E-03 0. -1.
        -11    1    3    3    0    0  0.19874128523E+02 -0.44202325219E+01 -0.15299091896E+02  0.25467266308E+02  0.51100000000E-03 0.  1.
        -12    1    3    3    0    0 -0.30941066877E+01  0.11997766895E+02  0.13106378535E+02  0.18035993595E+02  0.00000000000E+00 0.  1.
</event>
<event>
 7    1  0.6152255E-013  0.5930194E+02  0.7816164E-02  0.1266605E+00
        -11   -1    0    0    0    0  0.00000000000E+00  0.00000000000E+00  0.45593999997E+02  0.45594000000E+02  0.51100000000E-03 0.  1.
         11   -1    0    0    0    0 -0.00000000000E+00 -0.00000000000E+00 -0.45593999997E+02  0.45594000000E+02  0.51100000000E-03 0. -1.
    9900012    2    1    2    0    0  0.10013329745E+02  0.54494252217E+01 -0.29778477593E+02  0.59301941360E+02  0.49999995135E+02 0.  0.
        -12    1    1    2    0    0 -0.10013329745E+02 -0.54494252217E+01  0.29778477593E+02  0.31886058640E+02  0.00000000000E+00 0.  1.
         11    1    3    3    0    0  0.51027412139E+01  0.64192877737E+00  0.11988558600E+02  0.13045136183E+02  0.51100000000E-03 0. -1.
        -11    1    3    3    0    0 -0.17819618114E+01  0.53075717356E+01 -0.20274594877E+01  0.59545191125E+01  0.51100000000E-03 0.  1.
         12    1    3    3    0    0  0.66925503424E+01 -0.50007529127E+00 -0.39739576705E+02  0.40302286065E+02  0.00000000000E+00 0. -1.
</event>
<event>
 7    1  0.6152255E-013  0.5930189E+02  0.7816164E-02  0.1266605E+00
        -11   -1    0    0    0    0  0.00000000000E+00  0.00000000000E+00  0.45593999997E+02  0.45594000000E+02  0.51100000000E-03 0. -1.
         11   -1    0    0    0    0 -0.00000000000E+00 -0.00000000000E+00 -0.45593999997E+02  0.45594000000E+02  0.51100000000E-03 0.  1.
    9900012    2    1    2    0    0 -0.75655940162E+01 -0.28977595716E+02  0.10944608876E+02  0.59301894409E+02  0.49999909508E+02 0.  0.
        -12    1    1    2    0    0  0.75655940162E+01  0.28977595716E+02 -0.10944608876E+02  0.31886105591E+02  0.00000000000E+00 0.  1.
         11    1    3    3    0    0  0.10750933155E+02 -0.54345068222E+01 -0.10102893656E+01  0.12088718417E+02  0.51100000000E-03 0. -1.
        -11    1    3    3    0    0  0.60994756634E+01 -0.17785401989E+02 -0.12884305983E+01  0.18846330702E+02  0.51100000000E-03 0.  1.
         12    1    3    3    0    0 -0.24416002835E+02 -0.57576869049E+01  0.13243328840E+02  0.28366845290E+02  0.00000000000E+00 0. -1.
</event>
<event>
 7    1  0.6152255E-013  0.5930194E+02  0.7816164E-02  0.1266605E+00
        -11   -1    0    0    0    0  0.00000000000E+00  0.00000000000E+00  0.45593999997E+02  0.45594000000E+02  0.51100000000E-03 0. -1.
         11   -1    0    0    0    0 -0.00000000000E+00 -0.00000000000E+00 -0.45593999997E+02  0.45594000000E+02  0.51100000000E-03 0.  1.
    9900012    2    1    2    0    0 -0.26811371019E+02 -0.49692827708E+01  0.16528076825E+02  0.59301941750E+02  0.49999995846E+02 0.  0.
        -12    1    1    2    0    0  0.26811371019E+02  0.49692827708E+01 -0.16528076825E+02  0.31886058250E+02  0.00000000000E+00 0.  1.
         11    1    3    3    0    0 -0.78375946781E+01  0.50761278617E+01 -0.65427732403E+01  0.11401879071E+02  0.51100000000E-03 0. -1.
        -11    1    3    3    0    0 -0.10514284854E+02 -0.19758766782E+01 -0.88634636596E+01  0.13892993304E+02  0.51100000000E-03 0.  1.
         12    1    3    3    0    0 -0.84594914876E+01 -0.80695339542E+01  0.31934313725E+02  0.34007069376E+02  0.00000000000E+00 0. -1.
</event>
<event>
 7    1  0.6152255E-013  0.5930191E+02  0.7816164E-02  0.1266605E+00
        -11   -1    0    0    0    0  0.00000000000E+00  0.00000000000E+00  0.45593999997E+02  0.45594000000E+02  0.51100000000E-03 0. -1.
         11   -1    0    0    0    0 -0.00000000000E+00 -0.00000000000E+00 -0.45593999997E+02  0.45594000000E+02  0.51100000000E-03 0.  1.
    9900012    2    1    2    0    0  0.14692203652E+02  0.14063891733E+02  0.24557457815E+02  0.59301911605E+02  0.49999940868E+02 0.  0.
        -12    1    1    2    0    0 -0.14692203652E+02 -0.14063891733E+02 -0.24557457815E+02  0.31886088395E+02  0.00000000000E+00 0.  1.
         11    1    3    3    0    0 -0.74400810163E+01  0.15921222808E+02  0.17396456916E+02  0.24728058046E+02  0.51100000000E-03 0. -1.
        -11    1    3    3    0    0  0.77348657296E+01  0.54059924393E+01 -0.80515731887E+01  0.12404867318E+02  0.51100000000E-03 0.  1.
        -12    1    3    3    0    0  0.14397418938E+02 -0.72633235145E+01  0.15212574087E+02  0.22168986240E+02  0.00000000000E+00 0.  1.
</event>
<event>
 7    1  0.6152255E-013  0.5930195E+02  0.7816164E-02  0.1266605E+00
        -11   -1    0    0    0    0  0.00000000000E+00  0.00000000000E+00  0.45593999997E+02  0.45594000000E+02  0.51100000000E-03 0. -1.
         11   -1    0    0    0    0 -0.00000000000E+00 -0.00000000000E+00 -0.45593999997E+02  0.45594000000E+02  0.51100000000E-03 0.  1.
    9900012    2    1    2    0    0  0.18594615515E+02  0.13905174156E+02  0.21854209121E+02  0.59301952099E+02  0.50000014720E+02 0.  0.
        -12    1    1    2    0    0 -0.18594615515E+02 -0.13905174156E+02 -0.21854209121E+02  0.31886047901E+02  0.00000000000E+00 0.  1.
         11    1    3    3    0    0  0.11567410501E+02  0.47796595999E+01 -0.26117183167E+01  0.12785585807E+02  0.51100000000E-03 0. -1.
        -11    1    3    3    0    0 -0.55085354963E+01 -0.49738648062E+01 -0.67564568483E+01  0.10036583275E+02  0.51100000000E-03 0.  1.
        -12    1    3    3    0    0  0.12535740510E+02  0.14099379362E+02  0.31222384286E+02  0.36479783018E+02  0.00000000000E+00 0.  1.
</event>
<event>
 7    1  0.6152255E-013  0.5930194E+02  0.7816164E-02  0.1266605E+00
        -11   -1    0    0    0    0  0.00000000000E+00  0.00000000000E+00  0.45593999997E+02  0.45594000000E+02  0.51100000000E-03 0. -1.
         11   -1    0    0    0    0 -0.00000000000E+00 -0.00000000000E+00 -0.45593999997E+02  0.45594000000E+02  0.51100000000E-03 0.  1.
    9900012    2    1    2    0    0  0.24127954501E+02 -0.14950221806E+02  0.14527683453E+02  0.59301938673E+02  0.49999990235E+02 0.  0.
        -12    1    1    2    0    0 -0.24127954501E+02  0.14950221806E+02 -0.14527683453E+02  0.31886061327E+02  0.00000000000E+00 0.  1.
         11    1    3    3    0    0  0.41204411535E+01 -0.94928718463E+00 -0.43994624035E+01  0.61020038643E+01  0.51100000000E-03 0. -1.
        -11    1    3    3    0    0 -0.18604602521E+01 -0.13466235591E+02 -0.10041106692E+02  0.16900433048E+02  0.51100000000E-03 0.  1.
        -12    1    3    3    0    0  0.21867973599E+02 -0.53469903006E+00  0.28968252549E+02  0.36299501761E+02  0.00000000000E+00 0.  1.
</event>
<event>
 7    1  0.6152255E-013  0.5930185E+02  0.7816164E-02  0.1266605E+00
        -11   -1    0    0    0    0  0.00000000000E+00  0.00000000000E+00  0.45593999997E+02  0.45594000000E+02  0.51100000000E-03 0. -1.
         11   -1    0    0    0    0 -0.00000000000E+00 -0.00000000000E+00 -0.45593999997E+02  0.45594000000E+02  0.51100000000E-03 0.  1.
    9900012    2    1    2    0    0  0.31323579226E+02  0.43213957066E+00 -0.59475524874E+01  0.59301847195E+02  0.49999823400E+02 0.  0.
        -12    1    1    2    0    0 -0.31323579226E+02 -0.43213957066E+00  0.59475524874E+01  0.31886152805E+02  0.00000000000E+00 0.  1.
         11    1    3    3    0    0 -0.21823130247E+01  0.15313592407E+01  0.13814665559E+02  0.14069560620E+02  0.51100000000E-03 0. -1.
        -11    1    3    3    0    0  0.94343117476E+01 -0.55012931959E+01  0.35009085981E+01  0.11468514562E+02  0.51100000000E-03 0.  1.
        -12    1    3    3    0    0  0.24071580503E+02  0.44020735259E+01 -0.23263126645E+02  0.33763772013E+02  0.00000000000E+00 0.  1.
</event>
<event>
 7    1  0.6152255E-013  0.5930195E+02  0.7816164E-02  0.1266605E+00
        -11   -1    0    0    0    0  0.00000000000E+00  0.00000000000E+00  0.45593999997E+02  0.45594000000E+02  0.51100000000E-03 0.  1.
         11   -1    0    0    0    0 -0.00000000000E+00 -0.00000000000E+00 -0.45593999997E+02  0.45594000000E+02  0.51100000000E-03 0. -1.
    9900012    2    1    2    0    0  0.35470813644E+01  0.23613309064E+02 -0.21131733265E+02  0.59301948160E+02  0.50000007537E+02 0.  0.
        -12    1    1    2    0    0 -0.35470813644E+01 -0.23613309064E+02  0.21131733265E+02  0.31886051840E+02  0.00000000000E+00 0.  1.
         11    1    3    3    0    0  0.10597149826E+02 -0.15811166611E+01 -0.69138707421E+01  0.12751514546E+02  0.51100000000E-03 0. -1.
        -11    1    3    3    0    0 -0.17333863184E+02  0.41704024851E+01 -0.14751351129E+02  0.23139953115E+02  0.51100000000E-03 0.  1.
         12    1    3    3    0    0  0.10283794723E+02  0.21024023240E+02  0.53348860587E+00  0.23410480499E+02  0.00000000000E+00 0. -1.
</event>
<event>
 7    1  0.6152255E-013  0.5930195E+02  0.7816164E-02  0.1266605E+00
        -11   -1    0    0    0    0  0.00000000000E+00  0.00000000000E+00  0.45593999997E+02  0.45594000000E+02  0.51100000000E-03 0. -1.
         11   -1    0    0    0    0 -0.00000000000E+00 -0.00000000000E+00 -0.45593999997E+02  0.45594000000E+02  0.51100000000E-03 0.  1.
    9900012    2    1    2    0    0 -0.84396443728E+01 -0.27037922576E+02  0.14643878636E+02  0.59301952332E+02  0.50000015145E+02 0.  0.
        -12    1    1    2    0    0  0.84396443728E+01  0.27037922576E+02 -0.14643878636E+02  0.31886047668E+02  0.00000000000E+00 0.  1.
         11    1    3    3    0    0 -0.85286071967E+01 -0.36723251744E+02  0.20073822132E+02  0.42711739541E+02  0.51100000000E-03 0. -1.
        -11    1    3    3    0    0 -0.57974193552E+01  0.72131212290E+01 -0.37770438191E+01  0.99952613431E+01  0.51100000000E-03 0.  1.
        -12    1    3    3    0    0  0.58863821791E+01  0.24722079391E+01 -0.16528996768E+01  0.65949514474E+01  0.00000000000E+00 0.  1.
</event>
<event>
 7    1  0.6152255E-013  0.5930204E+02  0.7816164E-02  0.1266604E+00
        -11   -1    0    0    0    0  0.00000000000E+00  0.00000000000E+00  0.45593999997E+02  0.45594000000E+02  0.51100000000E-03 0.  1.
         11   -1    0    0    0    0 -0.00000000000E+00 -0.00000000000E+00 -0.45593999997E+02  0.45594000000E+02  0.51100000000E-03 0. -1.
    9900012    2    1    2    0    0  0.14951156253E+02 -0.25532736614E+02 -0.11885137905E+02  0.59302043603E+02  0.50000181602E+02 0.  0.
        -12    1    1    2    0    0 -0.14951156253E+02  0.25532736614E+02  0.11885137905E+02  0.31885956397E+02  0.00000000000E+00 0.  1.
         11    1    3    3    0    0  0.20438754894E+00 -0.15221557003E+01 -0.15341568318E+02  0.15418250580E+02  0.51100000000E-03 0. -1.
        -11    1    3    3    0    0  0.14819821849E+02  0.33567988777E+01  0.61319398693E+01  0.16385844659E+02  0.51100000000E-03 0.  1.
         12    1    3    3    0    0 -0.73053145464E-01 -0.27367379791E+02 -0.26755094566E+01  0.27497948365E+02  0.00000000000E+00 0. -1.
</event>
<event>
 7    1  0.6152255E-013  0.5930191E+02  0.7816164E-02  0.1266605E+00
        -11   -1    0    0    0    0  0.00000000000E+00  0.00000000000E+00  0.45593999997E+02  0.45594000000E+02  0.51100000000E-03 0.  1.
         11   -1    0    0    0    0 -0.00000000000E+00 -0.00000000000E+00 -0.45593999997E+02  0.45594000000E+02  0.51100000000E-03 0. -1.
    9900012    2    1    2    0    0  0.28164626255E+02 -0.14068702150E+02  0.50545464578E+01  0.59301905976E+02  0.49999930602E+02 0.  0.
        -12    1    1    2    0    0 -0.28164626255E+02  0.14068702150E+02 -0.50545464578E+01  0.31886094024E+02  0.00000000000E+00 0.  1.
         11    1    3    3    0    0  0.95834275122E+01  0.10129653780E+02  0.77166408366E+01  0.15937330851E+02  0.51100000000E-03 0.  1.
        -11    1    3    3    0    0  0.16547467733E+02 -0.73561326196E+01 -0.14060303311E+02  0.22926480431E+02  0.51100000000E-03 0. -1.
        -12    1    3    3    0    0  0.20337310097E+01 -0.16842223310E+02  0.11398208932E+02  0.20438094694E+02  0.00000000000E+00 0.  1.
</event>
<event>
 7    1  0.6152255E-013  0.5930195E+02  0.7816164E-02  0.1266605E+00
        -11   -1    0    0    0    0  0.00000000000E+00  0.00000000000E+00  0.45593999997E+02  0.45594000000E+02  0.51100000000E-03 0.  1.
         11   -1    0    0    0    0 -0.00000000000E+00 -0.00000000000E+00 -0.45593999997E+02  0.45594000000E+02  0.51100000000E-03 0. -1.
    9900012    2    1    2    0    0 -0.21593584155E+02 -0.23129317023E+02 -0.39334670484E+01  0.59301947475E+02  0.50000006287E+02 0.  0.
        -12    1    1    2    0    0  0.21593584155E+02  0.23129317023E+02  0.39334670484E+01  0.31886052525E+02  0.00000000000E+00 0.  1.
         11    1    3    3    0    0 -0.15636402603E+02 -0.16878073564E+02 -0.10668565213E+02  0.25361087074E+02  0.51100000000E-03 0. -1.
        -11    1    3    3    0    0 -0.15958017959E+02 -0.49163210317E+01  0.13767855626E+02  0.21642144036E+02  0.51100000000E-03 0.  1.
        -12    1    3    3    0    0  0.10000836407E+02 -0.13349224277E+01 -0.70327574615E+01  0.12298716366E+02  0.00000000000E+00 0.  1.
</event>
<event>
 7    1  0.6152255E-013  0.5930196E+02  0.7816164E-02  0.1266605E+00
        -11   -1    0    0    0    0  0.00000000000E+00  0.00000000000E+00  0.45593999997E+02  0.45594000000E+02  0.51100000000E-03 0.  1.
         11   -1    0    0    0    0 -0.00000000000E+00 -0.00000000000E+00 -0.45593999997E+02  0.45594000000E+02  0.51100000000E-03 0. -1.
    9900012    2    1    2    0    0  0.43696050244E+01  0.31535172839E+02  0.17773064875E+01  0.59301962422E+02  0.50000033547E+02 0.  0.
        -12    1    1    2    0    0 -0.43696050244E+01 -0.31535172839E+02 -0.17773064875E+01  0.31886037578E+02  0.00000000000E+00 0.  1.
         11    1    3    3    0    0 -0.84782723951E+01  0.15875182305E+02 -0.78831286412E+01  0.19648059280E+02  0.51100000000E-03 0. -1.
        -11    1    3    3    0    0  0.36762814651E+01  0.20080425039E+02  0.17432990497E+02  0.26844881692E+02  0.51100000000E-03 0.  1.
         12    1    3    3    0    0  0.91715959544E+01 -0.44204345051E+01 -0.77725553679E+01  0.12809021450E+02  0.00000000000E+00 0. -1.
</event>
<event>
 7    1  0.6152255E-013  0.5930196E+02  0.7816164E-02  0.1266605E+00
        -11   -1    0    0    0    0  0.00000000000E+00  0.00000000000E+00  0.45593999997E+02  0.45594000000E+02  0.51100000000E-03 0.  1.
         11   -1    0    0    0    0 -0.00000000000E+00 -0.00000000000E+00 -0.45593999997E+02  0.45594000000E+02  0.51100000000E-03 0. -1.
    9900012    2    1    2    0    0 -0.61465544443E+01  0.53342842530E+01 -0.30829929119E+02  0.59301964663E+02  0.50000037634E+02 0.  0.
        -12    1    1    2    0    0  0.61465544443E+01 -0.53342842530E+01  0.30829929119E+02  0.31886035337E+02  0.00000000000E+00 0.  1.
         11    1    3    3    0    0 -0.76562619586E+01 -0.10254127993E+02  0.95584600091E+00  0.12832736649E+02  0.51100000000E-03 0. -1.
        -11    1    3    3    0    0 -0.10660849149E+01  0.15787204837E+02 -0.13025022198E+01  0.15876677420E+02  0.51100000000E-03 0.  1.
        -12    1    3    3    0    0  0.25757924292E+01 -0.19879259088E+00 -0.30483272900E+02  0.30592550594E+02  0.00000000000E+00 0.  1.
</event>
<event>
 7    1  0.6152255E-013  0.5930201E+02  0.7816164E-02  0.1266605E+00
        -11   -1    0    0    0    0  0.00000000000E+00  0.00000000000E+00  0.45593999997E+02  0.45594000000E+02  0.51100000000E-03 0. -1.
         11   -1    0    0    0    0 -0.00000000000E+00 -0.00000000000E+00 -0.45593999997E+02  0.45594000000E+02  0.51100000000E-03 0.  1.
    9900012    2    1    2    0    0 -0.29257864167E+01 -0.17746626967E+02  0.26328950641E+02  0.59302005634E+02  0.50000112355E+02 0.  0.
        -12    1    1    2    0    0  0.29257864167E+01  0.17746626967E+02 -0.26328950641E+02  0.31885994366E+02  0.00000000000E+00 0.  1.
         11    1    3    3    0    0 -0.31983379321E+01 -0.51428995151E+01  0.32501503944E+02  0.33060951889E+02  0.51100000000E-03 0. -1.
        -11    1    3    3    0    0  0.10365743646E+02 -0.46975997304E+01  0.12128974879E+01  0.11444964183E+02  0.51100000000E-03 0.  1.
        -12    1    3    3    0    0 -0.10093192131E+02 -0.79061277210E+01 -0.73854507910E+01  0.14796089562E+02  0.00000000000E+00 0.  1.
</event>
<event>
 7    1  0.6152255E-013  0.5930195E+02  0.7816164E-02  0.1266605E+00
        -11   -1    0    0    0    0  0.00000000000E+00  0.00000000000E+00  0.45593999997E+02  0.45594000000E+02  0.51100000000E-03 0.  1.
         11   -1    0    0    0    0 -0.00000000000E+00 -0.00000000000E+00 -0.45593999997E+02  0.45594000000E+02  0.51100000000E-03 0. -1.
    9900012    2    1    2    0    0 -0.10815974309E+02  0.15489610760E+02 -0.25686700932E+02  0.59301953733E+02  0.50000017701E+02 0.  0.
        -12    1    1    2    0    0  0.10815974309E+02 -0.15489610760E+02  0.25686700932E+02  0.31886046267E+02  0.00000000000E+00 0.  1.
         11    1    3    3    0    0 -0.42250508130E+01  0.22242280477E+02 -0.11395652612E+02  0.25346222478E+02  0.51100000000E-03 0. -1.
        -11    1    3    3    0    0 -0.91990319217E+00  0.82255912062E+01  0.43736915474E+01  0.93613968288E+01  0.51100000000E-03 0.  1.
         12    1    3    3    0    0 -0.56710203035E+01 -0.14978260923E+02 -0.18664739867E+02  0.24594334426E+02  0.00000000000E+00 0. -1.
</event>
<event>
 7    1  0.6152255E-013  0.5930194E+02  0.7816164E-02  0.1266605E+00
        -11   -1    0    0    0    0  0.00000000000E+00  0.00000000000E+00  0.45593999997E+02  0.45594000000E+02  0.51100000000E-03 0. -1.
         11   -1    0    0    0    0 -0.00000000000E+00 -0.00000000000E+00 -0.45593999997E+02  0.45594000000E+02  0.51100000000E-03 0.  1.
    9900012    2    1    2    0    0  0.42265945033E+01 -0.19212133720E+00  0.31604114030E+02  0.59301936660E+02  0.49999986564E+02 0.  0.
        -12    1    1    2    0    0 -0.42265945033E+01  0.19212133720E+00 -0.31604114030E+02  0.31886063340E+02  0.00000000000E+00 0.  1.
         11    1    3    3    0    0 -0.95406850889E+01  0.43249489544E+01  0.54143880657E+01  0.11791753636E+02  0.51100000000E-03 0. -1.
        -11    1    3    3    0    0  0.11663456343E+02 -0.13828369566E+01 -0.72865143286E+01  0.13821785096E+02  0.51100000000E-03 0.  1.
         12    1    3    3    0    0  0.21038232490E+01 -0.31342333350E+01  0.33476240292E+02  0.33688397928E+02  0.00000000000E+00 0. -1.
</event>
<event>
 7    1  0.6152255E-013  0.5930201E+02  0.7816164E-02  0.1266605E+00
        -11   -1    0    0    0    0  0.00000000000E+00  0.00000000000E+00  0.45593999997E+02  0.45594000000E+02  0.51100000000E-03 0.  1.
         11   -1    0    0    0    0 -0.00000000000E+00 -0.00000000000E+00 -0.45593999997E+02  0.45594000000E+02  0.51100000000E-03 0. -1.
    9900012    2    1    2    0    0 -0.28762555568E+02 -0.24591990441E+01 -0.13541945620E+02  0.59302006933E+02  0.50000114723E+02 0.  0.
        -12    1    1    2    0    0  0.28762555568E+02  0.24591990441E+01  0.13541945620E+02  0.31885993067E+02  0.00000000000E+00 0.  1.
         11    1    3    3    0    0 -0.15085594102E+02 -0.61458909189E+01  0.27438719201E+01  0.16518957533E+02  0.51100000000E-03 0. -1.
        -11    1    3    3    0    0 -0.12472526734E+02 -0.10637978395E+02 -0.21895372107E+02  0.27352108281E+02  0.51100000000E-03 0.  1.
        -12    1    3    3    0    0 -0.12044347319E+01  0.14324670270E+02  0.56095545670E+01  0.15430941119E+02  0.00000000000E+00 0.  1.
</event>
<event>
 7    1  0.6152255E-013  0.5930195E+02  0.7816164E-02  0.1266605E+00
        -11   -1    0    0    0    0  0.00000000000E+00  0.00000000000E+00  0.45593999997E+02  0.45594000000E+02  0.51100000000E-03 0. -1.
         11   -1    0    0    0    0 -0.00000000000E+00 -0.00000000000E+00 -0.45593999997E+02  0.45594000000E+02  0.51100000000E-03 0.  1.
    9900012    2    1    2    0    0 -0.29234076151E+02 -0.12032215696E+02  0.41610802135E+01  0.59301952714E+02  0.50000015842E+02 0.  0.
        -12    1    1    2    0    0  0.29234076151E+02  0.12032215696E+02 -0.41610802135E+01  0.31886047286E+02  0.00000000000E+00 0.  1.
         11    1    3    3    0    0  0.64775993179E+01 -0.87935610832E+01  0.47228044044E+01  0.11899197080E+02  0.51100000000E-03 0. -1.
        -11    1    3    3    0    0 -0.13336469237E+02 -0.98665296120E+01  0.12397125575E+02  0.20709865791E+02  0.51100000000E-03 0.  1.
        -12    1    3    3    0    0 -0.22375206232E+02  0.66278749988E+01 -0.12958849766E+02  0.26692889843E+02  0.00000000000E+00 0.  1.
</event>
<event>
 7    1  0.6152255E-013  0.5930192E+02  0.7816164E-02  0.1266605E+00
        -11   -1    0    0    0    0  0.00000000000E+00  0.00000000000E+00  0.45593999997E+02  0.45594000000E+02  0.51100000000E-03 0. -1.
         11   -1    0    0    0    0 -0.00000000000E+00 -0.00000000000E+00 -0.45593999997E+02  0.45594000000E+02  0.51100000000E-03 0.  1.
    9900012    2    1    2    0    0 -0.29250133538E+02 -0.18235660589E+01 -0.12562888936E+02  0.59301923358E+02  0.49999962304E+02 0.  0.
        -12    1    1    2    0    0  0.29250133538E+02  0.18235660589E+01  0.12562888936E+02  0.31886076642E+02  0.00000000000E+00 0.  1.
         11    1    3    3    0    0 -0.65185951922E+01 -0.62240076408E+01  0.10992337242E+02  0.14214845504E+02  0.51100000000E-03 0. -1.
        -11    1    3    3    0    0 -0.14267378330E+01  0.14583292746E+02 -0.69349067251E+01  0.16211136287E+02  0.51100000000E-03 0.  1.
        -12    1    3    3    0    0 -0.21304800513E+02 -0.10182851164E+02 -0.16620319453E+02  0.28875941568E+02  0.00000000000E+00 0.  1.
</event>
<event>
 7    1  0.6152255E-013  0.5930194E+02  0.7816164E-02  0.1266605E+00
        -11   -1    0    0    0    0  0.00000000000E+00  0.00000000000E+00  0.45593999997E+02  0.45594000000E+02  0.51100000000E-03 0.  1.
         11   -1    0    0    0    0 -0.00000000000E+00 -0.00000000000E+00 -0.45593999997E+02  0.45594000000E+02  0.51100000000E-03 0. -1.
    9900012    2    1    2    0    0 -0.10701382665E+02 -0.58774528982E+01 -0.29456013640E+02  0.59301940615E+02  0.49999993776E+02 0.  0.
        -12    1    1    2    0    0  0.10701382665E+02  0.58774528982E+01  0.29456013640E+02  0.31886059385E+02  0.00000000000E+00 0.  1.
         11    1    3    3    0    0 -0.88088306742E+00  0.18867137689E+01  0.83397031059E+01  0.85957135818E+01  0.51100000000E-03 0. -1.
        -11    1    3    3    0    0 -0.11854278625E+02  0.99907130787E+01 -0.21605428422E+02  0.26591968846E+02  0.51100000000E-03 0.  1.
         12    1    3    3    0    0  0.20337790268E+01 -0.17754879746E+02 -0.16190288324E+02  0.24114258187E+02  0.00000000000E+00 0. -1.
</event>
<event>
 7    1  0.6152255E-013  0.5930195E+02  0.7816164E-02  0.1266605E+00
        -11   -1    0    0    0    0  0.00000000000E+00  0.00000000000E+00  0.45593999997E+02  0.45594000000E+02  0.51100000000E-03 0. -1.
         11   -1    0    0    0    0 -0.00000000000E+00 -0.00000000000E+00 -0.45593999997E+02  0.45594000000E+02  0.51100000000E-03 0.  1.
    9900012    2    1    2    0    0  0.40287615271E+01 -0.31492396108E+02 -0.29526421996E+01  0.59301952455E+02  0.50000015370E+02 0.  0.
        -12    1    1    2    0    0 -0.40287615271E+01  0.31492396108E+02  0.29526421996E+01  0.31886047545E+02  0.00000000000E+00 0.  1.
         11    1    3    3    0    0 -0.75995519240E-02 -0.75573612850E+01 -0.29825655035E+01  0.81246208889E+01  0.51100000000E-03 0. -1.
        -11    1    3    3    0    0 -0.16248843660E+02  0.39142037626E+01  0.47951209925E+00  0.16720521627E+02  0.51100000000E-03 0.  1.
         12    1    3    3    0    0  0.20285204739E+02 -0.27849238586E+02 -0.44958879541E+00  0.34456809939E+02  0.00000000000E+00 0. -1.
</event>
<event>
 7    1  0.6152255E-013  0.5930189E+02  0.7816164E-02  0.1266605E+00
        -11   -1    0    0    0    0  0.00000000000E+00  0.00000000000E+00  0.45593999997E+02  0.45594000000E+02  0.51100000000E-03 0.  1.
         11   -1    0    0    0    0 -0.00000000000E+00 -0.00000000000E+00 -0.45593999997E+02  0.45594000000E+02  0.51100000000E-03 0. -1.
    9900012    2    1    2    0    0 -0.29241591431E+02  0.12159745818E+02 -0.37140084338E+01  0.59301891011E+02  0.49999903310E+02 0.  0.
        -12    1    1    2    0    0  0.29241591431E+02 -0.12159745818E+02  0.37140084338E+01  0.31886108989E+02  0.00000000000E+00 0.  1.
         11    1    3    3    0    0 -0.21982054448E+02 -0.56982380236E+01 -0.14782054246E+01  0.22756663329E+02  0.51100000000E-03 0. -1.
        -11    1    3    3    0    0  0.10924909295E+02  0.28180164323E+00 -0.26750403484E+01  0.11251173112E+02  0.51100000000E-03 0.  1.
         12    1    3    3    0    0 -0.18184446279E+02  0.17576182199E+02  0.43923733922E+00  0.25294054570E+02  0.00000000000E+00 0. -1.
</event>
<event>
 7    1  0.6152255E-013  0.5930194E+02  0.7816164E-02  0.1266605E+00
        -11   -1    0    0    0    0  0.00000000000E+00  0.00000000000E+00  0.45593999997E+02  0.45594000000E+02  0.51100000000E-03 0.  1.
         11   -1    0    0    0    0 -0.00000000000E+00 -0.00000000000E+00 -0.45593999997E+02  0.45594000000E+02  0.51100000000E-03 0. -1.
    9900012    2    1    2    0    0 -0.11171939685E+02 -0.17051351457E+02 -0.24518563007E+02  0.59301941060E+02  0.49999994587E+02 0.  0.
        -12    1    1    2    0    0  0.11171939685E+02  0.17051351457E+02  0.24518563007E+02  0.31886058940E+02  0.00000000000E+00 0.  1.
         11    1    3    3    0    0  0.45370394067E+01 -0.70390685037E+01 -0.15351699156E+02  0.17487363415E+02  0.51100000000E-03 0. -1.
        -11    1    3    3    0    0 -0.77402795845E+01 -0.23633728849E+02 -0.38702319357E+01  0.25168308701E+02  0.51100000000E-03 0.  1.
        -12    1    3    3    0    0 -0.79686995071E+01  0.13621445896E+02 -0.52966319151E+01  0.16646268944E+02  0.00000000000E+00 0.  1.
</event>
<event>
 7    1  0.6152255E-013  0.5930194E+02  0.7816164E-02  0.1266605E+00
        -11   -1    0    0    0    0  0.00000000000E+00  0.00000000000E+00  0.45593999997E+02  0.45594000000E+02  0.51100000000E-03 0. -1.
         11   -1    0    0    0    0 -0.00000000000E+00 -0.00000000000E+00 -0.45593999997E+02  0.45594000000E+02  0.51100000000E-03 0.  1.
    9900012    2    1    2    0    0 -0.24256370695E+02  0.20440432746E+02 -0.32462076815E+01  0.59301942319E+02  0.49999996884E+02 0.  0.
        -12    1    1    2    0    0  0.24256370695E+02 -0.20440432746E+02  0.32462076815E+01  0.31886057681E+02  0.00000000000E+00 0.  1.
         11    1    3    3    0    0 -0.16574975625E+02  0.34142090753E+02 -0.43527171114E+01  0.38201548719E+02  0.51100000000E-03 0. -1.
        -11    1    3    3    0    0 -0.76136369121E+01 -0.47579321663E+00  0.18631913683E+01  0.78527274593E+01  0.51100000000E-03 0.  1.
        -12    1    3    3    0    0 -0.67758157507E-01 -0.13225864791E+02 -0.75668193831E+00  0.13247666141E+02  0.00000000000E+00 0.  1.
</event>
<event>
 7    1  0.6152255E-013  0.5930188E+02  0.7816164E-02  0.1266605E+00
        -11   -1    0    0    0    0  0.00000000000E+00  0.00000000000E+00  0.45593999997E+02  0.45594000000E+02  0.51100000000E-03 0.  1.
         11   -1    0    0    0    0 -0.00000000000E+00 -0.00000000000E+00 -0.45593999997E+02  0.45594000000E+02  0.51100000000E-03 0. -1.
    9900012    2    1    2    0    0  0.16994235722E+02  0.19398390051E+02 -0.18751612337E+02  0.59301881553E+02  0.49999886061E+02 0.  0.
        -12    1    1    2    0    0 -0.16994235722E+02 -0.19398390051E+02  0.18751612337E+02  0.31886118447E+02  0.00000000000E+00 0.  1.
         11    1    3    3    0    0  0.58469490501E+01 -0.67722273526E+01 -0.16267283177E+02  0.18565408122E+02  0.51100000000E-03 0. -1.
        -11    1    3    3    0    0 -0.52600391899E+00 -0.14098778580E+01  0.86535055966E+01  0.87833703707E+01  0.51100000000E-03 0.  1.
        -12    1    3    3    0    0  0.11673290591E+02  0.27580495262E+02 -0.11137834757E+02  0.31953103060E+02  0.00000000000E+00 0.  1.
</event>
<event>
 7    1  0.6152255E-013  0.5930195E+02  0.7816164E-02  0.1266605E+00
        -11   -1    0    0    0    0  0.00000000000E+00  0.00000000000E+00  0.45593999997E+02  0.45594000000E+02  0.51100000000E-03 0. -1.
         11   -1    0    0    0    0 -0.00000000000E+00 -0.00000000000E+00 -0.45593999997E+02  0.45594000000E+02  0.51100000000E-03 0.  1.
    9900012    2    1    2    0    0  0.22815736665E+02  0.11142977174E+02  0.19287215151E+02  0.59301945868E+02  0.50000003356E+02 0.  0.
        -12    1    1    2    0    0 -0.22815736665E+02 -0.11142977174E+02 -0.19287215151E+02  0.31886054132E+02  0.00000000000E+00 0.  1.
         11    1    3    3    0    0  0.89972765401E+01  0.14731907244E+01  0.24251500531E+02  0.25908619306E+02  0.51100000000E-03 0. -1.
        -11    1    3    3    0    0  0.14658444819E+02  0.17946875440E+02  0.94013166378E+00  0.23191468051E+02  0.51100000000E-03 0.  1.
        -12    1    3    3    0    0 -0.83998469457E+00 -0.82770889900E+01 -0.59044170443E+01  0.10201858511E+02  0.00000000000E+00 0.  1.
</event>
<event>
 7    1  0.6152255E-013  0.5930194E+02  0.7816164E-02  0.1266605E+00
        -11   -1    0    0    0    0  0.00000000000E+00  0.00000000000E+00  0.45593999997E+02  0.45594000000E+02  0.51100000000E-03 0. -1.
         11   -1    0    0    0    0 -0.00000000000E+00 -0.00000000000E+00 -0.45593999997E+02  0.45594000000E+02  0.51100000000E-03 0.  1.
    9900012    2    1    2    0    0 -0.44351176489E+00 -0.22138188698E+02  0.22943950201E+02  0.59301937961E+02  0.49999988936E+02 0.  0.
        -12    1    1    2    0    0  0.44351176489E+00  0.22138188698E+02 -0.22943950201E+02  0.31886062039E+02  0.00000000000E+00 0.  1.
         11    1    3    3    0    0  0.14499351394E+02 -0.29426917942E+02  0.80785877052E+01  0.33785178259E+02  0.51100000000E-03 0. -1.
        -11    1    3    3    0    0 -0.13964699292E+01  0.27773011121E+01  0.99375540028E+01  0.10412420926E+02  0.51100000000E-03 0.  1.
        -12    1    3    3    0    0 -0.13546393230E+02  0.45114281317E+01  0.49278084929E+01  0.15104338776E+02  0.00000000000E+00 0.  1.
</event>
<event>
 7    1  0.6152255E-013  0.5930194E+02  0.7816164E-02  0.1266605E+00
        -11   -1    0    0    0    0  0.00000000000E+00  0.00000000000E+00  0.45593999997E+02  0.45594000000E+02  0.51100000000E-03 0. -1.
         11   -1    0    0    0    0 -0.00000000000E+00 -0.00000000000E+00 -0.45593999997E+02  0.45594000000E+02  0.51100000000E-03 0.  1.
    9900012    2    1    2    0    0  0.11317383362E+02 -0.25161690388E+02  0.15985216188E+02  0.59301937749E+02  0.49999988549E+02 0.  0.
        -12    1    1    2    0    0 -0.11317383362E+02  0.25161690388E+02 -0.15985216188E+02  0.31886062251E+02  0.00000000000E+00 0.  1.
         11    1    3    3    0    0  0.17991669162E+02 -0.20639362627E+02 -0.88455996151E+00  0.27394632603E+02  0.51100000000E-03 0. -1.
        -11    1    3    3    0    0 -0.13223923731E+01 -0.10806977346E+02 -0.22178872263E+01  0.11111188278E+02  0.51100000000E-03 0.  1.
         12    1    3    3    0    0 -0.53518934268E+01  0.62846495844E+01  0.19087663375E+02  0.20796116868E+02  0.00000000000E+00 0. -1.
</event>
<event>
 7    1  0.8122760E-013  0.5930194E+02  0.7816164E-02  0.1266605E+00
        -11   -1    0    0    0    0  0.00000000000E+00  0.00000000000E+00  0.45593999997E+02  0.45594000000E+02  0.51100000000E-03 0. -1.
         11   -1    0    0    0    0 -0.00000000000E+00 -0.00000000000E+00 -0.45593999997E+02  0.45594000000E+02  0.51100000000E-03 0.  1.
    9900012    2    1    2    0    0 -0.18339009676E+02 -0.82661984612E+01  0.24740081228E+02  0.59301938279E+02  0.49999989515E+02 0.  0.
        -12    1    1    2    0    0  0.18339009676E+02  0.82661984612E+01 -0.24740081228E+02  0.31886061721E+02  0.00000000000E+00 0.  1.
         11    1    3    3    0    0 -0.52925950361E+01 -0.11916325636E+02 -0.63760601359E+01  0.14514286824E+02  0.51100000000E-03 0. -1.
        -11    1    3    3    0    0  0.40657041639E+01  0.99014966368E+01  0.27101787240E+01  0.11041496954E+02  0.51100000000E-03 0.  1.
         12    1    3    3    0    0 -0.17112118804E+02 -0.62513694617E+01  0.28405962640E+02  0.33746154501E+02  0.00000000000E+00 0. -1.
</event>
<event>
 7    1  0.6152255E-013  0.5930193E+02  0.7816164E-02  0.1266605E+00
        -11   -1    0    0    0    0  0.00000000000E+00  0.00000000000E+00  0.45593999997E+02  0.45594000000E+02  0.51100000000E-03 0. -1.
         11   -1    0    0    0    0 -0.00000000000E+00 -0.00000000000E+00 -0.45593999997E+02  0.45594000000E+02  0.51100000000E-03 0.  1.
    9900012    2    1    2    0    0 -0.96120708792E+01  0.11946826410E+02  0.27957162456E+02  0.59301929366E+02  0.49999973261E+02 0.  0.
        -12    1    1    2    0    0  0.96120708792E+01 -0.11946826410E+02 -0.27957162456E+02  0.31886070634E+02  0.00000000000E+00 0.  1.
         11    1    3    3    0    0  0.18189461045E+01 -0.90384858447E+01  0.21364349439E+02  0.23268825035E+02  0.51100000000E-03 0. -1.
        -11    1    3    3    0    0  0.58421582401E+01  0.24580391055E+01  0.85320983958E+01  0.10628709820E+02  0.51100000000E-03 0.  1.
         12    1    3    3    0    0 -0.17273175224E+02  0.18527273150E+02 -0.19392853785E+01  0.25404394511E+02  0.00000000000E+00 0. -1.
</event>
<event>
 7    1  0.6152255E-013  0.5930197E+02  0.7816164E-02  0.1266605E+00
        -11   -1    0    0    0    0  0.00000000000E+00  0.00000000000E+00  0.45593999997E+02  0.45594000000E+02  0.51100000000E-03 0.  1.
         11   -1    0    0    0    0 -0.00000000000E+00 -0.00000000000E+00 -0.45593999997E+02  0.45594000000E+02  0.51100000000E-03 0. -1.
    9900012    2    1    2    0    0  0.14015231762E+02  0.88232143018E+01 -0.27247804293E+02  0.59301973738E+02  0.50000054185E+02 0.  0.
        -12    1    1    2    0    0 -0.14015231762E+02 -0.88232143018E+01  0.27247804293E+02  0.31886026262E+02  0.00000000000E+00 0.  1.
         11    1    3    3    0    0 -0.11848442068E+02 -0.60297679726E+01 -0.29985219174E+00  0.13297879261E+02  0.51100000000E-03 0. -1.
        -11    1    3    3    0    0  0.72643161229E+00  0.10245292499E+02 -0.23564567315E+01  0.10537865527E+02  0.51100000000E-03 0.  1.
         12    1    3    3    0    0  0.25137242218E+02  0.46076897750E+01 -0.24591495370E+02  0.35466228950E+02  0.00000000000E+00 0. -1.
</event>
<event>
 7    1  0.6152255E-013  0.5930200E+02  0.7816164E-02  0.1266605E+00
        -11   -1    0    0    0    0  0.00000000000E+00  0.00000000000E+00  0.45593999997E+02  0.45594000000E+02  0.51100000000E-03 0. -1.
         11   -1    0    0    0    0 -0.00000000000E+00 -0.00000000000E+00 -0.45593999997E+02  0.45594000000E+02  0.51100000000E-03 0.  1.
    9900012    2    1    2    0    0  0.49277295703E+01  0.31210864477E+02  0.42797619969E+01  0.59302000833E+02  0.50000103599E+02 0.  0.
        -12    1    1    2    0    0 -0.49277295703E+01 -0.31210864477E+02 -0.42797619969E+01  0.31885999167E+02  0.00000000000E+00 0.  1.
         11    1    3    3    0    0  0.13583541838E+02  0.16288588980E+02  0.26100971346E+01  0.21369214940E+02  0.51100000000E-03 0. -1.
        -11    1    3    3    0    0  0.77580300808E+01  0.11798207977E+01 -0.10653769433E+02  0.13231848368E+02  0.51100000000E-03 0.  1.
         12    1    3    3    0    0 -0.16413842348E+02  0.13742454699E+02  0.12323434295E+02  0.24700937525E+02  0.00000000000E+00 0. -1.
</event>
<event>
 7    1  0.6152255E-013  0.5930194E+02  0.7816164E-02  0.1266605E+00
        -11   -1    0    0    0    0  0.00000000000E+00  0.00000000000E+00  0.45593999997E+02  0.45594000000E+02  0.51100000000E-03 0.  1.
         11   -1    0    0    0    0 -0.00000000000E+00 -0.00000000000E+00 -0.45593999997E+02  0.45594000000E+02  0.51100000000E-03 0. -1.
    9900012    2    1    2    0    0 -0.14285133144E+02 -0.91526196225E+01 -0.26997872819E+02  0.59301943303E+02  0.49999998679E+02 0.  0.
        -12    1    1    2    0    0  0.14285133144E+02  0.91526196225E+01  0.26997872819E+02  0.31886056697E+02  0.00000000000E+00 0.  1.
         11    1    3    3    0    0  0.25599930282E+01 -0.91830676581E+01  0.32091387075E+01  0.10058870087E+02  0.51100000000E-03 0. -1.
        -11    1    3    3    0    0 -0.90212400692E+01 -0.14290322247E+02 -0.28098141895E+02  0.32788742894E+02  0.51100000000E-03 0.  1.
        -12    1    3    3    0    0 -0.78238861033E+01  0.14320770283E+02 -0.21088696315E+01  0.16454330323E+02  0.00000000000E+00 0.  1.
</event>
<event>
 7    1  0.6152255E-013  0.5930202E+02  0.7816164E-02  0.1266604E+00
        -11   -1    0    0    0    0  0.00000000000E+00  0.00000000000E+00  0.45593999997E+02  0.45594000000E+02  0.51100000000E-03 0. -1.
         11   -1    0    0    0    0 -0.00000000000E+00 -0.00000000000E+00 -0.45593999997E+02  0.45594000000E+02  0.51100000000E-03 0.  1.
    9900012    2    1    2    0    0  0.15496621622E+02  0.27815477618E+02 -0.16939535013E+01  0.59302022592E+02  0.50000143282E+02 0.  0.
        -12    1    1    2    0    0 -0.15496621622E+02 -0.27815477618E+02  0.16939535013E+01  0.31885977408E+02  0.00000000000E+00 0.  1.
         11    1    3    3    0    0 -0.76846542377E+00  0.78866394255E+01 -0.57214859994E+01  0.97736903388E+01  0.51100000000E-03 0. -1.
        -11    1    3    3    0    0 -0.39844650377E+01 -0.66570084605E+01 -0.10527106591E+02  0.13077144058E+02  0.51100000000E-03 0.  1.
        -12    1    3    3    0    0  0.20249552083E+02  0.26585846653E+02  0.14554639089E+02  0.36451188195E+02  0.00000000000E+00 0.  1.
</event>
<event>
 7    1  0.6152255E-013  0.5930194E+02  0.7816164E-02  0.1266605E+00
        -11   -1    0    0    0    0  0.00000000000E+00  0.00000000000E+00  0.45593999997E+02  0.45594000000E+02  0.51100000000E-03 0.  1.
         11   -1    0    0    0    0 -0.00000000000E+00 -0.00000000000E+00 -0.45593999997E+02  0.45594000000E+02  0.51100000000E-03 0. -1.
    9900012    2    1    2    0    0 -0.22211836115E+02 -0.18495915425E+02 -0.13463148494E+02  0.59301938494E+02  0.49999989908E+02 0.  0.
        -12    1    1    2    0    0  0.22211836115E+02  0.18495915425E+02  0.13463148494E+02  0.31886061506E+02  0.00000000000E+00 0.  1.
         11    1    3    3    0    0  0.99780959904E+01 -0.87574555334E+01  0.38246064365E+01  0.13816042909E+02  0.51100000000E-03 0. -1.
        -11    1    3    3    0    0  0.10301732613E+01  0.36047170322E+01  0.25721232040E+01  0.45465437277E+01  0.51100000000E-03 0.  1.
         12    1    3    3    0    0 -0.33220105366E+02 -0.13343176923E+02 -0.19859878135E+02  0.40939351857E+02  0.00000000000E+00 0. -1.
</event>
<event>
 7    1  0.6152255E-013  0.5930194E+02  0.7816164E-02  0.1266605E+00
        -11   -1    0    0    0    0  0.00000000000E+00  0.00000000000E+00  0.45593999997E+02  0.45594000000E+02  0.51100000000E-03 0. -1.
         11   -1    0    0    0    0 -0.00000000000E+00 -0.00000000000E+00 -0.45593999997E+02  0.45594000000E+02  0.51100000000E-03 0.  1.
    9900012    2    1    2    0    0 -0.62215714293E+01 -0.63337766333E+01  0.30625090067E+02  0.59301940051E+02  0.49999992747E+02 0.  0.
        -12    1    1    2    0    0  0.62215714293E+01  0.63337766333E+01 -0.30625090067E+02  0.31886059949E+02  0.00000000000E+00 0.  1.
         11    1    3    3    0    0 -0.16223355891E+01 -0.92083256094E+01 -0.28834075642E+01  0.97846447424E+01  0.51100000000E-03 0. -1.
        -11    1    3    3    0    0  0.19708748003E+01  0.96739751561E+01 -0.41356336599E+01  0.10703906242E+02  0.51100000000E-03 0.  1.
         12    1    3    3    0    0 -0.65701106405E+01 -0.67994261800E+01  0.37644131291E+02  0.38813389067E+02  0.00000000000E+00 0. -1.
</event>
<event>
 7    1  0.6152255E-013  0.5930193E+02  0.7816164E-02  0.1266605E+00
        -11   -1    0    0    0    0  0.00000000000E+00  0.00000000000E+00  0.45593999997E+02  0.45594000000E+02  0.51100000000E-03 0.  1.
         11   -1    0    0    0    0 -0.00000000000E+00 -0.00000000000E+00 -0.45593999997E+02  0.45594000000E+02  0.51100000000E-03 0. -1.
    9900012    2    1    2    0    0 -0.29160951637E+02 -0.92164343638E+01 -0.90231651400E+01  0.59301932951E+02  0.49999979798E+02 0.  0.
        -12    1    1    2    0    0  0.29160951637E+02  0.92164343638E+01  0.90231651400E+01  0.31886067049E+02  0.00000000000E+00 0.  1.
         11    1    3    3    0    0 -0.10716136714E+02 -0.20047041347E+01 -0.14081480043E+02  0.17808495310E+02  0.51100000000E-03 0. -1.
        -11    1    3    3    0    0 -0.27989030995E+02 -0.11318394431E+02  0.62623896582E+00  0.30197418500E+02  0.51100000000E-03 0.  1.
        -12    1    3    3    0    0  0.95442160732E+01  0.41066642015E+01  0.44320759370E+01  0.11296019141E+02  0.00000000000E+00 0.  1.
</event>
<event>
 7    1  0.6152255E-013  0.5930192E+02  0.7816164E-02  0.1266605E+00
        -11   -1    0    0    0    0  0.00000000000E+00  0.00000000000E+00  0.45593999997E+02  0.45594000000E+02  0.51100000000E-03 0.  1.
         11   -1    0    0    0    0 -0.00000000000E+00 -0.00000000000E+00 -0.45593999997E+02  0.45594000000E+02  0.51100000000E-03 0. -1.
    9900012    2    1    2    0    0  0.27044104661E+02  0.15891013261E+02 -0.57283882456E+01  0.59301916338E+02  0.49999949501E+02 0.  0.
        -12    1    1    2    0    0 -0.27044104661E+02 -0.15891013261E+02  0.57283882456E+01  0.31886083662E+02  0.00000000000E+00 0.  1.
         11    1    3    3    0    0  0.12156368220E+02 -0.83649656853E+01 -0.49084161340E+01  0.15551285748E+02  0.51100000000E-03 0. -1.
        -11    1    3    3    0    0  0.93876003203E+01  0.41792390758E+01 -0.15273388957E+02  0.18408408121E+02  0.51100000000E-03 0.  1.
        -12    1    3    3    0    0  0.55001361205E+01  0.20076739871E+02  0.14453416846E+02  0.25342222470E+02  0.00000000000E+00 0.  1.
</event>
<event>
 7    1  0.6152255E-013  0.5930194E+02  0.7816164E-02  0.1266605E+00
        -11   -1    0    0    0    0  0.00000000000E+00  0.00000000000E+00  0.45593999997E+02  0.45594000000E+02  0.51100000000E-03 0.  1.
         11   -1    0    0    0    0 -0.00000000000E+00 -0.00000000000E+00 -0.45593999997E+02  0.45594000000E+02  0.51100000000E-03 0. -1.
    9900012    2    1    2    0    0  0.27207842620E+02  0.16122504097E+02 -0.40643174005E+01  0.59301944829E+02  0.50000001462E+02 0.  0.
        -12    1    1    2    0    0 -0.27207842620E+02 -0.16122504097E+02  0.40643174005E+01  0.31886055171E+02  0.00000000000E+00 0.  1.
         11    1    3    3    0    0  0.30157723314E+02  0.38961375279E+01 -0.25057033869E+01  0.30511419384E+02  0.51100000000E-03 0. -1.
        -11    1    3    3    0    0 -0.12276777377E+01 -0.80493787083E+01  0.12877426971E+01  0.82436625193E+01  0.51100000000E-03 0.  1.
        -12    1    3    3    0    0 -0.17222029558E+01  0.20275745277E+02 -0.28463567107E+01  0.20546862926E+02  0.00000000000E+00 0.  1.
</event>
<event>
 7    1  0.6152255E-013  0.5930191E+02  0.7816164E-02  0.1266605E+00
        -11   -1    0    0    0    0  0.00000000000E+00  0.00000000000E+00  0.45593999997E+02  0.45594000000E+02  0.51100000000E-03 0.  1.
         11   -1    0    0    0    0 -0.00000000000E+00 -0.00000000000E+00 -0.45593999997E+02  0.45594000000E+02  0.51100000000E-03 0. -1.
    9900012    2    1    2    0    0  0.10653922897E+02 -0.76725180133E+01 -0.29057686280E+02  0.59301909965E+02  0.49999937878E+02 0.  0.
        -12    1    1    2    0    0 -0.10653922897E+02  0.76725180133E+01  0.29057686280E+02  0.31886090035E+02  0.00000000000E+00 0.  1.
         11    1    3    3    0    0  0.11807470081E+02 -0.13992404951E+02 -0.13434578267E+02  0.22708844961E+02  0.51100000000E-03 0. -1.
        -11    1    3    3    0    0 -0.72867342770E+01 -0.11609701803E+02 -0.36746218882E+01  0.14191001327E+02  0.51100000000E-03 0.  1.
         12    1    3    3    0    0  0.61331870931E+01  0.17929588740E+02 -0.11948486125E+02  0.22402063677E+02  0.00000000000E+00 0. -1.
</event>
<event>
 7    1  0.6152255E-013  0.5930194E+02  0.7816164E-02  0.1266605E+00
        -11   -1    0    0    0    0  0.00000000000E+00  0.00000000000E+00  0.45593999997E+02  0.45594000000E+02  0.51100000000E-03 0. -1.
         11   -1    0    0    0    0 -0.00000000000E+00 -0.00000000000E+00 -0.45593999997E+02  0.45594000000E+02  0.51100000000E-03 0.  1.
    9900012    2    1    2    0    0 -0.19507143597E+02  0.97792889785E+01  0.23249901102E+02  0.59301936500E+02  0.49999986272E+02 0.  0.
        -12    1    1    2    0    0  0.19507143597E+02 -0.97792889785E+01 -0.23249901102E+02  0.31886063500E+02  0.00000000000E+00 0.  1.
         11    1    3    3    0    0 -0.30739496358E+01  0.98299119000E+01  0.66655112968E+01  0.12268063231E+02  0.51100000000E-03 0. -1.
        -11    1    3    3    0    0 -0.14640801793E+02  0.13358830888E+01  0.30010391728E+02  0.33417978285E+02  0.51100000000E-03 0.  1.
        -12    1    3    3    0    0 -0.17923921684E+01 -0.13865060103E+01 -0.13426001922E+02  0.13615894984E+02  0.00000000000E+00 0.  1.
</event>
<event>
 7    1  0.6152255E-013  0.5930199E+02  0.7816164E-02  0.1266605E+00
        -11   -1    0    0    0    0  0.00000000000E+00  0.00000000000E+00  0.45593999997E+02  0.45594000000E+02  0.51100000000E-03 0. -1.
         11   -1    0    0    0    0 -0.00000000000E+00 -0.00000000000E+00 -0.45593999997E+02  0.45594000000E+02  0.51100000000E-03 0.  1.
    9900012    2    1    2    0    0 -0.78518476951E+01 -0.28704810387E+02  0.11449884215E+02  0.59301992095E+02  0.50000087663E+02 0.  0.
        -12    1    1    2    0    0  0.78518476951E+01  0.28704810387E+02 -0.11449884215E+02  0.31886007905E+02  0.00000000000E+00 0.  1.
         11    1    3    3    0    0 -0.34056382696E+01 -0.29372251574E+02 -0.34942693220E+01  0.29774778806E+02  0.51100000000E-03 0.  1.
        -11    1    3    3    0    0 -0.54751997243E+00 -0.11962779891E+02  0.92633622435E+01  0.15139939272E+02  0.51100000000E-03 0. -1.
        -12    1    3    3    0    0 -0.38986894531E+01  0.12630221078E+02  0.56807912935E+01  0.14387274017E+02  0.00000000000E+00 0.  1.
</event>
<event>
 7    1  0.6152255E-013  0.5930194E+02  0.7816164E-02  0.1266605E+00
        -11   -1    0    0    0    0  0.00000000000E+00  0.00000000000E+00  0.45593999997E+02  0.45594000000E+02  0.51100000000E-03 0.  1.
         11   -1    0    0    0    0 -0.00000000000E+00 -0.00000000000E+00 -0.45593999997E+02  0.45594000000E+02  0.51100000000E-03 0. -1.
    9900012    2    1    2    0    0  0.25946596313E+02 -0.14394690712E+02 -0.11674225266E+02  0.59301944796E+02  0.50000001401E+02 0.  0.
        -12    1    1    2    0    0 -0.25946596313E+02  0.14394690712E+02  0.11674225266E+02  0.31886055204E+02  0.00000000000E+00 0.  1.
         11    1    3    3    0    0  0.13397753315E+02  0.52713219344E+01 -0.16318951476E+02  0.21762233487E+02  0.51100000000E-03 0. -1.
        -11    1    3    3    0    0 -0.13381914910E+01  0.38157819753E+01 -0.68353083866E+01  0.79418127371E+01  0.51100000000E-03 0.  1.
        -12    1    3    3    0    0  0.13887034488E+02 -0.23481794621E+02  0.11480034596E+02  0.29597898572E+02  0.00000000000E+00 0.  1.
</event>
<event>
 7    1  0.6152255E-013  0.5930195E+02  0.7816164E-02  0.1266605E+00
        -11   -1    0    0    0    0  0.00000000000E+00  0.00000000000E+00  0.45593999997E+02  0.45594000000E+02  0.51100000000E-03 0.  1.
         11   -1    0    0    0    0 -0.00000000000E+00 -0.00000000000E+00 -0.45593999997E+02  0.45594000000E+02  0.51100000000E-03 0. -1.
    9900012    2    1    2    0    0 -0.30398550885E+02 -0.95176738898E+01 -0.14360786123E+01  0.59301947658E+02  0.50000006621E+02 0.  0.
        -12    1    1    2    0    0  0.30398550885E+02  0.95176738898E+01  0.14360786123E+01  0.31886052342E+02  0.00000000000E+00 0.  1.
         11    1    3    3    0    0 -0.37585542979E+02 -0.88926218461E+01 -0.46431782462E+01  0.38901296492E+02  0.51100000000E-03 0. -1.
        -11    1    3    3    0    0 -0.43486135434E+01  0.66616691290E+00  0.69318422453E+01  0.82100338173E+01  0.51100000000E-03 0.  1.
        -12    1    3    3    0    0  0.11535605638E+02 -0.12912189566E+01 -0.37247426114E+01  0.12190617349E+02  0.00000000000E+00 0.  1.
</event>
<event>
 7    1  0.6152255E-013  0.5930193E+02  0.7816164E-02  0.1266605E+00
        -11   -1    0    0    0    0  0.00000000000E+00  0.00000000000E+00  0.45593999997E+02  0.45594000000E+02  0.51100000000E-03 0.  1.
         11   -1    0    0    0    0 -0.00000000000E+00 -0.00000000000E+00 -0.45593999997E+02  0.45594000000E+02  0.51100000000E-03 0. -1.
    9900012    2    1    2    0    0  0.23359042622E+02 -0.97311412898E+01 -0.19400560838E+02  0.59301925549E+02  0.49999966300E+02 0.  0.
        -12    1    1    2    0    0 -0.23359042622E+02  0.97311412898E+01  0.19400560838E+02  0.31886074451E+02  0.00000000000E+00 0.  1.
         11    1    3    3    0    0  0.21397579092E+02 -0.23026460918E+01 -0.15463906580E+02  0.26500773139E+02  0.51100000000E-03 0. -1.
        -11    1    3    3    0    0  0.32589170765E+01  0.39483096018E+01 -0.15622768821E+02  0.16440212745E+02  0.51100000000E-03 0.  1.
        -12    1    3    3    0    0 -0.12974535459E+01 -0.11376804800E+02  0.11686114562E+02  0.16360939665E+02  0.00000000000E+00 0.  1.
</event>
<event>
 7    1  0.6152255E-013  0.5930195E+02  0.7816164E-02  0.1266605E+00
        -11   -1    0    0    0    0  0.00000000000E+00  0.00000000000E+00  0.45593999997E+02  0.45594000000E+02  0.51100000000E-03 0.  1.
         11   -1    0    0    0    0 -0.00000000000E+00 -0.00000000000E+00 -0.45593999997E+02  0.45594000000E+02  0.51100000000E-03 0. -1.
    9900012    2    1    2    0    0 -0.28228244003E+02 -0.83937845847E+01 -0.12224186750E+02  0.59301950999E+02  0.50000012715E+02 0.  0.
        -12    1    1    2    0    0  0.28228244003E+02  0.83937845847E+01  0.12224186750E+02  0.31886049001E+02  0.00000000000E+00 0.  1.
         11    1    3    3    0    0 -0.11423334373E+02  0.58882759239E+01 -0.23857271661E+01  0.13071191832E+02  0.51100000000E-03 0.  1.
        -11    1    3    3    0    0  0.12168046290E+02 -0.81909342452E+01 -0.76513771671E+01  0.16543770040E+02  0.51100000000E-03 0. -1.
         12    1    3    3    0    0 -0.28972955921E+02 -0.60911262634E+01 -0.21870824169E+01  0.29686989127E+02  0.00000000000E+00 0. -1.
</event>
<event>
 7    1  0.6152255E-013  0.5930194E+02  0.7816164E-02  0.1266605E+00
        -11   -1    0    0    0    0  0.00000000000E+00  0.00000000000E+00  0.45593999997E+02  0.45594000000E+02  0.51100000000E-03 0.  1.
         11   -1    0    0    0    0 -0.00000000000E+00 -0.00000000000E+00 -0.45593999997E+02  0.45594000000E+02  0.51100000000E-03 0. -1.
    9900012    2    1    2    0    0  0.12441136393E+02 -0.11155291595E+02 -0.27156916381E+02  0.59301944856E+02  0.50000001511E+02 0.  0.
        -12    1    1    2    0    0 -0.12441136393E+02  0.11155291595E+02  0.27156916381E+02  0.31886055144E+02  0.00000000000E+00 0.  1.
         11    1    3    3    0    0 -0.81758915492E+01 -0.16506156080E+01 -0.20926537698E+02  0.22527532373E+02  0.51100000000E-03 0. -1.
        -11    1    3    3    0    0  0.12826380497E+02 -0.18320712891E+02  0.19434241053E+01  0.22448640382E+02  0.51100000000E-03 0.  1.
         12    1    3    3    0    0  0.77906474448E+01  0.88160369034E+01 -0.81738027883E+01  0.14325772102E+02  0.00000000000E+00 0. -1.
</event>
<event>
 7    1  0.6152255E-013  0.5930201E+02  0.7816164E-02  0.1266605E+00
        -11   -1    0    0    0    0  0.00000000000E+00  0.00000000000E+00  0.45593999997E+02  0.45594000000E+02  0.51100000000E-03 0.  1.
         11   -1    0    0    0    0 -0.00000000000E+00 -0.00000000000E+00 -0.45593999997E+02  0.45594000000E+02  0.51100000000E-03 0. -1.
    9900012    2    1    2    0    0 -0.53921342765E+01 -0.29912698957E+02 -0.96369924652E+01  0.59302010997E+02  0.50000122135E+02 0.  0.
        -12    1    1    2    0    0  0.53921342765E+01  0.29912698957E+02  0.96369924652E+01  0.31885989003E+02  0.00000000000E+00 0.  1.
         11    1    3    3    0    0  0.74037442482E+01 -0.17936112169E+02 -0.16960091166E+02  0.25771384154E+02  0.51100000000E-03 0. -1.
        -11    1    3    3    0    0  0.10887857390E+00  0.80872383165E+01 -0.12445259935E+01  0.81831609627E+01  0.51100000000E-03 0.  1.
        -12    1    3    3    0    0 -0.12904757099E+02 -0.20063825105E+02  0.85676246941E+01  0.25347465879E+02  0.00000000000E+00 0.  1.
</event>
<event>
 7    1  0.6152255E-013  0.5930194E+02  0.7816164E-02  0.1266605E+00
        -11   -1    0    0    0    0  0.00000000000E+00  0.00000000000E+00  0.45593999997E+02  0.45594000000E+02  0.51100000000E-03 0.  1.
         11   -1    0    0    0    0 -0.00000000000E+00 -0.00000000000E+00 -0.45593999997E+02  0.45594000000E+02  0.51100000000E-03 0. -1.
    9900012    2    1    2    0    0  0.12350539964E+02 -0.15116922348E+02 -0.25212366278E+02  0.59301943612E+02  0.49999999241E+02 0.  0.
        -12    1    1    2    0    0 -0.12350539964E+02  0.15116922348E+02  0.25212366278E+02  0.31886056388E+02  0.00000000000E+00 0.  1.
         11    1    3    3    0    0 -0.15188529653E+00 -0.18252974683E+02 -0.23680873547E+01  0.18406574692E+02  0.51100000000E-03 0. -1.
        -11    1    3    3    0    0  0.21256827013E+02  0.58141940306E+01 -0.79798676350E+01  0.23437914468E+02  0.51100000000E-03 0.  1.
         12    1    3    3    0    0 -0.87544017526E+01 -0.26781416959E+01 -0.14864411288E+02  0.17457454452E+02  0.00000000000E+00 0. -1.
</event>
<event>
 7    1  0.6152255E-013  0.5930195E+02  0.7816164E-02  0.1266605E+00
        -11   -1    0    0    0    0  0.00000000000E+00  0.00000000000E+00  0.45593999997E+02  0.45594000000E+02  0.51100000000E-03 0. -1.
         11   -1    0    0    0    0 -0.00000000000E+00 -0.00000000000E+00 -0.45593999997E+02  0.45594000000E+02  0.51100000000E-03 0.  1.
    9900012    2    1    2    0    0 -0.15762615943E+02 -0.16808617533E+02  0.22039287821E+02  0.59301954583E+02  0.50000019250E+02 0.  0.
        -12    1    1    2    0    0  0.15762615943E+02  0.16808617533E+02 -0.22039287821E+02  0.31886045417E+02  0.00000000000E+00 0.  1.
         11    1    3    3    0    0  0.41830226908E+01 -0.28792198336E+02  0.13362181620E+02  0.32016187495E+02  0.51100000000E-03 0. -1.
        -11    1    3    3    0    0 -0.41678147897E+01  0.30551377315E+01  0.75141699824E+01  0.91196105983E+01  0.51100000000E-03 0.  1.
        -12    1    3    3    0    0 -0.15777823844E+02  0.89284430715E+01  0.11629362184E+01  0.18166156489E+02  0.00000000000E+00 0.  1.
</event>
<event>
 7    1  0.6152255E-013  0.5930192E+02  0.7816164E-02  0.1266605E+00
        -11   -1    0    0    0    0  0.00000000000E+00  0.00000000000E+00  0.45593999997E+02  0.45594000000E+02  0.51100000000E-03 0. -1.
         11   -1    0    0    0    0 -0.00000000000E+00 -0.00000000000E+00 -0.45593999997E+02  0.45594000000E+02  0.51100000000E-03 0.  1.
    9900012    2    1    2    0    0  0.16460718826E+02 -0.25681184474E+02  0.92867503609E+01  0.59301917887E+02  0.49999952326E+02 0.  0.
        -12    1    1    2    0    0 -0.16460718826E+02  0.25681184474E+02 -0.92867503609E+01  0.31886082113E+02  0.00000000000E+00 0.  1.
         11    1    3    3    0    0  0.48091070166E+01 -0.56067824001E+01  0.88805806994E+01  0.11551113929E+02  0.51100000000E-03 0. -1.
        -11    1    3    3    0    0  0.23022297056E+02 -0.63650908085E+01  0.11764690286E+02  0.26626086466E+02  0.51100000000E-03 0.  1.
        -12    1    3    3    0    0 -0.11370685246E+02 -0.13709311265E+02 -0.11358520625E+02  0.21124717492E+02  0.00000000000E+00 0.  1.
</event>
<event>
 7    1  0.6152255E-013  0.5930192E+02  0.7816164E-02  0.1266605E+00
        -11   -1    0    0    0    0  0.00000000000E+00  0.00000000000E+00  0.45593999997E+02  0.45594000000E+02  0.51100000000E-03 0.  1.
         11   -1    0    0    0    0 -0.00000000000E+00 -0.00000000000E+00 -0.45593999997E+02  0.45594000000E+02  0.51100000000E-03 0. -1.
    9900012    2    1    2    0    0  0.29335168711E+02 -0.14634189407E+01 -0.12410821275E+02  0.59301918350E+02  0.49999953169E+02 0.  0.
        -12    1    1    2    0    0 -0.29335168711E+02  0.14634189407E+01  0.12410821275E+02  0.31886081650E+02  0.00000000000E+00 0.  1.
         11    1    3    3    0    0 -0.10031382023E+01 -0.80516709273E+00 -0.12539736368E+02  0.12605537225E+02  0.51100000000E-03 0. -1.
        -11    1    3    3    0    0  0.35514985550E+02 -0.20633489432E+01 -0.84628914816E+01  0.36567637878E+02  0.51100000000E-03 0.  1.
         12    1    3    3    0    0 -0.51766786366E+01  0.14050970953E+01  0.85918065744E+01  0.10128743247E+02  0.00000000000E+00 0. -1.
</event>
<event>
 7    1  0.6152255E-013  0.5930193E+02  0.7816164E-02  0.1266605E+00
        -11   -1    0    0    0    0  0.00000000000E+00  0.00000000000E+00  0.45593999997E+02  0.45594000000E+02  0.51100000000E-03 0.  1.
         11   -1    0    0    0    0 -0.00000000000E+00 -0.00000000000E+00 -0.45593999997E+02  0.45594000000E+02  0.51100000000E-03 0. -1.
    9900012    2    1    2    0    0 -0.11607435159E+02  0.29551817138E+02 -0.29459987314E+01  0.59301931637E+02  0.49999977402E+02 0.  0.
        -12    1    1    2    0    0  0.11607435159E+02 -0.29551817138E+02  0.29459987314E+01  0.31886068363E+02  0.00000000000E+00 0.  1.
         11    1    3    3    0    0  0.47843248798E+01  0.15164513415E+01  0.10981251922E+01  0.51376325701E+01  0.51100000000E-03 0. -1.
        -11    1    3    3    0    0 -0.15968981580E+02 -0.20840373236E+01  0.11954932419E+02  0.20056719414E+02  0.51100000000E-03 0.  1.
         12    1    3    3    0    0 -0.42277845869E+00  0.30119403120E+02 -0.15999056342E+02  0.34107579653E+02  0.00000000000E+00 0. -1.
</event>
<event>
 7    1  0.6152255E-013  0.5930194E+02  0.7816164E-02  0.1266605E+00
        -11   -1    0    0    0    0  0.00000000000E+00  0.00000000000E+00  0.45593999997E+02  0.45594000000E+02  0.51100000000E-03 0. -1.
         11   -1    0    0    0    0 -0.00000000000E+00 -0.00000000000E+00 -0.45593999997E+02  0.45594000000E+02  0.51100000000E-03 0.  1.
    9900012    2    1    2    0    0  0.63415540412E+01  0.26420754011E+02  0.16686802488E+02  0.59301938352E+02  0.49999989648E+02 0.  0.
        -12    1    1    2    0    0 -0.63415540412E+01 -0.26420754011E+02 -0.16686802488E+02  0.31886061648E+02  0.00000000000E+00 0.  1.
         11    1    3    3    0    0 -0.62248093982E+01 -0.59900479730E+01  0.19413879544E+02  0.21249179890E+02  0.51100000000E-03 0. -1.
        -11    1    3    3    0    0 -0.18443116743E+01  0.44069245589E+01  0.35338419487E+01  0.59422646187E+01  0.51100000000E-03 0.  1.
        -12    1    3    3    0    0  0.14410675114E+02  0.28003877425E+02 -0.62609190048E+01  0.32110493843E+02  0.00000000000E+00 0.  1.
</event>
<event>
 7    1  0.6152255E-013  0.5930195E+02  0.7816164E-02  0.1266605E+00
        -11   -1    0    0    0    0  0.00000000000E+00  0.00000000000E+00  0.45593999997E+02  0.45594000000E+02  0.51100000000E-03 0.  1.
         11   -1    0    0    0    0 -0.00000000000E+00 -0.00000000000E+00 -0.45593999997E+02  0.45594000000E+02  0.51100000000E-03 0. -1.
    9900012    2    1    2    0    0  0.22726012038E+01  0.23132351754E+02 -0.21827728456E+02  0.59301950645E+02  0.50000012069E+02 0.  0.
        -12    1    1    2    0    0 -0.22726012038E+01 -0.23132351754E+02  0.21827728456E+02  0.31886049355E+02  0.00000000000E+00 0.  1.
         11    1    3    3    0    0 -0.28083600538E+01  0.48115551955E+01 -0.12069348965E+02  0.13293123572E+02  0.51100000000E-03 0. -1.
        -11    1    3    3    0    0 -0.15548210952E+02  0.65093060201E+01  0.55368846156E+01  0.17741900129E+02  0.51100000000E-03 0.  1.
         12    1    3    3    0    0  0.20629172210E+02  0.11811490539E+02 -0.15295264106E+02  0.28266926945E+02  0.00000000000E+00 0. -1.
</event>
<event>
 7    1  0.6152255E-013  0.5930199E+02  0.7816164E-02  0.1266605E+00
        -11   -1    0    0    0    0  0.00000000000E+00  0.00000000000E+00  0.45593999997E+02  0.45594000000E+02  0.51100000000E-03 0.  1.
         11   -1    0    0    0    0 -0.00000000000E+00 -0.00000000000E+00 -0.45593999997E+02  0.45594000000E+02  0.51100000000E-03 0. -1.
    9900012    2    1    2    0    0  0.53615039125E+01  0.15274085928E+02 -0.27471331119E+02  0.59301992746E+02  0.50000088850E+02 0.  0.
        -12    1    1    2    0    0 -0.53615039125E+01 -0.15274085928E+02  0.27471331119E+02  0.31886007254E+02  0.00000000000E+00 0.  1.
         11    1    3    3    0    0 -0.33423022202E+01  0.12452102140E+02  0.39382336889E+00  0.12898873165E+02  0.51100000000E-03 0. -1.
        -11    1    3    3    0    0  0.83310366849E+01  0.13773324283E+02  0.38577748619E+00  0.16101535907E+02  0.51100000000E-03 0.  1.
        -12    1    3    3    0    0  0.37276944778E+00 -0.10951340495E+02 -0.28250931975E+02  0.30301583673E+02  0.00000000000E+00 0.  1.
</event>
<event>
 7    1  0.6152255E-013  0.5930197E+02  0.7816164E-02  0.1266605E+00
        -11   -1    0    0    0    0  0.00000000000E+00  0.00000000000E+00  0.45593999997E+02  0.45594000000E+02  0.51100000000E-03 0.  1.
         11   -1    0    0    0    0 -0.00000000000E+00 -0.00000000000E+00 -0.45593999997E+02  0.45594000000E+02  0.51100000000E-03 0. -1.
    9900012    2    1    2    0    0 -0.20008517897E+01  0.69367632536E+01 -0.31057961230E+02  0.59301967822E+02  0.50000043395E+02 0.  0.
        -12    1    1    2    0    0  0.20008517897E+01 -0.69367632536E+01  0.31057961230E+02  0.31886032178E+02  0.00000000000E+00 0.  1.
         11    1    3    3    0    0 -0.16837927119E+01  0.19580270070E+01  0.12524963200E+02  0.12788421759E+02  0.51100000000E-03 0. -1.
        -11    1    3    3    0    0 -0.48522902137E+01  0.40497505833E+01 -0.62290960391E+01  0.88739415048E+01  0.51100000000E-03 0.  1.
         12    1    3    3    0    0  0.45352311359E+01  0.92898566335E+00 -0.37353828391E+02  0.37639604558E+02  0.00000000000E+00 0. -1.
</event>
<event>
 7    1  0.6152255E-013  0.5930192E+02  0.7816164E-02  0.1266605E+00
        -11   -1    0    0    0    0  0.00000000000E+00  0.00000000000E+00  0.45593999997E+02  0.45594000000E+02  0.51100000000E-03 0. -1.
         11   -1    0    0    0    0 -0.00000000000E+00 -0.00000000000E+00 -0.45593999997E+02  0.45594000000E+02  0.51100000000E-03 0.  1.
    9900012    2    1    2    0    0  0.19641665581E+01  0.19757040191E+02  0.24950419733E+02  0.59301921027E+02  0.49999958053E+02 0.  0.
        -12    1    1    2    0    0 -0.19641665581E+01 -0.19757040191E+02 -0.24950419733E+02  0.31886078973E+02  0.00000000000E+00 0.  1.
         11    1    3    3    0    0 -0.25533942205E+01  0.17729681737E+02 -0.42463550147E+01  0.18409045812E+02  0.51100000000E-03 0. -1.
        -11    1    3    3    0    0  0.86371509892E+01  0.11472170644E+02  0.61002265209E+01  0.15602046031E+02  0.51100000000E-03 0.  1.
         12    1    3    3    0    0 -0.41195902106E+01 -0.94448121898E+01  0.23096548227E+02  0.25290829184E+02  0.00000000000E+00 0. -1.
</event>
<event>
 7    1  0.6152255E-013  0.5930195E+02  0.7816164E-02  0.1266605E+00
        -11   -1    0    0    0    0  0.00000000000E+00  0.00000000000E+00  0.45593999997E+02  0.45594000000E+02  0.51100000000E-03 0.  1.
         11   -1    0    0    0    0 -0.00000000000E+00 -0.00000000000E+00 -0.45593999997E+02  0.45594000000E+02  0.51100000000E-03 0. -1.
    9900012    2    1    2    0    0 -0.16056411969E+02  0.22723729043E+02 -0.15573817668E+02  0.59301952523E+02  0.50000015494E+02 0.  0.
        -12    1    1    2    0    0  0.16056411969E+02 -0.22723729043E+02  0.15573817668E+02  0.31886047477E+02  0.00000000000E+00 0.  1.
         11    1    3    3    0    0  0.27240104322E+01  0.17800744835E+02  0.61517764921E+01  0.19029742609E+02  0.51100000000E-03 0. -1.
        -11    1    3    3    0    0  0.63085707006E+01  0.55047690827E+01 -0.83914507751E+01  0.11853986389E+02  0.51100000000E-03 0.  1.
         12    1    3    3    0    0 -0.25088993102E+02 -0.58178487457E+00 -0.13334143385E+02  0.28418223525E+02  0.00000000000E+00 0. -1.
</event>
<event>
 7    1  0.6152255E-013  0.5930194E+02  0.7816164E-02  0.1266605E+00
        -11   -1    0    0    0    0  0.00000000000E+00  0.00000000000E+00  0.45593999997E+02  0.45594000000E+02  0.51100000000E-03 0. -1.
         11   -1    0    0    0    0 -0.00000000000E+00 -0.00000000000E+00 -0.45593999997E+02  0.45594000000E+02  0.51100000000E-03 0.  1.
    9900012    2    1    2    0    0 -0.22127506351E+02 -0.20190635062E+02  0.10928525592E+02  0.59301937948E+02  0.49999988913E+02 0.  0.
        -12    1    1    2    0    0  0.22127506351E+02  0.20190635062E+02 -0.10928525592E+02  0.31886062052E+02  0.00000000000E+00 0.  1.
         11    1    3    3    0    0 -0.11869626423E+02 -0.29744192830E+02  0.10890096811E+02  0.33826014358E+02  0.51100000000E-03 0. -1.
        -11    1    3    3    0    0  0.40316002725E+01  0.66957975989E+01 -0.58459562426E+01  0.97602618251E+01  0.51100000000E-03 0.  1.
        -12    1    3    3    0    0 -0.14289480201E+02  0.28577601692E+01  0.58843850230E+01  0.15715661765E+02  0.00000000000E+00 0.  1.
</event>
<event>
 7    1  0.6152255E-013  0.5930195E+02  0.7816164E-02  0.1266605E+00
        -11   -1    0    0    0    0  0.00000000000E+00  0.00000000000E+00  0.45593999997E+02  0.45594000000E+02  0.51100000000E-03 0.  1.
         11   -1    0    0    0    0 -0.00000000000E+00 -0.00000000000E+00 -0.45593999997E+02  0.45594000000E+02  0.51100000000E-03 0. -1.
    9900012    2    1    2    0    0  0.89533898376E+01 -0.20364536112E+02 -0.22843876643E+02  0.59301949434E+02  0.50000009860E+02 0.  0.
        -12    1    1    2    0    0 -0.89533898376E+01  0.20364536112E+02  0.22843876643E+02  0.31886050566E+02  0.00000000000E+00 0.  1.
         11    1    3    3    0    0  0.62301166593E+01 -0.52063840742E+01 -0.15219898974E+02  0.17250104746E+02  0.51100000000E-03 0. -1.
        -11    1    3    3    0    0  0.61422873436E+01 -0.21960765871E+02 -0.18091383824E+02  0.29108436928E+02  0.51100000000E-03 0.  1.
         12    1    3    3    0    0 -0.34190141653E+01  0.68026138334E+01  0.10467406155E+02  0.12943407760E+02  0.00000000000E+00 0. -1.
</event>
<event>
 7    1  0.6152255E-013  0.5930195E+02  0.7816164E-02  0.1266605E+00
        -11   -1    0    0    0    0  0.00000000000E+00  0.00000000000E+00  0.45593999997E+02  0.45594000000E+02  0.51100000000E-03 0. -1.
         11   -1    0    0    0    0 -0.00000000000E+00 -0.00000000000E+00 -0.45593999997E+02  0.45594000000E+02  0.51100000000E-03 0.  1.
    9900012    2    1    2    0    0  0.13825741488E+02  0.93403267876E+01  0.27172175557E+02  0.59301953574E+02  0.50000017409E+02 0.  0.
        -12    1    1    2    0    0 -0.13825741488E+02 -0.93403267876E+01 -0.27172175557E+02  0.31886046426E+02  0.00000000000E+00 0.  1.
         11    1    3    3    0    0  0.26923674821E+00  0.48969817314E+00  0.22318907261E+02  0.22325902318E+02  0.51100000000E-03 0. -1.
        -11    1    3    3    0    0  0.83689642383E+00  0.12949837644E+02  0.15264745946E+02  0.20035247932E+02  0.51100000000E-03 0.  1.
        -12    1    3    3    0    0  0.12719608316E+02 -0.40992090300E+01 -0.10411477650E+02  0.16940803323E+02  0.00000000000E+00 0.  1.
</event>
<event>
 7    1  0.6152255E-013  0.5930193E+02  0.7816164E-02  0.1266605E+00
        -11   -1    0    0    0    0  0.00000000000E+00  0.00000000000E+00  0.45593999997E+02  0.45594000000E+02  0.51100000000E-03 0.  1.
         11   -1    0    0    0    0 -0.00000000000E+00 -0.00000000000E+00 -0.45593999997E+02  0.45594000000E+02  0.51100000000E-03 0. -1.
    9900012    2    1    2    0    0 -0.14730103229E+02 -0.28123817633E+02  0.29658681322E+01  0.59301930421E+02  0.49999975185E+02 0.  0.
        -12    1    1    2    0    0  0.14730103229E+02  0.28123817633E+02 -0.29658681322E+01  0.31886069579E+02  0.00000000000E+00 0.  1.
         11    1    3    3    0    0 -0.14410132883E+02 -0.71853546035E+01  0.22393722730E+01  0.16257184225E+02  0.51100000000E-03 0. -1.
        -11    1    3    3    0    0 -0.45285234295E+01  0.10208708242E+02  0.29032663214E+01  0.11539246250E+02  0.51100000000E-03 0.  1.
         12    1    3    3    0    0  0.42085530834E+01 -0.31147171272E+02 -0.21767704622E+01  0.31505499947E+02  0.00000000000E+00 0. -1.
</event>
<event>
 7    1  0.6152255E-013  0.5930199E+02  0.7816164E-02  0.1266605E+00
        -11   -1    0    0    0    0  0.00000000000E+00  0.00000000000E+00  0.45593999997E+02  0.45594000000E+02  0.51100000000E-03 0. -1.
         11   -1    0    0    0    0 -0.00000000000E+00 -0.00000000000E+00 -0.45593999997E+02  0.45594000000E+02  0.51100000000E-03 0.  1.
    9900012    2    1    2    0    0 -0.10177969388E+02  0.28312361657E+02  0.10561101861E+02  0.59301988083E+02  0.50000080346E+02 0.  0.
        -12    1    1    2    0    0  0.10177969388E+02 -0.28312361657E+02 -0.10561101861E+02  0.31886011917E+02  0.00000000000E+00 0.  1.
         11    1    3    3    0    0 -0.11396248213E+02 -0.42131594931E+01 -0.76708966568E+01  0.14368988900E+02  0.51100000000E-03 0. -1.
        -11    1    3    3    0    0  0.10311372538E+02  0.53904843993E+01  0.13675133795E+01  0.11715452137E+02  0.51100000000E-03 0.  1.
         12    1    3    3    0    0 -0.90930937131E+01  0.27135036750E+02  0.16864485139E+02  0.33217547045E+02  0.00000000000E+00 0. -1.
</event>
<event>
 7    1  0.6152255E-013  0.5930193E+02  0.7816164E-02  0.1266605E+00
        -11   -1    0    0    0    0  0.00000000000E+00  0.00000000000E+00  0.45593999997E+02  0.45594000000E+02  0.51100000000E-03 0.  1.
         11   -1    0    0    0    0 -0.00000000000E+00 -0.00000000000E+00 -0.45593999997E+02  0.45594000000E+02  0.51100000000E-03 0. -1.
    9900012    2    1    2    0    0  0.10205224643E+02 -0.74613670397E+01 -0.29272897649E+02  0.59301934942E+02  0.49999983430E+02 0.  0.
        -12    1    1    2    0    0 -0.10205224643E+02  0.74613670397E+01  0.29272897649E+02  0.31886065058E+02  0.00000000000E+00 0.  1.
         11    1    3    3    0    0 -0.25697634880E+01  0.14911491985E+01 -0.26329463971E+02  0.26496563619E+02  0.51100000000E-03 0. -1.
        -11    1    3    3    0    0  0.54952563743E+01 -0.12792311737E+02 -0.13517845019E+02  0.19405494490E+02  0.51100000000E-03 0.  1.
        -12    1    3    3    0    0  0.72797317567E+01  0.38397954992E+01  0.10574411342E+02  0.13399876833E+02  0.00000000000E+00 0.  1.
</event>
<event>
 7    1  0.6152255E-013  0.5930196E+02  0.7816164E-02  0.1266605E+00
        -11   -1    0    0    0    0  0.00000000000E+00  0.00000000000E+00  0.45593999997E+02  0.45594000000E+02  0.51100000000E-03 0.  1.
         11   -1    0    0    0    0 -0.00000000000E+00 -0.00000000000E+00 -0.45593999997E+02  0.45594000000E+02  0.51100000000E-03 0. -1.
    9900012    2    1    2    0    0 -0.28945948864E+01  0.19711764248E+02 -0.24895528055E+02  0.59301958438E+02  0.50000026281E+02 0.  0.
        -12    1    1    2    0    0  0.28945948864E+01 -0.19711764248E+02  0.24895528055E+02  0.31886041562E+02  0.00000000000E+00 0.  1.
         11    1    3    3    0    0  0.90550608442E+00  0.34536650760E-01 -0.27001776444E+02  0.27016977355E+02  0.51100000000E-03 0. -1.
        -11    1    3    3    0    0  0.27544629484E+01 -0.34308931941E+01  0.65174615301E+01  0.78635487728E+01  0.51100000000E-03 0.  1.
         12    1    3    3    0    0 -0.65545639192E+01  0.23108120792E+02 -0.44112131417E+01  0.24421432310E+02  0.00000000000E+00 0. -1.
</event>
<event>
 7    1  0.6152255E-013  0.5930198E+02  0.7816164E-02  0.1266605E+00
        -11   -1    0    0    0    0  0.00000000000E+00  0.00000000000E+00  0.45593999997E+02  0.45594000000E+02  0.51100000000E-03 0.  1.
         11   -1    0    0    0    0 -0.00000000000E+00 -0.00000000000E+00 -0.45593999997E+02  0.45594000000E+02  0.51100000000E-03 0. -1.
    9900012    2    1    2    0    0  0.13702655876E+01  0.13139285278E+02 -0.29020676262E+02  0.59301982750E+02  0.50000070619E+02 0.  0.
        -12    1    1    2    0    0 -0.13702655876E+01 -0.13139285278E+02  0.29020676262E+02  0.31886017250E+02  0.00000000000E+00 0.  1.
         11    1    3    3    0    0  0.26653144846E+01  0.15345354155E+02 -0.13704429630E+02  0.20745967974E+02  0.51100000000E-03 0. -1.
        -11    1    3    3    0    0  0.26710438698E+01 -0.12331206884E+01  0.11275269359E+02  0.11652757672E+02  0.51100000000E-03 0.  1.
         12    1    3    3    0    0 -0.39660927668E+01 -0.97294818894E+00 -0.26591515991E+02  0.26903257103E+02  0.00000000000E+00 0. -1.
</event>
<event>
 7    1  0.6152255E-013  0.5930194E+02  0.7816164E-02  0.1266605E+00
        -11   -1    0    0    0    0  0.00000000000E+00  0.00000000000E+00  0.45593999997E+02  0.45594000000E+02  0.51100000000E-03 0.  1.
         11   -1    0    0    0    0 -0.00000000000E+00 -0.00000000000E+00 -0.45593999997E+02  0.45594000000E+02  0.51100000000E-03 0. -1.
    9900012    2    1    2    0    0 -0.80423161597E+01  0.24852837798E+02 -0.18286018535E+02  0.59301939257E+02  0.49999991300E+02 0.  0.
        -12    1    1    2    0    0  0.80423161597E+01 -0.24852837798E+02  0.18286018535E+02  0.31886060743E+02  0.00000000000E+00 0.  1.
         11    1    3    3    0    0 -0.12094740466E+02  0.88753865844E+00 -0.10075483985E+02  0.15766605519E+02  0.51100000000E-03 0. -1.
        -11    1    3    3    0    0  0.78870643435E+01 -0.46313359895E+01  0.64304284928E+01  0.11180584415E+02  0.51100000000E-03 0.  1.
         12    1    3    3    0    0 -0.38346400374E+01  0.28596635129E+02 -0.14640963043E+02  0.32354749323E+02  0.00000000000E+00 0. -1.
</event>
<event>
 7    1  0.6152255E-013  0.5930201E+02  0.7816164E-02  0.1266605E+00
        -11   -1    0    0    0    0  0.00000000000E+00  0.00000000000E+00  0.45593999997E+02  0.45594000000E+02  0.51100000000E-03 0.  1.
         11   -1    0    0    0    0 -0.00000000000E+00 -0.00000000000E+00 -0.45593999997E+02  0.45594000000E+02  0.51100000000E-03 0. -1.
    9900012    2    1    2    0    0 -0.10792101688E+02  0.27729394494E+01 -0.29875707944E+02  0.59302006567E+02  0.50000114057E+02 0.  0.
        -12    1    1    2    0    0  0.10792101688E+02 -0.27729394494E+01  0.29875707944E+02  0.31885993433E+02  0.00000000000E+00 0.  1.
         11    1    3    3    0    0 -0.51900927581E+01  0.14649842434E+02 -0.15882720629E+02  0.22221965732E+02  0.51100000000E-03 0. -1.
        -11    1    3    3    0    0  0.94255375474E+01  0.16662171755E+01  0.36436536455E+01  0.10241740569E+02  0.51100000000E-03 0.  1.
         12    1    3    3    0    0 -0.15027546477E+02 -0.13543120160E+02 -0.17636640961E+02  0.26838300266E+02  0.00000000000E+00 0. -1.
</event>
<event>
 7    1  0.6152255E-013  0.5930191E+02  0.7816164E-02  0.1266605E+00
        -11   -1    0    0    0    0  0.00000000000E+00  0.00000000000E+00  0.45593999997E+02  0.45594000000E+02  0.51100000000E-03 0. -1.
         11   -1    0    0    0    0 -0.00000000000E+00 -0.00000000000E+00 -0.45593999997E+02  0.45594000000E+02  0.51100000000E-03 0.  1.
    9900012    2    1    2    0    0 -0.27246877960E+02  0.88482028644E+01  0.14001416242E+02  0.59301910411E+02  0.49999938692E+02 0.  0.
        -12    1    1    2    0    0  0.27246877960E+02 -0.88482028644E+01 -0.14001416242E+02  0.31886089589E+02  0.00000000000E+00 0.  1.
         11    1    3    3    0    0 -0.19068871001E+02 -0.24699011041E+01  0.27304954564E+02  0.33395849992E+02  0.51100000000E-03 0. -1.
        -11    1    3    3    0    0  0.11788495222E+01 -0.31324357088E+01  0.10331248200E+01  0.35027399020E+01  0.51100000000E-03 0.  1.
        -12    1    3    3    0    0 -0.93568564810E+01  0.14450539677E+02 -0.14336663142E+02  0.22403320517E+02  0.00000000000E+00 0.  1.
</event>
<event>
 7    1  0.6152255E-013  0.5930194E+02  0.7816164E-02  0.1266605E+00
        -11   -1    0    0    0    0  0.00000000000E+00  0.00000000000E+00  0.45593999997E+02  0.45594000000E+02  0.51100000000E-03 0.  1.
         11   -1    0    0    0    0 -0.00000000000E+00 -0.00000000000E+00 -0.45593999997E+02  0.45594000000E+02  0.51100000000E-03 0. -1.
    9900012    2    1    2    0    0  0.85858281733E+01 -0.30013919940E+02 -0.64937649885E+01  0.59301940047E+02  0.49999992740E+02 0.  0.
        -12    1    1    2    0    0 -0.85858281733E+01  0.30013919940E+02  0.64937649885E+01  0.31886059953E+02  0.00000000000E+00 0.  1.
         11    1    3    3    0    0  0.20367723490E+01 -0.71444610673E+01  0.12499981986E+02  0.14541021816E+02  0.51100000000E-03 0. -1.
        -11    1    3    3    0    0 -0.59192873559E+01 -0.10246316354E+02  0.66528419220E+01  0.13575170994E+02  0.51100000000E-03 0.  1.
         12    1    3    3    0    0  0.12468343180E+02 -0.12623142519E+02 -0.25646588896E+02  0.31185747237E+02  0.00000000000E+00 0. -1.
</event>
<event>
 7    1  0.6152255E-013  0.5930194E+02  0.7816164E-02  0.1266605E+00
        -11   -1    0    0    0    0  0.00000000000E+00  0.00000000000E+00  0.45593999997E+02  0.45594000000E+02  0.51100000000E-03 0.  1.
         11   -1    0    0    0    0 -0.00000000000E+00 -0.00000000000E+00 -0.45593999997E+02  0.45594000000E+02  0.51100000000E-03 0. -1.
    9900012    2    1    2    0    0 -0.19732589705E+02 -0.12554140562E+02 -0.21673466738E+02  0.59301941884E+02  0.49999996090E+02 0.  0.
        -12    1    1    2    0    0  0.19732589705E+02  0.12554140562E+02  0.21673466738E+02  0.31886058116E+02  0.00000000000E+00 0.  1.
         11    1    3    3    0    0 -0.93090426972E+01  0.29383509209E+00  0.25489886061E+01  0.96561875591E+01  0.51100000000E-03 0. -1.
        -11    1    3    3    0    0  0.89997769188E+00 -0.71263074661E+01  0.10475221316E+02  0.12701357401E+02  0.51100000000E-03 0.  1.
         12    1    3    3    0    0 -0.11323524700E+02 -0.57216681883E+01 -0.34697676660E+02  0.36944396924E+02  0.00000000000E+00 0. -1.
</event>
<event>
 7    1  0.6152255E-013  0.5930194E+02  0.7816164E-02  0.1266605E+00
        -11   -1    0    0    0    0  0.00000000000E+00  0.00000000000E+00  0.45593999997E+02  0.45594000000E+02  0.51100000000E-03 0.  1.
         11   -1    0    0    0    0 -0.00000000000E+00 -0.00000000000E+00 -0.45593999997E+02  0.45594000000E+02  0.51100000000E-03 0. -1.
    9900012    2    1    2    0    0  0.31702949381E+01 -0.11596166560E+02 -0.29533012049E+02  0.59301942709E+02  0.49999997594E+02 0.  0.
        -12    1    1    2    0    0 -0.31702949381E+01  0.11596166560E+02  0.29533012049E+02  0.31886057291E+02  0.00000000000E+00 0.  1.
         11    1    3    3    0    0 -0.17599142229E+01  0.41597207828E+01  0.12398671214E+01  0.46837854138E+01  0.51100000000E-03 0. -1.
        -11    1    3    3    0    0 -0.15551257104E+02  0.41979673768E+01 -0.14747216949E+02  0.21839069019E+02  0.51100000000E-03 0.  1.
         12    1    3    3    0    0  0.20481466265E+02 -0.19953854720E+02 -0.16025662222E+02  0.32779088276E+02  0.00000000000E+00 0. -1.
</event>
<event>
 7    1  0.6152255E-013  0.5930195E+02  0.7816164E-02  0.1266605E+00
        -11   -1    0    0    0    0  0.00000000000E+00  0.00000000000E+00  0.45593999997E+02  0.45594000000E+02  0.51100000000E-03 0. -1.
         11   -1    0    0    0    0 -0.00000000000E+00 -0.00000000000E+00 -0.45593999997E+02  0.45594000000E+02  0.51100000000E-03 0.  1.
    9900012    2    1    2    0    0  0.51266030968E+01  0.28738051208E+02  0.12828182336E+02  0.59301954328E+02  0.50000018785E+02 0.  0.
        -12    1    1    2    0    0 -0.51266030968E+01 -0.28738051208E+02 -0.12828182336E+02  0.31886045672E+02  0.00000000000E+00 0.  1.
         11    1    3    3    0    0 -0.59741953100E+01  0.11014867365E+02  0.18754378654E+02  0.22555377000E+02  0.51100000000E-03 0. -1.
        -11    1    3    3    0    0  0.15745837241E+02  0.22708844145E+02  0.12407054806E+00  0.27634007791E+02  0.51100000000E-03 0.  1.
         12    1    3    3    0    0 -0.46450388339E+01 -0.49856603026E+01 -0.60502668655E+01  0.91125695369E+01  0.00000000000E+00 0. -1.
</event>
<event>
 7    1  0.6152255E-013  0.5930188E+02  0.7816164E-02  0.1266605E+00
        -11   -1    0    0    0    0  0.00000000000E+00  0.00000000000E+00  0.45593999997E+02  0.45594000000E+02  0.51100000000E-03 0.  1.
         11   -1    0    0    0    0 -0.00000000000E+00 -0.00000000000E+00 -0.45593999997E+02  0.45594000000E+02  0.51100000000E-03 0. -1.
    9900012    2    1    2    0    0  0.24472397056E+02  0.34527809737E+00 -0.20437894039E+02  0.59301875316E+02  0.49999874686E+02 0.  0.
        -12    1    1    2    0    0 -0.24472397056E+02 -0.34527809737E+00  0.20437894039E+02  0.31886124684E+02  0.00000000000E+00 0.  1.
         11    1    3    3    0    0 -0.23967509146E+01  0.11975545677E+02  0.54361098535E+01  0.13368223510E+02  0.51100000000E-03 0. -1.
        -11    1    3    3    0    0  0.21881623714E+01 -0.14698681604E+01  0.46752321315E+01  0.53671559244E+01  0.51100000000E-03 0.  1.
         12    1    3    3    0    0  0.24680985599E+02 -0.10160399419E+02 -0.30549236024E+02  0.40566495882E+02  0.00000000000E+00 0. -1.
</event>
<event>
 7    1  0.6152255E-013  0.5930197E+02  0.7816164E-02  0.1266605E+00
        -11   -1    0    0    0    0  0.00000000000E+00  0.00000000000E+00  0.45593999997E+02  0.45594000000E+02  0.51100000000E-03 0.  1.
         11   -1    0    0    0    0 -0.00000000000E+00 -0.00000000000E+00 -0.45593999997E+02  0.45594000000E+02  0.51100000000E-03 0. -1.
    9900012    2    1    2    0    0  0.90962103809E+01  0.30414443918E+02 -0.29899206203E+01  0.59301967518E+02  0.50000042841E+02 0.  0.
        -12    1    1    2    0    0 -0.90962103809E+01 -0.30414443918E+02  0.29899206203E+01  0.31886032482E+02  0.00000000000E+00 0.  1.
         11    1    3    3    0    0  0.14694789825E+02 -0.14868139711E+01 -0.21691470743E+01  0.14928250503E+02  0.51100000000E-03 0. -1.
        -11    1    3    3    0    0  0.10232212028E+02  0.45698145810E+01  0.49753767322E+01  0.12261147670E+02  0.51100000000E-03 0.  1.
         12    1    3    3    0    0 -0.15830791472E+02  0.27331443308E+02 -0.57961502781E+01  0.32112569345E+02  0.00000000000E+00 0. -1.
</event>
<event>
 7    1  0.6152255E-013  0.5930194E+02  0.7816164E-02  0.1266605E+00
        -11   -1    0    0    0    0  0.00000000000E+00  0.00000000000E+00  0.45593999997E+02  0.45594000000E+02  0.51100000000E-03 0.  1.
         11   -1    0    0    0    0 -0.00000000000E+00 -0.00000000000E+00 -0.45593999997E+02  0.45594000000E+02  0.51100000000E-03 0. -1.
    9900012    2    1    2    0    0 -0.12413548185E+02  0.12910561044E+02 -0.26380709328E+02  0.59301943649E+02  0.49999999309E+02 0.  0.
        -12    1    1    2    0    0  0.12413548185E+02 -0.12910561044E+02  0.26380709328E+02  0.31886056351E+02  0.00000000000E+00 0.  1.
         11    1    3    3    0    0 -0.57062705566E+01 -0.15614358306E+02 -0.70855719060E+01  0.18071387287E+02  0.51100000000E-03 0. -1.
        -11    1    3    3    0    0  0.27834451693E+01  0.60549807747E+01  0.37730197560E+01  0.76580700919E+01  0.51100000000E-03 0.  1.
         12    1    3    3    0    0 -0.94907227977E+01  0.22469938575E+02 -0.23068157178E+02  0.33572486270E+02  0.00000000000E+00 0. -1.
</event>
<event>
 7    1  0.6152255E-013  0.5930195E+02  0.7816164E-02  0.1266605E+00
        -11   -1    0    0    0    0  0.00000000000E+00  0.00000000000E+00  0.45593999997E+02  0.45594000000E+02  0.51100000000E-03 0.  1.
         11   -1    0    0    0    0 -0.00000000000E+00 -0.00000000000E+00 -0.45593999997E+02  0.45594000000E+02  0.51100000000E-03 0. -1.
    9900012    2    1    2    0    0  0.23253092867E+02  0.13821806605E+02 -0.16881102359E+02  0.59301948464E+02  0.50000008091E+02 0.  0.
        -12    1    1    2    0    0 -0.23253092867E+02 -0.13821806605E+02  0.16881102359E+02  0.31886051536E+02  0.00000000000E+00 0.  1.
         11    1    3    3    0    0  0.88478175399E+01  0.63665350370E+01 -0.28471684956E+01  0.11266011375E+02  0.51100000000E-03 0. -1.
        -11    1    3    3    0    0  0.20331701330E+02  0.44700815071E+01 -0.26628632406E+02  0.33800055795E+02  0.51100000000E-03 0.  1.
        -12    1    3    3    0    0 -0.59264260032E+01  0.29851900604E+01  0.12594698542E+02  0.14235881294E+02  0.00000000000E+00 0.  1.
</event>
<event>
 7    1  0.6152255E-013  0.5930167E+02  0.7816164E-02  0.1266606E+00
        -11   -1    0    0    0    0  0.00000000000E+00  0.00000000000E+00  0.45593999997E+02  0.45594000000E+02  0.51100000000E-03 0.  1.
         11   -1    0    0    0    0 -0.00000000000E+00 -0.00000000000E+00 -0.45593999997E+02  0.45594000000E+02  0.51100000000E-03 0. -1.
    9900012    2    1    2    0    0  0.27104655885E+02 -0.16004597988E+02  0.50920352104E+01  0.59301665153E+02  0.49999491396E+02 0.  0.
        -12    1    1    2    0    0 -0.27104655885E+02  0.16004597988E+02 -0.50920352104E+01  0.31886334847E+02  0.00000000000E+00 0.  1.
         11    1    3    3    0    0  0.14181080788E+02  0.73212490477E+01  0.14236731102E+02  0.21386637245E+02  0.51100000000E-03 0. -1.
        -11    1    3    3    0    0  0.17219321187E+02 -0.10869682238E+02  0.22607853881E+01  0.20488195746E+02  0.51100000000E-03 0.  1.
        -12    1    3    3    0    0 -0.42957460893E+01 -0.12456164798E+02 -0.11405481280E+02  0.17426832161E+02  0.00000000000E+00 0.  1.
</event>
<event>
 7    1  0.6152255E-013  0.5930194E+02  0.7816164E-02  0.1266605E+00
        -11   -1    0    0    0    0  0.00000000000E+00  0.00000000000E+00  0.45593999997E+02  0.45594000000E+02  0.51100000000E-03 0. -1.
         11   -1    0    0    0    0 -0.00000000000E+00 -0.00000000000E+00 -0.45593999997E+02  0.45594000000E+02  0.51100000000E-03 0.  1.
    9900012    2    1    2    0    0 -0.53768029627E+01 -0.89818681055E+01  0.30118717589E+02  0.59301935426E+02  0.49999984313E+02 0.  0.
        -12    1    1    2    0    0  0.53768029627E+01  0.89818681055E+01 -0.30118717589E+02  0.31886064574E+02  0.00000000000E+00 0.  1.
         11    1    3    3    0    0 -0.11169670632E+02 -0.11210058500E+02  0.25848793218E+02  0.30308201278E+02  0.51100000000E-03 0. -1.
        -11    1    3    3    0    0 -0.33943725557E+01 -0.16691043494E+01  0.14331519325E+02  0.14822284601E+02  0.51100000000E-03 0.  1.
        -12    1    3    3    0    0  0.91872402252E+01  0.38972947438E+01 -0.10061594953E+02  0.14171449548E+02  0.00000000000E+00 0.  1.
</event>
<event>
 7    1  0.6152255E-013  0.5930173E+02  0.7816164E-02  0.1266606E+00
        -11   -1    0    0    0    0  0.00000000000E+00  0.00000000000E+00  0.45593999997E+02  0.45594000000E+02  0.51100000000E-03 0.  1.
         11   -1    0    0    0    0 -0.00000000000E+00 -0.00000000000E+00 -0.45593999997E+02  0.45594000000E+02  0.51100000000E-03 0. -1.
    9900012    2    1    2    0    0 -0.10274727035E+02 -0.10111919146E+01 -0.30168554220E+02  0.59301730408E+02  0.49999610408E+02 0.  0.
        -12    1    1    2    0    0  0.10274727035E+02  0.10111919146E+01  0.30168554220E+02  0.31886269592E+02  0.00000000000E+00 0.  1.
         11    1    3    3    0    0 -0.39927889866E+01  0.18760176016E+02 -0.23385721112E+02  0.30245305755E+02  0.51100000000E-03 0. -1.
        -11    1    3    3    0    0 -0.94741084695E+01 -0.16081638409E+01 -0.39879345422E+01  0.10404256072E+02  0.51100000000E-03 0.  1.
         12    1    3    3    0    0  0.31921704214E+01 -0.18163204090E+02 -0.27948985660E+01  0.18652168581E+02  0.00000000000E+00 0. -1.
</event>
<event>
 7    1  0.6152255E-013  0.5930195E+02  0.7816164E-02  0.1266605E+00
        -11   -1    0    0    0    0  0.00000000000E+00  0.00000000000E+00  0.45593999997E+02  0.45594000000E+02  0.51100000000E-03 0.  1.
         11   -1    0    0    0    0 -0.00000000000E+00 -0.00000000000E+00 -0.45593999997E+02  0.45594000000E+02  0.51100000000E-03 0. -1.
    9900012    2    1    2    0    0  0.18705540449E+02 -0.25616841822E+02 -0.32558281220E+01  0.59301949050E+02  0.50000009159E+02 0.  0.
        -12    1    1    2    0    0 -0.18705540449E+02  0.25616841822E+02  0.32558281220E+01  0.31886050950E+02  0.00000000000E+00 0.  1.
         11    1    3    3    0    0  0.11309461206E+02 -0.29859792870E+02 -0.13465964992E+02  0.34653186816E+02  0.51100000000E-03 0. -1.
        -11    1    3    3    0    0  0.61310890047E+01 -0.31359358487E+01 -0.44419501960E+01  0.81948317759E+01  0.51100000000E-03 0.  1.
        -12    1    3    3    0    0  0.12649902381E+01  0.73788868969E+01  0.14652087066E+02  0.16453930459E+02  0.00000000000E+00 0.  1.
</event>
<event>
 7    1  0.6152255E-013  0.5930195E+02  0.7816164E-02  0.1266605E+00
        -11   -1    0    0    0    0  0.00000000000E+00  0.00000000000E+00  0.45593999997E+02  0.45594000000E+02  0.51100000000E-03 0.  1.
         11   -1    0    0    0    0 -0.00000000000E+00 -0.00000000000E+00 -0.45593999997E+02  0.45594000000E+02  0.51100000000E-03 0. -1.
    9900012    2    1    2    0    0  0.68146306076E+01  0.27799428664E+02 -0.14052499927E+02  0.59301950095E+02  0.50000011065E+02 0.  0.
        -12    1    1    2    0    0 -0.68146306076E+01 -0.27799428664E+02  0.14052499927E+02  0.31886049905E+02  0.00000000000E+00 0.  1.
         11    1    3    3    0    0  0.10834988998E+02 -0.18585460907E+01 -0.14000147889E+02  0.17800430369E+02  0.51100000000E-03 0. -1.
        -11    1    3    3    0    0 -0.11076939418E+01  0.11106779545E+02 -0.14148322237E+02  0.18021169776E+02  0.51100000000E-03 0.  1.
        -12    1    3    3    0    0 -0.29126644488E+01  0.18551195210E+02  0.14095970199E+02  0.23480349949E+02  0.00000000000E+00 0.  1.
</event>
<event>
 7    1  0.6152255E-013  0.5930197E+02  0.7816164E-02  0.1266605E+00
        -11   -1    0    0    0    0  0.00000000000E+00  0.00000000000E+00  0.45593999997E+02  0.45594000000E+02  0.51100000000E-03 0.  1.
         11   -1    0    0    0    0 -0.00000000000E+00 -0.00000000000E+00 -0.45593999997E+02  0.45594000000E+02  0.51100000000E-03 0. -1.
    9900012    2    1    2    0    0  0.10831930671E+02 -0.16191742033E+02 -0.25243137288E+02  0.59301965247E+02  0.50000038699E+02 0.  0.
        -12    1    1    2    0    0 -0.10831930671E+02  0.16191742033E+02  0.25243137288E+02  0.31886034753E+02  0.00000000000E+00 0.  1.
         11    1    3    3    0    0 -0.21216337124E+01 -0.92488032899E+01  0.73750607178E+01  0.12018036976E+02  0.51100000000E-03 0. -1.
        -11    1    3    3    0    0  0.19960258139E+01  0.82745200752E+01  0.12183854023E+01  0.85986199343E+01  0.51100000000E-03 0.  1.
         12    1    3    3    0    0  0.10957538570E+02 -0.15217458818E+02 -0.33836583408E+02  0.38685308337E+02  0.00000000000E+00 0. -1.
</event>
<event>
 7    1  0.6152255E-013  0.5930192E+02  0.7816164E-02  0.1266605E+00
        -11   -1    0    0    0    0  0.00000000000E+00  0.00000000000E+00  0.45593999997E+02  0.45594000000E+02  0.51100000000E-03 0. -1.
         11   -1    0    0    0    0 -0.00000000000E+00 -0.00000000000E+00 -0.45593999997E+02  0.45594000000E+02  0.51100000000E-03 0.  1.
    9900012    2    1    2    0    0  0.33972837006E+01  0.24806314987E+02 -0.19744051882E+02  0.59301915504E+02  0.49999947980E+02 0.  0.
        -12    1    1    2    0    0 -0.33972837006E+01 -0.24806314987E+02  0.19744051882E+02  0.31886084496E+02  0.00000000000E+00 0.  1.
         11    1    3    3    0    0 -0.82835781676E+01  0.31550894065E+02 -0.74196966169E+01  0.33453377732E+02  0.51100000000E-03 0. -1.
        -11    1    3    3    0    0  0.35394281726E+00 -0.32694978026E+01 -0.13544360121E+02  0.13937883008E+02  0.51100000000E-03 0.  1.
        -12    1    3    3    0    0  0.11326919051E+02 -0.34750812753E+01  0.12200048559E+01  0.11910654764E+02  0.00000000000E+00 0.  1.
</event>
<event>
 7    1  0.6152255E-013  0.5930176E+02  0.7816164E-02  0.1266605E+00
        -11   -1    0    0    0    0  0.00000000000E+00  0.00000000000E+00  0.45593999997E+02  0.45594000000E+02  0.51100000000E-03 0.  1.
         11   -1    0    0    0    0 -0.00000000000E+00 -0.00000000000E+00 -0.45593999997E+02  0.45594000000E+02  0.51100000000E-03 0. -1.
    9900012    2    1    2    0    0 -0.20491910585E+02 -0.23687094464E+02 -0.59779056217E+01  0.59301761602E+02  0.49999667298E+02 0.  0.
        -12    1    1    2    0    0  0.20491910585E+02  0.23687094464E+02  0.59779056217E+01  0.31886238398E+02  0.00000000000E+00 0.  1.
         11    1    3    3    0    0  0.69358871005E+00 -0.69118030402E+01 -0.68768318989E+01  0.97747073507E+01  0.51100000000E-03 0. -1.
        -11    1    3    3    0    0 -0.33158814768E+01 -0.22447903972E+02 -0.13033910644E+02  0.26168421612E+02  0.51100000000E-03 0.  1.
        -12    1    3    3    0    0 -0.17869617818E+02  0.56726125483E+01  0.13932836922E+02  0.23358632639E+02  0.00000000000E+00 0.  1.
</event>
<event>
 7    1  0.6152255E-013  0.5930195E+02  0.7816164E-02  0.1266605E+00
        -11   -1    0    0    0    0  0.00000000000E+00  0.00000000000E+00  0.45593999997E+02  0.45594000000E+02  0.51100000000E-03 0. -1.
         11   -1    0    0    0    0 -0.00000000000E+00 -0.00000000000E+00 -0.45593999997E+02  0.45594000000E+02  0.51100000000E-03 0.  1.
    9900012    2    1    2    0    0  0.18985842456E+02  0.16121161234E+02  0.19908945606E+02  0.59301950253E+02  0.50000011354E+02 0.  0.
        -12    1    1    2    0    0 -0.18985842456E+02 -0.16121161234E+02 -0.19908945606E+02  0.31886049747E+02  0.00000000000E+00 0.  1.
         11    1    3    3    0    0  0.15288278579E+02  0.22110922492E+02  0.14595674973E+02  0.30588528626E+02  0.51100000000E-03 0. -1.
        -11    1    3    3    0    0 -0.20560264590E+01  0.78341914534E+01  0.10143191477E+02  0.12980220882E+02  0.51100000000E-03 0.  1.
        -12    1    3    3    0    0  0.57535903367E+01 -0.13823952712E+02 -0.48299208443E+01  0.15733200746E+02  0.00000000000E+00 0.  1.
</event>
<event>
 7    1  0.6152255E-013  0.5930205E+02  0.7816164E-02  0.1266604E+00
        -11   -1    0    0    0    0  0.00000000000E+00  0.00000000000E+00  0.45593999997E+02  0.45594000000E+02  0.51100000000E-03 0. -1.
         11   -1    0    0    0    0 -0.00000000000E+00 -0.00000000000E+00 -0.45593999997E+02  0.45594000000E+02  0.51100000000E-03 0.  1.
    9900012    2    1    2    0    0 -0.14498882875E+02 -0.25592223599E+02  0.12309928026E+02  0.59302049468E+02  0.50000192297E+02 0.  0.
        -12    1    1    2    0    0  0.14498882875E+02  0.25592223599E+02 -0.12309928026E+02  0.31885950532E+02  0.00000000000E+00 0.  1.
         11    1    3    3    0    0  0.40781833591E+01  0.21090578354E+01  0.13330330212E+02  0.14098844218E+02  0.51100000000E-03 0. -1.
        -11    1    3    3    0    0  0.82892363898E+01 -0.41921110185E+01 -0.19491275744E+01  0.94912766939E+01  0.51100000000E-03 0.  1.
         12    1    3    3    0    0 -0.26866302623E+02 -0.23509170416E+02  0.92872538793E+00  0.35711928555E+02  0.00000000000E+00 0. -1.
</event>
<event>
 7    1  0.6152255E-013  0.5930188E+02  0.7816164E-02  0.1266605E+00
        -11   -1    0    0    0    0  0.00000000000E+00  0.00000000000E+00  0.45593999997E+02  0.45594000000E+02  0.51100000000E-03 0. -1.
         11   -1    0    0    0    0 -0.00000000000E+00 -0.00000000000E+00 -0.45593999997E+02  0.45594000000E+02  0.51100000000E-03 0.  1.
    9900012    2    1    2    0    0 -0.17845737986E+02  0.24907462443E+02  0.88245586533E+01  0.59301876293E+02  0.49999876467E+02 0.  0.
        -12    1    1    2    0    0  0.17845737986E+02 -0.24907462443E+02 -0.88245586533E+01  0.31886123707E+02  0.00000000000E+00 0.  1.
         11    1    3    3    0    0 -0.11996348782E+02  0.51411138926E+01  0.12292055848E+01  0.13109324269E+02  0.51100000000E-03 0. -1.
        -11    1    3    3    0    0 -0.33457196673E+01  0.26677751597E+02 -0.87464119217E+01  0.28273591780E+02  0.51100000000E-03 0.  1.
         12    1    3    3    0    0 -0.25036695371E+01 -0.69114030464E+01  0.16341764990E+02  0.17918960244E+02  0.00000000000E+00 0. -1.
</event>
<event>
 7    1  0.6152255E-013  0.5930204E+02  0.7816164E-02  0.1266604E+00
        -11   -1    0    0    0    0  0.00000000000E+00  0.00000000000E+00  0.45593999997E+02  0.45594000000E+02  0.51100000000E-03 0.  1.
         11   -1    0    0    0    0 -0.00000000000E+00 -0.00000000000E+00 -0.45593999997E+02  0.45594000000E+02  0.51100000000E-03 0. -1.
    9900012    2    1    2    0    0 -0.12441105249E+02 -0.20354587858E+02 -0.21157127795E+02  0.59302040657E+02  0.50000176229E+02 0.  0.
        -12    1    1    2    0    0  0.12441105249E+02  0.20354587858E+02  0.21157127795E+02  0.31885959343E+02  0.00000000000E+00 0.  1.
         11    1    3    3    0    0 -0.17806283887E+02  0.12437078537E+02 -0.11465404822E+02  0.24560133884E+02  0.51100000000E-03 0.  1.
        -11    1    3    3    0    0  0.13542276556E+01 -0.10541539381E+02 -0.45187554573E+01  0.11548901949E+02  0.51100000000E-03 0. -1.
        -12    1    3    3    0    0  0.40109509823E+01 -0.22250127013E+02 -0.51729675149E+01  0.23193004825E+02  0.00000000000E+00 0.  1.
</event>
<event>
 7    1  0.6152255E-013  0.5930194E+02  0.7816164E-02  0.1266605E+00
        -11   -1    0    0    0    0  0.00000000000E+00  0.00000000000E+00  0.45593999997E+02  0.45594000000E+02  0.51100000000E-03 0.  1.
         11   -1    0    0    0    0 -0.00000000000E+00 -0.00000000000E+00 -0.45593999997E+02  0.45594000000E+02  0.51100000000E-03 0. -1.
    9900012    2    1    2    0    0 -0.52689464162E+01 -0.15355533897E+02 -0.27443881129E+02  0.59301939895E+02  0.49999992463E+02 0.  0.
        -12    1    1    2    0    0  0.52689464162E+01  0.15355533897E+02  0.27443881129E+02  0.31886060105E+02  0.00000000000E+00 0.  1.
         11    1    3    3    0    0  0.83395775482E+01 -0.10443716341E+02 -0.15402121856E+02  0.20392280957E+02  0.51100000000E-03 0. -1.
        -11    1    3    3    0    0  0.62505829315E+01  0.72450383121E+01 -0.12349816685E+02  0.15623006738E+02  0.51100000000E-03 0.  1.
         12    1    3    3    0    0 -0.19859106896E+02 -0.12156855869E+02  0.30805741268E+00  0.23286652200E+02  0.00000000000E+00 0. -1.
</event>
<event>
 7    1  0.6152255E-013  0.5930200E+02  0.7816164E-02  0.1266605E+00
        -11   -1    0    0    0    0  0.00000000000E+00  0.00000000000E+00  0.45593999997E+02  0.45594000000E+02  0.51100000000E-03 0.  1.
         11   -1    0    0    0    0 -0.00000000000E+00 -0.00000000000E+00 -0.45593999997E+02  0.45594000000E+02  0.51100000000E-03 0. -1.
    9900012    2    1    2    0    0  0.25450066031E+02 -0.79637648188E+01  0.17481127630E+02  0.59301996264E+02  0.50000095266E+02 0.  0.
        -12    1    1    2    0    0 -0.25450066031E+02  0.79637648188E+01 -0.17481127630E+02  0.31886003736E+02  0.00000000000E+00 0.  1.
         11    1    3    3    0    0  0.18334849704E+02  0.79460773575E+01  0.65606129113E+01  0.21032082662E+02  0.51100000000E-03 0. -1.
        -11    1    3    3    0    0  0.12248746630E+02  0.60322824414E+01  0.11297597609E+01  0.13700240248E+02  0.51100000000E-03 0.  1.
        -12    1    3    3    0    0 -0.51335303035E+01 -0.21942124618E+02  0.97907549574E+01  0.24569673355E+02  0.00000000000E+00 0.  1.
</event>
<event>
 7    1  0.6152255E-013  0.5930201E+02  0.7816164E-02  0.1266605E+00
        -11   -1    0    0    0    0  0.00000000000E+00  0.00000000000E+00  0.45593999997E+02  0.45594000000E+02  0.51100000000E-03 0.  1.
         11   -1    0    0    0    0 -0.00000000000E+00 -0.00000000000E+00 -0.45593999997E+02  0.45594000000E+02  0.51100000000E-03 0. -1.
    9900012    2    1    2    0    0 -0.11331283802E+02  0.29334466544E+02 -0.52732958392E+01  0.59302006695E+02  0.50000114291E+02 0.  0.
        -12    1    1    2    0    0  0.11331283802E+02 -0.29334466544E+02  0.52732958392E+01  0.31885993305E+02  0.00000000000E+00 0.  1.
         11    1    3    3    0    0 -0.16913927215E+02  0.24564040531E+02 -0.54377106483E+01  0.30315700856E+02  0.51100000000E-03 0. -1.
        -11    1    3    3    0    0  0.99353391570E+01  0.13975911544E+02  0.47874964845E+01  0.17803291564E+02  0.51100000000E-03 0.  1.
         12    1    3    3    0    0 -0.43526957441E+01 -0.92054855314E+01 -0.46230816753E+01  0.11183014275E+02  0.00000000000E+00 0. -1.
</event>
<event>
 7    1  0.6152255E-013  0.5930195E+02  0.7816164E-02  0.1266605E+00
        -11   -1    0    0    0    0  0.00000000000E+00  0.00000000000E+00  0.45593999997E+02  0.45594000000E+02  0.51100000000E-03 0.  1.
         11   -1    0    0    0    0 -0.00000000000E+00 -0.00000000000E+00 -0.45593999997E+02  0.45594000000E+02  0.51100000000E-03 0. -1.
    9900012    2    1    2    0    0 -0.24074395562E+02 -0.11708222414E+02 -0.17322272868E+02  0.59301950840E+02  0.50000012423E+02 0.  0.
        -12    1    1    2    0    0  0.24074395562E+02  0.11708222414E+02  0.17322272868E+02  0.31886049160E+02  0.00000000000E+00 0.  1.
         11    1    3    3    0    0 -0.12896998614E+02 -0.47547133194E+01 -0.13564350855E+02  0.19311434084E+02  0.51100000000E-03 0. -1.
        -11    1    3    3    0    0 -0.24491489641E+02 -0.17025784219E+01 -0.65483056590E+01  0.25408898941E+02  0.51100000000E-03 0.  1.
         12    1    3    3    0    0  0.13314092694E+02 -0.52509306727E+01  0.27903836463E+01  0.14581617814E+02  0.00000000000E+00 0. -1.
</event>
<event>
 7    1  0.6152255E-013  0.5930207E+02  0.7816164E-02  0.1266604E+00
        -11   -1    0    0    0    0  0.00000000000E+00  0.00000000000E+00  0.45593999997E+02  0.45594000000E+02  0.51100000000E-03 0.  1.
         11   -1    0    0    0    0 -0.00000000000E+00 -0.00000000000E+00 -0.45593999997E+02  0.45594000000E+02  0.51100000000E-03 0. -1.
    9900012    2    1    2    0    0  0.30494153258E+02 -0.18818922268E+01 -0.91256720137E+01  0.59302065939E+02  0.50000222336E+02 0.  0.
        -12    1    1    2    0    0 -0.30494153258E+02  0.18818922268E+01  0.91256720137E+01  0.31885934061E+02  0.00000000000E+00 0.  1.
         11    1    3    3    0    0  0.96910428726E+01 -0.89079741910E+01 -0.87668896521E+01  0.15815393469E+02  0.51100000000E-03 0. -1.
        -11    1    3    3    0    0  0.23023647311E+02 -0.75903200881E+01  0.91464221640E+01  0.25910583421E+02  0.51100000000E-03 0.  1.
         12    1    3    3    0    0 -0.22205369258E+01  0.14616402052E+02 -0.95052045255E+01  0.17576089049E+02  0.00000000000E+00 0. -1.
</event>
<event>
 7    1  0.6152255E-013  0.5930192E+02  0.7816164E-02  0.1266605E+00
        -11   -1    0    0    0    0  0.00000000000E+00  0.00000000000E+00  0.45593999997E+02  0.45594000000E+02  0.51100000000E-03 0.  1.
         11   -1    0    0    0    0 -0.00000000000E+00 -0.00000000000E+00 -0.45593999997E+02  0.45594000000E+02  0.51100000000E-03 0. -1.
    9900012    2    1    2    0    0  0.29951767351E+02  0.10537779899E+02  0.29272873335E+01  0.59301918651E+02  0.49999953719E+02 0.  0.
        -12    1    1    2    0    0 -0.29951767351E+02 -0.10537779899E+02 -0.29272873335E+01  0.31886081349E+02  0.00000000000E+00 0.  1.
         11    1    3    3    0    0  0.19629845544E+02  0.23881789707E+01  0.19334531724E+01  0.19868882110E+02  0.51100000000E-03 0. -1.
        -11    1    3    3    0    0  0.10414641124E+02 -0.60810222190E+01  0.15147459891E+02  0.19362053671E+02  0.51100000000E-03 0.  1.
         12    1    3    3    0    0 -0.92719316449E-01  0.14230623147E+02 -0.14153625730E+02  0.20070982869E+02  0.00000000000E+00 0. -1.
</event>
<event>
 7    1  0.6152255E-013  0.5930194E+02  0.7816164E-02  0.1266605E+00
        -11   -1    0    0    0    0  0.00000000000E+00  0.00000000000E+00  0.45593999997E+02  0.45594000000E+02  0.51100000000E-03 0.  1.
         11   -1    0    0    0    0 -0.00000000000E+00 -0.00000000000E+00 -0.45593999997E+02  0.45594000000E+02  0.51100000000E-03 0. -1.
    9900012    2    1    2    0    0 -0.52322891141E+01  0.77651947307E+01 -0.30480254593E+02  0.59301936922E+02  0.49999987041E+02 0.  0.
        -12    1    1    2    0    0  0.52322891141E+01 -0.77651947307E+01  0.30480254593E+02  0.31886063078E+02  0.00000000000E+00 0.  1.
         11    1    3    3    0    0 -0.10820306572E+01 -0.67653901663E+01 -0.11655204140E+02  0.13519803188E+02  0.51100000000E-03 0. -1.
        -11    1    3    3    0    0  0.11185855038E+02 -0.77083314950E+01 -0.14478890193E+01  0.13661555923E+02  0.51100000000E-03 0.  1.
        -12    1    3    3    0    0 -0.15336113494E+02  0.22238916392E+02 -0.17377161434E+02  0.32120577811E+02  0.00000000000E+00 0.  1.
</event>
<event>
 7    1  0.6152255E-013  0.5930195E+02  0.7816164E-02  0.1266605E+00
        -11   -1    0    0    0    0  0.00000000000E+00  0.00000000000E+00  0.45593999997E+02  0.45594000000E+02  0.51100000000E-03 0.  1.
         11   -1    0    0    0    0 -0.00000000000E+00 -0.00000000000E+00 -0.45593999997E+02  0.45594000000E+02  0.51100000000E-03 0. -1.
    9900012    2    1    2    0    0  0.18495648190E+02 -0.21860220751E+02 -0.14027194562E+02  0.59301945986E+02  0.50000003572E+02 0.  0.
        -12    1    1    2    0    0 -0.18495648190E+02  0.21860220751E+02  0.14027194562E+02  0.31886054014E+02  0.00000000000E+00 0.  1.
         11    1    3    3    0    0  0.22414892760E+02 -0.71113289519E+01 -0.73554442200E+01  0.24639419166E+02  0.51100000000E-03 0. -1.
        -11    1    3    3    0    0  0.10089935199E+02 -0.13416612815E+02  0.36885851246E+01  0.17187726791E+02  0.51100000000E-03 0.  1.
        -12    1    3    3    0    0 -0.14009179769E+02 -0.13322789841E+01 -0.10360335467E+02  0.17474800030E+02  0.00000000000E+00 0.  1.
</event>
<event>
 7    1  0.6152255E-013  0.5930194E+02  0.7816164E-02  0.1266605E+00
        -11   -1    0    0    0    0  0.00000000000E+00  0.00000000000E+00  0.45593999997E+02  0.45594000000E+02  0.51100000000E-03 0.  1.
         11   -1    0    0    0    0 -0.00000000000E+00 -0.00000000000E+00 -0.45593999997E+02  0.45594000000E+02  0.51100000000E-03 0. -1.
    9900012    2    1    2    0    0 -0.25525427093E+02 -0.10105877038E+02 -0.16218659562E+02  0.59301935693E+02  0.49999984800E+02 0.  0.
        -12    1    1    2    0    0  0.25525427093E+02  0.10105877038E+02  0.16218659562E+02  0.31886064307E+02  0.00000000000E+00 0.  1.
         11    1    3    3    0    0 -0.20655000525E+02 -0.16515606788E+02 -0.18659502391E+02  0.32366206822E+02  0.51100000000E-03 0. -1.
        -11    1    3    3    0    0 -0.13637988264E+02  0.53576580556E+01 -0.49023669222E+01  0.15450968430E+02  0.51100000000E-03 0.  1.
         12    1    3    3    0    0  0.87675616965E+01  0.10520716944E+01  0.73432097514E+01  0.11484760442E+02  0.00000000000E+00 0. -1.
</event>
<event>
 7    1  0.6152255E-013  0.5930194E+02  0.7816164E-02  0.1266605E+00
        -11   -1    0    0    0    0  0.00000000000E+00  0.00000000000E+00  0.45593999997E+02  0.45594000000E+02  0.51100000000E-03 0. -1.
         11   -1    0    0    0    0 -0.00000000000E+00 -0.00000000000E+00 -0.45593999997E+02  0.45594000000E+02  0.51100000000E-03 0.  1.
    9900012    2    1    2    0    0  0.28773878193E+01  0.24549299347E+02  0.20143813452E+02  0.59301942240E+02  0.49999996740E+02 0.  0.
        -12    1    1    2    0    0 -0.28773878193E+01 -0.24549299347E+02 -0.20143813452E+02  0.31886057760E+02  0.00000000000E+00 0.  1.
         11    1    3    3    0    0  0.78512201145E+01  0.26140877273E+02 -0.45982917920E+01  0.27679078915E+02  0.51100000000E-03 0.  1.
        -11    1    3    3    0    0 -0.10036060062E+02  0.36961211674E+01  0.80179000525E+01  0.13366769796E+02  0.51100000000E-03 0. -1.
        -12    1    3    3    0    0  0.50622277672E+01 -0.52876990935E+01  0.16724205192E+02  0.18256093530E+02  0.00000000000E+00 0.  1.
</event>
<event>
 7    1  0.6152255E-013  0.5930194E+02  0.7816164E-02  0.1266605E+00
        -11   -1    0    0    0    0  0.00000000000E+00  0.00000000000E+00  0.45593999997E+02  0.45594000000E+02  0.51100000000E-03 0.  1.
         11   -1    0    0    0    0 -0.00000000000E+00 -0.00000000000E+00 -0.45593999997E+02  0.45594000000E+02  0.51100000000E-03 0. -1.
    9900012    2    1    2    0    0  0.18780268162E+02  0.23617158215E+02 -0.10307873431E+02  0.59301938954E+02  0.49999990746E+02 0.  0.
        -12    1    1    2    0    0 -0.18780268162E+02 -0.23617158215E+02  0.10307873431E+02  0.31886061046E+02  0.00000000000E+00 0.  1.
         11    1    3    3    0    0  0.41917108992E+00  0.17376931812E+02  0.62694482582E+01  0.18478080131E+02  0.51100000000E-03 0. -1.
        -11    1    3    3    0    0 -0.80108090618E+01  0.64564263241E+01 -0.13669575297E+01  0.10379165470E+02  0.51100000000E-03 0.  1.
        -12    1    3    3    0    0  0.26371906134E+02 -0.21619992063E+00 -0.15210364159E+02  0.30444693353E+02  0.00000000000E+00 0.  1.
</event>
<event>
 7    1  0.6152255E-013  0.5930196E+02  0.7816164E-02  0.1266605E+00
        -11   -1    0    0    0    0  0.00000000000E+00  0.00000000000E+00  0.45593999997E+02  0.45594000000E+02  0.51100000000E-03 0.  1.
         11   -1    0    0    0    0 -0.00000000000E+00 -0.00000000000E+00 -0.45593999997E+02  0.45594000000E+02  0.51100000000E-03 0. -1.
    9900012    2    1    2    0    0 -0.23654574929E+02 -0.21368640056E+02 -0.74962645537E+00  0.59301958654E+02  0.50000026674E+02 0.  0.
        -12    1    1    2    0    0  0.23654574929E+02  0.21368640056E+02  0.74962645537E+00  0.31886041346E+02  0.00000000000E+00 0.  1.
         11    1    3    3    0    0 -0.16406544880E+02 -0.56460214654E-01 -0.97057100315E+01  0.19062494856E+02  0.51100000000E-03 0. -1.
        -11    1    3    3    0    0 -0.18336687151E+02 -0.19994113037E+02  0.22699645022E+01  0.27224095778E+02  0.51100000000E-03 0.  1.
        -12    1    3    3    0    0  0.11088657102E+02 -0.13180668043E+01  0.66861190740E+01  0.13015368020E+02  0.00000000000E+00 0.  1.
</event>
<event>
 7    1  0.6152255E-013  0.5930202E+02  0.7816164E-02  0.1266605E+00
        -11   -1    0    0    0    0  0.00000000000E+00  0.00000000000E+00  0.45593999997E+02  0.45594000000E+02  0.51100000000E-03 0. -1.
         11   -1    0    0    0    0 -0.00000000000E+00 -0.00000000000E+00 -0.45593999997E+02  0.45594000000E+02  0.51100000000E-03 0.  1.
    9900012    2    1    2    0    0 -0.17079108010E+02  0.26926192515E+02 -0.13252820082E-01  0.59302016412E+02  0.50000132011E+02 0.  0.
        -12    1    1    2    0    0  0.17079108010E+02 -0.26926192515E+02  0.13252820082E-01  0.31885983588E+02  0.00000000000E+00 0.  1.
         11    1    3    3    0    0  0.32994016598E+01  0.53040767905E+01  0.16581405713E+01  0.64628718329E+01  0.51100000000E-03 0.  1.
        -11    1    3    3    0    0 -0.17742400022E+02  0.23974275623E+02 -0.18861978477E+02  0.35289274327E+02  0.51100000000E-03 0. -1.
         12    1    3    3    0    0 -0.26361096484E+01 -0.23521598988E+01  0.17190585086E+02  0.17549870252E+02  0.00000000000E+00 0. -1.
</event>
<event>
 7    1  0.6152255E-013  0.5930194E+02  0.7816164E-02  0.1266605E+00
        -11   -1    0    0    0    0  0.00000000000E+00  0.00000000000E+00  0.45593999997E+02  0.45594000000E+02  0.51100000000E-03 0.  1.
         11   -1    0    0    0    0 -0.00000000000E+00 -0.00000000000E+00 -0.45593999997E+02  0.45594000000E+02  0.51100000000E-03 0. -1.
    9900012    2    1    2    0    0 -0.12998368763E+02 -0.19276640535E+02 -0.21821424224E+02  0.59301936963E+02  0.49999987116E+02 0.  0.
        -12    1    1    2    0    0  0.12998368763E+02  0.19276640535E+02  0.21821424224E+02  0.31886063037E+02  0.00000000000E+00 0.  1.
         11    1    3    3    0    0  0.13012629202E+01 -0.82046160483E+00 -0.27348420455E+02  0.27391650992E+02  0.51100000000E-03 0. -1.
        -11    1    3    3    0    0 -0.41364524007E+01 -0.47340447501E+01 -0.79652821845E+01  0.10147272476E+02  0.51100000000E-03 0.  1.
        -12    1    3    3    0    0 -0.10163179283E+02 -0.13722134180E+02  0.13492278415E+02  0.21763013496E+02  0.00000000000E+00 0.  1.
</event>
<event>
 7    1  0.6152255E-013  0.5930194E+02  0.7816164E-02  0.1266605E+00
        -11   -1    0    0    0    0  0.00000000000E+00  0.00000000000E+00  0.45593999997E+02  0.45594000000E+02  0.51100000000E-03 0.  1.
         11   -1    0    0    0    0 -0.00000000000E+00 -0.00000000000E+00 -0.45593999997E+02  0.45594000000E+02  0.51100000000E-03 0. -1.
    9900012    2    1    2    0    0 -0.20610375319E+02 -0.21589376374E+02 -0.11217486366E+02  0.59301941238E+02  0.49999994912E+02 0.  0.
        -12    1    1    2    0    0  0.20610375319E+02  0.21589376374E+02  0.11217486366E+02  0.31886058762E+02  0.00000000000E+00 0.  1.
         11    1    3    3    0    0  0.80531918126E+01 -0.10500412474E+02 -0.32322815700E+01  0.13622048484E+02  0.51100000000E-03 0. -1.
        -11    1    3    3    0    0 -0.14269902551E+02  0.87978806471E+01 -0.12250187600E+02  0.20762945822E+02  0.51100000000E-03 0.  1.
         12    1    3    3    0    0 -0.14393664581E+02 -0.19886844547E+02  0.42649828042E+01  0.24916946932E+02  0.00000000000E+00 0. -1.
</event>
<event>
 7    1  0.6152255E-013  0.5930194E+02  0.7816164E-02  0.1266605E+00
        -11   -1    0    0    0    0  0.00000000000E+00  0.00000000000E+00  0.45593999997E+02  0.45594000000E+02  0.51100000000E-03 0. -1.
         11   -1    0    0    0    0 -0.00000000000E+00 -0.00000000000E+00 -0.45593999997E+02  0.45594000000E+02  0.51100000000E-03 0.  1.
    9900012    2    1    2    0    0  0.15316999262E+02  0.21694080502E+02  0.17648716046E+02  0.59301940768E+02  0.49999994056E+02 0.  0.
        -12    1    1    2    0    0 -0.15316999262E+02 -0.21694080502E+02 -0.17648716046E+02  0.31886059232E+02  0.00000000000E+00 0.  1.
         11    1    3    3    0    0  0.78859992515E+00 -0.13836721853E+02 -0.24003437562E+01  0.14065504324E+02  0.51100000000E-03 0. -1.
        -11    1    3    3    0    0  0.44681413001E+01  0.55839474919E+01 -0.10767917019E+01  0.72321668192E+01  0.51100000000E-03 0.  1.
         12    1    3    3    0    0  0.10060258037E+02  0.29946854863E+02  0.21125851504E+02  0.38004269625E+02  0.00000000000E+00 0. -1.
</event>
<event>
 7    1  0.6152255E-013  0.5930196E+02  0.7816164E-02  0.1266605E+00
        -11   -1    0    0    0    0  0.00000000000E+00  0.00000000000E+00  0.45593999997E+02  0.45594000000E+02  0.51100000000E-03 0.  1.
         11   -1    0    0    0    0 -0.00000000000E+00 -0.00000000000E+00 -0.45593999997E+02  0.45594000000E+02  0.51100000000E-03 0. -1.
    9900012    2    1    2    0    0  0.21680527826E+02 -0.84904808947E+01 -0.21784988851E+02  0.59301963999E+02  0.50000036423E+02 0.  0.
        -12    1    1    2    0    0 -0.21680527826E+02  0.84904808947E+01  0.21784988851E+02  0.31886036001E+02  0.00000000000E+00 0.  1.
         11    1    3    3    0    0  0.29666670703E+02 -0.16446835051E+02 -0.84355957755E+01  0.34953812527E+02  0.51100000000E-03 0. -1.
        -11    1    3    3    0    0  0.24498148776E+01 -0.13077135484E+00 -0.10576655300E+02  0.10857455120E+02  0.51100000000E-03 0.  1.
        -12    1    3    3    0    0 -0.10435957755E+02  0.80871255116E+01 -0.27727377756E+01  0.13490696353E+02  0.00000000000E+00 0.  1.
</event>
<event>
 7    1  0.6152255E-013  0.5930194E+02  0.7816164E-02  0.1266605E+00
        -11   -1    0    0    0    0  0.00000000000E+00  0.00000000000E+00  0.45593999997E+02  0.45594000000E+02  0.51100000000E-03 0.  1.
         11   -1    0    0    0    0 -0.00000000000E+00 -0.00000000000E+00 -0.45593999997E+02  0.45594000000E+02  0.51100000000E-03 0. -1.
    9900012    2    1    2    0    0  0.30622558435E+02 -0.59419230071E+01 -0.66085798036E+01  0.59301939391E+02  0.49999991544E+02 0.  0.
        -12    1    1    2    0    0 -0.30622558435E+02  0.59419230071E+01  0.66085798036E+01  0.31886060609E+02  0.00000000000E+00 0.  1.
         11    1    3    3    0    0  0.45677892464E+01 -0.91445324353E+01 -0.96301217730E+01  0.14043732327E+02  0.51100000000E-03 0. -1.
        -11    1    3    3    0    0 -0.81250272531E+01 -0.22928089755E+01  0.62284065738E+01  0.10491238705E+02  0.51100000000E-03 0.  1.
        -12    1    3    3    0    0  0.34179796442E+02  0.54954184038E+01 -0.32068646044E+01  0.34766968358E+02  0.00000000000E+00 0.  1.
</event>
<event>
 7    1  0.6152255E-013  0.5930194E+02  0.7816164E-02  0.1266605E+00
        -11   -1    0    0    0    0  0.00000000000E+00  0.00000000000E+00  0.45593999997E+02  0.45594000000E+02  0.51100000000E-03 0.  1.
         11   -1    0    0    0    0 -0.00000000000E+00 -0.00000000000E+00 -0.45593999997E+02  0.45594000000E+02  0.51100000000E-03 0. -1.
    9900012    2    1    2    0    0 -0.19584111971E+02 -0.12337191768E+02 -0.21931184182E+02  0.59301943768E+02  0.49999999527E+02 0.  0.
        -12    1    1    2    0    0  0.19584111971E+02  0.12337191768E+02  0.21931184182E+02  0.31886056232E+02  0.00000000000E+00 0.  1.
         11    1    3    3    0    0 -0.81192083880E+01 -0.16679919221E+02 -0.29390265425E+02  0.34755272292E+02  0.51100000000E-03 0. -1.
        -11    1    3    3    0    0  0.53440091566E+01 -0.14662793196E+01  0.25308234662E+01  0.60920831074E+01  0.51100000000E-03 0.  1.
         12    1    3    3    0    0 -0.16808912739E+02  0.58090067728E+01  0.49282577765E+01  0.18454588369E+02  0.00000000000E+00 0. -1.
</event>
<event>
 7    1  0.6152255E-013  0.5930194E+02  0.7816164E-02  0.1266605E+00
        -11   -1    0    0    0    0  0.00000000000E+00  0.00000000000E+00  0.45593999997E+02  0.45594000000E+02  0.51100000000E-03 0.  1.
         11   -1    0    0    0    0 -0.00000000000E+00 -0.00000000000E+00 -0.45593999997E+02  0.45594000000E+02  0.51100000000E-03 0. -1.
    9900012    2    1    2    0    0 -0.17128706274E+02  0.26888072375E+02 -0.59961887726E+00  0.59301944154E+02  0.50000000229E+02 0.  0.
        -12    1    1    2    0    0  0.17128706274E+02 -0.26888072375E+02  0.59961887726E+00  0.31886055846E+02  0.00000000000E+00 0.  1.
         11    1    3    3    0    0  0.74391392130E+01  0.77877050387E+01  0.68154624693E+01  0.12745182264E+02  0.51100000000E-03 0. -1.
        -11    1    3    3    0    0 -0.15257524167E+02  0.25212418651E+02  0.49862367696E+01  0.29888470274E+02  0.51100000000E-03 0.  1.
         12    1    3    3    0    0 -0.93103213204E+01 -0.61120513155E+01 -0.12401318116E+02  0.16668291616E+02  0.00000000000E+00 0. -1.
</event>
<event>
 7    1  0.6152255E-013  0.5930193E+02  0.7816164E-02  0.1266605E+00
        -11   -1    0    0    0    0  0.00000000000E+00  0.00000000000E+00  0.45593999997E+02  0.45594000000E+02  0.51100000000E-03 0. -1.
         11   -1    0    0    0    0 -0.00000000000E+00 -0.00000000000E+00 -0.45593999997E+02  0.45594000000E+02  0.51100000000E-03 0.  1.
    9900012    2    1    2    0    0  0.30056372615E+02 -0.10585065772E+02 -0.11366761300E+01  0.59301934316E+02  0.49999982289E+02 0.  0.
        -12    1    1    2    0    0 -0.30056372615E+02  0.10585065772E+02  0.11366761300E+01  0.31886065684E+02  0.00000000000E+00 0.  1.
         11    1    3    3    0    0  0.33658247686E+02 -0.55396943740E+01 -0.46627496939E+01  0.34428289037E+02  0.51100000000E-03 0. -1.
        -11    1    3    3    0    0  0.65206690890E+01 -0.15285759881E+01  0.10234393960E+02  0.12231046149E+02  0.51100000000E-03 0.  1.
        -12    1    3    3    0    0 -0.10122544160E+02 -0.35167954097E+01 -0.67083203958E+01  0.12642599130E+02  0.00000000000E+00 0.  1.
</event>
<event>
 7    1  0.6152255E-013  0.5930195E+02  0.7816164E-02  0.1266605E+00
        -11   -1    0    0    0    0  0.00000000000E+00  0.00000000000E+00  0.45593999997E+02  0.45594000000E+02  0.51100000000E-03 0. -1.
         11   -1    0    0    0    0 -0.00000000000E+00 -0.00000000000E+00 -0.45593999997E+02  0.45594000000E+02  0.51100000000E-03 0.  1.
    9900012    2    1    2    0    0  0.30145898230E+02 -0.76512822666E+01  0.70287221494E+01  0.59301949202E+02  0.50000009437E+02 0.  0.
        -12    1    1    2    0    0 -0.30145898230E+02  0.76512822666E+01 -0.70287221494E+01  0.31886050798E+02  0.00000000000E+00 0.  1.
         11    1    3    3    0    0  0.16374573241E+02 -0.49235257834E+01  0.17533276125E+01  0.17188423806E+02  0.51100000000E-03 0. -1.
        -11    1    3    3    0    0  0.92261137427E+01 -0.10133702322E+01 -0.16970803494E+02  0.19343119332E+02  0.51100000000E-03 0.  1.
         12    1    3    3    0    0  0.45452112470E+01 -0.17143862510E+01  0.22246198031E+02  0.22770406064E+02  0.00000000000E+00 0. -1.
</event>
<event>
 7    1  0.6152255E-013  0.5930193E+02  0.7816164E-02  0.1266605E+00
        -11   -1    0    0    0    0  0.00000000000E+00  0.00000000000E+00  0.45593999997E+02  0.45594000000E+02  0.51100000000E-03 0.  1.
         11   -1    0    0    0    0 -0.00000000000E+00 -0.00000000000E+00 -0.45593999997E+02  0.45594000000E+02  0.51100000000E-03 0. -1.
    9900012    2    1    2    0    0 -0.25867066283E+02  0.18555524446E+02  0.18190040704E+01  0.59301931234E+02  0.49999976667E+02 0.  0.
        -12    1    1    2    0    0  0.25867066283E+02 -0.18555524446E+02 -0.18190040704E+01  0.31886068766E+02  0.00000000000E+00 0.  1.
         11    1    3    3    0    0  0.10530640884E+02 -0.21731945548E+01  0.39986899782E+01  0.11471996069E+02  0.51100000000E-03 0. -1.
        -11    1    3    3    0    0  0.31480822693E+01  0.94116586320E-01  0.24130857467E+00  0.31587196766E+01  0.51100000000E-03 0.  1.
        -12    1    3    3    0    0 -0.39545789436E+02  0.20634602414E+02 -0.24209944825E+01  0.44671215489E+02  0.00000000000E+00 0.  1.
</event>
<event>
 7    1  0.6152255E-013  0.5930194E+02  0.7816164E-02  0.1266605E+00
        -11   -1    0    0    0    0  0.00000000000E+00  0.00000000000E+00  0.45593999997E+02  0.45594000000E+02  0.51100000000E-03 0. -1.
         11   -1    0    0    0    0 -0.00000000000E+00 -0.00000000000E+00 -0.45593999997E+02  0.45594000000E+02  0.51100000000E-03 0.  1.
    9900012    2    1    2    0    0  0.20030041245E+02 -0.17048601033E+02  0.18023964326E+02  0.59301942867E+02  0.49999997883E+02 0.  0.
        -12    1    1    2    0    0 -0.20030041245E+02  0.17048601033E+02 -0.18023964326E+02  0.31886057133E+02  0.00000000000E+00 0.  1.
         11    1    3    3    0    0  0.16736396057E+01 -0.25166949188E+01 -0.54401837464E+01  0.62233770816E+01  0.51100000000E-03 0. -1.
        -11    1    3    3    0    0  0.27814162482E+02 -0.19865812407E+02  0.96662703832E+01  0.35520626692E+02  0.51100000000E-03 0.  1.
         12    1    3    3    0    0 -0.94577608431E+01  0.53339062926E+01  0.13797877689E+02  0.17557939094E+02  0.00000000000E+00 0. -1.
</event>
<event>
 7    1  0.6152255E-013  0.5930195E+02  0.7816164E-02  0.1266605E+00
        -11   -1    0    0    0    0  0.00000000000E+00  0.00000000000E+00  0.45593999997E+02  0.45594000000E+02  0.51100000000E-03 0.  1.
         11   -1    0    0    0    0 -0.00000000000E+00 -0.00000000000E+00 -0.45593999997E+02  0.45594000000E+02  0.51100000000E-03 0. -1.
    9900012    2    1    2    0    0  0.29966454847E+02 -0.68861798117E+01 -0.84446706045E+01  0.59301947405E+02  0.50000006159E+02 0.  0.
        -12    1    1    2    0    0 -0.29966454847E+02  0.68861798117E+01  0.84446706045E+01  0.31886052595E+02  0.00000000000E+00 0.  1.
         11    1    3    3    0    0  0.31181112682E+02  0.11605532507E+01 -0.71077400323E+01  0.32002009945E+02  0.51100000000E-03 0. -1.
        -11    1    3    3    0    0  0.44223312317E+01 -0.76247959383E+01  0.10782622352E+02  0.13926933319E+02  0.51100000000E-03 0.  1.
        -12    1    3    3    0    0 -0.56369890667E+01 -0.42193712415E+00 -0.12119552924E+02  0.13373004141E+02  0.00000000000E+00 0.  1.
</event>
<event>
 7    1  0.6152255E-013  0.5930195E+02  0.7816164E-02  0.1266605E+00
        -11   -1    0    0    0    0  0.00000000000E+00  0.00000000000E+00  0.45593999997E+02  0.45594000000E+02  0.51100000000E-03 0. -1.
         11   -1    0    0    0    0 -0.00000000000E+00 -0.00000000000E+00 -0.45593999997E+02  0.45594000000E+02  0.51100000000E-03 0.  1.
    9900012    2    1    2    0    0 -0.11219600238E+02  0.29240434366E+02  0.59864897535E+01  0.59301945196E+02  0.50000002130E+02 0.  0.
        -12    1    1    2    0    0  0.11219600238E+02 -0.29240434366E+02 -0.59864897535E+01  0.31886054804E+02  0.00000000000E+00 0.  1.
         11    1    3    3    0    0 -0.33538533492E+01  0.77418626581E+01  0.21003901537E+02  0.22635119831E+02  0.51100000000E-03 0. -1.
        -11    1    3    3    0    0 -0.10777004715E+02  0.38985077538E+01  0.24284801147E+01  0.11714935308E+02  0.51100000000E-03 0.  1.
         12    1    3    3    0    0  0.29112578263E+01  0.17600063954E+02 -0.17445891898E+02  0.24951890057E+02  0.00000000000E+00 0. -1.
</event>
<event>
 7    1  0.6152255E-013  0.5930193E+02  0.7816164E-02  0.1266605E+00
        -11   -1    0    0    0    0  0.00000000000E+00  0.00000000000E+00  0.45593999997E+02  0.45594000000E+02  0.51100000000E-03 0. -1.
         11   -1    0    0    0    0 -0.00000000000E+00 -0.00000000000E+00 -0.45593999997E+02  0.45594000000E+02  0.51100000000E-03 0.  1.
    9900012    2    1    2    0    0  0.13481145664E+01 -0.26248048183E+02 -0.18053918304E+02  0.59301930746E+02  0.49999975777E+02 0.  0.
        -12    1    1    2    0    0 -0.13481145664E+01  0.26248048183E+02  0.18053918304E+02  0.31886069254E+02  0.00000000000E+00 0.  1.
         11    1    3    3    0    0 -0.36440586263E+01  0.73708531957E+01 -0.36653487762E+01  0.90024120111E+01  0.51100000000E-03 0. -1.
        -11    1    3    3    0    0  0.54425676374E+01  0.15873882257E+01  0.70732436814E+01  0.90648839101E+01  0.51100000000E-03 0.  1.
         12    1    3    3    0    0 -0.45039444473E+00 -0.35206289605E+02 -0.21461813210E+02  0.41234634825E+02  0.00000000000E+00 0. -1.
</event>
<event>
 7    1  0.6152255E-013  0.5930194E+02  0.7816164E-02  0.1266605E+00
        -11   -1    0    0    0    0  0.00000000000E+00  0.00000000000E+00  0.45593999997E+02  0.45594000000E+02  0.51100000000E-03 0. -1.
         11   -1    0    0    0    0 -0.00000000000E+00 -0.00000000000E+00 -0.45593999997E+02  0.45594000000E+02  0.51100000000E-03 0.  1.
    9900012    2    1    2    0    0 -0.30955939211E+02 -0.76288004597E+01  0.50229423562E+00  0.59301936141E+02  0.49999985617E+02 0.  0.
        -12    1    1    2    0    0  0.30955939211E+02  0.76288004597E+01 -0.50229423562E+00  0.31886063859E+02  0.00000000000E+00 0.  1.
         11    1    3    3    0    0  0.12796490061E+02  0.36390027521E+01 -0.20905148979E+01  0.13467098860E+02  0.51100000000E-03 0.  1.
        -11    1    3    3    0    0 -0.80714449028E+01 -0.44880929478E+01  0.22865291706E+01  0.95141692772E+01  0.51100000000E-03 0. -1.
        -12    1    3    3    0    0 -0.35680984369E+02 -0.67797102639E+01  0.30627996295E+00  0.36320668004E+02  0.00000000000E+00 0.  1.
</event>
<event>
 7    1  0.6152255E-013  0.5930194E+02  0.7816164E-02  0.1266605E+00
        -11   -1    0    0    0    0  0.00000000000E+00  0.00000000000E+00  0.45593999997E+02  0.45594000000E+02  0.51100000000E-03 0. -1.
         11   -1    0    0    0    0 -0.00000000000E+00 -0.00000000000E+00 -0.45593999997E+02  0.45594000000E+02  0.51100000000E-03 0.  1.
    9900012    2    1    2    0    0 -0.25162482294E+02 -0.37185492743E+01 -0.19228694071E+02  0.59301940357E+02  0.49999993305E+02 0.  0.
        -12    1    1    2    0    0  0.25162482294E+02  0.37185492743E+01  0.19228694071E+02  0.31886059643E+02  0.00000000000E+00 0.  1.
         11    1    3    3    0    0 -0.14978125789E+02  0.96417034167E+01  0.14367121458E-01  0.17813110442E+02  0.51100000000E-03 0. -1.
        -11    1    3    3    0    0 -0.18734992557E+02 -0.12840223277E+02 -0.22828188384E+02  0.32202445017E+02  0.51100000000E-03 0.  1.
         12    1    3    3    0    0  0.85506360526E+01 -0.52002941440E+00  0.35851271910E+01  0.92863848979E+01  0.00000000000E+00 0. -1.
</event>
<event>
 7    1  0.6152255E-013  0.5930197E+02  0.7816164E-02  0.1266605E+00
        -11   -1    0    0    0    0  0.00000000000E+00  0.00000000000E+00  0.45593999997E+02  0.45594000000E+02  0.51100000000E-03 0.  1.
         11   -1    0    0    0    0 -0.00000000000E+00 -0.00000000000E+00 -0.45593999997E+02  0.45594000000E+02  0.51100000000E-03 0. -1.
    9900012    2    1    2    0    0  0.16719863750E+02 -0.22233213888E+02 -0.15583616607E+02  0.59301972493E+02  0.50000051914E+02 0.  0.
        -12    1    1    2    0    0 -0.16719863750E+02  0.22233213888E+02  0.15583616607E+02  0.31886027507E+02  0.00000000000E+00 0.  1.
         11    1    3    3    0    0 -0.28449798987E+01 -0.10787283147E+02 -0.83128986916E+01  0.13912716242E+02  0.51100000000E-03 0. -1.
        -11    1    3    3    0    0  0.11653304163E+02 -0.21466034317E+02 -0.16638771998E+02  0.29553999071E+02  0.51100000000E-03 0.  1.
        -12    1    3    3    0    0  0.79115394857E+01  0.10020103575E+02  0.93680540827E+01  0.15835257181E+02  0.00000000000E+00 0.  1.
</event>
<event>
 7    1  0.6152255E-013  0.5930205E+02  0.7816164E-02  0.1266604E+00
        -11   -1    0    0    0    0  0.00000000000E+00  0.00000000000E+00  0.45593999997E+02  0.45594000000E+02  0.51100000000E-03 0.  1.
         11   -1    0    0    0    0 -0.00000000000E+00 -0.00000000000E+00 -0.45593999997E+02  0.45594000000E+02  0.51100000000E-03 0. -1.
    9900012    2    1    2    0    0 -0.18077188327E+02 -0.21142350425E+02 -0.15586212640E+02  0.59302050998E+02  0.50000195088E+02 0.  0.
        -12    1    1    2    0    0  0.18077188327E+02  0.21142350425E+02  0.15586212640E+02  0.31885949002E+02  0.00000000000E+00 0.  1.
         11    1    3    3    0    0 -0.18812506005E+02 -0.19227395735E+02  0.47229643450E+00  0.26904018159E+02  0.51100000000E-03 0. -1.
        -11    1    3    3    0    0  0.34495413222E+01 -0.27241948764E+01  0.74874671903E+01  0.86823233207E+01  0.51100000000E-03 0.  1.
         12    1    3    3    0    0 -0.27142236444E+01  0.80924018708E+00 -0.23545976265E+02  0.23715709518E+02  0.00000000000E+00 0. -1.
</event>
<event>
 7    1  0.6152255E-013  0.5930195E+02  0.7816164E-02  0.1266605E+00
        -11   -1    0    0    0    0  0.00000000000E+00  0.00000000000E+00  0.45593999997E+02  0.45594000000E+02  0.51100000000E-03 0.  1.
         11   -1    0    0    0    0 -0.00000000000E+00 -0.00000000000E+00 -0.45593999997E+02  0.45594000000E+02  0.51100000000E-03 0. -1.
    9900012    2    1    2    0    0  0.15754809469E+02  0.24964155261E+02 -0.12053926143E+02  0.59301949684E+02  0.50000010316E+02 0.  0.
        -12    1    1    2    0    0 -0.15754809469E+02 -0.24964155261E+02  0.12053926143E+02  0.31886050316E+02  0.00000000000E+00 0.  1.
         11    1    3    3    0    0  0.12582747336E+02 -0.38106897374E+01 -0.14040289506E+02  0.19234776226E+02  0.51100000000E-03 0. -1.
        -11    1    3    3    0    0  0.13411815987E+02  0.54156274642E+01 -0.23258605298E+00  0.14465819210E+02  0.51100000000E-03 0.  1.
        -12    1    3    3    0    0 -0.10239753854E+02  0.23359217534E+02  0.22189494162E+01  0.25601354248E+02  0.00000000000E+00 0.  1.
</event>
<event>
 7    1  0.6152255E-013  0.5930192E+02  0.7816164E-02  0.1266605E+00
        -11   -1    0    0    0    0  0.00000000000E+00  0.00000000000E+00  0.45593999997E+02  0.45594000000E+02  0.51100000000E-03 0.  1.
         11   -1    0    0    0    0 -0.00000000000E+00 -0.00000000000E+00 -0.45593999997E+02  0.45594000000E+02  0.51100000000E-03 0. -1.
    9900012    2    1    2    0    0 -0.43567355064E+01  0.16758235839E+02 -0.26775031202E+02  0.59301922966E+02  0.49999961589E+02 0.  0.
        -12    1    1    2    0    0  0.43567355064E+01 -0.16758235839E+02  0.26775031202E+02  0.31886077034E+02  0.00000000000E+00 0.  1.
         11    1    3    3    0    0 -0.70289428873E+00  0.70760881158E+01 -0.26567127225E+02  0.27502315041E+02  0.51100000000E-03 0. -1.
        -11    1    3    3    0    0 -0.41122353923E+00 -0.10890480782E+02  0.95886200186E+00  0.10940342456E+02  0.51100000000E-03 0.  1.
         12    1    3    3    0    0 -0.32426176785E+01  0.20572628506E+02 -0.11667659795E+01  0.20859265468E+02  0.00000000000E+00 0. -1.
</event>
<event>
 7    1  0.6152255E-013  0.5930193E+02  0.7816164E-02  0.1266605E+00
        -11   -1    0    0    0    0  0.00000000000E+00  0.00000000000E+00  0.45593999997E+02  0.45594000000E+02  0.51100000000E-03 0.  1.
         11   -1    0    0    0    0 -0.00000000000E+00 -0.00000000000E+00 -0.45593999997E+02  0.45594000000E+02  0.51100000000E-03 0. -1.
    9900012    2    1    2    0    0  0.95105037425E+00 -0.10389730455E+02 -0.30130893612E+02  0.59301925522E+02  0.49999966251E+02 0.  0.
        -12    1    1    2    0    0 -0.95105037425E+00  0.10389730455E+02  0.30130893612E+02  0.31886074478E+02  0.00000000000E+00 0.  1.
         11    1    3    3    0    0  0.15524524211E+02 -0.83562082250E+01 -0.25546081154E+02  0.31039319104E+02  0.51100000000E-03 0. -1.
        -11    1    3    3    0    0  0.38326427701E+01 -0.28815874673E+00 -0.85315855200E+01  0.93573574161E+01  0.51100000000E-03 0.  1.
        -12    1    3    3    0    0 -0.18406116607E+02 -0.17453634837E+01  0.39467730623E+01  0.18905249002E+02  0.00000000000E+00 0.  1.
</event>
<event>
 7    1  0.6152255E-013  0.5930196E+02  0.7816164E-02  0.1266605E+00
        -11   -1    0    0    0    0  0.00000000000E+00  0.00000000000E+00  0.45593999997E+02  0.45594000000E+02  0.51100000000E-03 0.  1.
         11   -1    0    0    0    0 -0.00000000000E+00 -0.00000000000E+00 -0.45593999997E+02  0.45594000000E+02  0.51100000000E-03 0. -1.
    9900012    2    1    2    0    0  0.29689530370E+02 -0.11360033040E+02  0.24901338813E+01  0.59301963385E+02  0.50000035303E+02 0.  0.
        -12    1    1    2    0    0 -0.29689530370E+02  0.11360033040E+02 -0.24901338813E+01  0.31886036615E+02  0.00000000000E+00 0.  1.
         11    1    3    3    0    0  0.73030097602E+01  0.10068735516E+02 -0.91041647676E+01  0.15414253236E+02  0.51100000000E-03 0. -1.
        -11    1    3    3    0    0  0.37446184900E+01 -0.16321454073E+02 -0.59626606429E+01  0.17775414282E+02  0.51100000000E-03 0.  1.
        -12    1    3    3    0    0  0.18641902120E+02 -0.51073144834E+01  0.17556959292E+02  0.26112295867E+02  0.00000000000E+00 0.  1.
</event>
<event>
 7    1  0.6152255E-013  0.5930198E+02  0.7816164E-02  0.1266605E+00
        -11   -1    0    0    0    0  0.00000000000E+00  0.00000000000E+00  0.45593999997E+02  0.45594000000E+02  0.51100000000E-03 0. -1.
         11   -1    0    0    0    0 -0.00000000000E+00 -0.00000000000E+00 -0.45593999997E+02  0.45594000000E+02  0.51100000000E-03 0.  1.
    9900012    2    1    2    0    0  0.12791144794E+02 -0.11276183256E+02  0.26943510321E+02  0.59301977320E+02  0.50000060716E+02 0.  0.
        -12    1    1    2    0    0 -0.12791144794E+02  0.11276183256E+02 -0.26943510321E+02  0.31886022680E+02  0.00000000000E+00 0.  1.
         11    1    3    3    0    0  0.30848218313E+01  0.32729185451E+01  0.29794008511E+01  0.53949004835E+01  0.51100000000E-03 0. -1.
        -11    1    3    3    0    0  0.27087217186E+02 -0.82843724795E+01  0.20847655722E+02  0.35170625693E+02  0.51100000000E-03 0.  1.
         12    1    3    3    0    0 -0.17380894224E+02 -0.62647293211E+01  0.31164537477E+01  0.18736451143E+02  0.00000000000E+00 0. -1.
</event>
<event>
 7    1  0.6152255E-013  0.5930176E+02  0.7816164E-02  0.1266605E+00
        -11   -1    0    0    0    0  0.00000000000E+00  0.00000000000E+00  0.45593999997E+02  0.45594000000E+02  0.51100000000E-03 0.  1.
         11   -1    0    0    0    0 -0.00000000000E+00 -0.00000000000E+00 -0.45593999997E+02  0.45594000000E+02  0.51100000000E-03 0. -1.
    9900012    2    1    2    0    0  0.15479549600E+02 -0.25694628057E+01 -0.27758123229E+02  0.59301764724E+02  0.49999672991E+02 0.  0.
        -12    1    1    2    0    0 -0.15479549600E+02  0.25694628057E+01  0.27758123229E+02  0.31886235276E+02  0.00000000000E+00 0.  1.
         11    1    3    3    0    0  0.38548105825E+01  0.31946167144E+01 -0.26921622634E+01  0.56844417926E+01  0.51100000000E-03 0.  1.
        -11    1    3    3    0    0  0.21464756736E+02 -0.26112334691E+01 -0.33775121095E+02  0.40103779462E+02  0.51100000000E-03 0. -1.
        -12    1    3    3    0    0 -0.98400177184E+01 -0.31528460510E+01  0.87091601295E+01  0.13513543469E+02  0.00000000000E+00 0.  1.
</event>
<event>
 7    1  0.6152255E-013  0.5930176E+02  0.7816164E-02  0.1266605E+00
        -11   -1    0    0    0    0  0.00000000000E+00  0.00000000000E+00  0.45593999997E+02  0.45594000000E+02  0.51100000000E-03 0.  1.
         11   -1    0    0    0    0 -0.00000000000E+00 -0.00000000000E+00 -0.45593999997E+02  0.45594000000E+02  0.51100000000E-03 0. -1.
    9900012    2    1    2    0    0 -0.21126143743E+02  0.33751455850E+01 -0.23643743168E+02  0.59301762402E+02  0.49999668756E+02 0.  0.
        -12    1    1    2    0    0  0.21126143743E+02 -0.33751455850E+01  0.23643743168E+02  0.31886237598E+02  0.00000000000E+00 0.  1.
         11    1    3    3    0    0 -0.66803107531E+01 -0.19803138007E+01  0.75224101602E+01  0.10253528631E+02  0.51100000000E-03 0. -1.
        -11    1    3    3    0    0  0.16744821242E+01 -0.10635488837E+02 -0.22129919667E+02  0.24609974765E+02  0.51100000000E-03 0.  1.
         12    1    3    3    0    0 -0.16120315114E+02  0.15990948223E+02 -0.90362336610E+01  0.24438259006E+02  0.00000000000E+00 0. -1.
</event>
<event>
 7    1  0.6152255E-013  0.5930194E+02  0.7816164E-02  0.1266605E+00
        -11   -1    0    0    0    0  0.00000000000E+00  0.00000000000E+00  0.45593999997E+02  0.45594000000E+02  0.51100000000E-03 0.  1.
         11   -1    0    0    0    0 -0.00000000000E+00 -0.00000000000E+00 -0.45593999997E+02  0.45594000000E+02  0.51100000000E-03 0. -1.
    9900012    2    1    2    0    0  0.22388087901E+02 -0.11822137756E+02 -0.19383787987E+02  0.59301942582E+02  0.49999997363E+02 0.  0.
        -12    1    1    2    0    0 -0.22388087901E+02  0.11822137756E+02  0.19383787987E+02  0.31886057418E+02  0.00000000000E+00 0.  1.
         11    1    3    3    0    0  0.15832275194E+02 -0.48245818859E+01 -0.36545413803E+01  0.16949725695E+02  0.51100000000E-03 0. -1.
        -11    1    3    3    0    0  0.18639379675E+01 -0.20303945207E+02 -0.18998841974E+02  0.27868987286E+02  0.51100000000E-03 0.  1.
        -12    1    3    3    0    0  0.46918747395E+01  0.13306389337E+02  0.32695953680E+01  0.14483229600E+02  0.00000000000E+00 0.  1.
</event>
<event>
 7    1  0.6152255E-013  0.5930171E+02  0.7816164E-02  0.1266606E+00
        -11   -1    0    0    0    0  0.00000000000E+00  0.00000000000E+00  0.45593999997E+02  0.45594000000E+02  0.51100000000E-03 0.  1.
         11   -1    0    0    0    0 -0.00000000000E+00 -0.00000000000E+00 -0.45593999997E+02  0.45594000000E+02  0.51100000000E-03 0. -1.
    9900012    2    1    2    0    0 -0.15526693582E+02  0.22164836044E+02 -0.16863487801E+02  0.59301711547E+02  0.49999576009E+02 0.  0.
        -12    1    1    2    0    0  0.15526693582E+02 -0.22164836044E+02  0.16863487801E+02  0.31886288453E+02  0.00000000000E+00 0.  1.
         11    1    3    3    0    0  0.37547678970E+01 -0.79536158732E+01 -0.92107822321E+01  0.12735650632E+02  0.51100000000E-03 0. -1.
        -11    1    3    3    0    0 -0.23446875612E+02  0.10299709339E+02 -0.55645028090E+01  0.26206939543E+02  0.51100000000E-03 0.  1.
         12    1    3    3    0    0  0.41654141327E+01  0.19818742579E+02 -0.20882027603E+01  0.20359121373E+02  0.00000000000E+00 0. -1.
</event>
<event>
 7    1  0.6152255E-013  0.5930221E+02  0.7816164E-02  0.1266604E+00
        -11   -1    0    0    0    0  0.00000000000E+00  0.00000000000E+00  0.45593999997E+02  0.45594000000E+02  0.51100000000E-03 0.  1.
         11   -1    0    0    0    0 -0.00000000000E+00 -0.00000000000E+00 -0.45593999997E+02  0.45594000000E+02  0.51100000000E-03 0. -1.
    9900012    2    1    2    0    0 -0.15529316335E+02  0.23113810669E+02 -0.15533695087E+02  0.59302210178E+02  0.50000485393E+02 0.  0.
        -12    1    1    2    0    0  0.15529316335E+02 -0.23113810669E+02  0.15533695087E+02  0.31885789822E+02  0.00000000000E+00 0.  1.
         11    1    3    3    0    0  0.50931738340E+01 -0.24852056341E+01 -0.32346544269E+01  0.65253089023E+01  0.51100000000E-03 0. -1.
        -11    1    3    3    0    0  0.58162173391E+01  0.71672118986E+00  0.89587557091E+01  0.10705203292E+02  0.51100000000E-03 0.  1.
         12    1    3    3    0    0 -0.26438707508E+02  0.24882295114E+02 -0.21257796369E+02  0.42071697984E+02  0.00000000000E+00 0. -1.
</event>
<event>
 7    1  0.6152255E-013  0.5930218E+02  0.7816164E-02  0.1266604E+00
        -11   -1    0    0    0    0  0.00000000000E+00  0.00000000000E+00  0.45593999997E+02  0.45594000000E+02  0.51100000000E-03 0. -1.
         11   -1    0    0    0    0 -0.00000000000E+00 -0.00000000000E+00 -0.45593999997E+02  0.45594000000E+02  0.51100000000E-03 0.  1.
    9900012    2    1    2    0    0 -0.17465706160E+02 -0.25610301453E+02  0.74677562616E+01  0.59302175317E+02  0.50000421814E+02 0.  0.
        -12    1    1    2    0    0  0.17465706160E+02  0.25610301453E+02 -0.74677562616E+01  0.31885824683E+02  0.00000000000E+00 0.  1.
         11    1    3    3    0    0  0.57025788328E+01 -0.13841186278E+02  0.58644126875E+01  0.16077598681E+02  0.51100000000E-03 0. -1.
        -11    1    3    3    0    0 -0.15971532068E+01 -0.64763813662E+00 -0.14173503388E+02  0.14277903630E+02  0.51100000000E-03 0.  1.
        -12    1    3    3    0    0 -0.21571131786E+02 -0.11121477038E+02  0.15776846962E+02  0.28946673005E+02  0.00000000000E+00 0.  1.
</event>
<event>
 7    1  0.6152255E-013  0.5930196E+02  0.7816164E-02  0.1266605E+00
        -11   -1    0    0    0    0  0.00000000000E+00  0.00000000000E+00  0.45593999997E+02  0.45594000000E+02  0.51100000000E-03 0.  1.
         11   -1    0    0    0    0 -0.00000000000E+00 -0.00000000000E+00 -0.45593999997E+02  0.45594000000E+02  0.51100000000E-03 0. -1.
    9900012    2    1    2    0    0 -0.69074279823E+01 -0.19171853861E+02 -0.24524414518E+02  0.59301961531E+02  0.50000031922E+02 0.  0.
        -12    1    1    2    0    0  0.69074279823E+01  0.19171853861E+02  0.24524414518E+02  0.31886038469E+02  0.00000000000E+00 0.  1.
         11    1    3    3    0    0  0.14227404230E+02 -0.12990840953E+02 -0.16870528638E+02  0.25608508675E+02  0.51100000000E-03 0. -1.
        -11    1    3    3    0    0 -0.26005629855E+00 -0.83394427809E+01 -0.94792510041E+01  0.12628148520E+02  0.51100000000E-03 0.  1.
        -12    1    3    3    0    0 -0.20874775914E+02  0.21584298728E+01  0.18253651240E+01  0.21065304337E+02  0.00000000000E+00 0.  1.
</event>
<event>
 7    1  0.6152255E-013  0.5930186E+02  0.7816164E-02  0.1266605E+00
        -11   -1    0    0    0    0  0.00000000000E+00  0.00000000000E+00  0.45593999997E+02  0.45594000000E+02  0.51100000000E-03 0.  1.
         11   -1    0    0    0    0 -0.00000000000E+00 -0.00000000000E+00 -0.45593999997E+02  0.45594000000E+02  0.51100000000E-03 0. -1.
    9900012    2    1    2    0    0  0.68166744719E-01 -0.19484879678E+02 -0.25240061808E+02  0.59301860334E+02  0.49999847362E+02 0.  0.
        -12    1    1    2    0    0 -0.68166744719E-01  0.19484879678E+02  0.25240061808E+02  0.31886139666E+02  0.00000000000E+00 0.  1.
         11    1    3    3    0    0 -0.60538581963E+00 -0.73184299465E+01 -0.27326044067E+02  0.28295557840E+02  0.51100000000E-03 0. -1.
        -11    1    3    3    0    0  0.28330806579E+01  0.56811133660E+01 -0.81406764016E+01  0.10323371912E+02  0.51100000000E-03 0.  1.
        -12    1    3    3    0    0 -0.21595280935E+01 -0.17847563097E+02  0.10226658661E+02  0.20682930582E+02  0.00000000000E+00 0.  1.
</event>
<event>
 7    1  0.6152255E-013  0.5930192E+02  0.7816164E-02  0.1266605E+00
        -11   -1    0    0    0    0  0.00000000000E+00  0.00000000000E+00  0.45593999997E+02  0.45594000000E+02  0.51100000000E-03 0.  1.
         11   -1    0    0    0    0 -0.00000000000E+00 -0.00000000000E+00 -0.45593999997E+02  0.45594000000E+02  0.51100000000E-03 0. -1.
    9900012    2    1    2    0    0  0.14416745290E+02  0.21854379413E+02  0.18200697341E+02  0.59301924230E+02  0.49999963893E+02 0.  0.
        -12    1    1    2    0    0 -0.14416745290E+02 -0.21854379413E+02 -0.18200697341E+02  0.31886075770E+02  0.00000000000E+00 0.  1.
         11    1    3    3    0    0 -0.68244848844E+01 -0.43990599910E+01 -0.23868572550E+01  0.84630024553E+01  0.51100000000E-03 0. -1.
        -11    1    3    3    0    0  0.23284656904E+02  0.39154291039E+01  0.14044738316E+02  0.27472904958E+02  0.51100000000E-03 0.  1.
        -12    1    3    3    0    0 -0.20434267294E+01  0.22338010300E+02  0.65428162805E+01  0.23366016816E+02  0.00000000000E+00 0.  1.
</event>
<event>
 7    1  0.6152255E-013  0.5930195E+02  0.7816164E-02  0.1266605E+00
        -11   -1    0    0    0    0  0.00000000000E+00  0.00000000000E+00  0.45593999997E+02  0.45594000000E+02  0.51100000000E-03 0. -1.
         11   -1    0    0    0    0 -0.00000000000E+00 -0.00000000000E+00 -0.45593999997E+02  0.45594000000E+02  0.51100000000E-03 0.  1.
    9900012    2    1    2    0    0  0.94460103748E+01  0.18132696622E+02  0.24468319879E+02  0.59301945423E+02  0.50000002545E+02 0.  0.
        -12    1    1    2    0    0 -0.94460103748E+01 -0.18132696622E+02 -0.24468319879E+02  0.31886054577E+02  0.00000000000E+00 0.  1.
         11    1    3    3    0    0 -0.19768130440E+02  0.10934802468E+02  0.16889363330E+02  0.28206373040E+02  0.51100000000E-03 0.  1.
        -11    1    3    3    0    0  0.12038921114E+02  0.35464573791E+01  0.40287279177E+01  0.13181184713E+02  0.51100000000E-03 0. -1.
        -12    1    3    3    0    0  0.17175219700E+02  0.36514367747E+01  0.35502286316E+01  0.17914387670E+02  0.00000000000E+00 0.  1.
</event>
<event>
 7    1  0.6152255E-013  0.5930187E+02  0.7816164E-02  0.1266605E+00
        -11   -1    0    0    0    0  0.00000000000E+00  0.00000000000E+00  0.45593999997E+02  0.45594000000E+02  0.51100000000E-03 0.  1.
         11   -1    0    0    0    0 -0.00000000000E+00 -0.00000000000E+00 -0.45593999997E+02  0.45594000000E+02  0.51100000000E-03 0. -1.
    9900012    2    1    2    0    0  0.82306857374E+01 -0.19754926807E+02 -0.23637342374E+02  0.59301870173E+02  0.49999865307E+02 0.  0.
        -12    1    1    2    0    0 -0.82306857374E+01  0.19754926807E+02  0.23637342374E+02  0.31886129827E+02  0.00000000000E+00 0.  1.
         11    1    3    3    0    0  0.49170397659E+01 -0.29036139521E+01  0.48588354953E+01  0.74977687797E+01  0.51100000000E-03 0. -1.
        -11    1    3    3    0    0  0.11532123421E+02 -0.19885812208E+02 -0.10699408266E+01  0.23012608966E+02  0.51100000000E-03 0.  1.
         12    1    3    3    0    0 -0.82184774494E+01  0.30344993537E+01 -0.27426237042E+02  0.28791492428E+02  0.00000000000E+00 0. -1.
</event>
<event>
 7    1  0.6152255E-013  0.5930194E+02  0.7816164E-02  0.1266605E+00
        -11   -1    0    0    0    0  0.00000000000E+00  0.00000000000E+00  0.45593999997E+02  0.45594000000E+02  0.51100000000E-03 0. -1.
         11   -1    0    0    0    0 -0.00000000000E+00 -0.00000000000E+00 -0.45593999997E+02  0.45594000000E+02  0.51100000000E-03 0.  1.
    9900012    2    1    2    0    0 -0.10930628276E+02 -0.56504028963E+01  0.29416236333E+02  0.59301942743E+02  0.49999997657E+02 0.  0.
        -12    1    1    2    0    0  0.10930628276E+02  0.56504028963E+01 -0.29416236333E+02  0.31886057257E+02  0.00000000000E+00 0.  1.
         11    1    3    3    0    0  0.28020479304E+01 -0.14989335191E+02  0.22263992962E+02  0.26985496567E+02  0.51100000000E-03 0. -1.
        -11    1    3    3    0    0  0.52191723061E+01  0.75119341413E+00  0.10010435854E+02  0.11314277589E+02  0.51100000000E-03 0.  1.
        -12    1    3    3    0    0 -0.18951848512E+02  0.85877388808E+01 -0.28581924830E+01  0.21002168588E+02  0.00000000000E+00 0.  1.
</event>
<event>
 7    1  0.6152255E-013  0.5930193E+02  0.7816164E-02  0.1266605E+00
        -11   -1    0    0    0    0  0.00000000000E+00  0.00000000000E+00  0.45593999997E+02  0.45594000000E+02  0.51100000000E-03 0. -1.
         11   -1    0    0    0    0 -0.00000000000E+00 -0.00000000000E+00 -0.45593999997E+02  0.45594000000E+02  0.51100000000E-03 0.  1.
    9900012    2    1    2    0    0  0.22773068753E+02  0.17532736055E+02  0.13809861263E+02  0.59301925263E+02  0.49999965778E+02 0.  0.
        -12    1    1    2    0    0 -0.22773068753E+02 -0.17532736055E+02 -0.13809861263E+02  0.31886074737E+02  0.00000000000E+00 0.  1.
         11    1    3    3    0    0 -0.11776302593E+02  0.15961694019E+02  0.54776082301E+01  0.20578172196E+02  0.51100000000E-03 0. -1.
        -11    1    3    3    0    0  0.43352601154E+01  0.13007889563E+01  0.71786327896E+01  0.84864186302E+01  0.51100000000E-03 0.  1.
        -12    1    3    3    0    0  0.30214111231E+02  0.27025307963E+00  0.11536202432E+01  0.30237334438E+02  0.00000000000E+00 0.  1.
</event>
<event>
 7    1  0.6152255E-013  0.5930195E+02  0.7816164E-02  0.1266605E+00
        -11   -1    0    0    0    0  0.00000000000E+00  0.00000000000E+00  0.45593999997E+02  0.45594000000E+02  0.51100000000E-03 0. -1.
         11   -1    0    0    0    0 -0.00000000000E+00 -0.00000000000E+00 -0.45593999997E+02  0.45594000000E+02  0.51100000000E-03 0.  1.
    9900012    2    1    2    0    0  0.21939399111E+02 -0.48353525086E+01  0.22627473480E+02  0.59301946257E+02  0.50000004065E+02 0.  0.
        -12    1    1    2    0    0 -0.21939399111E+02  0.48353525086E+01 -0.22627473480E+02  0.31886053743E+02  0.00000000000E+00 0.  1.
         11    1    3    3    0    0  0.65567587698E+01  0.52478173956E+01  0.17596733831E+02  0.19498095157E+02  0.51100000000E-03 0. -1.
        -11    1    3    3    0    0 -0.30679002981E+01 -0.12965607016E+02  0.13791935173E+02  0.19176455710E+02  0.51100000000E-03 0.  1.
         12    1    3    3    0    0  0.18450540639E+02  0.28824371116E+01 -0.87611955228E+01  0.20627395390E+02  0.00000000000E+00 0. -1.
</event>
<event>
 7    1  0.6152255E-013  0.5930195E+02  0.7816164E-02  0.1266605E+00
        -11   -1    0    0    0    0  0.00000000000E+00  0.00000000000E+00  0.45593999997E+02  0.45594000000E+02  0.51100000000E-03 0. -1.
         11   -1    0    0    0    0 -0.00000000000E+00 -0.00000000000E+00 -0.45593999997E+02  0.45594000000E+02  0.51100000000E-03 0.  1.
    9900012    2    1    2    0    0 -0.26518143255E+02 -0.17527003608E+02 -0.25124031490E+01  0.59301953730E+02  0.50000017694E+02 0.  0.
        -12    1    1    2    0    0  0.26518143255E+02  0.17527003608E+02  0.25124031490E+01  0.31886046270E+02  0.00000000000E+00 0.  1.
         11    1    3    3    0    0 -0.28362503525E+02 -0.48246746897E+01  0.93473616189E+01  0.30250326636E+02  0.51100000000E-03 0. -1.
        -11    1    3    3    0    0 -0.42846513933E+01 -0.12431255582E+02 -0.16687130152E+02  0.21245109222E+02  0.51100000000E-03 0.  1.
        -12    1    3    3    0    0  0.61290116637E+01 -0.27107333591E+00  0.48273653836E+01  0.78065178712E+01  0.00000000000E+00 0.  1.
</event>
<event>
 7    1  0.6152255E-013  0.5930201E+02  0.7816164E-02  0.1266605E+00
        -11   -1    0    0    0    0  0.00000000000E+00  0.00000000000E+00  0.45593999997E+02  0.45594000000E+02  0.51100000000E-03 0. -1.
         11   -1    0    0    0    0 -0.00000000000E+00 -0.00000000000E+00 -0.45593999997E+02  0.45594000000E+02  0.51100000000E-03 0.  1.
    9900012    2    1    2    0    0  0.44864003094E+01  0.20669730882E+02  0.23861071374E+02  0.59302011077E+02  0.50000122282E+02 0.  0.
        -12    1    1    2    0    0 -0.44864003094E+01 -0.20669730882E+02 -0.23861071374E+02  0.31885988923E+02  0.00000000000E+00 0.  1.
         11    1    3    3    0    0  0.20501645036E+02  0.97241535680E+01  0.11937161304E+02  0.25639275186E+02  0.51100000000E-03 0. -1.
        -11    1    3    3    0    0 -0.31996355251E+00  0.60516930413E+01 -0.65562123230E+01  0.89280056914E+01  0.51100000000E-03 0.  1.
        -12    1    3    3    0    0 -0.15695281174E+02  0.48938842723E+01  0.18480122393E+02  0.24734730200E+02  0.00000000000E+00 0.  1.
</event>
<event>
 7    1  0.6152255E-013  0.5930198E+02  0.7816164E-02  0.1266605E+00
        -11   -1    0    0    0    0  0.00000000000E+00  0.00000000000E+00  0.45593999997E+02  0.45594000000E+02  0.51100000000E-03 0.  1.
         11   -1    0    0    0    0 -0.00000000000E+00 -0.00000000000E+00 -0.45593999997E+02  0.45594000000E+02  0.51100000000E-03 0. -1.
    9900012    2    1    2    0    0  0.12708922651E+02  0.24944254616E+02 -0.15263865002E+02  0.59301982248E+02  0.50000069704E+02 0.  0.
        -12    1    1    2    0    0 -0.12708922651E+02 -0.24944254616E+02  0.15263865002E+02  0.31886017752E+02  0.00000000000E+00 0.  1.
         11    1    3    3    0    0 -0.54023825804E+01 -0.70893762398E+00  0.60017777705E+01  0.81061499349E+01  0.51100000000E-03 0. -1.
        -11    1    3    3    0    0  0.11279918937E+02 -0.82344681404E+00  0.58100587692E+01  0.12715007630E+02  0.51100000000E-03 0.  1.
         12    1    3    3    0    0  0.68313862947E+01  0.26476639054E+02 -0.27075701541E+02  0.38480824683E+02  0.00000000000E+00 0. -1.
</event>
<event>
 7    1  0.6152255E-013  0.5930194E+02  0.7816164E-02  0.1266605E+00
        -11   -1    0    0    0    0  0.00000000000E+00  0.00000000000E+00  0.45593999997E+02  0.45594000000E+02  0.51100000000E-03 0. -1.
         11   -1    0    0    0    0 -0.00000000000E+00 -0.00000000000E+00 -0.45593999997E+02  0.45594000000E+02  0.51100000000E-03 0.  1.
    9900012    2    1    2    0    0  0.11900975825E+02 -0.26650324434E+02  0.12839297685E+02  0.59301943752E+02  0.49999999497E+02 0.  0.
        -12    1    1    2    0    0 -0.11900975825E+02  0.26650324434E+02 -0.12839297685E+02  0.31886056248E+02  0.00000000000E+00 0.  1.
         11    1    3    3    0    0 -0.34835156090E+01 -0.65216581506E+01  0.83024637401E+01  0.11117455215E+02  0.51100000000E-03 0. -1.
        -11    1    3    3    0    0 -0.13665092884E+02 -0.52767899687E+01 -0.23601816738E+01  0.14837443638E+02  0.51100000000E-03 0.  1.
        -12    1    3    3    0    0  0.29049584318E+02 -0.14851876315E+02  0.68970156189E+01  0.33347044900E+02  0.00000000000E+00 0.  1.
</event>
<event>
 7    1  0.6152255E-013  0.5930189E+02  0.7816164E-02  0.1266605E+00
        -11   -1    0    0    0    0  0.00000000000E+00  0.00000000000E+00  0.45593999997E+02  0.45594000000E+02  0.51100000000E-03 0.  1.
         11   -1    0    0    0    0 -0.00000000000E+00 -0.00000000000E+00 -0.45593999997E+02  0.45594000000E+02  0.51100000000E-03 0. -1.
    9900012    2    1    2    0    0 -0.30643079997E+02 -0.57033922570E+01 -0.67228664589E+01  0.59301890668E+02  0.49999902684E+02 0.  0.
        -12    1    1    2    0    0  0.30643079997E+02  0.57033922570E+01  0.67228664589E+01  0.31886109332E+02  0.00000000000E+00 0.  1.
         11    1    3    3    0    0 -0.18697762076E+02 -0.39183159567E+01 -0.13674675817E+02  0.23493749499E+02  0.51100000000E-03 0. -1.
        -11    1    3    3    0    0 -0.10059581672E+02 -0.15935300775E+02 -0.20118046900E+01  0.18951948517E+02  0.51100000000E-03 0.  1.
        -12    1    3    3    0    0 -0.18857362490E+01  0.14150224475E+02  0.89636140483E+01  0.16856192651E+02  0.00000000000E+00 0.  1.
</event>
<event>
 7    1  0.6152255E-013  0.5930192E+02  0.7816164E-02  0.1266605E+00
        -11   -1    0    0    0    0  0.00000000000E+00  0.00000000000E+00  0.45593999997E+02  0.45594000000E+02  0.51100000000E-03 0.  1.
         11   -1    0    0    0    0 -0.00000000000E+00 -0.00000000000E+00 -0.45593999997E+02  0.45594000000E+02  0.51100000000E-03 0. -1.
    9900012    2    1    2    0    0 -0.30855028427E+02 -0.77124932571E+01 -0.22818844410E+01  0.59301916389E+02  0.49999949593E+02 0.  0.
        -12    1    1    2    0    0  0.30855028427E+02  0.77124932571E+01  0.22818844410E+01  0.31886083611E+02  0.00000000000E+00 0.  1.
         11    1    3    3    0    0 -0.32124629257E+02 -0.74808195126E+01  0.10698762415E+02  0.34675899166E+02  0.51100000000E-03 0. -1.
        -11    1    3    3    0    0 -0.95115921336E+01  0.20654316208E+01 -0.45272941616E+01  0.10734653482E+02  0.51100000000E-03 0.  1.
        -12    1    3    3    0    0  0.10781192964E+02 -0.22971053653E+01 -0.84533526946E+01  0.13891363740E+02  0.00000000000E+00 0.  1.
</event>
<event>
 7    1  0.6152255E-013  0.5930196E+02  0.7816164E-02  0.1266605E+00
        -11   -1    0    0    0    0  0.00000000000E+00  0.00000000000E+00  0.45593999997E+02  0.45594000000E+02  0.51100000000E-03 0. -1.
         11   -1    0    0    0    0 -0.00000000000E+00 -0.00000000000E+00 -0.45593999997E+02  0.45594000000E+02  0.51100000000E-03 0.  1.
    9900012    2    1    2    0    0 -0.55703834051E+01  0.18263133571E+02  0.25537197625E+02  0.59301957886E+02  0.50000025275E+02 0.  0.
        -12    1    1    2    0    0  0.55703834051E+01 -0.18263133571E+02 -0.25537197625E+02  0.31886042114E+02  0.00000000000E+00 0.  1.
         11    1    3    3    0    0 -0.50829862786E+01  0.17713343586E+02  0.77699352711E+01  0.19999279609E+02  0.51100000000E-03 0. -1.
        -11    1    3    3    0    0 -0.12994234401E+02  0.30816352469E+00 -0.45062463112E+01  0.13756865504E+02  0.51100000000E-03 0.  1.
         12    1    3    3    0    0  0.12506837274E+02  0.24162646042E+00  0.22273508666E+02  0.25545812773E+02  0.00000000000E+00 0. -1.
</event>
<event>
 7    1  0.6152255E-013  0.5930187E+02  0.7816164E-02  0.1266605E+00
        -11   -1    0    0    0    0  0.00000000000E+00  0.00000000000E+00  0.45593999997E+02  0.45594000000E+02  0.51100000000E-03 0.  1.
         11   -1    0    0    0    0 -0.00000000000E+00 -0.00000000000E+00 -0.45593999997E+02  0.45594000000E+02  0.51100000000E-03 0. -1.
    9900012    2    1    2    0    0  0.40965639761E+01 -0.24797652348E+02  0.19621915829E+02  0.59301874817E+02  0.49999873776E+02 0.  0.
        -12    1    1    2    0    0 -0.40965639761E+01  0.24797652348E+02 -0.19621915829E+02  0.31886125183E+02  0.00000000000E+00 0.  1.
         11    1    3    3    0    0  0.15083093282E+02 -0.14039901266E+02 -0.35547363301E+01  0.20910635599E+02  0.51100000000E-03 0. -1.
        -11    1    3    3    0    0  0.63710286246E+00  0.26212327403E+01 -0.46641000188E+01  0.53880043042E+01  0.51100000000E-03 0.  1.
         12    1    3    3    0    0 -0.11623632168E+02 -0.13378983822E+02  0.27840752178E+02  0.33003234913E+02  0.00000000000E+00 0. -1.
</event>
<event>
 7    1  0.6152255E-013  0.5930184E+02  0.7816164E-02  0.1266605E+00
        -11   -1    0    0    0    0  0.00000000000E+00  0.00000000000E+00  0.45593999997E+02  0.45594000000E+02  0.51100000000E-03 0.  1.
         11   -1    0    0    0    0 -0.00000000000E+00 -0.00000000000E+00 -0.45593999997E+02  0.45594000000E+02  0.51100000000E-03 0. -1.
    9900012    2    1    2    0    0 -0.12044410912E+02 -0.14054290406E+02 -0.25964139184E+02  0.59301836282E+02  0.49999803498E+02 0.  0.
        -12    1    1    2    0    0  0.12044410912E+02  0.14054290406E+02  0.25964139184E+02  0.31886163718E+02  0.00000000000E+00 0.  1.
         11    1    3    3    0    0  0.12613148265E+02 -0.65568291038E+01 -0.10334474192E+02  0.17575120886E+02  0.51100000000E-03 0. -1.
        -11    1    3    3    0    0 -0.76646142903E+00  0.76183998088E+01  0.26014845514E+01  0.80867299263E+01  0.51100000000E-03 0.  1.
         12    1    3    3    0    0 -0.23891097748E+02 -0.15115861111E+02 -0.18231149543E+02  0.33639985470E+02  0.00000000000E+00 0. -1.
</event>
<event>
 7    1  0.6152255E-013  0.5930202E+02  0.7816164E-02  0.1266605E+00
        -11   -1    0    0    0    0  0.00000000000E+00  0.00000000000E+00  0.45593999997E+02  0.45594000000E+02  0.51100000000E-03 0. -1.
         11   -1    0    0    0    0 -0.00000000000E+00 -0.00000000000E+00 -0.45593999997E+02  0.45594000000E+02  0.51100000000E-03 0.  1.
    9900012    2    1    2    0    0 -0.22900293070E+02  0.17759273015E+02 -0.13300399963E+02  0.59302018129E+02  0.50000135142E+02 0.  0.
        -12    1    1    2    0    0  0.22900293070E+02 -0.17759273015E+02  0.13300399963E+02  0.31885981871E+02  0.00000000000E+00 0.  1.
         11    1    3    3    0    0 -0.66006706602E+01  0.29358389723E+02 -0.13950274889E+02  0.33167666032E+02  0.51100000000E-03 0. -1.
        -11    1    3    3    0    0  0.99128852168E+00 -0.18474714594E+01  0.53398054804E+01  0.57366651075E+01  0.51100000000E-03 0.  1.
        -12    1    3    3    0    0 -0.17290910932E+02 -0.97516452483E+01 -0.46899305539E+01  0.20397686989E+02  0.00000000000E+00 0.  1.
</event>
<event>
 7    1  0.6152255E-013  0.5930194E+02  0.7816164E-02  0.1266605E+00
        -11   -1    0    0    0    0  0.00000000000E+00  0.00000000000E+00  0.45593999997E+02  0.45594000000E+02  0.51100000000E-03 0. -1.
         11   -1    0    0    0    0 -0.00000000000E+00 -0.00000000000E+00 -0.45593999997E+02  0.45594000000E+02  0.51100000000E-03 0.  1.
    9900012    2    1    2    0    0 -0.26436309992E+02  0.11814648926E+02  0.13351261459E+02  0.59301943521E+02  0.49999999076E+02 0.  0.
        -12    1    1    2    0    0  0.26436309992E+02 -0.11814648926E+02 -0.13351261459E+02  0.31886056479E+02  0.00000000000E+00 0.  1.
         11    1    3    3    0    0 -0.34333712834E+02  0.19717240655E+01  0.15805531787E+02  0.37848465862E+02  0.51100000000E-03 0. -1.
        -11    1    3    3    0    0  0.15701835998E+01  0.49074495311E+01 -0.94788215769E+01  0.10788725420E+02  0.51100000000E-03 0.  1.
        -12    1    3    3    0    0  0.63272192427E+01  0.49354753297E+01  0.70245512490E+01  0.10664752239E+02  0.00000000000E+00 0.  1.
</event>
<event>
 7    1  0.6152255E-013  0.5930196E+02  0.7816164E-02  0.1266605E+00
        -11   -1    0    0    0    0  0.00000000000E+00  0.00000000000E+00  0.45593999997E+02  0.45594000000E+02  0.51100000000E-03 0. -1.
         11   -1    0    0    0    0 -0.00000000000E+00 -0.00000000000E+00 -0.45593999997E+02  0.45594000000E+02  0.51100000000E-03 0.  1.
    9900012    2    1    2    0    0 -0.24126204985E+02 -0.12422703889E+02  0.16742833113E+02  0.59301956038E+02  0.50000021904E+02 0.  0.
        -12    1    1    2    0    0  0.24126204985E+02  0.12422703889E+02 -0.16742833113E+02  0.31886043962E+02  0.00000000000E+00 0.  1.
         11    1    3    3    0    0 -0.71258840198E+01  0.92016314777E+01  0.38824688723E+01  0.12268733012E+02  0.51100000000E-03 0. -1.
        -11    1    3    3    0    0 -0.20493971698E+02 -0.11253755469E+01 -0.31816137270E+01  0.20769978629E+02  0.51100000000E-03 0.  1.
         12    1    3    3    0    0  0.34936507328E+01 -0.20498959820E+02  0.16041977968E+02  0.26263244397E+02  0.00000000000E+00 0. -1.
</event>
<event>
 7    1  0.6152255E-013  0.5930195E+02  0.7816164E-02  0.1266605E+00
        -11   -1    0    0    0    0  0.00000000000E+00  0.00000000000E+00  0.45593999997E+02  0.45594000000E+02  0.51100000000E-03 0.  1.
         11   -1    0    0    0    0 -0.00000000000E+00 -0.00000000000E+00 -0.45593999997E+02  0.45594000000E+02  0.51100000000E-03 0. -1.
    9900012    2    1    2    0    0  0.29336546352E+02 -0.11404884481E+02 -0.51005909094E+01  0.59301947101E+02  0.50000005605E+02 0.  0.
        -12    1    1    2    0    0 -0.29336546352E+02  0.11404884481E+02  0.51005909094E+01  0.31886052899E+02  0.00000000000E+00 0.  1.
         11    1    3    3    0    0  0.83698905977E+01  0.81564776278E+01 -0.15037264929E-01  0.11686891045E+02  0.51100000000E-03 0. -1.
        -11    1    3    3    0    0  0.31714319324E+02 -0.11037596338E+02 -0.45521856143E+01  0.33887298170E+02  0.51100000000E-03 0.  1.
        -12    1    3    3    0    0 -0.10747663570E+02 -0.85237657711E+01 -0.53336803015E+00  0.13727757887E+02  0.00000000000E+00 0.  1.
</event>
<event>
 7    1  0.6152255E-013  0.5930195E+02  0.7816164E-02  0.1266605E+00
        -11   -1    0    0    0    0  0.00000000000E+00  0.00000000000E+00  0.45593999997E+02  0.45594000000E+02  0.51100000000E-03 0.  1.
         11   -1    0    0    0    0 -0.00000000000E+00 -0.00000000000E+00 -0.45593999997E+02  0.45594000000E+02  0.51100000000E-03 0. -1.
    9900012    2    1    2    0    0  0.22557857998E+02  0.22349660639E+02  0.28907054729E+01  0.59301945583E+02  0.50000002837E+02 0.  0.
        -12    1    1    2    0    0 -0.22557857998E+02 -0.22349660639E+02 -0.28907054729E+01  0.31886054417E+02  0.00000000000E+00 0.  1.
         11    1    3    3    0    0 -0.26958408345E+01 -0.44153511924E+01  0.75609110008E+01  0.91613459371E+01  0.51100000000E-03 0. -1.
        -11    1    3    3    0    0  0.61751618152E+01 -0.76630076327E+01 -0.43962982787E+01  0.10778763762E+02  0.51100000000E-03 0.  1.
         12    1    3    3    0    0  0.19078537017E+02  0.34428019465E+02 -0.27390724924E+00  0.39361835884E+02  0.00000000000E+00 0. -1.
</event>
<event>
 7    1  0.6152255E-013  0.5930194E+02  0.7816164E-02  0.1266605E+00
        -11   -1    0    0    0    0  0.00000000000E+00  0.00000000000E+00  0.45593999997E+02  0.45594000000E+02  0.51100000000E-03 0.  1.
         11   -1    0    0    0    0 -0.00000000000E+00 -0.00000000000E+00 -0.45593999997E+02  0.45594000000E+02  0.51100000000E-03 0. -1.
    9900012    2    1    2    0    0 -0.10302648393E+02 -0.20921338649E+02 -0.21745662959E+02  0.59301939844E+02  0.49999992369E+02 0.  0.
        -12    1    1    2    0    0  0.10302648393E+02  0.20921338649E+02  0.21745662959E+02  0.31886060156E+02  0.00000000000E+00 0.  1.
         11    1    3    3    0    0 -0.72233686071E+01 -0.31365484922E+01 -0.19611349733E+02  0.21133386597E+02  0.51100000000E-03 0. -1.
        -11    1    3    3    0    0  0.93256380400E+01 -0.25410411309E+01 -0.12617421144E+02  0.15894141419E+02  0.51100000000E-03 0.  1.
        -12    1    3    3    0    0 -0.12404917826E+02 -0.15243749026E+02  0.10483107918E+02  0.22274411827E+02  0.00000000000E+00 0.  1.
</event>
<event>
 7    1  0.6152255E-013  0.5930199E+02  0.7816164E-02  0.1266605E+00
        -11   -1    0    0    0    0  0.00000000000E+00  0.00000000000E+00  0.45593999997E+02  0.45594000000E+02  0.51100000000E-03 0.  1.
         11   -1    0    0    0    0 -0.00000000000E+00 -0.00000000000E+00 -0.45593999997E+02  0.45594000000E+02  0.51100000000E-03 0. -1.
    9900012    2    1    2    0    0 -0.56079992900E+01  0.21159047031E+02 -0.23185402384E+02  0.59301987220E+02  0.50000078772E+02 0.  0.
        -12    1    1    2    0    0  0.56079992900E+01 -0.21159047031E+02  0.23185402384E+02  0.31886012780E+02  0.00000000000E+00 0.  1.
         11    1    3    3    0    0 -0.67812428777E+01  0.95099149677E+01  0.37799164555E+01  0.12276461474E+02  0.51100000000E-03 0.  1.
        -11    1    3    3    0    0  0.35351533915E+01 -0.89168323239E+01  0.34844669810E+01  0.10205327951E+02  0.51100000000E-03 0. -1.
         12    1    3    3    0    0 -0.23619098038E+01  0.20565964387E+02 -0.30449785821E+02  0.36820197794E+02  0.00000000000E+00 0. -1.
</event>
<event>
 7    1  0.6152255E-013  0.5930193E+02  0.7816164E-02  0.1266605E+00
        -11   -1    0    0    0    0  0.00000000000E+00  0.00000000000E+00  0.45593999997E+02  0.45594000000E+02  0.51100000000E-03 0.  1.
         11   -1    0    0    0    0 -0.00000000000E+00 -0.00000000000E+00 -0.45593999997E+02  0.45594000000E+02  0.51100000000E-03 0. -1.
    9900012    2    1    2    0    0  0.22649453954E+02  0.15063400583E+02 -0.16637846356E+02  0.59301925722E+02  0.49999966614E+02 0.  0.
        -12    1    1    2    0    0 -0.22649453954E+02 -0.15063400583E+02  0.16637846356E+02  0.31886074278E+02  0.00000000000E+00 0.  1.
         11    1    3    3    0    0 -0.45480940923E+01  0.12920924060E+01 -0.34604120181E+01  0.58591052435E+01  0.51100000000E-03 0.  1.
        -11    1    3    3    0    0  0.25139053912E+02  0.89719239780E+01 -0.27423961293E+02  0.38269323285E+02  0.51100000000E-03 0. -1.
         12    1    3    3    0    0  0.20584941347E+01  0.47993841986E+01  0.14246526955E+02  0.15173497193E+02  0.00000000000E+00 0. -1.
</event>
<event>
 7    1  0.6152255E-013  0.5930193E+02  0.7816164E-02  0.1266605E+00
        -11   -1    0    0    0    0  0.00000000000E+00  0.00000000000E+00  0.45593999997E+02  0.45594000000E+02  0.51100000000E-03 0.  1.
         11   -1    0    0    0    0 -0.00000000000E+00 -0.00000000000E+00 -0.45593999997E+02  0.45594000000E+02  0.51100000000E-03 0. -1.
    9900012    2    1    2    0    0 -0.21106762167E+02  0.16596478615E+02 -0.17198343508E+02  0.59301928887E+02  0.49999972387E+02 0.  0.
        -12    1    1    2    0    0  0.21106762167E+02 -0.16596478615E+02  0.17198343508E+02  0.31886071113E+02  0.00000000000E+00 0.  1.
         11    1    3    3    0    0 -0.60916815196E+01  0.11988204996E+02  0.19059756216E+01  0.13581545791E+02  0.51100000000E-03 0. -1.
        -11    1    3    3    0    0 -0.19918660248E+01  0.13087657267E+02  0.72736725583E+01  0.15104986453E+02  0.51100000000E-03 0.  1.
        -12    1    3    3    0    0 -0.13023214623E+02 -0.84793836468E+01 -0.26377991687E+02  0.30615396643E+02  0.00000000000E+00 0.  1.
</event>
<event>
 7    1  0.6152255E-013  0.5930194E+02  0.7816164E-02  0.1266605E+00
        -11   -1    0    0    0    0  0.00000000000E+00  0.00000000000E+00  0.45593999997E+02  0.45594000000E+02  0.51100000000E-03 0.  1.
         11   -1    0    0    0    0 -0.00000000000E+00 -0.00000000000E+00 -0.45593999997E+02  0.45594000000E+02  0.51100000000E-03 0. -1.
    9900012    2    1    2    0    0 -0.94944317056E+01 -0.40684302259E+01 -0.30166607138E+02  0.59301944362E+02  0.50000000610E+02 0.  0.
        -12    1    1    2    0    0  0.94944317056E+01  0.40684302259E+01  0.30166607138E+02  0.31886055638E+02  0.00000000000E+00 0.  1.
         11    1    3    3    0    0  0.63337654498E+01  0.23385049514E-01 -0.13530172508E+02  0.14939300519E+02  0.51100000000E-03 0. -1.
        -11    1    3    3    0    0 -0.35651717068E+01  0.13115448416E+02  0.46546069795E+01  0.14366307905E+02  0.51100000000E-03 0.  1.
        -12    1    3    3    0    0 -0.12263025449E+02 -0.17207263691E+02 -0.21291041610E+02  0.29996335938E+02  0.00000000000E+00 0.  1.
</event>
<event>
 7    1  0.6152255E-013  0.5930193E+02  0.7816164E-02  0.1266605E+00
        -11   -1    0    0    0    0  0.00000000000E+00  0.00000000000E+00  0.45593999997E+02  0.45594000000E+02  0.51100000000E-03 0.  1.
         11   -1    0    0    0    0 -0.00000000000E+00 -0.00000000000E+00 -0.45593999997E+02  0.45594000000E+02  0.51100000000E-03 0. -1.
    9900012    2    1    2    0    0  0.27659493423E+02 -0.15202801258E+02 -0.45330492386E+01  0.59301932857E+02  0.49999979627E+02 0.  0.
        -12    1    1    2    0    0 -0.27659493423E+02  0.15202801258E+02  0.45330492386E+01  0.31886067143E+02  0.00000000000E+00 0.  1.
         11    1    3    3    0    0  0.32187805616E+02 -0.17323592506E+02  0.87028933364E+01  0.37575284967E+02  0.51100000000E-03 0. -1.
        -11    1    3    3    0    0 -0.37214567860E+01 -0.32188154702E+01  0.21878111593E+01  0.53848427620E+01  0.51100000000E-03 0.  1.
         12    1    3    3    0    0 -0.80685540717E+00  0.53396067190E+01 -0.15423753734E+02  0.16341805127E+02  0.00000000000E+00 0. -1.
</event>
<event>
 7    1  0.6152255E-013  0.5930186E+02  0.7816164E-02  0.1266605E+00
        -11   -1    0    0    0    0  0.00000000000E+00  0.00000000000E+00  0.45593999997E+02  0.45594000000E+02  0.51100000000E-03 0.  1.
         11   -1    0    0    0    0 -0.00000000000E+00 -0.00000000000E+00 -0.45593999997E+02  0.45594000000E+02  0.51100000000E-03 0. -1.
    9900012    2    1    2    0    0 -0.29352785801E+02 -0.31836157412E+01 -0.12041772706E+02  0.59301862991E+02  0.49999852208E+02 0.  0.
        -12    1    1    2    0    0  0.29352785801E+02  0.31836157412E+01  0.12041772706E+02  0.31886137009E+02  0.00000000000E+00 0.  1.
         11    1    3    3    0    0 -0.12010720260E+01 -0.21328849383E+01 -0.18806546259E+02  0.18965177421E+02  0.51100000000E-03 0. -1.
        -11    1    3    3    0    0 -0.14560586971E+02 -0.14191494579E+02  0.22880700737E+00  0.20333754307E+02  0.51100000000E-03 0.  1.
         12    1    3    3    0    0 -0.13591126804E+02  0.13140763776E+02  0.65359665457E+01  0.20002931262E+02  0.00000000000E+00 0. -1.
</event>
<event>
 7    1  0.6152255E-013  0.5930195E+02  0.7816164E-02  0.1266605E+00
        -11   -1    0    0    0    0  0.00000000000E+00  0.00000000000E+00  0.45593999997E+02  0.45594000000E+02  0.51100000000E-03 0.  1.
         11   -1    0    0    0    0 -0.00000000000E+00 -0.00000000000E+00 -0.45593999997E+02  0.45594000000E+02  0.51100000000E-03 0. -1.
    9900012    2    1    2    0    0  0.23640706538E+02 -0.20506575704E+01  0.21298631491E+02  0.59301954377E+02  0.50000018874E+02 0.  0.
        -12    1    1    2    0    0 -0.23640706538E+02  0.20506575704E+01 -0.21298631491E+02  0.31886045623E+02  0.00000000000E+00 0.  1.
         11    1    3    3    0    0  0.16929337492E+02 -0.41954774458E+01 -0.83739705296E+01  0.19347554926E+02  0.51100000000E-03 0. -1.
        -11    1    3    3    0    0  0.61256915747E+01 -0.78786949194E+01  0.15581011417E+01  0.10100772759E+02  0.51100000000E-03 0.  1.
        -12    1    3    3    0    0  0.58567747133E+00  0.10023514795E+02  0.28114500879E+02  0.29853626691E+02  0.00000000000E+00 0.  1.
</event>
<event>
 7    1  0.6152255E-013  0.5930195E+02  0.7816164E-02  0.1266605E+00
        -11   -1    0    0    0    0  0.00000000000E+00  0.00000000000E+00  0.45593999997E+02  0.45594000000E+02  0.51100000000E-03 0.  1.
         11   -1    0    0    0    0 -0.00000000000E+00 -0.00000000000E+00 -0.45593999997E+02  0.45594000000E+02  0.51100000000E-03 0. -1.
    9900012    2    1    2    0    0 -0.64859104265E+01 -0.14249470763E+02 -0.27777797539E+02  0.59301945255E+02  0.50000002238E+02 0.  0.
        -12    1    1    2    0    0  0.64859104265E+01  0.14249470763E+02  0.27777797539E+02  0.31886054745E+02  0.00000000000E+00 0.  1.
         11    1    3    3    0    0 -0.41963677111E+01 -0.55567167485E+01 -0.19261230278E+02  0.20481249842E+02  0.51100000000E-03 0. -1.
        -11    1    3    3    0    0  0.16905089043E+02 -0.51086754336E+00 -0.24379505047E+01  0.17087616104E+02  0.51100000000E-03 0.  1.
         12    1    3    3    0    0 -0.19194631759E+02 -0.81818864715E+01 -0.60786167555E+01  0.21733079309E+02  0.00000000000E+00 0. -1.
</event>
<event>
 7    1  0.6152255E-013  0.5930194E+02  0.7816164E-02  0.1266605E+00
        -11   -1    0    0    0    0  0.00000000000E+00  0.00000000000E+00  0.45593999997E+02  0.45594000000E+02  0.51100000000E-03 0. -1.
         11   -1    0    0    0    0 -0.00000000000E+00 -0.00000000000E+00 -0.45593999997E+02  0.45594000000E+02  0.51100000000E-03 0.  1.
    9900012    2    1    2    0    0 -0.26092363394E+02  0.11091555861E+02 -0.14590632560E+02  0.59301943527E+02  0.49999999087E+02 0.  0.
        -12    1    1    2    0    0  0.26092363394E+02 -0.11091555861E+02  0.14590632560E+02  0.31886056473E+02  0.00000000000E+00 0.  1.
         11    1    3    3    0    0 -0.15496864979E+02 -0.92749611882E+01 -0.76857165800E+01  0.19627734684E+02  0.51100000000E-03 0. -1.
        -11    1    3    3    0    0 -0.19408439609E+02  0.12405345549E+02 -0.12867914158E+02  0.26384907453E+02  0.51100000000E-03 0.  1.
         12    1    3    3    0    0  0.88129411942E+01  0.79611715001E+01  0.59629981786E+01  0.13289301390E+02  0.00000000000E+00 0. -1.
</event>
<event>
 7    1  0.6152255E-013  0.5930190E+02  0.7816164E-02  0.1266605E+00
        -11   -1    0    0    0    0  0.00000000000E+00  0.00000000000E+00  0.45593999997E+02  0.45594000000E+02  0.51100000000E-03 0.  1.
         11   -1    0    0    0    0 -0.00000000000E+00 -0.00000000000E+00 -0.45593999997E+02  0.45594000000E+02  0.51100000000E-03 0. -1.
    9900012    2    1    2    0    0  0.63711555412E+01  0.21156609911E+02 -0.22989777405E+02  0.59301895958E+02  0.49999912332E+02 0.  0.
        -12    1    1    2    0    0 -0.63711555412E+01 -0.21156609911E+02  0.22989777405E+02  0.31886104042E+02  0.00000000000E+00 0.  1.
         11    1    3    3    0    0 -0.13540760190E+02  0.17633326862E+02 -0.19524480400E+02  0.29588709636E+02  0.51100000000E-03 0. -1.
        -11    1    3    3    0    0  0.12671242765E+01  0.41329587808E+01 -0.92265710758E+01  0.10189041481E+02  0.51100000000E-03 0.  1.
        -12    1    3    3    0    0  0.18644791454E+02 -0.60967573186E+00  0.57612740711E+01  0.19524144842E+02  0.00000000000E+00 0.  1.
</event>
<event>
 7    1  0.6152255E-013  0.5930195E+02  0.7816164E-02  0.1266605E+00
        -11   -1    0    0    0    0  0.00000000000E+00  0.00000000000E+00  0.45593999997E+02  0.45594000000E+02  0.51100000000E-03 0. -1.
         11   -1    0    0    0    0 -0.00000000000E+00 -0.00000000000E+00 -0.45593999997E+02  0.45594000000E+02  0.51100000000E-03 0.  1.
    9900012    2    1    2    0    0  0.15204739915E+02 -0.14442792874E+02  0.24019615079E+02  0.59301948340E+02  0.50000007865E+02 0.  0.
        -12    1    1    2    0    0 -0.15204739915E+02  0.14442792874E+02 -0.24019615079E+02  0.31886051660E+02  0.00000000000E+00 0.  1.
         11    1    3    3    0    0  0.18471747589E+02  0.80861205307E+00  0.13341587840E+01  0.18537510414E+02  0.51100000000E-03 0. -1.
        -11    1    3    3    0    0  0.13026239257E+02 -0.87189494256E+01  0.14663125513E+02  0.21464161720E+02  0.51100000000E-03 0.  1.
        -12    1    3    3    0    0 -0.16293246931E+02 -0.65324555019E+01  0.80223307821E+01  0.19300276206E+02  0.00000000000E+00 0.  1.
</event>
<event>
 7    1  0.6152255E-013  0.5930194E+02  0.7816164E-02  0.1266605E+00
        -11   -1    0    0    0    0  0.00000000000E+00  0.00000000000E+00  0.45593999997E+02  0.45594000000E+02  0.51100000000E-03 0.  1.
         11   -1    0    0    0    0 -0.00000000000E+00 -0.00000000000E+00 -0.45593999997E+02  0.45594000000E+02  0.51100000000E-03 0. -1.
    9900012    2    1    2    0    0 -0.28207666152E+02 -0.12487538276E+02  0.80690709078E+01  0.59301938041E+02  0.49999989082E+02 0.  0.
        -12    1    1    2    0    0  0.28207666152E+02  0.12487538276E+02 -0.80690709078E+01  0.31886061959E+02  0.00000000000E+00 0.  1.
         11    1    3    3    0    0 -0.72706454542E+01 -0.13633454046E+02  0.21960156818E+02  0.26851105047E+02  0.51100000000E-03 0.  1.
        -11    1    3    3    0    0 -0.12836672357E+02 -0.14454111256E+01  0.32460494787E+01  0.13319392179E+02  0.51100000000E-03 0. -1.
        -12    1    3    3    0    0 -0.81003483408E+01  0.25913268952E+01 -0.17137135389E+02  0.19131440815E+02  0.00000000000E+00 0.  1.
</event>
<event>
 7    1  0.6152255E-013  0.5930195E+02  0.7816164E-02  0.1266605E+00
        -11   -1    0    0    0    0  0.00000000000E+00  0.00000000000E+00  0.45593999997E+02  0.45594000000E+02  0.51100000000E-03 0.  1.
         11   -1    0    0    0    0 -0.00000000000E+00 -0.00000000000E+00 -0.45593999997E+02  0.45594000000E+02  0.51100000000E-03 0. -1.
    9900012    2    1    2    0    0  0.11483419040E+01  0.19209042222E+02 -0.25424677840E+02  0.59301949202E+02  0.50000009436E+02 0.  0.
        -12    1    1    2    0    0 -0.11483419040E+01 -0.19209042222E+02  0.25424677840E+02  0.31886050798E+02  0.00000000000E+00 0.  1.
         11    1    3    3    0    0  0.76183085005E+01 -0.73060521129E+01 -0.15530153297E+01  0.10669061756E+02  0.51100000000E-03 0. -1.
        -11    1    3    3    0    0  0.11462410548E+02  0.18010932333E+02 -0.66633715487E+01  0.22364728027E+02  0.51100000000E-03 0.  1.
        -12    1    3    3    0    0 -0.17932377144E+02  0.85041620026E+01 -0.17208290962E+02  0.26268159419E+02  0.00000000000E+00 0.  1.
</event>
<event>
 7    1  0.6152255E-013  0.5930197E+02  0.7816164E-02  0.1266605E+00
        -11   -1    0    0    0    0  0.00000000000E+00  0.00000000000E+00  0.45593999997E+02  0.45594000000E+02  0.51100000000E-03 0.  1.
         11   -1    0    0    0    0 -0.00000000000E+00 -0.00000000000E+00 -0.45593999997E+02  0.45594000000E+02  0.51100000000E-03 0. -1.
    9900012    2    1    2    0    0  0.15252816926E+02  0.80257480393E+01 -0.26826441522E+02  0.59301968254E+02  0.50000044182E+02 0.  0.
        -12    1    1    2    0    0 -0.15252816926E+02 -0.80257480393E+01  0.26826441522E+02  0.31886031746E+02  0.00000000000E+00 0.  1.
         11    1    3    3    0    0  0.15510561178E+02 -0.37520331736E+01 -0.24853898228E+02  0.29535936051E+02  0.51100000000E-03 0. -1.
        -11    1    3    3    0    0  0.28929855995E+01 -0.80463744051E+01  0.30429360341E+01  0.90759554161E+01  0.51100000000E-03 0.  1.
         12    1    3    3    0    0 -0.31507298511E+01  0.19824155618E+02 -0.50154793281E+01  0.20690076787E+02  0.00000000000E+00 0. -1.
</event>
<event>
 7    1  0.6152255E-013  0.5930195E+02  0.7816164E-02  0.1266605E+00
        -11   -1    0    0    0    0  0.00000000000E+00  0.00000000000E+00  0.45593999997E+02  0.45594000000E+02  0.51100000000E-03 0.  1.
         11   -1    0    0    0    0 -0.00000000000E+00 -0.00000000000E+00 -0.45593999997E+02  0.45594000000E+02  0.51100000000E-03 0. -1.
    9900012    2    1    2    0    0  0.29744858924E+02  0.80640355877E+01  0.81813830700E+01  0.59301947699E+02  0.50000006696E+02 0.  0.
        -12    1    1    2    0    0 -0.29744858924E+02 -0.80640355877E+01 -0.81813830700E+01  0.31886052301E+02  0.00000000000E+00 0.  1.
         11    1    3    3    0    0  0.92244202135E+00  0.10436456646E+02  0.12711572332E+02  0.16472844260E+02  0.51100000000E-03 0. -1.
        -11    1    3    3    0    0 -0.67603787029E+01  0.90511697322E+00 -0.13633739907E+01  0.69556269194E+01  0.51100000000E-03 0.  1.
         12    1    3    3    0    0  0.35582795606E+02 -0.32775380313E+01 -0.31668152712E+01  0.35873476520E+02  0.00000000000E+00 0. -1.
</event>
<event>
 7    1  0.6152255E-013  0.5930194E+02  0.7816164E-02  0.1266605E+00
        -11   -1    0    0    0    0  0.00000000000E+00  0.00000000000E+00  0.45593999997E+02  0.45594000000E+02  0.51100000000E-03 0.  1.
         11   -1    0    0    0    0 -0.00000000000E+00 -0.00000000000E+00 -0.45593999997E+02  0.45594000000E+02  0.51100000000E-03 0. -1.
    9900012    2    1    2    0    0 -0.96294214932E+01 -0.75985651844E+01 -0.29432239189E+02  0.59301942626E+02  0.49999997444E+02 0.  0.
        -12    1    1    2    0    0  0.96294214932E+01  0.75985651844E+01  0.29432239189E+02  0.31886057374E+02  0.00000000000E+00 0.  1.
         11    1    3    3    0    0 -0.61754062383E+01 -0.16488098340E+02 -0.20048797981E+02  0.26682341161E+02  0.51100000000E-03 0. -1.
        -11    1    3    3    0    0  0.24581151035E+01 -0.19881172899E+01 -0.17521160934E+02  0.17804101240E+02  0.51100000000E-03 0.  1.
        -12    1    3    3    0    0 -0.59121303584E+01  0.10877650445E+02  0.81377197262E+01  0.14815500225E+02  0.00000000000E+00 0.  1.
</event>
<event>
 7    1  0.6152255E-013  0.5930177E+02  0.7816164E-02  0.1266605E+00
        -11   -1    0    0    0    0  0.00000000000E+00  0.00000000000E+00  0.45593999997E+02  0.45594000000E+02  0.51100000000E-03 0. -1.
         11   -1    0    0    0    0 -0.00000000000E+00 -0.00000000000E+00 -0.45593999997E+02  0.45594000000E+02  0.51100000000E-03 0.  1.
    9900012    2    1    2    0    0  0.10775104245E+02 -0.20526371337E+02  0.21892846764E+02  0.59301772077E+02  0.49999686402E+02 0.  0.
        -12    1    1    2    0    0 -0.10775104245E+02  0.20526371337E+02 -0.21892846764E+02  0.31886227923E+02  0.00000000000E+00 0.  1.
         11    1    3    3    0    0 -0.10393324103E+02 -0.19746213291E+01  0.19879545946E+02  0.22519250933E+02  0.51100000000E-03 0. -1.
        -11    1    3    3    0    0  0.54855000390E+01  0.22257562831E+01 -0.70611253456E+01  0.92143471346E+01  0.51100000000E-03 0.  1.
        -12    1    3    3    0    0  0.15682928309E+02 -0.20777506291E+02  0.90744261633E+01  0.27568174009E+02  0.00000000000E+00 0.  1.
</event>
<event>
 7    1  0.6152255E-013  0.5930194E+02  0.7816164E-02  0.1266605E+00
        -11   -1    0    0    0    0  0.00000000000E+00  0.00000000000E+00  0.45593999997E+02  0.45594000000E+02  0.51100000000E-03 0.  1.
         11   -1    0    0    0    0 -0.00000000000E+00 -0.00000000000E+00 -0.45593999997E+02  0.45594000000E+02  0.51100000000E-03 0. -1.
    9900012    2    1    2    0    0 -0.86600487359E+00 -0.68726600301E+01 -0.31124543530E+02  0.59301943011E+02  0.49999998147E+02 0.  0.
        -12    1    1    2    0    0  0.86600487359E+00  0.68726600301E+01  0.31124543530E+02  0.31886056989E+02  0.00000000000E+00 0.  1.
         11    1    3    3    0    0 -0.10422050150E+02  0.65550017120E+01  0.33122239821E+01  0.12749823714E+02  0.51100000000E-03 0. -1.
        -11    1    3    3    0    0  0.49404271763E+01 -0.37754306800E+01  0.35001945512E+01  0.71353387910E+01  0.51100000000E-03 0.  1.
        -12    1    3    3    0    0  0.46156180997E+01 -0.96522310621E+01 -0.37936962063E+02  0.39416780507E+02  0.00000000000E+00 0.  1.
</event>
<event>
 7    1  0.6152255E-013  0.5930192E+02  0.7816164E-02  0.1266605E+00
        -11   -1    0    0    0    0  0.00000000000E+00  0.00000000000E+00  0.45593999997E+02  0.45594000000E+02  0.51100000000E-03 0.  1.
         11   -1    0    0    0    0 -0.00000000000E+00 -0.00000000000E+00 -0.45593999997E+02  0.45594000000E+02  0.51100000000E-03 0. -1.
    9900012    2    1    2    0    0 -0.31410512656E+02 -0.54126651753E+01  0.89704827965E+00  0.59301922392E+02  0.49999960541E+02 0.  0.
        -12    1    1    2    0    0  0.31410512656E+02  0.54126651753E+01 -0.89704827965E+00  0.31886077608E+02  0.00000000000E+00 0.  1.
         11    1    3    3    0    0 -0.10685637842E+02  0.16766095940E+02 -0.97426252288E+01  0.22140541452E+02  0.51100000000E-03 0. -1.
        -11    1    3    3    0    0 -0.18996687733E+02 -0.10413699057E+02  0.12671794321E+02  0.25097682053E+02  0.51100000000E-03 0.  1.
        -12    1    3    3    0    0 -0.17281870809E+01 -0.11765062059E+02 -0.20321208123E+01  0.12063698887E+02  0.00000000000E+00 0.  1.
</event>
<event>
 7    1  0.6152255E-013  0.5930180E+02  0.7816164E-02  0.1266605E+00
        -11   -1    0    0    0    0  0.00000000000E+00  0.00000000000E+00  0.45593999997E+02  0.45594000000E+02  0.51100000000E-03 0.  1.
         11   -1    0    0    0    0 -0.00000000000E+00 -0.00000000000E+00 -0.45593999997E+02  0.45594000000E+02  0.51100000000E-03 0. -1.
    9900012    2    1    2    0    0 -0.56817384014E+00  0.18472915321E+02 -0.25983806291E+02  0.59301802182E+02  0.49999741306E+02 0.  0.
        -12    1    1    2    0    0  0.56817384014E+00 -0.18472915321E+02  0.25983806291E+02  0.31886197818E+02  0.00000000000E+00 0.  1.
         11    1    3    3    0    0 -0.63555162214E+00 -0.63273994314E+01 -0.26299168589E+02  0.27057091088E+02  0.51100000000E-03 0. -1.
        -11    1    3    3    0    0  0.23290362343E+01 -0.23437209189E+01  0.35092674661E+01  0.48199995784E+01  0.51100000000E-03 0.  1.
        -12    1    3    3    0    0 -0.22616584523E+01  0.27144035671E+02 -0.31939051677E+01  0.27424711515E+02  0.00000000000E+00 0.  1.
</event>
<event>
 7    1  0.6152255E-013  0.5930187E+02  0.7816164E-02  0.1266605E+00
        -11   -1    0    0    0    0  0.00000000000E+00  0.00000000000E+00  0.45593999997E+02  0.45594000000E+02  0.51100000000E-03 0. -1.
         11   -1    0    0    0    0 -0.00000000000E+00 -0.00000000000E+00 -0.45593999997E+02  0.45594000000E+02  0.51100000000E-03 0.  1.
    9900012    2    1    2    0    0  0.15439677982E+01 -0.22173330874E+02  0.22862302736E+02  0.59301869394E+02  0.49999863887E+02 0.  0.
        -12    1    1    2    0    0 -0.15439677982E+01  0.22173330874E+02 -0.22862302736E+02  0.31886130606E+02  0.00000000000E+00 0.  1.
         11    1    3    3    0    0 -0.14123700529E+02 -0.23474458814E+02  0.18701185219E+02  0.33170219506E+02  0.51100000000E-03 0. -1.
        -11    1    3    3    0    0  0.24708383256E+01  0.81602627921E+01  0.69495320990E+01  0.10999587607E+02  0.51100000000E-03 0.  1.
        -12    1    3    3    0    0  0.13196830001E+02 -0.68591348519E+01 -0.27884145821E+01  0.15132062281E+02  0.00000000000E+00 0.  1.
</event>
<event>
 7    1  0.6152255E-013  0.5930194E+02  0.7816164E-02  0.1266605E+00
        -11   -1    0    0    0    0  0.00000000000E+00  0.00000000000E+00  0.45593999997E+02  0.45594000000E+02  0.51100000000E-03 0. -1.
         11   -1    0    0    0    0 -0.00000000000E+00 -0.00000000000E+00 -0.45593999997E+02  0.45594000000E+02  0.51100000000E-03 0.  1.
    9900012    2    1    2    0    0  0.15785494357E+02  0.14810703033E+02 -0.23413283826E+02  0.59301943237E+02  0.49999998557E+02 0.  0.
        -12    1    1    2    0    0 -0.15785494357E+02 -0.14810703033E+02  0.23413283826E+02  0.31886056763E+02  0.00000000000E+00 0.  1.
         11    1    3    3    0    0  0.54824212743E+01  0.55560063160E+01  0.34642172741E+01  0.85397277940E+01  0.51100000000E-03 0. -1.
        -11    1    3    3    0    0 -0.13961434707E+02  0.57136020790E+01 -0.20450547421E+02  0.25412433923E+02  0.51100000000E-03 0.  1.
         12    1    3    3    0    0  0.24264507790E+02  0.35410946378E+01 -0.64269536785E+01  0.25349781520E+02  0.00000000000E+00 0. -1.
</event>
<event>
 7    1  0.6152255E-013  0.5930202E+02  0.7816164E-02  0.1266605E+00
        -11   -1    0    0    0    0  0.00000000000E+00  0.00000000000E+00  0.45593999997E+02  0.45594000000E+02  0.51100000000E-03 0. -1.
         11   -1    0    0    0    0 -0.00000000000E+00 -0.00000000000E+00 -0.45593999997E+02  0.45594000000E+02  0.51100000000E-03 0.  1.
    9900012    2    1    2    0    0 -0.27926550058E+02  0.15299981373E+02  0.16535561213E+01  0.59302017562E+02  0.50000134110E+02 0.  0.
        -12    1    1    2    0    0  0.27926550058E+02 -0.15299981373E+02 -0.16535561213E+01  0.31885982438E+02  0.00000000000E+00 0.  1.
         11    1    3    3    0    0 -0.19673786658E+02  0.53889048026E+01  0.14587742623E+01  0.20450579431E+02  0.51100000000E-03 0. -1.
        -11    1    3    3    0    0 -0.18477815599E+02 -0.64245908220E+01 -0.46299634019E+00  0.19568326511E+02  0.51100000000E-03 0.  1.
        -12    1    3    3    0    0  0.10225052199E+02  0.16335667392E+02  0.65777819915E+00  0.19283111621E+02  0.00000000000E+00 0.  1.
</event>
<event>
 7    1  0.6152255E-013  0.5930194E+02  0.7816164E-02  0.1266605E+00
        -11   -1    0    0    0    0  0.00000000000E+00  0.00000000000E+00  0.45593999997E+02  0.45594000000E+02  0.51100000000E-03 0.  1.
         11   -1    0    0    0    0 -0.00000000000E+00 -0.00000000000E+00 -0.45593999997E+02  0.45594000000E+02  0.51100000000E-03 0. -1.
    9900012    2    1    2    0    0  0.26871921917E+02  0.38654537567E+01 -0.16723609937E+02  0.59301936437E+02  0.49999986156E+02 0.  0.
        -12    1    1    2    0    0 -0.26871921917E+02 -0.38654537567E+01  0.16723609937E+02  0.31886063563E+02  0.00000000000E+00 0.  1.
         11    1    3    3    0    0 -0.48234178348E+01 -0.37887959572E+01  0.67637971244E+01  0.91306782999E+01  0.51100000000E-03 0. -1.
        -11    1    3    3    0    0 -0.52150996420E+01 -0.39598409975E+00 -0.75138820626E+01  0.91549162528E+01  0.51100000000E-03 0.  1.
         12    1    3    3    0    0  0.36910439394E+02  0.80502338137E+01 -0.15973524999E+02  0.41016341884E+02  0.00000000000E+00 0. -1.
</event>
<event>
 7    1  0.6152255E-013  0.5930194E+02  0.7816164E-02  0.1266605E+00
        -11   -1    0    0    0    0  0.00000000000E+00  0.00000000000E+00  0.45593999997E+02  0.45594000000E+02  0.51100000000E-03 0.  1.
         11   -1    0    0    0    0 -0.00000000000E+00 -0.00000000000E+00 -0.45593999997E+02  0.45594000000E+02  0.51100000000E-03 0. -1.
    9900012    2    1    2    0    0  0.28645940504E+02 -0.35724762216E+01 -0.13541361262E+02  0.59301937864E+02  0.49999988759E+02 0.  0.
        -12    1    1    2    0    0 -0.28645940504E+02  0.35724762216E+01  0.13541361262E+02  0.31886062136E+02  0.00000000000E+00 0.  1.
         11    1    3    3    0    0  0.22511005135E+02 -0.14770913899E+01 -0.12525481329E+01  0.22594159162E+02  0.51100000000E-03 0. -1.
        -11    1    3    3    0    0  0.58766998463E+01 -0.13215621479E+02  0.57096465409E+01  0.15549543918E+02  0.51100000000E-03 0.  1.
        -12    1    3    3    0    0  0.25823552278E+00  0.11120236647E+02 -0.17998459670E+02  0.21158234784E+02  0.00000000000E+00 0.  1.
</event>
<event>
 7    1  0.6152255E-013  0.5930196E+02  0.7816164E-02  0.1266605E+00
        -11   -1    0    0    0    0  0.00000000000E+00  0.00000000000E+00  0.45593999997E+02  0.45594000000E+02  0.51100000000E-03 0. -1.
         11   -1    0    0    0    0 -0.00000000000E+00 -0.00000000000E+00 -0.45593999997E+02  0.45594000000E+02  0.51100000000E-03 0.  1.
    9900012    2    1    2    0    0  0.55744779233E+01  0.25142829685E+02  0.18801133508E+02  0.59301963716E+02  0.50000035907E+02 0.  0.
        -12    1    1    2    0    0 -0.55744779233E+01 -0.25142829685E+02 -0.18801133508E+02  0.31886036284E+02  0.00000000000E+00 0.  1.
         11    1    3    3    0    0  0.55604541688E-01  0.28086205925E+02  0.21514170726E+02  0.35379338567E+02  0.51100000000E-03 0. -1.
        -11    1    3    3    0    0  0.40251846988E+01  0.81099398657E+01  0.50179855829E+01  0.10351493422E+02  0.51100000000E-03 0.  1.
        -12    1    3    3    0    0  0.14936886828E+01 -0.11053316106E+02 -0.77310228016E+01  0.13571131728E+02  0.00000000000E+00 0.  1.
</event>
<event>
 7    1  0.6152255E-013  0.5930191E+02  0.7816164E-02  0.1266605E+00
        -11   -1    0    0    0    0  0.00000000000E+00  0.00000000000E+00  0.45593999997E+02  0.45594000000E+02  0.51100000000E-03 0.  1.
         11   -1    0    0    0    0 -0.00000000000E+00 -0.00000000000E+00 -0.45593999997E+02  0.45594000000E+02  0.51100000000E-03 0. -1.
    9900012    2    1    2    0    0  0.13315933399E+02  0.17779071523E+02 -0.22876041356E+02  0.59301910014E+02  0.49999937967E+02 0.  0.
        -12    1    1    2    0    0 -0.13315933399E+02 -0.17779071523E+02  0.22876041356E+02  0.31886089986E+02  0.00000000000E+00 0.  1.
         11    1    3    3    0    0  0.17581688446E+00  0.83552487486E+01 -0.33375776914E+01  0.89989176202E+01  0.51100000000E-03 0. -1.
        -11    1    3    3    0    0 -0.98717142123E+01  0.98612194696E+01 -0.23125714985E+02  0.27009129655E+02  0.51100000000E-03 0.  1.
        -12    1    3    3    0    0  0.23011830726E+02 -0.43739669558E+00  0.35872513201E+01  0.23293862739E+02  0.00000000000E+00 0.  1.
</event>
<event>
 7    1  0.6152255E-013  0.5930194E+02  0.7816164E-02  0.1266605E+00
        -11   -1    0    0    0    0  0.00000000000E+00  0.00000000000E+00  0.45593999997E+02  0.45594000000E+02  0.51100000000E-03 0. -1.
         11   -1    0    0    0    0 -0.00000000000E+00 -0.00000000000E+00 -0.45593999997E+02  0.45594000000E+02  0.51100000000E-03 0.  1.
    9900012    2    1    2    0    0 -0.30875162864E+02 -0.79150973509E+01  0.89226156228E+00  0.59301943821E+02  0.49999999623E+02 0.  0.
        -12    1    1    2    0    0  0.30875162864E+02  0.79150973509E+01 -0.89226156228E+00  0.31886056179E+02  0.00000000000E+00 0.  1.
         11    1    3    3    0    0 -0.92777300709E+01  0.10679170680E+02 -0.12758387337E+02  0.19049866387E+02  0.51100000000E-03 0. -1.
        -11    1    3    3    0    0 -0.56137860228E+01 -0.24264318345E+01 -0.71699703157E+01  0.94239397041E+01  0.51100000000E-03 0.  1.
         12    1    3    3    0    0 -0.15983646771E+02 -0.16167836196E+02  0.20820619215E+02  0.30828137729E+02  0.00000000000E+00 0. -1.
</event>
<event>
 7    1  0.6152255E-013  0.5930198E+02  0.7816164E-02  0.1266605E+00
        -11   -1    0    0    0    0  0.00000000000E+00  0.00000000000E+00  0.45593999997E+02  0.45594000000E+02  0.51100000000E-03 0.  1.
         11   -1    0    0    0    0 -0.00000000000E+00 -0.00000000000E+00 -0.45593999997E+02  0.45594000000E+02  0.51100000000E-03 0. -1.
    9900012    2    1    2    0    0  0.14743881231E+02 -0.13969819591E+02 -0.24580077277E+02  0.59301982812E+02  0.50000070734E+02 0.  0.
        -12    1    1    2    0    0 -0.14743881231E+02  0.13969819591E+02  0.24580077277E+02  0.31886017188E+02  0.00000000000E+00 0.  1.
         11    1    3    3    0    0  0.42465043105E+01 -0.14847921581E+02  0.13012063485E+00  0.15443785345E+02  0.51100000000E-03 0. -1.
        -11    1    3    3    0    0 -0.90317871469E+01 -0.63377450243E+01  0.64271867684E+00  0.11052297436E+02  0.51100000000E-03 0.  1.
        -12    1    3    3    0    0  0.19529164068E+02  0.72158470142E+01 -0.25352916588E+02  0.32805900031E+02  0.00000000000E+00 0.  1.
</event>
<event>
 7    1  0.6152255E-013  0.5930192E+02  0.7816164E-02  0.1266605E+00
        -11   -1    0    0    0    0  0.00000000000E+00  0.00000000000E+00  0.45593999997E+02  0.45594000000E+02  0.51100000000E-03 0. -1.
         11   -1    0    0    0    0 -0.00000000000E+00 -0.00000000000E+00 -0.45593999997E+02  0.45594000000E+02  0.51100000000E-03 0.  1.
    9900012    2    1    2    0    0  0.87360938363E+01 -0.23507164014E+02  0.19693046556E+02  0.59301918739E+02  0.49999953880E+02 0.  0.
        -12    1    1    2    0    0 -0.87360938363E+01  0.23507164014E+02 -0.19693046556E+02  0.31886081261E+02  0.00000000000E+00 0.  1.
         11    1    3    3    0    0  0.12125255527E+02 -0.11042322958E+02 -0.30876456885E+01  0.16687967942E+02  0.51100000000E-03 0. -1.
        -11    1    3    3    0    0 -0.73749007144E+01 -0.11546084547E+02 -0.49620439008E+01  0.14571311158E+02  0.51100000000E-03 0.  1.
        -12    1    3    3    0    0  0.39857390241E+01 -0.91875650952E+00  0.27742736145E+02  0.28042639639E+02  0.00000000000E+00 0.  1.
</event>
<event>
 7    1  0.6152255E-013  0.5930195E+02  0.7816164E-02  0.1266605E+00
        -11   -1    0    0    0    0  0.00000000000E+00  0.00000000000E+00  0.45593999997E+02  0.45594000000E+02  0.51100000000E-03 0.  1.
         11   -1    0    0    0    0 -0.00000000000E+00 -0.00000000000E+00 -0.45593999997E+02  0.45594000000E+02  0.51100000000E-03 0. -1.
    9900012    2    1    2    0    0 -0.16718578451E+02  0.14342647760E+01 -0.27113688798E+02  0.59301951309E+02  0.50000013280E+02 0.  0.
        -12    1    1    2    0    0  0.16718578451E+02 -0.14342647760E+01  0.27113688798E+02  0.31886048691E+02  0.00000000000E+00 0.  1.
         11    1    3    3    0    0 -0.22894414100E+02 -0.25833015314E+01 -0.62108580011E+01  0.23862154160E+02  0.51100000000E-03 0. -1.
        -11    1    3    3    0    0 -0.10222746523E+02 -0.16620765556E+01 -0.12270326434E+02  0.16057022015E+02  0.51100000000E-03 0.  1.
        -12    1    3    3    0    0  0.16398582172E+02  0.56796428629E+01 -0.86325043631E+01  0.19382775134E+02  0.00000000000E+00 0.  1.
</event>
<event>
 7    1  0.6152255E-013  0.5930171E+02  0.7816164E-02  0.1266606E+00
        -11   -1    0    0    0    0  0.00000000000E+00  0.00000000000E+00  0.45593999997E+02  0.45594000000E+02  0.51100000000E-03 0.  1.
         11   -1    0    0    0    0 -0.00000000000E+00 -0.00000000000E+00 -0.45593999997E+02  0.45594000000E+02  0.51100000000E-03 0. -1.
    9900012    2    1    2    0    0 -0.65104758253E+01 -0.25548806032E-01 -0.31214552918E+02  0.59301713574E+02  0.49999579705E+02 0.  0.
        -12    1    1    2    0    0  0.65104758253E+01  0.25548806032E-01  0.31214552918E+02  0.31886286426E+02  0.00000000000E+00 0.  1.
         11    1    3    3    0    0 -0.71099474132E+01 -0.10230323687E+02  0.35619760070E+01  0.12957567221E+02  0.51100000000E-03 0. -1.
        -11    1    3    3    0    0  0.39080393417E+01 -0.20608895839E+01  0.37387480950E+01  0.57877694281E+01  0.51100000000E-03 0.  1.
         12    1    3    3    0    0 -0.33085677538E+01  0.12265664464E+02 -0.38515277020E+02  0.40556376925E+02  0.00000000000E+00 0. -1.
</event>
<event>
 7    1  0.6152255E-013  0.5930191E+02  0.7816164E-02  0.1266605E+00
        -11   -1    0    0    0    0  0.00000000000E+00  0.00000000000E+00  0.45593999997E+02  0.45594000000E+02  0.51100000000E-03 0.  1.
         11   -1    0    0    0    0 -0.00000000000E+00 -0.00000000000E+00 -0.45593999997E+02  0.45594000000E+02  0.51100000000E-03 0. -1.
    9900012    2    1    2    0    0  0.28368805706E+01 -0.31549392689E+02 -0.36484194750E+01  0.59301905302E+02  0.49999929373E+02 0.  0.
        -12    1    1    2    0    0 -0.28368805706E+01  0.31549392689E+02  0.36484194750E+01  0.31886094698E+02  0.00000000000E+00 0.  1.
         11    1    3    3    0    0 -0.56472111426E+01  0.11492874382E+00 -0.11449365693E+02  0.12766838972E+02  0.51100000000E-03 0. -1.
        -11    1    3    3    0    0  0.14104976897E+02 -0.51447582559E+01 -0.59356424474E+01  0.16144682168E+02  0.51100000000E-03 0.  1.
        -12    1    3    3    0    0 -0.56208851837E+01 -0.26519563177E+02  0.13736588665E+02  0.30390384162E+02  0.00000000000E+00 0.  1.
</event>
<event>
 7    1  0.6152255E-013  0.5930196E+02  0.7816164E-02  0.1266605E+00
        -11   -1    0    0    0    0  0.00000000000E+00  0.00000000000E+00  0.45593999997E+02  0.45594000000E+02  0.51100000000E-03 0.  1.
         11   -1    0    0    0    0 -0.00000000000E+00 -0.00000000000E+00 -0.45593999997E+02  0.45594000000E+02  0.51100000000E-03 0. -1.
    9900012    2    1    2    0    0  0.11393062178E+02 -0.20513704244E+02 -0.21589485263E+02  0.59301956007E+02  0.50000021847E+02 0.  0.
        -12    1    1    2    0    0 -0.11393062178E+02  0.20513704244E+02  0.21589485263E+02  0.31886043993E+02  0.00000000000E+00 0.  1.
         11    1    3    3    0    0 -0.38476753718E+01  0.45273907239E+01  0.95655734712E+01  0.11260642461E+02  0.51100000000E-03 0.  1.
        -11    1    3    3    0    0  0.11329394295E+02 -0.18959422107E+02 -0.75306382349E+01  0.23335067479E+02  0.51100000000E-03 0. -1.
        -12    1    3    3    0    0  0.39113432548E+01 -0.60816728609E+01 -0.23624420499E+02  0.24706246068E+02  0.00000000000E+00 0.  1.
</event>
<event>
 7    1  0.6152255E-013  0.5930198E+02  0.7816164E-02  0.1266605E+00
        -11   -1    0    0    0    0  0.00000000000E+00  0.00000000000E+00  0.45593999997E+02  0.45594000000E+02  0.51100000000E-03 0.  1.
         11   -1    0    0    0    0 -0.00000000000E+00 -0.00000000000E+00 -0.45593999997E+02  0.45594000000E+02  0.51100000000E-03 0. -1.
    9900012    2    1    2    0    0  0.24532340493E+02  0.86765723374E+01 -0.18428233761E+02  0.59301977402E+02  0.50000060867E+02 0.  0.
        -12    1    1    2    0    0 -0.24532340493E+02 -0.86765723374E+01  0.18428233761E+02  0.31886022598E+02  0.00000000000E+00 0.  1.
         11    1    3    3    0    0  0.37500526668E+01  0.14892546384E+02 -0.44410751720E+01  0.15986681386E+02  0.51100000000E-03 0. -1.
        -11    1    3    3    0    0 -0.79893960359E+01  0.56920456401E+01 -0.24778754762E+01  0.10117791247E+02  0.51100000000E-03 0.  1.
         12    1    3    3    0    0  0.28771683862E+02 -0.11908019686E+02 -0.11509283113E+02  0.33197504769E+02  0.00000000000E+00 0. -1.
</event>
<event>
 7    1  0.6152255E-013  0.5930193E+02  0.7816164E-02  0.1266605E+00
        -11   -1    0    0    0    0  0.00000000000E+00  0.00000000000E+00  0.45593999997E+02  0.45594000000E+02  0.51100000000E-03 0.  1.
         11   -1    0    0    0    0 -0.00000000000E+00 -0.00000000000E+00 -0.45593999997E+02  0.45594000000E+02  0.51100000000E-03 0. -1.
    9900012    2    1    2    0    0 -0.19839122859E+02 -0.13999517646E+02 -0.20667461169E+02  0.59301933430E+02  0.49999980673E+02 0.  0.
        -12    1    1    2    0    0  0.19839122859E+02  0.13999517646E+02  0.20667461169E+02  0.31886066570E+02  0.00000000000E+00 0.  1.
         11    1    3    3    0    0 -0.18957531223E+02 -0.33402803063E+01 -0.15697797370E+02  0.24838806436E+02  0.51100000000E-03 0. -1.
        -11    1    3    3    0    0  0.18709172626E+01  0.34227396740E+01 -0.15934328413E+02  0.16404825526E+02  0.51100000000E-03 0.  1.
        -12    1    3    3    0    0 -0.27525088980E+01 -0.14081977013E+02  0.10964664615E+02  0.18058301469E+02  0.00000000000E+00 0.  1.
</event>
<event>
 7    1  0.6152255E-013  0.5930193E+02  0.7816164E-02  0.1266605E+00
        -11   -1    0    0    0    0  0.00000000000E+00  0.00000000000E+00  0.45593999997E+02  0.45594000000E+02  0.51100000000E-03 0.  1.
         11   -1    0    0    0    0 -0.00000000000E+00 -0.00000000000E+00 -0.45593999997E+02  0.45594000000E+02  0.51100000000E-03 0. -1.
    9900012    2    1    2    0    0  0.28587962944E+02  0.18474871813E+00 -0.14121470794E+02  0.59301926320E+02  0.49999967705E+02 0.  0.
        -12    1    1    2    0    0 -0.28587962944E+02 -0.18474871813E+00  0.14121470794E+02  0.31886073680E+02  0.00000000000E+00 0.  1.
         11    1    3    3    0    0  0.36075297443E+01  0.74989498065E+01  0.39790987853E+01  0.92239767162E+01  0.51100000000E-03 0.  1.
        -11    1    3    3    0    0 -0.82530710413E+01 -0.19235947644E+01 -0.13720261012E+02  0.16126343694E+02  0.51100000000E-03 0. -1.
        -12    1    3    3    0    0  0.33233504241E+02 -0.53906063239E+01 -0.43803085665E+01  0.33951605909E+02  0.00000000000E+00 0.  1.
</event>
<event>
 7    1  0.6152255E-013  0.5930196E+02  0.7816164E-02  0.1266605E+00
        -11   -1    0    0    0    0  0.00000000000E+00  0.00000000000E+00  0.45593999997E+02  0.45594000000E+02  0.51100000000E-03 0. -1.
         11   -1    0    0    0    0 -0.00000000000E+00 -0.00000000000E+00 -0.45593999997E+02  0.45594000000E+02  0.51100000000E-03 0.  1.
    9900012    2    1    2    0    0 -0.23190365316E+02 -0.29443148759E+01  0.21685415773E+02  0.59301964015E+02  0.50000036452E+02 0.  0.
        -12    1    1    2    0    0  0.23190365316E+02  0.29443148759E+01 -0.21685415773E+02  0.31886035985E+02  0.00000000000E+00 0.  1.
         11    1    3    3    0    0 -0.18326380777E+02  0.98297436580E+01  0.18183110819E+02  0.27624366275E+02  0.51100000000E-03 0. -1.
        -11    1    3    3    0    0 -0.13609542133E+02 -0.29508687922E+01  0.98662667512E+01  0.17066648282E+02  0.51100000000E-03 0.  1.
         12    1    3    3    0    0  0.87455575939E+01 -0.98231897417E+01 -0.63639617973E+01  0.14610949459E+02  0.00000000000E+00 0. -1.
</event>
<event>
 7    1  0.6152255E-013  0.5930194E+02  0.7816164E-02  0.1266605E+00
        -11   -1    0    0    0    0  0.00000000000E+00  0.00000000000E+00  0.45593999997E+02  0.45594000000E+02  0.51100000000E-03 0. -1.
         11   -1    0    0    0    0 -0.00000000000E+00 -0.00000000000E+00 -0.45593999997E+02  0.45594000000E+02  0.51100000000E-03 0.  1.
    9900012    2    1    2    0    0 -0.29308677114E+00  0.75499152142E+01  0.30977955582E+02  0.59301939540E+02  0.49999991816E+02 0.  0.
        -12    1    1    2    0    0  0.29308677114E+00 -0.75499152142E+01 -0.30977955582E+02  0.31886060460E+02  0.00000000000E+00 0.  1.
         11    1    3    3    0    0  0.42686014074E+01 -0.40814566453E+01  0.15326806345E+01  0.61015044466E+01  0.51100000000E-03 0. -1.
        -11    1    3    3    0    0 -0.44424238536E+01 -0.19964358522E+01 -0.10186471309E+02  0.11290929270E+02  0.51100000000E-03 0.  1.
        -12    1    3    3    0    0 -0.11926432500E+00  0.13627807712E+02  0.39631746256E+02  0.41909505823E+02  0.00000000000E+00 0.  1.
</event>
<event>
 7    1  0.6152255E-013  0.5930186E+02  0.7816164E-02  0.1266605E+00
        -11   -1    0    0    0    0  0.00000000000E+00  0.00000000000E+00  0.45593999997E+02  0.45594000000E+02  0.51100000000E-03 0. -1.
         11   -1    0    0    0    0 -0.00000000000E+00 -0.00000000000E+00 -0.45593999997E+02  0.45594000000E+02  0.51100000000E-03 0.  1.
    9900012    2    1    2    0    0  0.24644722316E+02  0.53877597965E+01  0.19502188325E+02  0.59301864406E+02  0.49999854790E+02 0.  0.
        -12    1    1    2    0    0 -0.24644722316E+02 -0.53877597965E+01 -0.19502188325E+02  0.31886135594E+02  0.00000000000E+00 0.  1.
         11    1    3    3    0    0  0.17656043036E+02 -0.75114560479E+01  0.77026492577E+01  0.20675798255E+02  0.51100000000E-03 0. -1.
        -11    1    3    3    0    0  0.16780620115E+02  0.18250701040E+02  0.42526641024E+01  0.25154769968E+02  0.51100000000E-03 0.  1.
        -12    1    3    3    0    0 -0.97919408357E+01 -0.53514851955E+01  0.75468749645E+01  0.13471296183E+02  0.00000000000E+00 0.  1.
</event>
<event>
 7    1  0.6152255E-013  0.5930195E+02  0.7816164E-02  0.1266605E+00
        -11   -1    0    0    0    0  0.00000000000E+00  0.00000000000E+00  0.45593999997E+02  0.45594000000E+02  0.51100000000E-03 0. -1.
         11   -1    0    0    0    0 -0.00000000000E+00 -0.00000000000E+00 -0.45593999997E+02  0.45594000000E+02  0.51100000000E-03 0.  1.
    9900012    2    1    2    0    0 -0.14347918023E+02  0.34902748250E+00  0.28473419577E+02  0.59301949850E+02  0.50000010618E+02 0.  0.
        -12    1    1    2    0    0  0.14347918023E+02 -0.34902748250E+00 -0.28473419577E+02  0.31886050150E+02  0.00000000000E+00 0.  1.
         11    1    3    3    0    0 -0.59247316962E+01  0.16162639236E+01  0.27464392622E+02  0.28142629889E+02  0.51100000000E-03 0. -1.
        -11    1    3    3    0    0  0.29567816782E+01  0.79758697317E+01  0.10636854759E+02  0.13619828755E+02  0.51100000000E-03 0.  1.
        -12    1    3    3    0    0 -0.11379968006E+02 -0.92431061729E+01 -0.96278278043E+01  0.17539491206E+02  0.00000000000E+00 0.  1.
</event>
<event>
 7    1  0.6152255E-013  0.5930196E+02  0.7816164E-02  0.1266605E+00
        -11   -1    0    0    0    0  0.00000000000E+00  0.00000000000E+00  0.45593999997E+02  0.45594000000E+02  0.51100000000E-03 0.  1.
         11   -1    0    0    0    0 -0.00000000000E+00 -0.00000000000E+00 -0.45593999997E+02  0.45594000000E+02  0.51100000000E-03 0. -1.
    9900012    2    1    2    0    0 -0.17827369853E+02  0.23087918812E+02 -0.12878363481E+02  0.59301962979E+02  0.50000034563E+02 0.  0.
        -12    1    1    2    0    0  0.17827369853E+02 -0.23087918812E+02  0.12878363481E+02  0.31886037021E+02  0.00000000000E+00 0.  1.
         11    1    3    3    0    0  0.69802912359E+01 -0.68809106252E+01 -0.64153310597E+01  0.11714429975E+02  0.51100000000E-03 0. -1.
        -11    1    3    3    0    0 -0.30934863155E+00  0.19386780903E+02  0.22398736044E+01  0.19518196750E+02  0.51100000000E-03 0.  1.
        -12    1    3    3    0    0 -0.24498312458E+02  0.10582048534E+02 -0.87029060252E+01  0.28069336254E+02  0.00000000000E+00 0.  1.
</event>
<event>
 7    1  0.6964801E-013  0.5930194E+02  0.7816164E-02  0.1266605E+00
        -11   -1    0    0    0    0  0.00000000000E+00  0.00000000000E+00  0.45593999997E+02  0.45594000000E+02  0.51100000000E-03 0. -1.
         11   -1    0    0    0    0 -0.00000000000E+00 -0.00000000000E+00 -0.45593999997E+02  0.45594000000E+02  0.51100000000E-03 0.  1.
    9900012    2    1    2    0    0 -0.31817071839E+02 -0.19648517365E+01 -0.73098279646E+00  0.59301936609E+02  0.49999986469E+02 0.  0.
        -12    1    1    2    0    0  0.31817071839E+02  0.19648517365E+01  0.73098279646E+00  0.31886063391E+02  0.00000000000E+00 0.  1.
         11    1    3    3    0    0 -0.71516901765E+01 -0.10472984758E+02  0.19509810918E+01  0.12831072037E+02  0.51100000000E-03 0. -1.
        -11    1    3    3    0    0  0.99098156066E+01  0.17670577532E+01 -0.48588500161E+01  0.11177448823E+02  0.51100000000E-03 0.  1.
         12    1    3    3    0    0 -0.34575197269E+02  0.67410752688E+01  0.21768861279E+01  0.35293415748E+02  0.00000000000E+00 0. -1.
</event>
<event>
 7    1  0.6152255E-013  0.5930195E+02  0.7816164E-02  0.1266605E+00
        -11   -1    0    0    0    0  0.00000000000E+00  0.00000000000E+00  0.45593999997E+02  0.45594000000E+02  0.51100000000E-03 0. -1.
         11   -1    0    0    0    0 -0.00000000000E+00 -0.00000000000E+00 -0.45593999997E+02  0.45594000000E+02  0.51100000000E-03 0.  1.
    9900012    2    1    2    0    0  0.11283937397E+02  0.14285675959E+02  0.26178475001E+02  0.59301947655E+02  0.50000006615E+02 0.  0.
        -12    1    1    2    0    0 -0.11283937397E+02 -0.14285675959E+02 -0.26178475001E+02  0.31886052345E+02  0.00000000000E+00 0.  1.
         11    1    3    3    0    0  0.84460394601E+00  0.10540953649E+02  0.18169635601E+02  0.21022861788E+02  0.51100000000E-03 0. -1.
        -11    1    3    3    0    0  0.71256409537E+01 -0.65592482333E+00  0.22057394182E+02  0.23189084388E+02  0.51100000000E-03 0.  1.
        -12    1    3    3    0    0  0.33136924977E+01  0.44006471333E+01 -0.14048554782E+02  0.15090001479E+02  0.00000000000E+00 0.  1.
</event>
<event>
 7    1  0.6152255E-013  0.5930195E+02  0.7816164E-02  0.1266605E+00
        -11   -1    0    0    0    0  0.00000000000E+00  0.00000000000E+00  0.45593999997E+02  0.45594000000E+02  0.51100000000E-03 0.  1.
         11   -1    0    0    0    0 -0.00000000000E+00 -0.00000000000E+00 -0.45593999997E+02  0.45594000000E+02  0.51100000000E-03 0. -1.
    9900012    2    1    2    0    0  0.23312955973E+02  0.13093623203E+02 -0.17371917202E+02  0.59301946747E+02  0.50000004959E+02 0.  0.
        -12    1    1    2    0    0 -0.23312955973E+02 -0.13093623203E+02  0.17371917202E+02  0.31886053253E+02  0.00000000000E+00 0.  1.
         11    1    3    3    0    0  0.16409283321E+02  0.61070294764E+01 -0.22838194973E+02  0.28777483178E+02  0.51100000000E-03 0. -1.
        -11    1    3    3    0    0 -0.88018447635E+01  0.89181715372E+01 -0.25482994357E+01  0.12786715180E+02  0.51100000000E-03 0.  1.
         12    1    3    3    0    0  0.15705517415E+02 -0.19315778105E+01  0.80145772067E+01  0.17737748389E+02  0.00000000000E+00 0. -1.
</event>
<event>
 7    1  0.6152255E-013  0.5930195E+02  0.7816164E-02  0.1266605E+00
        -11   -1    0    0    0    0  0.00000000000E+00  0.00000000000E+00  0.45593999997E+02  0.45594000000E+02  0.51100000000E-03 0. -1.
         11   -1    0    0    0    0 -0.00000000000E+00 -0.00000000000E+00 -0.45593999997E+02  0.45594000000E+02  0.51100000000E-03 0.  1.
    9900012    2    1    2    0    0  0.21355715423E+02  0.23228392101E+02 -0.45929920431E+01  0.59301947301E+02  0.50000005969E+02 0.  0.
        -12    1    1    2    0    0 -0.21355715423E+02 -0.23228392101E+02  0.45929920431E+01  0.31886052699E+02  0.00000000000E+00 0.  1.
         11    1    3    3    0    0  0.24907172312E+02  0.17442448855E+02  0.15049090120E+02  0.33927590076E+02  0.51100000000E-03 0. -1.
        -11    1    3    3    0    0  0.20458955273E+01 -0.15390776819E+01  0.10146194697E+01  0.27538884416E+01  0.51100000000E-03 0.  1.
         12    1    3    3    0    0 -0.55973524164E+01  0.73250209277E+01 -0.20656701632E+02  0.22620468784E+02  0.00000000000E+00 0. -1.
</event>
<event>
 7    1  0.6152255E-013  0.5930194E+02  0.7816164E-02  0.1266605E+00
        -11   -1    0    0    0    0  0.00000000000E+00  0.00000000000E+00  0.45593999997E+02  0.45594000000E+02  0.51100000000E-03 0.  1.
         11   -1    0    0    0    0 -0.00000000000E+00 -0.00000000000E+00 -0.45593999997E+02  0.45594000000E+02  0.51100000000E-03 0. -1.
    9900012    2    1    2    0    0  0.35047911469E+01 -0.67367895673E+01 -0.30968576679E+02  0.59301942919E+02  0.49999997977E+02 0.  0.
        -12    1    1    2    0    0 -0.35047911469E+01  0.67367895673E+01  0.30968576679E+02  0.31886057081E+02  0.00000000000E+00 0.  1.
         11    1    3    3    0    0  0.20757479092E+01  0.53200527909E-02 -0.13850615153E+02  0.14005295358E+02  0.51100000000E-03 0.  1.
        -11    1    3    3    0    0  0.37874711990E+01 -0.11097950619E+02 -0.29615875405E+02  0.31852935850E+02  0.51100000000E-03 0. -1.
        -12    1    3    3    0    0 -0.23584279613E+01  0.43558409984E+01  0.12497913878E+02  0.13443711711E+02  0.00000000000E+00 0.  1.
</event>
<event>
 7    1  0.6152255E-013  0.5930195E+02  0.7816164E-02  0.1266605E+00
        -11   -1    0    0    0    0  0.00000000000E+00  0.00000000000E+00  0.45593999997E+02  0.45594000000E+02  0.51100000000E-03 0. -1.
         11   -1    0    0    0    0 -0.00000000000E+00 -0.00000000000E+00 -0.45593999997E+02  0.45594000000E+02  0.51100000000E-03 0.  1.
    9900012    2    1    2    0    0 -0.20708864144E+01 -0.30799727641E+02 -0.79880270193E+01  0.59301947110E+02  0.50000005620E+02 0.  0.
        -12    1    1    2    0    0  0.20708864144E+01  0.30799727641E+02  0.79880270193E+01  0.31886052890E+02  0.00000000000E+00 0.  1.
         11    1    3    3    0    0 -0.12767940581E+02 -0.26028693236E+02 -0.20246928963E+02  0.35361720984E+02  0.51100000000E-03 0. -1.
        -11    1    3    3    0    0 -0.19564561869E+01  0.19590108314E+01  0.87603406464E+01  0.91874377685E+01  0.51100000000E-03 0.  1.
        -12    1    3    3    0    0  0.12653510354E+02 -0.67300452362E+01  0.34985612975E+01  0.14752788357E+02  0.00000000000E+00 0.  1.
</event>
<event>
 7    1  0.6152255E-013  0.5930195E+02  0.7816164E-02  0.1266605E+00
        -11   -1    0    0    0    0  0.00000000000E+00  0.00000000000E+00  0.45593999997E+02  0.45594000000E+02  0.51100000000E-03 0.  1.
         11   -1    0    0    0    0 -0.00000000000E+00 -0.00000000000E+00 -0.45593999997E+02  0.45594000000E+02  0.51100000000E-03 0. -1.
    9900012    2    1    2    0    0 -0.15967781788E+02 -0.17303325056E+02 -0.21502207536E+02  0.59301952234E+02  0.50000014966E+02 0.  0.
        -12    1    1    2    0    0  0.15967781788E+02  0.17303325056E+02  0.21502207536E+02  0.31886047766E+02  0.00000000000E+00 0.  1.
         11    1    3    3    0    0 -0.18528124096E+01 -0.14994887730E+02 -0.70435734433E+01  0.16670077953E+02  0.51100000000E-03 0. -1.
        -11    1    3    3    0    0  0.58247552110E+01  0.24524560754E+01 -0.20344414771E+02  0.21303462787E+02  0.51100000000E-03 0.  1.
        -12    1    3    3    0    0 -0.19939724589E+02 -0.47608934022E+01  0.58857806780E+01  0.21328411494E+02  0.00000000000E+00 0.  1.
</event>
<event>
 7    1  0.6152255E-013  0.5930194E+02  0.7816164E-02  0.1266605E+00
        -11   -1    0    0    0    0  0.00000000000E+00  0.00000000000E+00  0.45593999997E+02  0.45594000000E+02  0.51100000000E-03 0.  1.
         11   -1    0    0    0    0 -0.00000000000E+00 -0.00000000000E+00 -0.45593999997E+02  0.45594000000E+02  0.51100000000E-03 0. -1.
    9900012    2    1    2    0    0 -0.16687561498E+02  0.18956796597E+02 -0.19464985597E+02  0.59301944893E+02  0.50000001578E+02 0.  0.
        -12    1    1    2    0    0  0.16687561498E+02 -0.18956796597E+02  0.19464985597E+02  0.31886055107E+02  0.00000000000E+00 0.  1.
         11    1    3    3    0    0 -0.11561732766E+02 -0.73043039798E+01 -0.13748005825E+02  0.19391600904E+02  0.51100000000E-03 0. -1.
        -11    1    3    3    0    0 -0.13570844382E+02  0.42064720007E+01 -0.77900919969E+01  0.16203325508E+02  0.51100000000E-03 0.  1.
        -12    1    3    3    0    0  0.84450156500E+01  0.22054628577E+02  0.20731122254E+01  0.23707018481E+02  0.00000000000E+00 0.  1.
</event>
<event>
 7    1  0.6152255E-013  0.5930197E+02  0.7816164E-02  0.1266605E+00
        -11   -1    0    0    0    0  0.00000000000E+00  0.00000000000E+00  0.45593999997E+02  0.45594000000E+02  0.51100000000E-03 0.  1.
         11   -1    0    0    0    0 -0.00000000000E+00 -0.00000000000E+00 -0.45593999997E+02  0.45594000000E+02  0.51100000000E-03 0. -1.
    9900012    2    1    2    0    0 -0.83564294604E+01  0.29124792792E+02 -0.99315415916E+01  0.59301968781E+02  0.50000045145E+02 0.  0.
        -12    1    1    2    0    0  0.83564294604E+01 -0.29124792792E+02  0.99315415916E+01  0.31886031219E+02  0.00000000000E+00 0.  1.
         11    1    3    3    0    0 -0.35578386411E+00  0.16791803371E+02 -0.79015912660E+00  0.16814148635E+02  0.51100000000E-03 0. -1.
        -11    1    3    3    0    0 -0.46966665971E+01  0.63012631436E+01  0.15244301626E+02  0.17150898713E+02  0.51100000000E-03 0.  1.
         12    1    3    3    0    0 -0.33039789992E+01  0.60317262769E+01 -0.24385684091E+02  0.25336921433E+02  0.00000000000E+00 0. -1.
</event>
<event>
 7    1  0.6152255E-013  0.5930192E+02  0.7816164E-02  0.1266605E+00
        -11   -1    0    0    0    0  0.00000000000E+00  0.00000000000E+00  0.45593999997E+02  0.45594000000E+02  0.51100000000E-03 0.  1.
         11   -1    0    0    0    0 -0.00000000000E+00 -0.00000000000E+00 -0.45593999997E+02  0.45594000000E+02  0.51100000000E-03 0. -1.
    9900012    2    1    2    0    0 -0.16652839759E+02 -0.26187222852E+02 -0.73235651304E+01  0.59301916532E+02  0.49999949854E+02 0.  0.
        -12    1    1    2    0    0  0.16652839759E+02  0.26187222852E+02  0.73235651304E+01  0.31886083468E+02  0.00000000000E+00 0.  1.
         11    1    3    3    0    0 -0.66321989072E+01  0.69704594822E+01  0.35261050917E+01  0.10247281840E+02  0.51100000000E-03 0. -1.
        -11    1    3    3    0    0 -0.76030645435E+01 -0.87624755509E+01  0.11168568639E+02  0.16103555320E+02  0.51100000000E-03 0.  1.
        -12    1    3    3    0    0 -0.24175763083E+01 -0.24395206783E+02 -0.22018238861E+02  0.32951079372E+02  0.00000000000E+00 0.  1.
</event>
<event>
 7    1  0.6152255E-013  0.5930175E+02  0.7816164E-02  0.1266605E+00
        -11   -1    0    0    0    0  0.00000000000E+00  0.00000000000E+00  0.45593999997E+02  0.45594000000E+02  0.51100000000E-03 0.  1.
         11   -1    0    0    0    0 -0.00000000000E+00 -0.00000000000E+00 -0.45593999997E+02  0.45594000000E+02  0.51100000000E-03 0. -1.
    9900012    2    1    2    0    0  0.29124928846E+02  0.44701305102E+01  0.12185625488E+02  0.59301748800E+02  0.49999643950E+02 0.  0.
        -12    1    1    2    0    0 -0.29124928846E+02 -0.44701305102E+01 -0.12185625488E+02  0.31886251200E+02  0.00000000000E+00 0.  1.
         11    1    3    3    0    0  0.13834965942E+02  0.15778812591E+02  0.96045628029E+00  0.21007134168E+02  0.51100000000E-03 0. -1.
        -11    1    3    3    0    0 -0.41007207493E+00  0.85485677245E+01  0.96982681774E+01  0.12934549669E+02  0.51100000000E-03 0.  1.
         12    1    3    3    0    0  0.15700034979E+02 -0.19857249806E+02  0.15269010301E+01  0.25360064963E+02  0.00000000000E+00 0. -1.
</event>
<event>
 7    1  0.6152255E-013  0.5930208E+02  0.7816164E-02  0.1266604E+00
        -11   -1    0    0    0    0  0.00000000000E+00  0.00000000000E+00  0.45593999997E+02  0.45594000000E+02  0.51100000000E-03 0.  1.
         11   -1    0    0    0    0 -0.00000000000E+00 -0.00000000000E+00 -0.45593999997E+02  0.45594000000E+02  0.51100000000E-03 0. -1.
    9900012    2    1    2    0    0  0.98457713636E+01 -0.19960461759E+02 -0.22833144106E+02  0.59302082777E+02  0.50000253045E+02 0.  0.
        -12    1    1    2    0    0 -0.98457713636E+01  0.19960461759E+02  0.22833144106E+02  0.31885917223E+02  0.00000000000E+00 0.  1.
         11    1    3    3    0    0 -0.60038132776E+00  0.84405530358E+01 -0.24530734612E+02  0.25949187544E+02  0.51100000000E-03 0. -1.
        -11    1    3    3    0    0 -0.27063564270E+01 -0.21566364330E+01 -0.16000863347E+01  0.38125742424E+01  0.51100000000E-03 0.  1.
         12    1    3    3    0    0  0.13152509118E+02 -0.26244378362E+02  0.32976768413E+01  0.29540320991E+02  0.00000000000E+00 0. -1.
</event>
<event>
 7    1  0.6152255E-013  0.5930194E+02  0.7816164E-02  0.1266605E+00
        -11   -1    0    0    0    0  0.00000000000E+00  0.00000000000E+00  0.45593999997E+02  0.45594000000E+02  0.51100000000E-03 0. -1.
         11   -1    0    0    0    0 -0.00000000000E+00 -0.00000000000E+00 -0.45593999997E+02  0.45594000000E+02  0.51100000000E-03 0.  1.
    9900012    2    1    2    0    0  0.88389486316E+01 -0.19164284768E+02  0.23902385465E+02  0.59301939495E+02  0.49999991734E+02 0.  0.
        -12    1    1    2    0    0 -0.88389486316E+01  0.19164284768E+02 -0.23902385465E+02  0.31886060505E+02  0.00000000000E+00 0.  1.
         11    1    3    3    0    0  0.12280995234E+02 -0.44601745945E+01  0.44559481058E+01  0.13804762770E+02  0.51100000000E-03 0. -1.
        -11    1    3    3    0    0  0.24361332164E+00  0.51853324815E+00 -0.11128911509E+02  0.11143648228E+02  0.51100000000E-03 0.  1.
         12    1    3    3    0    0 -0.36856599238E+01 -0.15222643422E+02  0.30575348869E+02  0.34353528498E+02  0.00000000000E+00 0. -1.
</event>
<event>
 7    1  0.6152255E-013  0.5930195E+02  0.7816164E-02  0.1266605E+00
        -11   -1    0    0    0    0  0.00000000000E+00  0.00000000000E+00  0.45593999997E+02  0.45594000000E+02  0.51100000000E-03 0. -1.
         11   -1    0    0    0    0 -0.00000000000E+00 -0.00000000000E+00 -0.45593999997E+02  0.45594000000E+02  0.51100000000E-03 0.  1.
    9900012    2    1    2    0    0  0.64384545765E+01 -0.26239347876E+02  0.16934089626E+02  0.59301945591E+02  0.50000002851E+02 0.  0.
        -12    1    1    2    0    0 -0.64384545765E+01  0.26239347876E+02 -0.16934089626E+02  0.31886054409E+02  0.00000000000E+00 0.  1.
         11    1    3    3    0    0 -0.68291284569E+01 -0.17442104011E+02 -0.61310566844E+01  0.19709232459E+02  0.51100000000E-03 0. -1.
        -11    1    3    3    0    0  0.97638985131E+01 -0.12208367522E+02 -0.38581767032E+00  0.15637352950E+02  0.51100000000E-03 0.  1.
         12    1    3    3    0    0  0.35036845202E+01  0.34111236570E+01  0.23450963981E+02  0.23955360182E+02  0.00000000000E+00 0. -1.
</event>
<event>
 7    1  0.6152255E-013  0.5930196E+02  0.7816164E-02  0.1266605E+00
        -11   -1    0    0    0    0  0.00000000000E+00  0.00000000000E+00  0.45593999997E+02  0.45594000000E+02  0.51100000000E-03 0. -1.
         11   -1    0    0    0    0 -0.00000000000E+00 -0.00000000000E+00 -0.45593999997E+02  0.45594000000E+02  0.51100000000E-03 0.  1.
    9900012    2    1    2    0    0 -0.19187597929E+02 -0.86452802180E+01  0.23954424790E+02  0.59301964634E+02  0.50000037581E+02 0.  0.
        -12    1    1    2    0    0  0.19187597929E+02  0.86452802180E+01 -0.23954424790E+02  0.31886035366E+02  0.00000000000E+00 0.  1.
         11    1    3    3    0    0  0.15318765525E+02 -0.83473801035E+01  0.68732415392E+01  0.18750594159E+02  0.51100000000E-03 0. -1.
        -11    1    3    3    0    0 -0.13199024019E+02 -0.34547958679E+01  0.10183550374E+01  0.13681626248E+02  0.51100000000E-03 0.  1.
        -12    1    3    3    0    0 -0.21307339435E+02  0.31568957534E+01  0.16062828213E+02  0.26869744227E+02  0.00000000000E+00 0.  1.
</event>
<event>
 7    1  0.6152255E-013  0.5930193E+02  0.7816164E-02  0.1266605E+00
        -11   -1    0    0    0    0  0.00000000000E+00  0.00000000000E+00  0.45593999997E+02  0.45594000000E+02  0.51100000000E-03 0.  1.
         11   -1    0    0    0    0 -0.00000000000E+00 -0.00000000000E+00 -0.45593999997E+02  0.45594000000E+02  0.51100000000E-03 0. -1.
    9900012    2    1    2    0    0  0.20198759060E+02  0.17096808800E+02 -0.17788506115E+02  0.59301926417E+02  0.49999967883E+02 0.  0.
        -12    1    1    2    0    0 -0.20198759060E+02 -0.17096808800E+02  0.17788506115E+02  0.31886073583E+02  0.00000000000E+00 0.  1.
         11    1    3    3    0    0  0.61630933799E+01  0.22206113243E+01 -0.24188736425E+02  0.25060123798E+02  0.51100000000E-03 0. -1.
        -11    1    3    3    0    0  0.14920907952E+02 -0.32582233827E+01  0.48297588482E+01  0.16017992525E+02  0.51100000000E-03 0.  1.
        -12    1    3    3    0    0 -0.88524227240E+00  0.18134420859E+02  0.15704714615E+01  0.18223810095E+02  0.00000000000E+00 0.  1.
</event>
<event>
 7    1  0.6152255E-013  0.5930195E+02  0.7816164E-02  0.1266605E+00
        -11   -1    0    0    0    0  0.00000000000E+00  0.00000000000E+00  0.45593999997E+02  0.45594000000E+02  0.51100000000E-03 0. -1.
         11   -1    0    0    0    0 -0.00000000000E+00 -0.00000000000E+00 -0.45593999997E+02  0.45594000000E+02  0.51100000000E-03 0.  1.
    9900012    2    1    2    0    0  0.21602616668E+02 -0.12912106765E+02  0.19578684168E+02  0.59301946281E+02  0.50000004109E+02 0.  0.
        -12    1    1    2    0    0 -0.21602616668E+02  0.12912106765E+02 -0.19578684168E+02  0.31886053719E+02  0.00000000000E+00 0.  1.
         11    1    3    3    0    0  0.36084932671E+01 -0.11993425591E+02 -0.83863964000E+01  0.15072993263E+02  0.51100000000E-03 0. -1.
        -11    1    3    3    0    0  0.15492115516E+02  0.78913739906E+00 -0.58052518934E+00  0.15523059968E+02  0.51100000000E-03 0.  1.
         12    1    3    3    0    0  0.25020078850E+01 -0.17078185735E+01  0.28545605758E+02  0.28705893050E+02  0.00000000000E+00 0. -1.
</event>
<event>
 7    1  0.6152255E-013  0.5930194E+02  0.7816164E-02  0.1266605E+00
        -11   -1    0    0    0    0  0.00000000000E+00  0.00000000000E+00  0.45593999997E+02  0.45594000000E+02  0.51100000000E-03 0.  1.
         11   -1    0    0    0    0 -0.00000000000E+00 -0.00000000000E+00 -0.45593999997E+02  0.45594000000E+02  0.51100000000E-03 0. -1.
    9900012    2    1    2    0    0  0.79282703255E+01  0.21747055005E+02 -0.21930091878E+02  0.59301940326E+02  0.49999993250E+02 0.  0.
        -12    1    1    2    0    0 -0.79282703255E+01 -0.21747055005E+02  0.21930091878E+02  0.31886059674E+02  0.00000000000E+00 0.  1.
         11    1    3    3    0    0  0.11025509023E+02  0.14141961013E+02 -0.27167699433E+02  0.32552124405E+02  0.51100000000E-03 0. -1.
        -11    1    3    3    0    0  0.73375828874E+01 -0.30728944572E+00 -0.60079972449E+01  0.94884445821E+01  0.51100000000E-03 0.  1.
        -12    1    3    3    0    0 -0.10434821585E+02  0.79123834380E+01  0.11245604801E+02  0.17261371339E+02  0.00000000000E+00 0.  1.
</event>
<event>
 7    1  0.6152255E-013  0.5930196E+02  0.7816164E-02  0.1266605E+00
        -11   -1    0    0    0    0  0.00000000000E+00  0.00000000000E+00  0.45593999997E+02  0.45594000000E+02  0.51100000000E-03 0.  1.
         11   -1    0    0    0    0 -0.00000000000E+00 -0.00000000000E+00 -0.45593999997E+02  0.45594000000E+02  0.51100000000E-03 0. -1.
    9900012    2    1    2    0    0 -0.15723661366E+02  0.27739125030E+02  0.16428315600E+00  0.59301959588E+02  0.50000028379E+02 0.  0.
        -12    1    1    2    0    0  0.15723661366E+02 -0.27739125030E+02 -0.16428315600E+00  0.31886040412E+02  0.00000000000E+00 0.  1.
         11    1    3    3    0    0 -0.12719528893E+02 -0.13608890184E+01 -0.10818991837E+02  0.16753776256E+02  0.51100000000E-03 0. -1.
        -11    1    3    3    0    0 -0.48415908626E+01  0.24035647657E+01  0.14578316562E+02  0.15548165156E+02  0.51100000000E-03 0.  1.
         12    1    3    3    0    0  0.18374583904E+01  0.26696449283E+02 -0.35950415691E+01  0.27000018177E+02  0.00000000000E+00 0. -1.
</event>
<event>
 7    1  0.6152255E-013  0.5930196E+02  0.7816164E-02  0.1266605E+00
        -11   -1    0    0    0    0  0.00000000000E+00  0.00000000000E+00  0.45593999997E+02  0.45594000000E+02  0.51100000000E-03 0. -1.
         11   -1    0    0    0    0 -0.00000000000E+00 -0.00000000000E+00 -0.45593999997E+02  0.45594000000E+02  0.51100000000E-03 0.  1.
    9900012    2    1    2    0    0 -0.67271409123E+01 -0.23923544844E+02 -0.19978218839E+02  0.59301958372E+02  0.50000026160E+02 0.  0.
        -12    1    1    2    0    0  0.67271409123E+01  0.23923544844E+02  0.19978218839E+02  0.31886041628E+02  0.00000000000E+00 0.  1.
         11    1    3    3    0    0 -0.71338196091E+00 -0.20022430525E+02  0.55397916598E+01  0.20786917276E+02  0.51100000000E-03 0. -1.
        -11    1    3    3    0    0 -0.47314764857E+01  0.80744933530E-02  0.54829875312E+01  0.72422432616E+01  0.51100000000E-03 0.  1.
         12    1    3    3    0    0 -0.12822824657E+01 -0.39091888118E+01 -0.31000998030E+02  0.31272797834E+02  0.00000000000E+00 0. -1.
</event>
<event>
 7    1  0.6152255E-013  0.5930200E+02  0.7816164E-02  0.1266605E+00
        -11   -1    0    0    0    0  0.00000000000E+00  0.00000000000E+00  0.45593999997E+02  0.45594000000E+02  0.51100000000E-03 0.  1.
         11   -1    0    0    0    0 -0.00000000000E+00 -0.00000000000E+00 -0.45593999997E+02  0.45594000000E+02  0.51100000000E-03 0. -1.
    9900012    2    1    2    0    0  0.11686828221E+02 -0.14845272860E+02 -0.25685658189E+02  0.59301998107E+02  0.50000098627E+02 0.  0.
        -12    1    1    2    0    0 -0.11686828221E+02  0.14845272860E+02  0.25685658189E+02  0.31886001893E+02  0.00000000000E+00 0.  1.
         11    1    3    3    0    0 -0.10542994212E+01  0.47249238965E+01 -0.12821083217E+02  0.13704620689E+02  0.51100000000E-03 0. -1.
        -11    1    3    3    0    0  0.94380538236E+01 -0.95437769094E+01 -0.25690662255E+02  0.28985697594E+02  0.51100000000E-03 0.  1.
        -12    1    3    3    0    0  0.33030738189E+01 -0.10026419847E+02  0.12826087283E+02  0.16611679824E+02  0.00000000000E+00 0.  1.
</event>
<event>
 7    1  0.6152255E-013  0.5930191E+02  0.7816164E-02  0.1266605E+00
        -11   -1    0    0    0    0  0.00000000000E+00  0.00000000000E+00  0.45593999997E+02  0.45594000000E+02  0.51100000000E-03 0.  1.
         11   -1    0    0    0    0 -0.00000000000E+00 -0.00000000000E+00 -0.45593999997E+02  0.45594000000E+02  0.51100000000E-03 0. -1.
    9900012    2    1    2    0    0 -0.24884972566E+02  0.11827266874E+02 -0.16049200117E+02  0.59301907017E+02  0.49999932501E+02 0.  0.
        -12    1    1    2    0    0  0.24884972566E+02 -0.11827266874E+02  0.16049200117E+02  0.31886092983E+02  0.00000000000E+00 0.  1.
         11    1    3    3    0    0  0.66897480627E+01  0.55652876370E+01  0.61269095958E+01  0.10642564403E+02  0.51100000000E-03 0. -1.
        -11    1    3    3    0    0 -0.32845225027E+01  0.92301653210E+01  0.34361805793E+01  0.10382262622E+02  0.51100000000E-03 0.  1.
         12    1    3    3    0    0 -0.28290198126E+02 -0.29681860842E+01 -0.25612290292E+02  0.38277079991E+02  0.00000000000E+00 0. -1.
</event>
<event>
 7    1  0.6152255E-013  0.5930193E+02  0.7816164E-02  0.1266605E+00
        -11   -1    0    0    0    0  0.00000000000E+00  0.00000000000E+00  0.45593999997E+02  0.45594000000E+02  0.51100000000E-03 0. -1.
         11   -1    0    0    0    0 -0.00000000000E+00 -0.00000000000E+00 -0.45593999997E+02  0.45594000000E+02  0.51100000000E-03 0.  1.
    9900012    2    1    2    0    0  0.13020843281E+02 -0.18349595985E+02  0.22593615001E+02  0.59301929822E+02  0.49999974092E+02 0.  0.
        -12    1    1    2    0    0 -0.13020843281E+02  0.18349595985E+02 -0.22593615001E+02  0.31886070178E+02  0.00000000000E+00 0.  1.
         11    1    3    3    0    0 -0.55997789688E+01 -0.52646761173E+01  0.31774688514E+01  0.83168893032E+01  0.51100000000E-03 0.  1.
        -11    1    3    3    0    0  0.16501930280E+02 -0.24062033264E+02  0.70148039454E+00  0.29185393997E+02  0.51100000000E-03 0. -1.
         12    1    3    3    0    0  0.21186919699E+01  0.10977113396E+02  0.18714665755E+02  0.21799646522E+02  0.00000000000E+00 0. -1.
</event>
<event>
 7    1  0.6152255E-013  0.5930184E+02  0.7816164E-02  0.1266605E+00
        -11   -1    0    0    0    0  0.00000000000E+00  0.00000000000E+00  0.45593999997E+02  0.45594000000E+02  0.51100000000E-03 0.  1.
         11   -1    0    0    0    0 -0.00000000000E+00 -0.00000000000E+00 -0.45593999997E+02  0.45594000000E+02  0.51100000000E-03 0. -1.
    9900012    2    1    2    0    0  0.23386277949E+02 -0.54819590082E+00 -0.21668142182E+02  0.59301844687E+02  0.49999818826E+02 0.  0.
        -12    1    1    2    0    0 -0.23386277949E+02  0.54819590082E+00  0.21668142182E+02  0.31886155313E+02  0.00000000000E+00 0.  1.
         11    1    3    3    0    0  0.98167902484E+01  0.15524617289E+02 -0.19089994367E+02  0.26491715647E+02  0.51100000000E-03 0. -1.
        -11    1    3    3    0    0 -0.66494635322E+01 -0.49208772724E+01 -0.48812398681E+01  0.96050456171E+01  0.51100000000E-03 0.  1.
        -12    1    3    3    0    0  0.20218951232E+02 -0.11151935917E+02  0.23030920534E+01  0.23205083422E+02  0.00000000000E+00 0.  1.
</event>
<event>
 7    1  0.6152255E-013  0.5930196E+02  0.7816164E-02  0.1266605E+00
        -11   -1    0    0    0    0  0.00000000000E+00  0.00000000000E+00  0.45593999997E+02  0.45594000000E+02  0.51100000000E-03 0.  1.
         11   -1    0    0    0    0 -0.00000000000E+00 -0.00000000000E+00 -0.45593999997E+02  0.45594000000E+02  0.51100000000E-03 0. -1.
    9900012    2    1    2    0    0  0.92676164088E+01  0.24868153898E+02 -0.17675003956E+02  0.59301959840E+02  0.50000028839E+02 0.  0.
        -12    1    1    2    0    0 -0.92676164088E+01 -0.24868153898E+02  0.17675003956E+02  0.31886040160E+02  0.00000000000E+00 0.  1.
         11    1    3    3    0    0  0.50592097416E+01  0.47720334842E+01  0.76921161570E+01  0.10369983511E+02  0.51100000000E-03 0. -1.
        -11    1    3    3    0    0  0.16233531992E+02  0.11505486913E+02 -0.37915809821E+00  0.19900943474E+02  0.51100000000E-03 0.  1.
         12    1    3    3    0    0 -0.12025125324E+02  0.85906335014E+01 -0.24987962015E+02  0.29031032856E+02  0.00000000000E+00 0. -1.
</event>
<event>
 7    1  0.6428239E-013  0.5930194E+02  0.7816164E-02  0.1266605E+00
        -11   -1    0    0    0    0  0.00000000000E+00  0.00000000000E+00  0.45593999997E+02  0.45594000000E+02  0.51100000000E-03 0.  1.
         11   -1    0    0    0    0 -0.00000000000E+00 -0.00000000000E+00 -0.45593999997E+02  0.45594000000E+02  0.51100000000E-03 0. -1.
    9900012    2    1    2    0    0  0.28879915571E+02 -0.60350944616E+01 -0.12093332813E+02  0.59301943689E+02  0.49999999382E+02 0.  0.
        -12    1    1    2    0    0 -0.28879915571E+02  0.60350944616E+01  0.12093332813E+02  0.31886056311E+02  0.00000000000E+00 0.  1.
         11    1    3    3    0    0  0.11072705053E+02 -0.10637755404E+02 -0.52565928502E+00  0.15363689503E+02  0.51100000000E-03 0. -1.
        -11    1    3    3    0    0  0.25524840715E+01  0.88366613918E+01  0.12262424584E+02  0.15328692587E+02  0.51100000000E-03 0.  1.
         12    1    3    3    0    0  0.15254726447E+02 -0.42340004495E+01 -0.23830098112E+02  0.28609561598E+02  0.00000000000E+00 0. -1.
</event>
<event>
 7    1  0.6152255E-013  0.5930194E+02  0.7816164E-02  0.1266605E+00
        -11   -1    0    0    0    0  0.00000000000E+00  0.00000000000E+00  0.45593999997E+02  0.45594000000E+02  0.51100000000E-03 0. -1.
         11   -1    0    0    0    0 -0.00000000000E+00 -0.00000000000E+00 -0.45593999997E+02  0.45594000000E+02  0.51100000000E-03 0.  1.
    9900012    2    1    2    0    0 -0.93917775419E+01  0.53709678681E+01  0.29994462305E+02  0.59301944267E+02  0.50000000436E+02 0.  0.
        -12    1    1    2    0    0  0.93917775419E+01 -0.53709678681E+01 -0.29994462305E+02  0.31886055733E+02  0.00000000000E+00 0.  1.
         11    1    3    3    0    0  0.78503654598E+01 -0.54405698508E+00 -0.22270035256E+01  0.81782504743E+01  0.51100000000E-03 0. -1.
        -11    1    3    3    0    0 -0.44109035274E+01  0.20027900958E+02  0.18588598243E+02  0.27678671782E+02  0.51100000000E-03 0.  1.
         12    1    3    3    0    0 -0.12831239474E+02 -0.14112876105E+02  0.13632867587E+02  0.23445022010E+02  0.00000000000E+00 0. -1.
</event>
<event>
 7    1  0.6152255E-013  0.5930194E+02  0.7816164E-02  0.1266605E+00
        -11   -1    0    0    0    0  0.00000000000E+00  0.00000000000E+00  0.45593999997E+02  0.45594000000E+02  0.51100000000E-03 0. -1.
         11   -1    0    0    0    0 -0.00000000000E+00 -0.00000000000E+00 -0.45593999997E+02  0.45594000000E+02  0.51100000000E-03 0.  1.
    9900012    2    1    2    0    0  0.94877900050E+01  0.26952977766E+02  0.14150607440E+02  0.59301939401E+02  0.49999991561E+02 0.  0.
        -12    1    1    2    0    0 -0.94877900050E+01 -0.26952977766E+02 -0.14150607440E+02  0.31886060599E+02  0.00000000000E+00 0.  1.
         11    1    3    3    0    0  0.11758745622E+02 -0.66608172268E+01  0.90910210007E+01  0.16287456764E+02  0.51100000000E-03 0. -1.
        -11    1    3    3    0    0  0.12000787772E+02  0.16320415916E+02  0.32861130737E+01  0.20522510135E+02  0.51100000000E-03 0.  1.
        -12    1    3    3    0    0 -0.14271743390E+02  0.17293379076E+02  0.17734733659E+01  0.22491972502E+02  0.00000000000E+00 0.  1.
</event>
<event>
 7    1  0.6152255E-013  0.5930194E+02  0.7816164E-02  0.1266605E+00
        -11   -1    0    0    0    0  0.00000000000E+00  0.00000000000E+00  0.45593999997E+02  0.45594000000E+02  0.51100000000E-03 0. -1.
         11   -1    0    0    0    0 -0.00000000000E+00 -0.00000000000E+00 -0.45593999997E+02  0.45594000000E+02  0.51100000000E-03 0.  1.
    9900012    2    1    2    0    0 -0.12409228821E+02 -0.29191995221E+02  0.32495380895E+01  0.59301936544E+02  0.49999986351E+02 0.  0.
        -12    1    1    2    0    0  0.12409228821E+02  0.29191995221E+02 -0.32495380895E+01  0.31886063456E+02  0.00000000000E+00 0.  1.
         11    1    3    3    0    0 -0.20210107729E+02 -0.18351604043E+02  0.28047765286E+01  0.27442605507E+02  0.51100000000E-03 0.  1.
        -11    1    3    3    0    0  0.87204340081E+00  0.42973164722E+01  0.11207810166E+02  0.12035048713E+02  0.51100000000E-03 0. -1.
        -12    1    3    3    0    0  0.69288355067E+01 -0.15137707650E+02 -0.10763048605E+02  0.19824282324E+02  0.00000000000E+00 0.  1.
</event>
<event>
 7    1  0.6152255E-013  0.5930196E+02  0.7816164E-02  0.1266605E+00
        -11   -1    0    0    0    0  0.00000000000E+00  0.00000000000E+00  0.45593999997E+02  0.45594000000E+02  0.51100000000E-03 0. -1.
         11   -1    0    0    0    0 -0.00000000000E+00 -0.00000000000E+00 -0.45593999997E+02  0.45594000000E+02  0.51100000000E-03 0.  1.
    9900012    2    1    2    0    0  0.20650177579E+02 -0.20751498842E+02 -0.12635863005E+02  0.59301959604E+02  0.50000028407E+02 0.  0.
        -12    1    1    2    0    0 -0.20650177579E+02  0.20751498842E+02  0.12635863005E+02  0.31886040396E+02  0.00000000000E+00 0.  1.
         11    1    3    3    0    0  0.12734451877E+02 -0.13207399732E+02  0.44798851494E+01  0.18885736510E+02  0.51100000000E-03 0. -1.
        -11    1    3    3    0    0  0.20397607750E+02 -0.70746616436E+01 -0.33837616454E+01  0.21853216752E+02  0.51100000000E-03 0.  1.
        -12    1    3    3    0    0 -0.12481882047E+02 -0.46943746621E+00 -0.13731986509E+02  0.18563006342E+02  0.00000000000E+00 0.  1.
</event>
<event>
 7    1  0.6152255E-013  0.5930196E+02  0.7816164E-02  0.1266605E+00
        -11   -1    0    0    0    0  0.00000000000E+00  0.00000000000E+00  0.45593999997E+02  0.45594000000E+02  0.51100000000E-03 0.  1.
         11   -1    0    0    0    0 -0.00000000000E+00 -0.00000000000E+00 -0.45593999997E+02  0.45594000000E+02  0.51100000000E-03 0. -1.
    9900012    2    1    2    0    0 -0.10650500647E+02  0.29985267934E+02  0.20421032478E+01  0.59301958496E+02  0.50000026386E+02 0.  0.
        -12    1    1    2    0    0  0.10650500647E+02 -0.29985267934E+02 -0.20421032478E+01  0.31886041504E+02  0.00000000000E+00 0.  1.
         11    1    3    3    0    0 -0.26478890731E+01 -0.24685163549E+01 -0.10109690617E+02  0.10738283577E+02  0.51100000000E-03 0. -1.
        -11    1    3    3    0    0  0.82863466075E+01  0.53104186619E+01  0.13701467005E+02  0.16869922490E+02  0.51100000000E-03 0.  1.
         12    1    3    3    0    0 -0.16288958182E+02  0.27143365627E+02 -0.15496731400E+01  0.31693752429E+02  0.00000000000E+00 0. -1.
</event>
<event>
 7    1  0.7662683E-013  0.5930166E+02  0.7816164E-02  0.1266606E+00
        -11   -1    0    0    0    0  0.00000000000E+00  0.00000000000E+00  0.45593999997E+02  0.45594000000E+02  0.51100000000E-03 0.  1.
         11   -1    0    0    0    0 -0.00000000000E+00 -0.00000000000E+00 -0.45593999997E+02  0.45594000000E+02  0.51100000000E-03 0. -1.
    9900012    2    1    2    0    0  0.83642315005E+01 -0.18407862227E+02 -0.24656218627E+02  0.59301656884E+02  0.49999476315E+02 0.  0.
        -12    1    1    2    0    0 -0.83642315005E+01  0.18407862227E+02  0.24656218627E+02  0.31886343116E+02  0.00000000000E+00 0.  1.
         11    1    3    3    0    0 -0.88485423037E+01 -0.84913401423E+01 -0.30210908355E+01  0.12630381958E+02  0.51100000000E-03 0. -1.
        -11    1    3    3    0    0  0.10652941641E+02 -0.43191470784E+01  0.91556292370E+01  0.14695773001E+02  0.51100000000E-03 0.  1.
         12    1    3    3    0    0  0.65598321628E+01 -0.55973750067E+01 -0.30790757028E+02  0.31975501925E+02  0.00000000000E+00 0. -1.
</event>
<event>
 7    1  0.6152255E-013  0.5930198E+02  0.7816164E-02  0.1266605E+00
        -11   -1    0    0    0    0  0.00000000000E+00  0.00000000000E+00  0.45593999997E+02  0.45594000000E+02  0.51100000000E-03 0. -1.
         11   -1    0    0    0    0 -0.00000000000E+00 -0.00000000000E+00 -0.45593999997E+02  0.45594000000E+02  0.51100000000E-03 0.  1.
    9900012    2    1    2    0    0  0.18558542627E+02  0.95118217159E+01  0.24121031649E+02  0.59301977598E+02  0.50000061225E+02 0.  0.
        -12    1    1    2    0    0 -0.18558542627E+02 -0.95118217159E+01 -0.24121031649E+02  0.31886022402E+02  0.00000000000E+00 0.  1.
         11    1    3    3    0    0 -0.52277916745E+00 -0.74459002599E+01 -0.89226317764E+01  0.11633060080E+02  0.51100000000E-03 0. -1.
        -11    1    3    3    0    0  0.17840210157E+02  0.81553035434E+01  0.81606165371E+01  0.21245652187E+02  0.51100000000E-03 0.  1.
         12    1    3    3    0    0  0.12411116379E+01  0.88024184323E+01  0.24883046888E+02  0.26423265332E+02  0.00000000000E+00 0. -1.
</event>
<event>
 7    1  0.6152255E-013  0.5930193E+02  0.7816164E-02  0.1266605E+00
        -11   -1    0    0    0    0  0.00000000000E+00  0.00000000000E+00  0.45593999997E+02  0.45594000000E+02  0.51100000000E-03 0.  1.
         11   -1    0    0    0    0 -0.00000000000E+00 -0.00000000000E+00 -0.45593999997E+02  0.45594000000E+02  0.51100000000E-03 0. -1.
    9900012    2    1    2    0    0 -0.81730992598E+01 -0.29009179126E+02  0.10411020192E+02  0.59301931467E+02  0.49999977092E+02 0.  0.
        -12    1    1    2    0    0  0.81730992598E+01  0.29009179126E+02 -0.10411020192E+02  0.31886068533E+02  0.00000000000E+00 0.  1.
         11    1    3    3    0    0  0.22493568945E+01  0.48671720261E+01  0.11438932515E+02  0.12633216032E+02  0.51100000000E-03 0. -1.
        -11    1    3    3    0    0 -0.15253630754E+02 -0.19939752194E+02  0.11218136984E+02  0.27497519277E+02  0.51100000000E-03 0.  1.
         12    1    3    3    0    0  0.48311745995E+01 -0.13936598958E+02 -0.12246049306E+02  0.19171196158E+02  0.00000000000E+00 0. -1.
</event>
<event>
 7    1  0.6152255E-013  0.5930206E+02  0.7816164E-02  0.1266604E+00
        -11   -1    0    0    0    0  0.00000000000E+00  0.00000000000E+00  0.45593999997E+02  0.45594000000E+02  0.51100000000E-03 0. -1.
         11   -1    0    0    0    0 -0.00000000000E+00 -0.00000000000E+00 -0.45593999997E+02  0.45594000000E+02  0.51100000000E-03 0.  1.
    9900012    2    1    2    0    0 -0.29481088503E+02 -0.31522338255E+01  0.11732093213E+02  0.59302060017E+02  0.50000211536E+02 0.  0.
        -12    1    1    2    0    0  0.29481088503E+02  0.31522338255E+01 -0.11732093213E+02  0.31885939983E+02  0.00000000000E+00 0.  1.
         11    1    3    3    0    0 -0.17840953765E+02 -0.18650969659E+01 -0.57926448369E+01  0.18850277250E+02  0.51100000000E-03 0. -1.
        -11    1    3    3    0    0 -0.45396110725E+01  0.15790709652E+02  0.24926077954E+01  0.16618293350E+02  0.51100000000E-03 0.  1.
         12    1    3    3    0    0 -0.71005236663E+01 -0.17077846511E+02  0.15032130254E+02  0.23833489417E+02  0.00000000000E+00 0. -1.
</event>
<event>
 7    1  0.6152255E-013  0.5930193E+02  0.7816164E-02  0.1266605E+00
        -11   -1    0    0    0    0  0.00000000000E+00  0.00000000000E+00  0.45593999997E+02  0.45594000000E+02  0.51100000000E-03 0. -1.
         11   -1    0    0    0    0 -0.00000000000E+00 -0.00000000000E+00 -0.45593999997E+02  0.45594000000E+02  0.51100000000E-03 0.  1.
    9900012    2    1    2    0    0 -0.19095964012E+02 -0.20909666976E+02  0.14657801628E+02  0.59301934655E+02  0.49999982907E+02 0.  0.
        -12    1    1    2    0    0  0.19095964012E+02  0.20909666976E+02 -0.14657801628E+02  0.31886065345E+02  0.00000000000E+00 0.  1.
         11    1    3    3    0    0  0.10667809475E+02 -0.51025555243E+01 -0.82996130553E+00  0.11854411327E+02  0.51100000000E-03 0. -1.
        -11    1    3    3    0    0 -0.35218190844E+01 -0.13952286095E+02  0.15486584806E+02  0.21140099483E+02  0.51100000000E-03 0.  1.
         12    1    3    3    0    0 -0.26241954403E+02 -0.18548253572E+01  0.11781273120E-02  0.26307423845E+02  0.00000000000E+00 0. -1.
</event>
<event>
 7    1  0.6152255E-013  0.5930192E+02  0.7816164E-02  0.1266605E+00
        -11   -1    0    0    0    0  0.00000000000E+00  0.00000000000E+00  0.45593999997E+02  0.45594000000E+02  0.51100000000E-03 0.  1.
         11   -1    0    0    0    0 -0.00000000000E+00 -0.00000000000E+00 -0.45593999997E+02  0.45594000000E+02  0.51100000000E-03 0. -1.
    9900012    2    1    2    0    0  0.29035902080E+02  0.58550351641E+01  0.11804957274E+02  0.59301920551E+02  0.49999957184E+02 0.  0.
        -12    1    1    2    0    0 -0.29035902080E+02 -0.58550351641E+01 -0.11804957274E+02  0.31886079449E+02  0.00000000000E+00 0.  1.
         11    1    3    3    0    0  0.46991720623E+01  0.86215925564E+01 -0.83658979374E+01  0.12899702510E+02  0.51100000000E-03 0. -1.
        -11    1    3    3    0    0  0.16670600463E+02  0.14733966135E+02  0.75093727700E+01  0.23481681318E+02  0.51100000000E-03 0.  1.
        -12    1    3    3    0    0  0.76661295552E+01 -0.17500523527E+02  0.12661482441E+02  0.22920536723E+02  0.00000000000E+00 0.  1.
</event>
<event>
 7    1  0.6152255E-013  0.5930200E+02  0.7816164E-02  0.1266605E+00
        -11   -1    0    0    0    0  0.00000000000E+00  0.00000000000E+00  0.45593999997E+02  0.45594000000E+02  0.51100000000E-03 0.  1.
         11   -1    0    0    0    0 -0.00000000000E+00 -0.00000000000E+00 -0.45593999997E+02  0.45594000000E+02  0.51100000000E-03 0. -1.
    9900012    2    1    2    0    0 -0.23827616412E+02  0.71251215992E+01 -0.19954810328E+02  0.59301998105E+02  0.50000098623E+02 0.  0.
        -12    1    1    2    0    0  0.23827616412E+02 -0.71251215992E+01  0.19954810328E+02  0.31886001895E+02  0.00000000000E+00 0.  1.
         11    1    3    3    0    0 -0.19818178202E+02  0.34591880128E+01 -0.21857688433E+02  0.29706644255E+02  0.51100000000E-03 0. -1.
        -11    1    3    3    0    0 -0.78753981771E+01 -0.67969111221E+01 -0.91778822040E+01  0.13872758171E+02  0.51100000000E-03 0.  1.
        -12    1    3    3    0    0  0.38659599677E+01  0.10462844708E+02  0.11080760309E+02  0.15722595679E+02  0.00000000000E+00 0.  1.
</event>
<event>
 7    1  0.6152255E-013  0.5930204E+02  0.7816164E-02  0.1266604E+00
        -11   -1    0    0    0    0  0.00000000000E+00  0.00000000000E+00  0.45593999997E+02  0.45594000000E+02  0.51100000000E-03 0.  1.
         11   -1    0    0    0    0 -0.00000000000E+00 -0.00000000000E+00 -0.45593999997E+02  0.45594000000E+02  0.51100000000E-03 0. -1.
    9900012    2    1    2    0    0 -0.73186590827E+01  0.10195186630E+02 -0.29312285138E+02  0.59302036612E+02  0.50000168851E+02 0.  0.
        -12    1    1    2    0    0  0.73186590827E+01 -0.10195186630E+02  0.29312285138E+02  0.31885963388E+02  0.00000000000E+00 0.  1.
         11    1    3    3    0    0  0.57107235659E+01  0.63750824328E+01 -0.10054048791E+02  0.13203709214E+02  0.51100000000E-03 0. -1.
        -11    1    3    3    0    0 -0.92560527571E+01  0.19200135694E+02 -0.21297490481E+02  0.30131425860E+02  0.51100000000E-03 0.  1.
        -12    1    3    3    0    0 -0.37733298915E+01 -0.15380031497E+02  0.20392541338E+01  0.15966901538E+02  0.00000000000E+00 0.  1.
</event>
<event>
 7    1  0.6152255E-013  0.5930198E+02  0.7816164E-02  0.1266605E+00
        -11   -1    0    0    0    0  0.00000000000E+00  0.00000000000E+00  0.45593999997E+02  0.45594000000E+02  0.51100000000E-03 0. -1.
         11   -1    0    0    0    0 -0.00000000000E+00 -0.00000000000E+00 -0.45593999997E+02  0.45594000000E+02  0.51100000000E-03 0.  1.
    9900012    2    1    2    0    0 -0.23748509915E+02  0.14419335614E+02  0.15646387838E+02  0.59301977748E+02  0.50000061497E+02 0.  0.
        -12    1    1    2    0    0  0.23748509915E+02 -0.14419335614E+02 -0.15646387838E+02  0.31886022252E+02  0.00000000000E+00 0.  1.
         11    1    3    3    0    0 -0.18311291569E+02 -0.96227297752E+01  0.10976935906E+02  0.23417801976E+02  0.51100000000E-03 0. -1.
        -11    1    3    3    0    0  0.91080140461E+01  0.88726856379E+01  0.73675977271E+01  0.14695644485E+02  0.51100000000E-03 0.  1.
        -12    1    3    3    0    0 -0.14545232392E+02  0.15169379751E+02 -0.26981457949E+01  0.21188531287E+02  0.00000000000E+00 0.  1.
</event>
<event>
 7    1  0.6152255E-013  0.5930194E+02  0.7816164E-02  0.1266605E+00
        -11   -1    0    0    0    0  0.00000000000E+00  0.00000000000E+00  0.45593999997E+02  0.45594000000E+02  0.51100000000E-03 0.  1.
         11   -1    0    0    0    0 -0.00000000000E+00 -0.00000000000E+00 -0.45593999997E+02  0.45594000000E+02  0.51100000000E-03 0. -1.
    9900012    2    1    2    0    0  0.23664021903E+02 -0.17556689698E+02  0.12185958099E+02  0.59301939400E+02  0.49999991560E+02 0.  0.
        -12    1    1    2    0    0 -0.23664021903E+02  0.17556689698E+02 -0.12185958099E+02  0.31886060600E+02  0.00000000000E+00 0.  1.
         11    1    3    3    0    0  0.22030053886E+02 -0.88302078625E+01  0.17422800319E+02  0.29442313366E+02  0.51100000000E-03 0. -1.
        -11    1    3    3    0    0  0.39988396284E+01  0.37875514228E+01  0.91287368471E+01  0.10661618115E+02  0.51100000000E-03 0.  1.
         12    1    3    3    0    0 -0.23648716113E+01 -0.12514033259E+02 -0.14365579067E+02  0.19198007919E+02  0.00000000000E+00 0. -1.
</event>
<event>
 7    1  0.6152255E-013  0.5930195E+02  0.7816164E-02  0.1266605E+00
        -11   -1    0    0    0    0  0.00000000000E+00  0.00000000000E+00  0.45593999997E+02  0.45594000000E+02  0.51100000000E-03 0. -1.
         11   -1    0    0    0    0 -0.00000000000E+00 -0.00000000000E+00 -0.45593999997E+02  0.45594000000E+02  0.51100000000E-03 0.  1.
    9900012    2    1    2    0    0  0.15299085239E+02  0.11568026259E+02 -0.25472312885E+02  0.59301953453E+02  0.50000017189E+02 0.  0.
        -12    1    1    2    0    0 -0.15299085239E+02 -0.11568026259E+02  0.25472312885E+02  0.31886046547E+02  0.00000000000E+00 0.  1.
         11    1    3    3    0    0  0.10353248562E+02  0.10829738368E+02  0.89086724841E+01  0.17430933268E+02  0.51100000000E-03 0. -1.
        -11    1    3    3    0    0  0.10634006513E+02 -0.44095212329E+01 -0.70851908167E+01  0.13517614478E+02  0.51100000000E-03 0.  1.
         12    1    3    3    0    0 -0.56881698358E+01  0.51478091234E+01 -0.27295794553E+02  0.28353405706E+02  0.00000000000E+00 0. -1.
</event>
<event>
 7    1  0.6152255E-013  0.5930184E+02  0.7816164E-02  0.1266605E+00
        -11   -1    0    0    0    0  0.00000000000E+00  0.00000000000E+00  0.45593999997E+02  0.45594000000E+02  0.51100000000E-03 0.  1.
         11   -1    0    0    0    0 -0.00000000000E+00 -0.00000000000E+00 -0.45593999997E+02  0.45594000000E+02  0.51100000000E-03 0. -1.
    9900012    2    1    2    0    0 -0.94111841313E+01 -0.43297980301E+01 -0.30156417187E+02  0.59301842576E+02  0.49999814975E+02 0.  0.
        -12    1    1    2    0    0  0.94111841313E+01  0.43297980301E+01  0.30156417187E+02  0.31886157424E+02  0.00000000000E+00 0.  1.
         11    1    3    3    0    0 -0.16566146640E+02  0.80824839385E+01 -0.21810325303E+02  0.28556156100E+02  0.51100000000E-03 0. -1.
        -11    1    3    3    0    0  0.13568076301E+01  0.63847351766E+01  0.38717490203E+01  0.75892167552E+01  0.51100000000E-03 0.  1.
         12    1    3    3    0    0  0.57981548788E+01 -0.18797017145E+02 -0.12217840904E+02  0.23156469721E+02  0.00000000000E+00 0. -1.
</event>
<event>
 7    1  0.6152255E-013  0.5930194E+02  0.7816164E-02  0.1266605E+00
        -11   -1    0    0    0    0  0.00000000000E+00  0.00000000000E+00  0.45593999997E+02  0.45594000000E+02  0.51100000000E-03 0.  1.
         11   -1    0    0    0    0 -0.00000000000E+00 -0.00000000000E+00 -0.45593999997E+02  0.45594000000E+02  0.51100000000E-03 0. -1.
    9900012    2    1    2    0    0  0.28641611949E+02  0.88555380251E+01 -0.10860855275E+02  0.59301942450E+02  0.49999997123E+02 0.  0.
        -12    1    1    2    0    0 -0.28641611949E+02 -0.88555380251E+01  0.10860855275E+02  0.31886057550E+02  0.00000000000E+00 0.  1.
         11    1    3    3    0    0  0.10922946197E+02  0.10740626810E+02  0.68592638549E+01  0.16784555960E+02  0.51100000000E-03 0. -1.
        -11    1    3    3    0    0  0.26714820560E+02 -0.39412847059E+01 -0.61100713832E+01  0.27686609313E+02  0.51100000000E-03 0.  1.
         12    1    3    3    0    0 -0.89961548079E+01  0.20561959208E+01 -0.11610047747E+02  0.14830777177E+02  0.00000000000E+00 0. -1.
</event>
<event>
 7    1  0.6152255E-013  0.5930195E+02  0.7816164E-02  0.1266605E+00
        -11   -1    0    0    0    0  0.00000000000E+00  0.00000000000E+00  0.45593999997E+02  0.45594000000E+02  0.51100000000E-03 0.  1.
         11   -1    0    0    0    0 -0.00000000000E+00 -0.00000000000E+00 -0.45593999997E+02  0.45594000000E+02  0.51100000000E-03 0. -1.
    9900012    2    1    2    0    0 -0.31988192242E+01  0.82003354308E+01 -0.30647059484E+02  0.59301949749E+02  0.50000010434E+02 0.  0.
        -12    1    1    2    0    0  0.31988192242E+01 -0.82003354308E+01  0.30647059484E+02  0.31886050251E+02  0.00000000000E+00 0.  1.
         11    1    3    3    0    0  0.12241069692E+02  0.10630201657E+02 -0.62342002448E+01  0.17369807927E+02  0.51100000000E-03 0. -1.
        -11    1    3    3    0    0 -0.79695973173E+00  0.20557709608E+01  0.68087199856E+01  0.71568154343E+01  0.51100000000E-03 0.  1.
        -12    1    3    3    0    0 -0.14642929185E+02 -0.44856371869E+01 -0.31221579224E+02  0.34775326387E+02  0.00000000000E+00 0.  1.
</event>
<event>
 7    1  0.6152255E-013  0.5930218E+02  0.7816164E-02  0.1266604E+00
        -11   -1    0    0    0    0  0.00000000000E+00  0.00000000000E+00  0.45593999997E+02  0.45594000000E+02  0.51100000000E-03 0.  1.
         11   -1    0    0    0    0 -0.00000000000E+00 -0.00000000000E+00 -0.45593999997E+02  0.45594000000E+02  0.51100000000E-03 0. -1.
    9900012    2    1    2    0    0  0.24821655889E+02  0.20010464120E+02 -0.41489401004E+00  0.59302181642E+02  0.50000433349E+02 0.  0.
        -12    1    1    2    0    0 -0.24821655889E+02 -0.20010464120E+02  0.41489401004E+00  0.31885818358E+02  0.00000000000E+00 0.  1.
         11    1    3    3    0    0  0.26589369385E+02  0.26057767240E+02 -0.60873947550E+00  0.37234021564E+02  0.51100000000E-03 0.  1.
        -11    1    3    3    0    0  0.92392219207E+01 -0.15962508484E+01  0.30442897829E+01  0.98579378683E+01  0.51100000000E-03 0. -1.
         12    1    3    3    0    0 -0.11006935417E+02 -0.44510522718E+01 -0.28504443174E+01  0.12210222209E+02  0.00000000000E+00 0. -1.
</event>
<event>
 7    1  0.6152255E-013  0.5930195E+02  0.7816164E-02  0.1266605E+00
        -11   -1    0    0    0    0  0.00000000000E+00  0.00000000000E+00  0.45593999997E+02  0.45594000000E+02  0.51100000000E-03 0.  1.
         11   -1    0    0    0    0 -0.00000000000E+00 -0.00000000000E+00 -0.45593999997E+02  0.45594000000E+02  0.51100000000E-03 0. -1.
    9900012    2    1    2    0    0 -0.29894925260E+01 -0.11795359456E+02 -0.29472909257E+02  0.59301953673E+02  0.50000017591E+02 0.  0.
        -12    1    1    2    0    0  0.29894925260E+01  0.11795359456E+02  0.29472909257E+02  0.31886046327E+02  0.00000000000E+00 0.  1.
         11    1    3    3    0    0  0.15752036877E+02 -0.12010075205E+02 -0.28633664209E+02  0.34817456807E+02  0.51100000000E-03 0. -1.
        -11    1    3    3    0    0 -0.42103134580E+01 -0.65152020211E+01  0.24525041562E+01  0.81356852009E+01  0.51100000000E-03 0.  1.
        -12    1    3    3    0    0 -0.14531215946E+02  0.67299177702E+01 -0.32917492047E+01  0.16348811666E+02  0.00000000000E+00 0.  1.
</event>
<event>
 7    1  0.6152255E-013  0.5930195E+02  0.7816164E-02  0.1266605E+00
        -11   -1    0    0    0    0  0.00000000000E+00  0.00000000000E+00  0.45593999997E+02  0.45594000000E+02  0.51100000000E-03 0.  1.
         11   -1    0    0    0    0 -0.00000000000E+00 -0.00000000000E+00 -0.45593999997E+02  0.45594000000E+02  0.51100000000E-03 0. -1.
    9900012    2    1    2    0    0 -0.23959100831E+01 -0.48518287655E+01 -0.31423554226E+02  0.59301946816E+02  0.50000005085E+02 0.  0.
        -12    1    1    2    0    0  0.23959100831E+01  0.48518287655E+01  0.31423554226E+02  0.31886053184E+02  0.00000000000E+00 0.  1.
         11    1    3    3    0    0  0.69785409837E+01 -0.37446185891E+01 -0.19595012348E+02  0.21134964202E+02  0.51100000000E-03 0. -1.
        -11    1    3    3    0    0  0.55856589282E+00  0.10382196547E+02 -0.18778325517E+02  0.21464564065E+02  0.51100000000E-03 0.  1.
        -12    1    3    3    0    0 -0.99330169595E+01 -0.11489406723E+02  0.69497836392E+01  0.16702418549E+02  0.00000000000E+00 0.  1.
</event>
<event>
 7    1  0.6152255E-013  0.5930194E+02  0.7816164E-02  0.1266605E+00
        -11   -1    0    0    0    0  0.00000000000E+00  0.00000000000E+00  0.45593999997E+02  0.45594000000E+02  0.51100000000E-03 0.  1.
         11   -1    0    0    0    0 -0.00000000000E+00 -0.00000000000E+00 -0.45593999997E+02  0.45594000000E+02  0.51100000000E-03 0. -1.
    9900012    2    1    2    0    0  0.16014445646E+02  0.22748992831E+02 -0.15580171001E+02  0.59301939211E+02  0.49999991216E+02 0.  0.
        -12    1    1    2    0    0 -0.16014445646E+02 -0.22748992831E+02  0.15580171001E+02  0.31886060789E+02  0.00000000000E+00 0.  1.
         11    1    3    3    0    0 -0.34688299972E+01  0.76853726553E+01 -0.11682472578E+02  0.14407563992E+02  0.51100000000E-03 0. -1.
        -11    1    3    3    0    0  0.13779720426E+00  0.22898614962E+02  0.25714430644E+01  0.23042957166E+02  0.51100000000E-03 0.  1.
         12    1    3    3    0    0  0.19345478439E+02 -0.78349947863E+01 -0.64691414874E+01  0.21851418053E+02  0.00000000000E+00 0. -1.
</event>
<event>
 7    1  0.6152255E-013  0.5930194E+02  0.7816164E-02  0.1266605E+00
        -11   -1    0    0    0    0  0.00000000000E+00  0.00000000000E+00  0.45593999997E+02  0.45594000000E+02  0.51100000000E-03 0. -1.
         11   -1    0    0    0    0 -0.00000000000E+00 -0.00000000000E+00 -0.45593999997E+02  0.45594000000E+02  0.51100000000E-03 0.  1.
    9900012    2    1    2    0    0 -0.84804826093E+01  0.22864897267E+02  0.20542609866E+02  0.59301938273E+02  0.49999989505E+02 0.  0.
        -12    1    1    2    0    0  0.84804826093E+01 -0.22864897267E+02 -0.20542609866E+02  0.31886061727E+02  0.00000000000E+00 0.  1.
         11    1    3    3    0    0 -0.11754925098E+02 -0.59448690544E+00  0.13636680411E+02  0.18013626276E+02  0.51100000000E-03 0. -1.
        -11    1    3    3    0    0  0.36997721806E+00 -0.85537979044E+01  0.15057950472E+01  0.86932019830E+01  0.51100000000E-03 0.  1.
         12    1    3    3    0    0  0.29044652702E+01  0.32013182077E+02  0.54001344082E+01  0.32595110014E+02  0.00000000000E+00 0. -1.
</event>
<event>
 7    1  0.6152255E-013  0.5930194E+02  0.7816164E-02  0.1266605E+00
        -11   -1    0    0    0    0  0.00000000000E+00  0.00000000000E+00  0.45593999997E+02  0.45594000000E+02  0.51100000000E-03 0.  1.
         11   -1    0    0    0    0 -0.00000000000E+00 -0.00000000000E+00 -0.45593999997E+02  0.45594000000E+02  0.51100000000E-03 0. -1.
    9900012    2    1    2    0    0 -0.11048406024E+02 -0.75330488720E+00 -0.29901276446E+02  0.59301936006E+02  0.49999985370E+02 0.  0.
        -12    1    1    2    0    0  0.11048406024E+02  0.75330488720E+00  0.29901276446E+02  0.31886063994E+02  0.00000000000E+00 0.  1.
         11    1    3    3    0    0 -0.12035369271E+02 -0.40208684143E+01 -0.93326613311E+01  0.15751700355E+02  0.51100000000E-03 0. -1.
        -11    1    3    3    0    0 -0.91651740174E+01  0.15648949919E+02 -0.20723339021E+02  0.27538097770E+02  0.51100000000E-03 0.  1.
        -12    1    3    3    0    0  0.10152137265E+02 -0.12381386392E+02  0.15472390587E+00  0.16012137881E+02  0.00000000000E+00 0.  1.
</event>
<event>
 7    1  0.6152255E-013  0.5930192E+02  0.7816164E-02  0.1266605E+00
        -11   -1    0    0    0    0  0.00000000000E+00  0.00000000000E+00  0.45593999997E+02  0.45594000000E+02  0.51100000000E-03 0.  1.
         11   -1    0    0    0    0 -0.00000000000E+00 -0.00000000000E+00 -0.45593999997E+02  0.45594000000E+02  0.51100000000E-03 0. -1.
    9900012    2    1    2    0    0  0.10969779355E+02  0.73131388830E+01 -0.29032814095E+02  0.59301915986E+02  0.49999948859E+02 0.  0.
        -12    1    1    2    0    0 -0.10969779355E+02 -0.73131388830E+01  0.29032814095E+02  0.31886084014E+02  0.00000000000E+00 0.  1.
         11    1    3    3    0    0  0.19198739767E+02  0.45089398334E+01 -0.79603813394E+01  0.21267106488E+02  0.51100000000E-03 0. -1.
        -11    1    3    3    0    0 -0.66047172273E+01  0.93184382864E+01  0.39823954244E+01  0.12096076030E+02  0.51100000000E-03 0.  1.
         12    1    3    3    0    0 -0.16242431843E+01 -0.65142392367E+01 -0.25054828180E+02  0.25938733468E+02  0.00000000000E+00 0. -1.
</event>
<event>
 7    1  0.6152255E-013  0.5930196E+02  0.7816164E-02  0.1266605E+00
        -11   -1    0    0    0    0  0.00000000000E+00  0.00000000000E+00  0.45593999997E+02  0.45594000000E+02  0.51100000000E-03 0. -1.
         11   -1    0    0    0    0 -0.00000000000E+00 -0.00000000000E+00 -0.45593999997E+02  0.45594000000E+02  0.51100000000E-03 0.  1.
    9900012    2    1    2    0    0 -0.45147606733E+01 -0.61501987184E+01  0.30959839868E+02  0.59301957710E+02  0.50000024954E+02 0.  0.
        -12    1    1    2    0    0  0.45147606733E+01  0.61501987184E+01 -0.30959839868E+02  0.31886042290E+02  0.00000000000E+00 0.  1.
         11    1    3    3    0    0  0.71207475534E+01 -0.18669667197E+02  0.19697559825E+02  0.28058071607E+02  0.51100000000E-03 0. -1.
        -11    1    3    3    0    0 -0.14910681956E+02 -0.91769445989E+00  0.33495975493E+01  0.15309813961E+02  0.51100000000E-03 0.  1.
        -12    1    3    3    0    0  0.32751737296E+01  0.13437162938E+02  0.79126824942E+01  0.15934072143E+02  0.00000000000E+00 0.  1.
</event>
<event>
 7    1  0.6152255E-013  0.5930196E+02  0.7816164E-02  0.1266605E+00
        -11   -1    0    0    0    0  0.00000000000E+00  0.00000000000E+00  0.45593999997E+02  0.45594000000E+02  0.51100000000E-03 0.  1.
         11   -1    0    0    0    0 -0.00000000000E+00 -0.00000000000E+00 -0.45593999997E+02  0.45594000000E+02  0.51100000000E-03 0. -1.
    9900012    2    1    2    0    0  0.26857581318E+02  0.16845482942E+02  0.34087284922E+01  0.59301962307E+02  0.50000033337E+02 0.  0.
        -12    1    1    2    0    0 -0.26857581318E+02 -0.16845482942E+02 -0.34087284922E+01  0.31886037693E+02  0.00000000000E+00 0.  1.
         11    1    3    3    0    0  0.24897933378E+01  0.14418900526E+01 -0.82454965439E+01  0.87330596761E+01  0.51100000000E-03 0. -1.
        -11    1    3    3    0    0  0.26673800380E+01 -0.95153426087E+01 -0.74723682474E+01  0.12389227123E+02  0.51100000000E-03 0.  1.
         12    1    3    3    0    0  0.21700407942E+02  0.24918935498E+02  0.19126593284E+02  0.38179675508E+02  0.00000000000E+00 0. -1.
</event>
<event>
 7    1  0.6152255E-013  0.5930194E+02  0.7816164E-02  0.1266605E+00
        -11   -1    0    0    0    0  0.00000000000E+00  0.00000000000E+00  0.45593999997E+02  0.45594000000E+02  0.51100000000E-03 0.  1.
         11   -1    0    0    0    0 -0.00000000000E+00 -0.00000000000E+00 -0.45593999997E+02  0.45594000000E+02  0.51100000000E-03 0. -1.
    9900012    2    1    2    0    0  0.14342088043E+02 -0.91334202867E+01 -0.26974166793E+02  0.59301944588E+02  0.50000001022E+02 0.  0.
        -12    1    1    2    0    0 -0.14342088043E+02  0.91334202867E+01  0.26974166793E+02  0.31886055412E+02  0.00000000000E+00 0.  1.
         11    1    3    3    0    0 -0.99025237327E+00 -0.40978418329E+01  0.60420147316E+01  0.73674181182E+01  0.51100000000E-03 0. -1.
        -11    1    3    3    0    0 -0.23278042184E+01  0.11076116880E+02 -0.18160253089E+00  0.11319541394E+02  0.51100000000E-03 0.  1.
         12    1    3    3    0    0  0.17660144634E+02 -0.16111695334E+02 -0.32834578994E+02  0.40614985076E+02  0.00000000000E+00 0. -1.
</event>
<event>
 7    1  0.6152255E-013  0.5930194E+02  0.7816164E-02  0.1266605E+00
        -11   -1    0    0    0    0  0.00000000000E+00  0.00000000000E+00  0.45593999997E+02  0.45594000000E+02  0.51100000000E-03 0.  1.
         11   -1    0    0    0    0 -0.00000000000E+00 -0.00000000000E+00 -0.45593999997E+02  0.45594000000E+02  0.51100000000E-03 0. -1.
    9900012    2    1    2    0    0  0.11625209944E+02  0.15277293834E+01 -0.29652005517E+02  0.59301938868E+02  0.49999990590E+02 0.  0.
        -12    1    1    2    0    0 -0.11625209944E+02 -0.15277293834E+01  0.29652005517E+02  0.31886061132E+02  0.00000000000E+00 0.  1.
         11    1    3    3    0    0  0.10602598894E+02  0.50956953503E+01 -0.15260425138E+02  0.19268154817E+02  0.51100000000E-03 0. -1.
        -11    1    3    3    0    0 -0.10010090544E+02 -0.13838900830E+02 -0.17704833730E+02  0.24600370456E+02  0.51100000000E-03 0.  1.
         12    1    3    3    0    0  0.11032701594E+02  0.10270934863E+02  0.33132533510E+01  0.15433413595E+02  0.00000000000E+00 0. -1.
</event>
<event>
 7    1  0.6152255E-013  0.5930195E+02  0.7816164E-02  0.1266605E+00
        -11   -1    0    0    0    0  0.00000000000E+00  0.00000000000E+00  0.45593999997E+02  0.45594000000E+02  0.51100000000E-03 0.  1.
         11   -1    0    0    0    0 -0.00000000000E+00 -0.00000000000E+00 -0.45593999997E+02  0.45594000000E+02  0.51100000000E-03 0. -1.
    9900012    2    1    2    0    0  0.11777049067E+02  0.12660938005E+02 -0.26790338370E+02  0.59301945590E+02  0.50000002848E+02 0.  0.
        -12    1    1    2    0    0 -0.11777049067E+02 -0.12660938005E+02  0.26790338370E+02  0.31886054410E+02  0.00000000000E+00 0.  1.
         11    1    3    3    0    0  0.78040561798E+00  0.14693049942E+01  0.48880087727E+01  0.51633826236E+01  0.51100000000E-03 0. -1.
        -11    1    3    3    0    0  0.18663734198E+02  0.16021556386E+02 -0.38810488465E+01  0.24901561872E+02  0.51100000000E-03 0.  1.
         12    1    3    3    0    0 -0.76670907496E+01 -0.48299233759E+01 -0.27797298296E+02  0.29237001094E+02  0.00000000000E+00 0. -1.
</event>
<event>
 7    1  0.6152255E-013  0.5930195E+02  0.7816164E-02  0.1266605E+00
        -11   -1    0    0    0    0  0.00000000000E+00  0.00000000000E+00  0.45593999997E+02  0.45594000000E+02  0.51100000000E-03 0.  1.
         11   -1    0    0    0    0 -0.00000000000E+00 -0.00000000000E+00 -0.45593999997E+02  0.45594000000E+02  0.51100000000E-03 0. -1.
    9900012    2    1    2    0    0 -0.78479417483E+01 -0.16312092475E+02 -0.26249683356E+02  0.59301946201E+02  0.50000003963E+02 0.  0.
        -12    1    1    2    0    0  0.78479417483E+01  0.16312092475E+02  0.26249683356E+02  0.31886053799E+02  0.00000000000E+00 0.  1.
         11    1    3    3    0    0 -0.75220628775E+01 -0.16345555766E+02 -0.13685735594E+02  0.22606591567E+02  0.51100000000E-03 0. -1.
        -11    1    3    3    0    0 -0.69855946985E+00  0.12856866354E+02 -0.18516172988E+02  0.22552952360E+02  0.51100000000E-03 0.  1.
         12    1    3    3    0    0  0.37268059901E+00 -0.12823403063E+02  0.59522252263E+01  0.14142402274E+02  0.00000000000E+00 0. -1.
</event>
<event>
 7    1  0.6152255E-013  0.5930195E+02  0.7816164E-02  0.1266605E+00
        -11   -1    0    0    0    0  0.00000000000E+00  0.00000000000E+00  0.45593999997E+02  0.45594000000E+02  0.51100000000E-03 0. -1.
         11   -1    0    0    0    0 -0.00000000000E+00 -0.00000000000E+00 -0.45593999997E+02  0.45594000000E+02  0.51100000000E-03 0.  1.
    9900012    2    1    2    0    0  0.15513557176E+02  0.15725013711E+02  0.22995081570E+02  0.59301948365E+02  0.50000007910E+02 0.  0.
        -12    1    1    2    0    0 -0.15513557176E+02 -0.15725013711E+02 -0.22995081570E+02  0.31886051635E+02  0.00000000000E+00 0.  1.
         11    1    3    3    0    0  0.10736322015E+02  0.10980094297E+02  0.30768325223E+02  0.34387801884E+02  0.51100000000E-03 0. -1.
        -11    1    3    3    0    0 -0.28479476993E+01  0.79718085654E+01  0.48960693292E+01  0.97791632075E+01  0.51100000000E-03 0.  1.
        -12    1    3    3    0    0  0.76251828603E+01 -0.32268891510E+01 -0.12669312982E+02  0.15134983273E+02  0.00000000000E+00 0.  1.
</event>
<event>
 7    1  0.6152255E-013  0.5930192E+02  0.7816164E-02  0.1266605E+00
        -11   -1    0    0    0    0  0.00000000000E+00  0.00000000000E+00  0.45593999997E+02  0.45594000000E+02  0.51100000000E-03 0.  1.
         11   -1    0    0    0    0 -0.00000000000E+00 -0.00000000000E+00 -0.45593999997E+02  0.45594000000E+02  0.51100000000E-03 0. -1.
    9900012    2    1    2    0    0 -0.32341827029E+01 -0.20637638549E+02 -0.24090454008E+02  0.59301920954E+02  0.49999957918E+02 0.  0.
        -12    1    1    2    0    0  0.32341827029E+01  0.20637638549E+02  0.24090454008E+02  0.31886079046E+02  0.00000000000E+00 0.  1.
         11    1    3    3    0    0 -0.73899653096E+00  0.71711271114E+01 -0.10946703000E+02  0.13107306617E+02  0.51100000000E-03 0. -1.
        -11    1    3    3    0    0 -0.13829665651E+02 -0.49470522868E+00 -0.14065523482E-01  0.13838518106E+02  0.51100000000E-03 0.  1.
         12    1    3    3    0    0  0.11334479479E+02 -0.27314060432E+02 -0.13129685485E+02  0.32356096230E+02  0.00000000000E+00 0. -1.
</event>
<event>
 7    1  0.6152255E-013  0.5930194E+02  0.7816164E-02  0.1266605E+00
        -11   -1    0    0    0    0  0.00000000000E+00  0.00000000000E+00  0.45593999997E+02  0.45594000000E+02  0.51100000000E-03 0.  1.
         11   -1    0    0    0    0 -0.00000000000E+00 -0.00000000000E+00 -0.45593999997E+02  0.45594000000E+02  0.51100000000E-03 0. -1.
    9900012    2    1    2    0    0  0.29577446059E+02  0.56121983150E+01 -0.10507065532E+02  0.59301944876E+02  0.50000001547E+02 0.  0.
        -12    1    1    2    0    0 -0.29577446059E+02 -0.56121983150E+01  0.10507065532E+02  0.31886055124E+02  0.00000000000E+00 0.  1.
         11    1    3    3    0    0  0.13244889004E+02 -0.22496597387E+01  0.15398645588E+02  0.20435418759E+02  0.51100000000E-03 0. -1.
        -11    1    3    3    0    0 -0.61147396828E+00  0.10553734174E+02 -0.46451476986E+01  0.11546973753E+02  0.51100000000E-03 0.  1.
         12    1    3    3    0    0  0.16944031023E+02 -0.26918761208E+01 -0.21260563421E+02  0.27319552364E+02  0.00000000000E+00 0. -1.
</event>
<event>
 7    1  0.6152255E-013  0.5930195E+02  0.7816164E-02  0.1266605E+00
        -11   -1    0    0    0    0  0.00000000000E+00  0.00000000000E+00  0.45593999997E+02  0.45594000000E+02  0.51100000000E-03 0. -1.
         11   -1    0    0    0    0 -0.00000000000E+00 -0.00000000000E+00 -0.45593999997E+02  0.45594000000E+02  0.51100000000E-03 0.  1.
    9900012    2    1    2    0    0  0.19252612936E+02 -0.25386613437E+02 -0.12557442821E+01  0.59301950694E+02  0.50000012158E+02 0.  0.
        -12    1    1    2    0    0 -0.19252612936E+02  0.25386613437E+02  0.12557442821E+01  0.31886049306E+02  0.00000000000E+00 0.  1.
         11    1    3    3    0    0  0.31365333460E+02 -0.21230637618E+02  0.17289193064E+01  0.37914552338E+02  0.51100000000E-03 0. -1.
        -11    1    3    3    0    0  0.16894193340E+01  0.10104805188E+01 -0.60260417070E+01  0.63394311638E+01  0.51100000000E-03 0.  1.
        -12    1    3    3    0    0 -0.13802139859E+02 -0.51664563374E+01  0.30413781185E+01  0.15047967193E+02  0.00000000000E+00 0.  1.
</event>
<event>
 7    1  0.6152255E-013  0.5930200E+02  0.7816164E-02  0.1266605E+00
        -11   -1    0    0    0    0  0.00000000000E+00  0.00000000000E+00  0.45593999997E+02  0.45594000000E+02  0.51100000000E-03 0.  1.
         11   -1    0    0    0    0 -0.00000000000E+00 -0.00000000000E+00 -0.45593999997E+02  0.45594000000E+02  0.51100000000E-03 0. -1.
    9900012    2    1    2    0    0 -0.23821792658E+02 -0.10237550431E+01 -0.21170517878E+02  0.59302004531E+02  0.50000110343E+02 0.  0.
        -12    1    1    2    0    0  0.23821792658E+02  0.10237550431E+01  0.21170517878E+02  0.31885995469E+02  0.00000000000E+00 0.  1.
         11    1    3    3    0    0  0.28908819418E+01  0.11366379803E+02  0.80307932594E+01  0.14214268495E+02  0.51100000000E-03 0.  1.
        -11    1    3    3    0    0 -0.10272541987E+02 -0.14422509292E+02 -0.16637557859E+02  0.24296959170E+02  0.51100000000E-03 0. -1.
        -12    1    3    3    0    0 -0.16440132613E+02  0.20323744465E+01 -0.12563753279E+02  0.20790776865E+02  0.00000000000E+00 0.  1.
</event>
<event>
 7    1  0.6152255E-013  0.5930194E+02  0.7816164E-02  0.1266605E+00
        -11   -1    0    0    0    0  0.00000000000E+00  0.00000000000E+00  0.45593999997E+02  0.45594000000E+02  0.51100000000E-03 0. -1.
         11   -1    0    0    0    0 -0.00000000000E+00 -0.00000000000E+00 -0.45593999997E+02  0.45594000000E+02  0.51100000000E-03 0.  1.
    9900012    2    1    2    0    0  0.30960152354E+02  0.76278560106E+01  0.72822234898E-01  0.59301944675E+02  0.50000001181E+02 0.  0.
        -12    1    1    2    0    0 -0.30960152354E+02 -0.76278560106E+01 -0.72822234898E-01  0.31886055325E+02  0.00000000000E+00 0.  1.
         11    1    3    3    0    0  0.10571859185E+02  0.65642290427E+01 -0.13472181698E+02  0.18339928831E+02  0.51100000000E-03 0. -1.
        -11    1    3    3    0    0  0.21852665473E+02  0.52401183487E+01 -0.40366906009E+01  0.22831835228E+02  0.51100000000E-03 0.  1.
         12    1    3    3    0    0 -0.14643723042E+01 -0.41764913808E+01  0.17581694534E+02  0.18130180616E+02  0.00000000000E+00 0. -1.
</event>
<event>
 7    1  0.6152255E-013  0.5930195E+02  0.7816164E-02  0.1266605E+00
        -11   -1    0    0    0    0  0.00000000000E+00  0.00000000000E+00  0.45593999997E+02  0.45594000000E+02  0.51100000000E-03 0.  1.
         11   -1    0    0    0    0 -0.00000000000E+00 -0.00000000000E+00 -0.45593999997E+02  0.45594000000E+02  0.51100000000E-03 0. -1.
    9900012    2    1    2    0    0 -0.13013441342E+02  0.21565481044E+02 -0.19552509645E+02  0.59301948792E+02  0.50000008689E+02 0.  0.
        -12    1    1    2    0    0  0.13013441342E+02 -0.21565481044E+02  0.19552509645E+02  0.31886051208E+02  0.00000000000E+00 0.  1.
         11    1    3    3    0    0 -0.12510215383E+02  0.23299378257E+02 -0.83995382713E+01  0.27747409961E+02  0.51100000000E-03 0. -1.
        -11    1    3    3    0    0 -0.14670180465E+02 -0.23826112981E+00 -0.24908381918E+01  0.14882044161E+02  0.51100000000E-03 0.  1.
         12    1    3    3    0    0  0.14166954506E+02 -0.14956360836E+01 -0.86621331824E+01  0.16672494671E+02  0.00000000000E+00 0. -1.
</event>
<event>
 7    1  0.6152255E-013  0.5930203E+02  0.7816164E-02  0.1266604E+00
        -11   -1    0    0    0    0  0.00000000000E+00  0.00000000000E+00  0.45593999997E+02  0.45594000000E+02  0.51100000000E-03 0. -1.
         11   -1    0    0    0    0 -0.00000000000E+00 -0.00000000000E+00 -0.45593999997E+02  0.45594000000E+02  0.51100000000E-03 0.  1.
    9900012    2    1    2    0    0  0.42670554481E+01 -0.14566963316E+02  0.28041234790E+02  0.59302030813E+02  0.50000158275E+02 0.  0.
        -12    1    1    2    0    0 -0.42670554481E+01  0.14566963316E+02 -0.28041234790E+02  0.31885969187E+02  0.00000000000E+00 0.  1.
         11    1    3    3    0    0  0.24543649279E+01 -0.26262867088E+02  0.20163177209E+02  0.33201141701E+02  0.51100000000E-03 0. -1.
        -11    1    3    3    0    0  0.10731608018E+02  0.74942185614E+00  0.36885705890E+01  0.11372536965E+02  0.51100000000E-03 0.  1.
        -12    1    3    3    0    0 -0.89189174982E+01  0.10946481916E+02  0.41894869929E+01  0.14728352146E+02  0.00000000000E+00 0.  1.
</event>
<event>
 7    1  0.6152255E-013  0.5930194E+02  0.7816164E-02  0.1266605E+00
        -11   -1    0    0    0    0  0.00000000000E+00  0.00000000000E+00  0.45593999997E+02  0.45594000000E+02  0.51100000000E-03 0.  1.
         11   -1    0    0    0    0 -0.00000000000E+00 -0.00000000000E+00 -0.45593999997E+02  0.45594000000E+02  0.51100000000E-03 0. -1.
    9900012    2    1    2    0    0 -0.10693291589E+02 -0.45153665746E+01 -0.29698250868E+02  0.59301935255E+02  0.49999984001E+02 0.  0.
        -12    1    1    2    0    0  0.10693291589E+02  0.45153665746E+01  0.29698250868E+02  0.31886064745E+02  0.00000000000E+00 0.  1.
         11    1    3    3    0    0 -0.27480394536E+02 -0.79668546938E+01 -0.22440980427E+02  0.36362624498E+02  0.51100000000E-03 0. -1.
        -11    1    3    3    0    0 -0.18743202153E+01  0.76870112985E+00  0.11130446616E+01  0.23114597934E+01  0.51100000000E-03 0.  1.
        -12    1    3    3    0    0  0.18661423162E+02  0.26827869894E+01 -0.83703151026E+01  0.20627850964E+02  0.00000000000E+00 0.  1.
</event>
<event>
 7    1  0.6152255E-013  0.5930195E+02  0.7816164E-02  0.1266605E+00
        -11   -1    0    0    0    0  0.00000000000E+00  0.00000000000E+00  0.45593999997E+02  0.45594000000E+02  0.51100000000E-03 0. -1.
         11   -1    0    0    0    0 -0.00000000000E+00 -0.00000000000E+00 -0.45593999997E+02  0.45594000000E+02  0.51100000000E-03 0.  1.
    9900012    2    1    2    0    0  0.12653957614E+02 -0.10836465260E+02  0.27187649735E+02  0.59301954138E+02  0.50000018438E+02 0.  0.
        -12    1    1    2    0    0 -0.12653957614E+02  0.10836465260E+02 -0.27187649735E+02  0.31886045862E+02  0.00000000000E+00 0.  1.
         11    1    3    3    0    0 -0.41879607742E+01  0.56097443190E+01  0.21505512739E+02  0.22616262405E+02  0.51100000000E-03 0. -1.
        -11    1    3    3    0    0  0.11738804991E+02  0.60279132996E+01  0.19569457623E+01  0.13340349258E+02  0.51100000000E-03 0.  1.
         12    1    3    3    0    0  0.51031133972E+01 -0.22474122878E+02  0.37251912342E+01  0.23345342474E+02  0.00000000000E+00 0. -1.
</event>
<event>
 7    1  0.6152255E-013  0.5930200E+02  0.7816164E-02  0.1266605E+00
        -11   -1    0    0    0    0  0.00000000000E+00  0.00000000000E+00  0.45593999997E+02  0.45594000000E+02  0.51100000000E-03 0.  1.
         11   -1    0    0    0    0 -0.00000000000E+00 -0.00000000000E+00 -0.45593999997E+02  0.45594000000E+02  0.51100000000E-03 0. -1.
    9900012    2    1    2    0    0  0.90277831411E+01  0.20856456052E+02 -0.22365691218E+02  0.59302003526E+02  0.50000108510E+02 0.  0.
        -12    1    1    2    0    0 -0.90277831411E+01 -0.20856456052E+02  0.22365691218E+02  0.31885996474E+02  0.00000000000E+00 0.  1.
         11    1    3    3    0    0  0.95909431033E+01 -0.17019614342E+01  0.12399763266E+01  0.98193891809E+01  0.51100000000E-03 0.  1.
        -11    1    3    3    0    0  0.13209046851E+01  0.32743866477E+02 -0.20558923994E+02  0.38685590820E+02  0.51100000000E-03 0. -1.
         12    1    3    3    0    0 -0.18840646474E+01 -0.10185448990E+02 -0.30467435506E+01  0.10797023525E+02  0.00000000000E+00 0. -1.
</event>
<event>
 7    1  0.6152255E-013  0.5930195E+02  0.7816164E-02  0.1266605E+00
        -11   -1    0    0    0    0  0.00000000000E+00  0.00000000000E+00  0.45593999997E+02  0.45594000000E+02  0.51100000000E-03 0.  1.
         11   -1    0    0    0    0 -0.00000000000E+00 -0.00000000000E+00 -0.45593999997E+02  0.45594000000E+02  0.51100000000E-03 0. -1.
    9900012    2    1    2    0    0  0.71959717698E+01 -0.29829279447E+02  0.86690242599E+01  0.59301954406E+02  0.50000018927E+02 0.  0.
        -12    1    1    2    0    0 -0.71959717698E+01  0.29829279447E+02 -0.86690242599E+01  0.31886045594E+02  0.00000000000E+00 0.  1.
         11    1    3    3    0    0  0.16033560956E+02 -0.61872545469E+01  0.49881700350E+01  0.17895223841E+02  0.51100000000E-03 0.  1.
        -11    1    3    3    0    0  0.10603408703E+02 -0.14131567324E+02 -0.45633194832E+01  0.18247119118E+02  0.51100000000E-03 0. -1.
        -12    1    3    3    0    0 -0.19440997889E+02 -0.95104575759E+01  0.82441737081E+01  0.23159611447E+02  0.00000000000E+00 0.  1.
</event>
<event>
 7    1  0.6152255E-013  0.5930195E+02  0.7816164E-02  0.1266605E+00
        -11   -1    0    0    0    0  0.00000000000E+00  0.00000000000E+00  0.45593999997E+02  0.45594000000E+02  0.51100000000E-03 0. -1.
         11   -1    0    0    0    0 -0.00000000000E+00 -0.00000000000E+00 -0.45593999997E+02  0.45594000000E+02  0.51100000000E-03 0.  1.
    9900012    2    1    2    0    0  0.24556508713E+02 -0.20338029832E+02 -0.25060171079E+00  0.59301946955E+02  0.50000005338E+02 0.  0.
        -12    1    1    2    0    0 -0.24556508713E+02  0.20338029832E+02  0.25060171079E+00  0.31886053045E+02  0.00000000000E+00 0.  1.
         11    1    3    3    0    0 -0.30576359749E+01  0.66426595644E+01  0.17382665441E+01  0.75163578070E+01  0.51100000000E-03 0.  1.
        -11    1    3    3    0    0  0.10824204900E+02  0.70768279549E+01  0.35542970187E+01  0.13411857931E+02  0.51100000000E-03 0. -1.
        -12    1    3    3    0    0  0.16789939788E+02 -0.34057517351E+02 -0.55431652735E+01  0.38373731216E+02  0.00000000000E+00 0.  1.
</event>
<event>
 7    1  0.6152255E-013  0.5930202E+02  0.7816164E-02  0.1266605E+00
        -11   -1    0    0    0    0  0.00000000000E+00  0.00000000000E+00  0.45593999997E+02  0.45594000000E+02  0.51100000000E-03 0.  1.
         11   -1    0    0    0    0 -0.00000000000E+00 -0.00000000000E+00 -0.45593999997E+02  0.45594000000E+02  0.51100000000E-03 0. -1.
    9900012    2    1    2    0    0  0.23327661963E+01 -0.21291441914E+02 -0.23620936015E+02  0.59302016949E+02  0.50000132991E+02 0.  0.
        -12    1    1    2    0    0 -0.23327661963E+01  0.21291441914E+02  0.23620936015E+02  0.31885983051E+02  0.00000000000E+00 0.  1.
         11    1    3    3    0    0  0.10927776447E+01  0.20631226522E+01 -0.15925190746E+02  0.16095413589E+02  0.51100000000E-03 0. -1.
        -11    1    3    3    0    0 -0.12565379747E+02 -0.10910386343E+02 -0.15784722727E+02  0.22936494287E+02  0.51100000000E-03 0.  1.
        -12    1    3    3    0    0  0.13805368298E+02 -0.12444178223E+02  0.80889774580E+01  0.20270109073E+02  0.00000000000E+00 0.  1.
</event>
<event>
 7    1  0.6152255E-013  0.5930191E+02  0.7816164E-02  0.1266605E+00
        -11   -1    0    0    0    0  0.00000000000E+00  0.00000000000E+00  0.45593999997E+02  0.45594000000E+02  0.51100000000E-03 0. -1.
         11   -1    0    0    0    0 -0.00000000000E+00 -0.00000000000E+00 -0.45593999997E+02  0.45594000000E+02  0.51100000000E-03 0.  1.
    9900012    2    1    2    0    0 -0.14051524903E+02  0.59393329082E+01  0.28000026060E+02  0.59301913899E+02  0.49999945052E+02 0.  0.
        -12    1    1    2    0    0  0.14051524903E+02 -0.59393329082E+01 -0.28000026060E+02  0.31886086101E+02  0.00000000000E+00 0.  1.
         11    1    3    3    0    0  0.96474650471E-01  0.76055292227E+01 -0.41744323757E+01  0.86763626040E+01  0.51100000000E-03 0. -1.
        -11    1    3    3    0    0 -0.47737851850E+01 -0.12088963457E+01 -0.79864138695E+01  0.93826042293E+01  0.51100000000E-03 0.  1.
         12    1    3    3    0    0 -0.93742143681E+01 -0.45729996882E+00  0.40160872306E+02  0.41242947065E+02  0.00000000000E+00 0. -1.
</event>
<event>
 7    1  0.6152255E-013  0.5930191E+02  0.7816164E-02  0.1266605E+00
        -11   -1    0    0    0    0  0.00000000000E+00  0.00000000000E+00  0.45593999997E+02  0.45594000000E+02  0.51100000000E-03 0.  1.
         11   -1    0    0    0    0 -0.00000000000E+00 -0.00000000000E+00 -0.45593999997E+02  0.45594000000E+02  0.51100000000E-03 0. -1.
    9900012    2    1    2    0    0  0.30885697052E+02  0.72805763789E+01 -0.31288509978E+01  0.59301909249E+02  0.49999936573E+02 0.  0.
        -12    1    1    2    0    0 -0.30885697052E+02 -0.72805763789E+01  0.31288509978E+01  0.31886090751E+02  0.00000000000E+00 0.  1.
         11    1    3    3    0    0 -0.83706514612E+00  0.51127730827E+01  0.71830561619E+01  0.88564904302E+01  0.51100000000E-03 0. -1.
        -11    1    3    3    0    0 -0.71053484110E+01  0.64680331640E+01 -0.55358086907E+01  0.11089030939E+02  0.51100000000E-03 0.  1.
         12    1    3    3    0    0  0.38828110609E+02 -0.43002298677E+01 -0.47760984690E+01  0.39356387880E+02  0.00000000000E+00 0. -1.
</event>
<event>
 7    1  0.6152255E-013  0.5930195E+02  0.7816164E-02  0.1266605E+00
        -11   -1    0    0    0    0  0.00000000000E+00  0.00000000000E+00  0.45593999997E+02  0.45594000000E+02  0.51100000000E-03 0. -1.
         11   -1    0    0    0    0 -0.00000000000E+00 -0.00000000000E+00 -0.45593999997E+02  0.45594000000E+02  0.51100000000E-03 0.  1.
    9900012    2    1    2    0    0  0.64381000922E+01  0.19085095832E+02  0.24719020022E+02  0.59301953419E+02  0.50000017127E+02 0.  0.
        -12    1    1    2    0    0 -0.64381000922E+01 -0.19085095832E+02 -0.24719020022E+02  0.31886046581E+02  0.00000000000E+00 0.  1.
         11    1    3    3    0    0  0.29529666784E+01  0.10011089774E+02 -0.63839571131E+01  0.12235065973E+02  0.51100000000E-03 0. -1.
        -11    1    3    3    0    0  0.16858528377E+02 -0.22127571845E+01  0.10288919304E+02  0.19873805224E+02  0.51100000000E-03 0.  1.
         12    1    3    3    0    0 -0.13373394963E+02  0.11286763242E+02  0.20814057831E+02  0.27193082222E+02  0.00000000000E+00 0. -1.
</event>
<event>
 7    1  0.6152255E-013  0.5930194E+02  0.7816164E-02  0.1266605E+00
        -11   -1    0    0    0    0  0.00000000000E+00  0.00000000000E+00  0.45593999997E+02  0.45594000000E+02  0.51100000000E-03 0.  1.
         11   -1    0    0    0    0 -0.00000000000E+00 -0.00000000000E+00 -0.45593999997E+02  0.45594000000E+02  0.51100000000E-03 0. -1.
    9900012    2    1    2    0    0 -0.89084736564E+00  0.31843909117E+02  0.13758118872E+01  0.59301936975E+02  0.49999987137E+02 0.  0.
        -12    1    1    2    0    0  0.89084736564E+00 -0.31843909117E+02 -0.13758118872E+01  0.31886063025E+02  0.00000000000E+00 0.  1.
         11    1    3    3    0    0 -0.16560847060E+02  0.24242424057E+02  0.52939029235E+01  0.29832569248E+02  0.51100000000E-03 0. -1.
        -11    1    3    3    0    0  0.41893529977E+01 -0.80833752844E+01  0.16437938574E+01  0.92516859564E+01  0.51100000000E-03 0.  1.
         12    1    3    3    0    0  0.11480646697E+02  0.15684860345E+02 -0.55618848938E+01  0.20217681771E+02  0.00000000000E+00 0. -1.
</event>
<event>
 7    1  0.6152255E-013  0.5930189E+02  0.7816164E-02  0.1266605E+00
        -11   -1    0    0    0    0  0.00000000000E+00  0.00000000000E+00  0.45593999997E+02  0.45594000000E+02  0.51100000000E-03 0.  1.
         11   -1    0    0    0    0 -0.00000000000E+00 -0.00000000000E+00 -0.45593999997E+02  0.45594000000E+02  0.51100000000E-03 0. -1.
    9900012    2    1    2    0    0 -0.20659351541E+02 -0.25262112289E+01 -0.24156438976E+02  0.59301888709E+02  0.49999899112E+02 0.  0.
        -12    1    1    2    0    0  0.20659351541E+02  0.25262112289E+01  0.24156438976E+02  0.31886111291E+02  0.00000000000E+00 0.  1.
         11    1    3    3    0    0  0.53398651474E+01 -0.12352421583E+02 -0.19485130906E+02  0.23680515312E+02  0.51100000000E-03 0. -1.
        -11    1    3    3    0    0  0.57912140109E-02  0.90569943726E+01  0.59807593496E+00  0.90767216378E+01  0.51100000000E-03 0.  1.
         12    1    3    3    0    0 -0.26005007903E+02  0.76921598119E+00 -0.52693840051E+01  0.26544651759E+02  0.00000000000E+00 0. -1.
</event>
<event>
 7    1  0.6152255E-013  0.5930196E+02  0.7816164E-02  0.1266605E+00
        -11   -1    0    0    0    0  0.00000000000E+00  0.00000000000E+00  0.45593999997E+02  0.45594000000E+02  0.51100000000E-03 0. -1.
         11   -1    0    0    0    0 -0.00000000000E+00 -0.00000000000E+00 -0.45593999997E+02  0.45594000000E+02  0.51100000000E-03 0.  1.
    9900012    2    1    2    0    0 -0.30674881084E+02  0.69512491282E+00  0.86768516097E+01  0.59301964153E+02  0.50000036704E+02 0.  0.
        -12    1    1    2    0    0  0.30674881084E+02 -0.69512491282E+00 -0.86768516097E+01  0.31886035847E+02  0.00000000000E+00 0.  1.
         11    1    3    3    0    0 -0.11359617683E+02 -0.12190428907E+02  0.71509195040E+01  0.18132377694E+02  0.51100000000E-03 0. -1.
        -11    1    3    3    0    0 -0.22180188660E+02  0.18134440976E+01  0.12325664904E+02  0.25439562970E+02  0.51100000000E-03 0.  1.
        -12    1    3    3    0    0  0.28649252598E+01  0.11072109722E+02 -0.10799732799E+02  0.15730023489E+02  0.00000000000E+00 0.  1.
</event>
<event>
 7    1  0.6152255E-013  0.5930199E+02  0.7816164E-02  0.1266605E+00
        -11   -1    0    0    0    0  0.00000000000E+00  0.00000000000E+00  0.45593999997E+02  0.45594000000E+02  0.51100000000E-03 0. -1.
         11   -1    0    0    0    0 -0.00000000000E+00 -0.00000000000E+00 -0.45593999997E+02  0.45594000000E+02  0.51100000000E-03 0.  1.
    9900012    2    1    2    0    0  0.20571050356E+01 -0.31318258035E+02 -0.56260892228E+01  0.59301986649E+02  0.50000077732E+02 0.  0.
        -12    1    1    2    0    0 -0.20571050356E+01  0.31318258035E+02  0.56260892228E+01  0.31886013351E+02  0.00000000000E+00 0.  1.
         11    1    3    3    0    0  0.37478503530E+01 -0.14757475005E+02  0.97148384566E+01  0.18061216385E+02  0.51100000000E-03 0. -1.
        -11    1    3    3    0    0 -0.20177521528E+01  0.95456362887E+00  0.10104429879E+02  0.10348044207E+02  0.51100000000E-03 0.  1.
        -12    1    3    3    0    0  0.32700683545E+00 -0.17515346658E+02 -0.25445357558E+02  0.30892726058E+02  0.00000000000E+00 0.  1.
</event>
<event>
 7    1  0.6152255E-013  0.5930196E+02  0.7816164E-02  0.1266605E+00
        -11   -1    0    0    0    0  0.00000000000E+00  0.00000000000E+00  0.45593999997E+02  0.45594000000E+02  0.51100000000E-03 0.  1.
         11   -1    0    0    0    0 -0.00000000000E+00 -0.00000000000E+00 -0.45593999997E+02  0.45594000000E+02  0.51100000000E-03 0. -1.
    9900012    2    1    2    0    0  0.28339834496E+02 -0.98167959924E+01 -0.10826063589E+02  0.59301962999E+02  0.50000034598E+02 0.  0.
        -12    1    1    2    0    0 -0.28339834496E+02  0.98167959924E+01  0.10826063589E+02  0.31886037001E+02  0.00000000000E+00 0.  1.
         11    1    3    3    0    0  0.29784157070E+02 -0.46947924322E+01 -0.11604156131E+01  0.30174221663E+02  0.51100000000E-03 0. -1.
        -11    1    3    3    0    0  0.42383430958E+01  0.10244211591E+02 -0.42372776369E+01  0.11868527514E+02  0.51100000000E-03 0.  1.
         12    1    3    3    0    0 -0.56826656691E+01 -0.15366215151E+02 -0.54283703387E+01  0.17259213821E+02  0.00000000000E+00 0. -1.
</event>
<event>
 7    1  0.6152255E-013  0.5930196E+02  0.7816164E-02  0.1266605E+00
        -11   -1    0    0    0    0  0.00000000000E+00  0.00000000000E+00  0.45593999997E+02  0.45594000000E+02  0.51100000000E-03 0. -1.
         11   -1    0    0    0    0 -0.00000000000E+00 -0.00000000000E+00 -0.45593999997E+02  0.45594000000E+02  0.51100000000E-03 0.  1.
    9900012    2    1    2    0    0  0.12782876526E+02 -0.15352140112E+02  0.24852153318E+02  0.59301958182E+02  0.50000025813E+02 0.  0.
        -12    1    1    2    0    0 -0.12782876526E+02  0.15352140112E+02 -0.24852153318E+02  0.31886041818E+02  0.00000000000E+00 0.  1.
         11    1    3    3    0    0  0.17121148706E+02 -0.16799016535E+02  0.12602306622E+02  0.27095365323E+02  0.51100000000E-03 0. -1.
        -11    1    3    3    0    0 -0.36165377894E+01 -0.71579401892E+00 -0.95764281632E+01  0.10261563394E+02  0.51100000000E-03 0.  1.
        -12    1    3    3    0    0 -0.72173438999E+00  0.21626704418E+01  0.21826274859E+02  0.21945029465E+02  0.00000000000E+00 0.  1.
</event>
<event>
 7    1  0.6152255E-013  0.5930188E+02  0.7816164E-02  0.1266605E+00
        -11   -1    0    0    0    0  0.00000000000E+00  0.00000000000E+00  0.45593999997E+02  0.45594000000E+02  0.51100000000E-03 0.  1.
         11   -1    0    0    0    0 -0.00000000000E+00 -0.00000000000E+00 -0.45593999997E+02  0.45594000000E+02  0.51100000000E-03 0. -1.
    9900012    2    1    2    0    0 -0.25550257228E+02  0.16044709353E+02 -0.10318721565E+02  0.59301884568E+02  0.49999891559E+02 0.  0.
        -12    1    1    2    0    0  0.25550257228E+02 -0.16044709353E+02  0.10318721565E+02  0.31886115432E+02  0.00000000000E+00 0.  1.
         11    1    3    3    0    0 -0.68357369504E+01 -0.10881803383E+02 -0.34031553733E+01  0.13293698179E+02  0.51100000000E-03 0. -1.
        -11    1    3    3    0    0 -0.16378957201E+02 -0.19616308766E+01 -0.21189397543E+01  0.16631540537E+02  0.51100000000E-03 0.  1.
         12    1    3    3    0    0 -0.23355630758E+01  0.28888143613E+02 -0.47966264376E+01  0.29376645851E+02  0.00000000000E+00 0. -1.
</event>
<event>
 7    1  0.6152255E-013  0.5930196E+02  0.7816164E-02  0.1266605E+00
        -11   -1    0    0    0    0  0.00000000000E+00  0.00000000000E+00  0.45593999997E+02  0.45594000000E+02  0.51100000000E-03 0.  1.
         11   -1    0    0    0    0 -0.00000000000E+00 -0.00000000000E+00 -0.45593999997E+02  0.45594000000E+02  0.51100000000E-03 0. -1.
    9900012    2    1    2    0    0 -0.14043897003E+01  0.27123732978E+02 -0.16704807250E+02  0.59301956245E+02  0.50000022281E+02 0.  0.
        -12    1    1    2    0    0  0.14043897003E+01 -0.27123732978E+02  0.16704807250E+02  0.31886043755E+02  0.00000000000E+00 0.  1.
         11    1    3    3    0    0  0.19547231776E+02  0.20180693365E+02 -0.55130135969E+01  0.28631241223E+02  0.51100000000E-03 0. -1.
        -11    1    3    3    0    0 -0.79537328341E+00 -0.47560357953E+01 -0.40452665627E+01  0.62941780218E+01  0.51100000000E-03 0.  1.
        -12    1    3    3    0    0 -0.20156248193E+02  0.11699075408E+02 -0.71465270909E+01  0.24376537000E+02  0.00000000000E+00 0.  1.
</event>
<event>
 7    1  0.6152255E-013  0.5930196E+02  0.7816164E-02  0.1266605E+00
        -11   -1    0    0    0    0  0.00000000000E+00  0.00000000000E+00  0.45593999997E+02  0.45594000000E+02  0.51100000000E-03 0.  1.
         11   -1    0    0    0    0 -0.00000000000E+00 -0.00000000000E+00 -0.45593999997E+02  0.45594000000E+02  0.51100000000E-03 0. -1.
    9900012    2    1    2    0    0  0.30606211775E+02 -0.49946777796E+01 -0.74183909234E+01  0.59301960277E+02  0.50000029635E+02 0.  0.
        -12    1    1    2    0    0 -0.30606211775E+02  0.49946777796E+01  0.74183909234E+01  0.31886039723E+02  0.00000000000E+00 0.  1.
         11    1    3    3    0    0  0.16706430654E+02 -0.14726006050E+01 -0.54310604407E+01  0.17628664031E+02  0.51100000000E-03 0. -1.
        -11    1    3    3    0    0  0.23365125137E+02 -0.47793499735E-01 -0.13003141171E+02  0.26739727700E+02  0.51100000000E-03 0.  1.
        -12    1    3    3    0    0 -0.94653440164E+01 -0.34742836749E+01  0.11015810689E+02  0.14933568546E+02  0.00000000000E+00 0.  1.
</event>
<event>
 7    1  0.6152255E-013  0.5930178E+02  0.7816164E-02  0.1266605E+00
        -11   -1    0    0    0    0  0.00000000000E+00  0.00000000000E+00  0.45593999997E+02  0.45594000000E+02  0.51100000000E-03 0.  1.
         11   -1    0    0    0    0 -0.00000000000E+00 -0.00000000000E+00 -0.45593999997E+02  0.45594000000E+02  0.51100000000E-03 0. -1.
    9900012    2    1    2    0    0  0.16313612295E+01  0.72572081319E+01 -0.31006491609E+02  0.59301781484E+02  0.49999703558E+02 0.  0.
        -12    1    1    2    0    0 -0.16313612295E+01 -0.72572081319E+01  0.31006491609E+02  0.31886218516E+02  0.00000000000E+00 0.  1.
         11    1    3    3    0    0 -0.17442164869E+02  0.39095118210E+00 -0.21378633734E+02  0.27593983742E+02  0.51100000000E-03 0. -1.
        -11    1    3    3    0    0  0.99566365886E+01  0.64853329220E+01 -0.16465497134E+02  0.20305338003E+02  0.51100000000E-03 0.  1.
        -12    1    3    3    0    0  0.91168895102E+01  0.38092402786E+00  0.68376392594E+01  0.11402459739E+02  0.00000000000E+00 0.  1.
</event>
<event>
 7    1  0.6152255E-013  0.5930197E+02  0.7816164E-02  0.1266605E+00
        -11   -1    0    0    0    0  0.00000000000E+00  0.00000000000E+00  0.45593999997E+02  0.45594000000E+02  0.51100000000E-03 0.  1.
         11   -1    0    0    0    0 -0.00000000000E+00 -0.00000000000E+00 -0.45593999997E+02  0.45594000000E+02  0.51100000000E-03 0. -1.
    9900012    2    1    2    0    0 -0.11269591209E+02  0.26068284706E+02 -0.14496893442E+02  0.59301967431E+02  0.50000042681E+02 0.  0.
        -12    1    1    2    0    0  0.11269591209E+02 -0.26068284706E+02  0.14496893442E+02  0.31886032569E+02  0.00000000000E+00 0.  1.
         11    1    3    3    0    0  0.66934269238E+01  0.13155814174E+02 -0.18118042593E+02  0.23369657213E+02  0.51100000000E-03 0. -1.
        -11    1    3    3    0    0  0.35030833829E+01 -0.41963080300E+01 -0.47420468373E+01  0.72365463267E+01  0.51100000000E-03 0.  1.
         12    1    3    3    0    0 -0.21466101516E+02  0.17108778562E+02  0.83631959882E+01  0.28695763891E+02  0.00000000000E+00 0. -1.
</event>
<event>
 7    1  0.6152255E-013  0.5930194E+02  0.7816164E-02  0.1266605E+00
        -11   -1    0    0    0    0  0.00000000000E+00  0.00000000000E+00  0.45593999997E+02  0.45594000000E+02  0.51100000000E-03 0.  1.
         11   -1    0    0    0    0 -0.00000000000E+00 -0.00000000000E+00 -0.45593999997E+02  0.45594000000E+02  0.51100000000E-03 0. -1.
    9900012    2    1    2    0    0  0.86339692215E+01  0.12215815210E+01 -0.30670560598E+02  0.59301937632E+02  0.49999988336E+02 0.  0.
        -12    1    1    2    0    0 -0.86339692215E+01 -0.12215815210E+01  0.30670560598E+02  0.31886062368E+02  0.00000000000E+00 0.  1.
         11    1    3    3    0    0  0.63795453657E+01  0.85325221835E-01 -0.21424018175E+02  0.22353846078E+02  0.51100000000E-03 0. -1.
        -11    1    3    3    0    0  0.54352292148E+00 -0.13286910933E+02 -0.16105263418E+02  0.20885806887E+02  0.51100000000E-03 0.  1.
         12    1    3    3    0    0  0.17109009343E+01  0.14423167232E+02  0.68587209954E+01  0.16062284666E+02  0.00000000000E+00 0. -1.
</event>
<event>
 7    1  0.6152255E-013  0.5930194E+02  0.7816164E-02  0.1266605E+00
        -11   -1    0    0    0    0  0.00000000000E+00  0.00000000000E+00  0.45593999997E+02  0.45594000000E+02  0.51100000000E-03 0.  1.
         11   -1    0    0    0    0 -0.00000000000E+00 -0.00000000000E+00 -0.45593999997E+02  0.45594000000E+02  0.51100000000E-03 0. -1.
    9900012    2    1    2    0    0 -0.95698347797E+01  0.30293962378E+02  0.27229787695E+01  0.59301944934E+02  0.50000001653E+02 0.  0.
        -12    1    1    2    0    0  0.95698347797E+01 -0.30293962378E+02 -0.27229787695E+01  0.31886055066E+02  0.00000000000E+00 0.  1.
         11    1    3    3    0    0  0.40245391906E+01 -0.57049830296E+01 -0.42211152377E+01  0.81585268999E+01  0.51100000000E-03 0. -1.
        -11    1    3    3    0    0 -0.13284691448E+02  0.95976125789E+01 -0.10531290737E+02  0.19480895229E+02  0.51100000000E-03 0.  1.
        -12    1    3    3    0    0 -0.30968252216E+00  0.26401332829E+02  0.17475384744E+02  0.31662522805E+02  0.00000000000E+00 0.  1.
</event>
<event>
 7    1  0.6152255E-013  0.5930191E+02  0.7816164E-02  0.1266605E+00
        -11   -1    0    0    0    0  0.00000000000E+00  0.00000000000E+00  0.45593999997E+02  0.45594000000E+02  0.51100000000E-03 0. -1.
         11   -1    0    0    0    0 -0.00000000000E+00 -0.00000000000E+00 -0.45593999997E+02  0.45594000000E+02  0.51100000000E-03 0.  1.
    9900012    2    1    2    0    0 -0.25252530010E+02  0.32231254493E+01 -0.19200096100E+02  0.59301913695E+02  0.49999944681E+02 0.  0.
        -12    1    1    2    0    0  0.25252530010E+02 -0.32231254493E+01  0.19200096100E+02  0.31886086305E+02  0.00000000000E+00 0.  1.
         11    1    3    3    0    0 -0.12312194567E+02  0.33237904641E+00 -0.38074214657E+01  0.12891744233E+02  0.51100000000E-03 0. -1.
        -11    1    3    3    0    0 -0.13604983015E+02 -0.37798899688E+01  0.11801027565E+02  0.18402374381E+02  0.51100000000E-03 0.  1.
        -12    1    3    3    0    0  0.66464757213E+00  0.66706363717E+01 -0.27193702199E+02  0.28007795081E+02  0.00000000000E+00 0.  1.
</event>
<event>
 7    1  0.6152255E-013  0.5930194E+02  0.7816164E-02  0.1266605E+00
        -11   -1    0    0    0    0  0.00000000000E+00  0.00000000000E+00  0.45593999997E+02  0.45594000000E+02  0.51100000000E-03 0.  1.
         11   -1    0    0    0    0 -0.00000000000E+00 -0.00000000000E+00 -0.45593999997E+02  0.45594000000E+02  0.51100000000E-03 0. -1.
    9900012    2    1    2    0    0 -0.22956745269E+02  0.86900258385E+01 -0.20351712479E+02  0.59301938731E+02  0.49999990340E+02 0.  0.
        -12    1    1    2    0    0  0.22956745269E+02 -0.86900258385E+01  0.20351712479E+02  0.31886061269E+02  0.00000000000E+00 0.  1.
         11    1    3    3    0    0 -0.94813553694E+01 -0.23113890784E+01 -0.19198355234E+02  0.21536375347E+02  0.51100000000E-03 0. -1.
        -11    1    3    3    0    0  0.41850074695E+01 -0.92551276084E+01  0.29568426383E+01  0.10578969383E+02  0.51100000000E-03 0.  1.
        -12    1    3    3    0    0 -0.17660397369E+02  0.20256542525E+02 -0.41101998834E+01  0.27186594001E+02  0.00000000000E+00 0.  1.
</event>
<event>
 7    1  0.6152255E-013  0.5930194E+02  0.7816164E-02  0.1266605E+00
        -11   -1    0    0    0    0  0.00000000000E+00  0.00000000000E+00  0.45593999997E+02  0.45594000000E+02  0.51100000000E-03 0.  1.
         11   -1    0    0    0    0 -0.00000000000E+00 -0.00000000000E+00 -0.45593999997E+02  0.45594000000E+02  0.51100000000E-03 0. -1.
    9900012    2    1    2    0    0 -0.14054627812E+02  0.42052147238E+01 -0.28310848903E+02  0.59301944122E+02  0.50000000173E+02 0.  0.
        -12    1    1    2    0    0  0.14054627812E+02 -0.42052147238E+01  0.28310848903E+02  0.31886055878E+02  0.00000000000E+00 0.  1.
         11    1    3    3    0    0 -0.91124940184E+01 -0.11934351568E+02 -0.15061409883E+02  0.21267636505E+02  0.51100000000E-03 0. -1.
        -11    1    3    3    0    0  0.35955827556E+01  0.55592889618E+01 -0.21251381788E+02  0.22258821561E+02  0.51100000000E-03 0.  1.
        -12    1    3    3    0    0 -0.85377165492E+01  0.10580277331E+02  0.80019427677E+01  0.15775486057E+02  0.00000000000E+00 0.  1.
</event>
<event>
 7    1  0.6152255E-013  0.5930195E+02  0.7816164E-02  0.1266605E+00
        -11   -1    0    0    0    0  0.00000000000E+00  0.00000000000E+00  0.45593999997E+02  0.45594000000E+02  0.51100000000E-03 0. -1.
         11   -1    0    0    0    0 -0.00000000000E+00 -0.00000000000E+00 -0.45593999997E+02  0.45594000000E+02  0.51100000000E-03 0.  1.
    9900012    2    1    2    0    0 -0.26239612960E+02  0.11047668796E+02  0.14357981511E+02  0.59301954350E+02  0.50000018825E+02 0.  0.
        -12    1    1    2    0    0  0.26239612960E+02 -0.11047668796E+02 -0.14357981511E+02  0.31886045650E+02  0.00000000000E+00 0.  1.
         11    1    3    3    0    0 -0.11203161784E+02  0.13111828775E+02 -0.13689883484E+01  0.17300434016E+02  0.51100000000E-03 0. -1.
        -11    1    3    3    0    0  0.16653540598E+00  0.14436505106E+02  0.12948676240E+02  0.19393520319E+02  0.51100000000E-03 0.  1.
        -12    1    3    3    0    0 -0.15202986582E+02 -0.16500665085E+02  0.27782936196E+01  0.22608000015E+02  0.00000000000E+00 0.  1.
</event>
<event>
 7    1  0.6152255E-013  0.5930190E+02  0.7816164E-02  0.1266605E+00
        -11   -1    0    0    0    0  0.00000000000E+00  0.00000000000E+00  0.45593999997E+02  0.45594000000E+02  0.51100000000E-03 0.  1.
         11   -1    0    0    0    0 -0.00000000000E+00 -0.00000000000E+00 -0.45593999997E+02  0.45594000000E+02  0.51100000000E-03 0. -1.
    9900012    2    1    2    0    0  0.83279439681E+01 -0.18836437897E+00 -0.30778782894E+02  0.59301896314E+02  0.49999912981E+02 0.  0.
        -12    1    1    2    0    0 -0.83279439681E+01  0.18836437897E+00  0.30778782894E+02  0.31886103686E+02  0.00000000000E+00 0.  1.
         11    1    3    3    0    0  0.66725238270E+00  0.46841001540E+01 -0.27543142469E+02  0.27946568973E+02  0.51100000000E-03 0. -1.
        -11    1    3    3    0    0  0.11483057560E+02  0.88551032222E+01 -0.77054495602E+01  0.16420944467E+02  0.51100000000E-03 0.  1.
         12    1    3    3    0    0 -0.38223659747E+01 -0.13727567755E+02  0.44698091360E+01  0.14934382874E+02  0.00000000000E+00 0. -1.
</event>
<event>
 7    1  0.6152255E-013  0.5930194E+02  0.7816164E-02  0.1266605E+00
        -11   -1    0    0    0    0  0.00000000000E+00  0.00000000000E+00  0.45593999997E+02  0.45594000000E+02  0.51100000000E-03 0.  1.
         11   -1    0    0    0    0 -0.00000000000E+00 -0.00000000000E+00 -0.45593999997E+02  0.45594000000E+02  0.51100000000E-03 0. -1.
    9900012    2    1    2    0    0  0.18776634561E+02 -0.81867860190E+01 -0.24436348522E+02  0.59301943488E+02  0.49999999016E+02 0.  0.
        -12    1    1    2    0    0 -0.18776634561E+02  0.81867860190E+01  0.24436348522E+02  0.31886056512E+02  0.00000000000E+00 0.  1.
         11    1    3    3    0    0  0.22254540811E+01 -0.31645122067E+01 -0.17391872332E+01  0.42416454197E+01  0.51100000000E-03 0. -1.
        -11    1    3    3    0    0  0.14018894202E+02 -0.41834639519E+01  0.12814581536E+02  0.19448502912E+02  0.51100000000E-03 0.  1.
        -12    1    3    3    0    0  0.25322862778E+01 -0.83880986043E+00 -0.35511742826E+02  0.35611795157E+02  0.00000000000E+00 0.  1.
</event>
<event>
 7    1  0.6152255E-013  0.5930193E+02  0.7816164E-02  0.1266605E+00
        -11   -1    0    0    0    0  0.00000000000E+00  0.00000000000E+00  0.45593999997E+02  0.45594000000E+02  0.51100000000E-03 0.  1.
         11   -1    0    0    0    0 -0.00000000000E+00 -0.00000000000E+00 -0.45593999997E+02  0.45594000000E+02  0.51100000000E-03 0. -1.
    9900012    2    1    2    0    0 -0.10275602422E+02 -0.23566919269E+02 -0.18860898168E+02  0.59301934569E+02  0.49999982749E+02 0.  0.
        -12    1    1    2    0    0  0.10275602422E+02  0.23566919269E+02  0.18860898168E+02  0.31886065431E+02  0.00000000000E+00 0.  1.
         11    1    3    3    0    0 -0.49434013556E+01  0.24651576207E+00  0.37848972342E+01  0.62308453935E+01  0.51100000000E-03 0.  1.
        -11    1    3    3    0    0 -0.18011516044E+01 -0.19687492597E+02  0.84534736536E+01  0.21501226219E+02  0.51100000000E-03 0. -1.
         12    1    3    3    0    0 -0.35310494624E+01 -0.41259424345E+01 -0.31099269055E+02  0.31569862956E+02  0.00000000000E+00 0. -1.
</event>
<event>
 7    1  0.6152255E-013  0.5930190E+02  0.7816164E-02  0.1266605E+00
        -11   -1    0    0    0    0  0.00000000000E+00  0.00000000000E+00  0.45593999997E+02  0.45594000000E+02  0.51100000000E-03 0. -1.
         11   -1    0    0    0    0 -0.00000000000E+00 -0.00000000000E+00 -0.45593999997E+02  0.45594000000E+02  0.51100000000E-03 0.  1.
    9900012    2    1    2    0    0 -0.13716960704E+02 -0.21146778863E+02  0.19529004261E+02  0.59301901545E+02  0.49999922522E+02 0.  0.
        -12    1    1    2    0    0  0.13716960704E+02  0.21146778863E+02 -0.19529004261E+02  0.31886098455E+02  0.00000000000E+00 0.  1.
         11    1    3    3    0    0 -0.94340790410E+01 -0.41676233973E+01  0.70871950877E+01  0.12513962866E+02  0.51100000000E-03 0. -1.
        -11    1    3    3    0    0 -0.21527059176E+02 -0.12080328121E+02  0.14683172622E+02  0.28721841215E+02  0.51100000000E-03 0.  1.
        -12    1    3    3    0    0  0.17244177514E+02 -0.48988273450E+01 -0.22413634484E+01  0.18066097464E+02  0.00000000000E+00 0.  1.
</event>
<event>
 7    1  0.6152255E-013  0.5930195E+02  0.7816164E-02  0.1266605E+00
        -11   -1    0    0    0    0  0.00000000000E+00  0.00000000000E+00  0.45593999997E+02  0.45594000000E+02  0.51100000000E-03 0.  1.
         11   -1    0    0    0    0 -0.00000000000E+00 -0.00000000000E+00 -0.45593999997E+02  0.45594000000E+02  0.51100000000E-03 0. -1.
    9900012    2    1    2    0    0  0.26700789758E+02  0.11218708710E+02 -0.13338991103E+02  0.59301948465E+02  0.50000008092E+02 0.  0.
        -12    1    1    2    0    0 -0.26700789758E+02 -0.11218708710E+02  0.13338991103E+02  0.31886051535E+02  0.00000000000E+00 0.  1.
         11    1    3    3    0    0  0.10861278136E+02 -0.13524931513E+02 -0.25907715567E+01  0.17538621174E+02  0.51100000000E-03 0. -1.
        -11    1    3    3    0    0  0.98733163900E+01  0.11862465110E+02  0.86755826116E+01  0.17704976389E+02  0.51100000000E-03 0.  1.
         12    1    3    3    0    0  0.59661952322E+01  0.12881175113E+02 -0.19423802158E+02  0.24058350902E+02  0.00000000000E+00 0. -1.
</event>
<event>
 7    1  0.6152255E-013  0.5930193E+02  0.7816164E-02  0.1266605E+00
        -11   -1    0    0    0    0  0.00000000000E+00  0.00000000000E+00  0.45593999997E+02  0.45594000000E+02  0.51100000000E-03 0.  1.
         11   -1    0    0    0    0 -0.00000000000E+00 -0.00000000000E+00 -0.45593999997E+02  0.45594000000E+02  0.51100000000E-03 0. -1.
    9900012    2    1    2    0    0 -0.31357121171E+02  0.55084928914E+01  0.17631382581E+01  0.59301934100E+02  0.49999981894E+02 0.  0.
        -12    1    1    2    0    0  0.31357121171E+02 -0.55084928914E+01 -0.17631382581E+01  0.31886065900E+02  0.00000000000E+00 0.  1.
         11    1    3    3    0    0 -0.19716044762E+02 -0.79907295246E+01 -0.10927564187E+02  0.23916225428E+02  0.51100000000E-03 0. -1.
        -11    1    3    3    0    0 -0.11273997598E+02  0.68816494984E+01 -0.67593629229E+01  0.14837422588E+02  0.51100000000E-03 0.  1.
        -12    1    3    3    0    0 -0.36707881085E+00  0.66175729176E+01  0.19450065368E+02  0.20548286084E+02  0.00000000000E+00 0.  1.
</event>
<event>
 7    1  0.6152255E-013  0.5930195E+02  0.7816164E-02  0.1266605E+00
        -11   -1    0    0    0    0  0.00000000000E+00  0.00000000000E+00  0.45593999997E+02  0.45594000000E+02  0.51100000000E-03 0. -1.
         11   -1    0    0    0    0 -0.00000000000E+00 -0.00000000000E+00 -0.45593999997E+02  0.45594000000E+02  0.51100000000E-03 0.  1.
    9900012    2    1    2    0    0  0.20442671478E+02 -0.18867987749E+02  0.15582558003E+02  0.59301954576E+02  0.50000019238E+02 0.  0.
        -12    1    1    2    0    0 -0.20442671478E+02  0.18867987749E+02 -0.15582558003E+02  0.31886045424E+02  0.00000000000E+00 0.  1.
         11    1    3    3    0    0  0.11629148439E+02  0.11664001072E+02 -0.25469759490E+01  0.16666526367E+02  0.51100000000E-03 0. -1.
        -11    1    3    3    0    0 -0.45588972339E+01  0.43260309016E+00  0.58524687494E+00  0.46166225304E+01  0.51100000000E-03 0.  1.
         12    1    3    3    0    0  0.13372420273E+02 -0.30964591911E+02  0.17544287078E+02  0.38018805678E+02  0.00000000000E+00 0. -1.
</event>
<event>
 7    1  0.6152255E-013  0.5930194E+02  0.7816164E-02  0.1266605E+00
        -11   -1    0    0    0    0  0.00000000000E+00  0.00000000000E+00  0.45593999997E+02  0.45594000000E+02  0.51100000000E-03 0. -1.
         11   -1    0    0    0    0 -0.00000000000E+00 -0.00000000000E+00 -0.45593999997E+02  0.45594000000E+02  0.51100000000E-03 0.  1.
    9900012    2    1    2    0    0 -0.12271179495E+02 -0.21676380597E+02  0.19906616598E+02  0.59301941818E+02  0.49999995970E+02 0.  0.
        -12    1    1    2    0    0  0.12271179495E+02  0.21676380597E+02 -0.19906616598E+02  0.31886058182E+02  0.00000000000E+00 0.  1.
         11    1    3    3    0    0  0.12788786092E+02 -0.96528507326E+01  0.52060876006E+01  0.16847371466E+02  0.51100000000E-03 0. -1.
        -11    1    3    3    0    0 -0.48094136466E+01  0.92099629132E+01  0.51581994008E+01  0.11600038698E+02  0.51100000000E-03 0.  1.
         12    1    3    3    0    0 -0.20250551940E+02 -0.21233492778E+02  0.95423295965E+01  0.30854531653E+02  0.00000000000E+00 0. -1.
</event>
