<event>
 7    1  0.3846293E-008  0.4614232E+02  0.7816164E-02  0.1320468E+00
        -11   -1    0    0    0    0  0.00000000000E+00  0.00000000000E+00  0.45593999997E+02  0.45594000000E+02  0.51100000000E-03 0.  1.
         11   -1    0    0    0    0 -0.00000000000E+00 -0.00000000000E+00 -0.45593999997E+02  0.45594000000E+02  0.51100000000E-03 0. -1.
    9900012    2    1    2    0    0  0.68621081358E+00 -0.40738120327E+02 -0.19210627955E+02  0.46142316972E+02  0.99999928018E+01 0.  0.
        -12    1    1    2    0    0 -0.68621081358E+00  0.40738120327E+02  0.19210627955E+02  0.45045683028E+02  0.00000000000E+00 0.  1.
         11    1    3    3    0    0  0.12725038176E+01 -0.13684372416E+02 -0.10309729726E+02  0.17180565814E+02  0.51100000000E-03 0. -1.
        -11    1    3    3    0    0  0.22092874383E+01 -0.81179542458E+01 -0.29922711713E+01  0.89294915390E+01  0.51100000000E-03 0.  1.
        -12    1    3    3    0    0 -0.27955804424E+01 -0.18935793665E+02 -0.59086270572E+01  0.20032259619E+02  0.00000000000E+00 0.  1.
</event>
<event>
 7    1  0.3846293E-008  0.4614232E+02  0.7816164E-02  0.1320468E+00
        -11   -1    0    0    0    0  0.00000000000E+00  0.00000000000E+00  0.45593999997E+02  0.45594000000E+02  0.51100000000E-03 0.  1.
         11   -1    0    0    0    0 -0.00000000000E+00 -0.00000000000E+00 -0.45593999997E+02  0.45594000000E+02  0.51100000000E-03 0. -1.
    9900012    2    1    2    0    0 -0.38808005663E+02 -0.20246992489E+02  0.10635372538E+02  0.46142321434E+02  0.10000033496E+02 0.  0.
        -12    1    1    2    0    0  0.38808005663E+02  0.20246992489E+02 -0.10635372538E+02  0.45045678566E+02  0.00000000000E+00 0.  1.
         11    1    3    3    0    0 -0.20581841213E+02 -0.75934248977E+01  0.87715924354E+01  0.23626534310E+02  0.51100000000E-03 0. -1.
        -11    1    3    3    0    0 -0.13807596831E+02 -0.77449373387E+01  0.11565627703E+01  0.15873607729E+02  0.51100000000E-03 0.  1.
        -12    1    3    3    0    0 -0.44185676192E+01 -0.49086302529E+01  0.70721733255E+00  0.66421793954E+01  0.00000000000E+00 0.  1.
</event>
<event>
 7    1  0.3846293E-008  0.4614233E+02  0.7816164E-02  0.1320468E+00
        -11   -1    0    0    0    0  0.00000000000E+00  0.00000000000E+00  0.45593999997E+02  0.45594000000E+02  0.51100000000E-03 0. -1.
         11   -1    0    0    0    0 -0.00000000000E+00 -0.00000000000E+00 -0.45593999997E+02  0.45594000000E+02  0.51100000000E-03 0.  1.
    9900012    2    1    2    0    0 -0.26069617025E+02 -0.14471970006E+02  0.33764625513E+02  0.46142325583E+02  0.10000071322E+02 0.  0.
        -12    1    1    2    0    0  0.26069617025E+02  0.14471970006E+02 -0.33764625513E+02  0.45045674417E+02  0.00000000000E+00 0.  1.
         11    1    3    3    0    0 -0.10717591460E+02 -0.36273946394E+01  0.12857760035E+02  0.17127368507E+02  0.51100000000E-03 0. -1.
        -11    1    3    3    0    0 -0.20856070005E+01 -0.14933821576E+01  0.22786524487E-01  0.25652419605E+01  0.51100000000E-03 0.  1.
         12    1    3    3    0    0 -0.13266418564E+02 -0.93511932089E+01  0.20884078953E+02  0.26449715115E+02  0.00000000000E+00 0. -1.
</event>
<event>
 7    1  0.3846293E-008  0.4614232E+02  0.7816164E-02  0.1320468E+00
        -11   -1    0    0    0    0  0.00000000000E+00  0.00000000000E+00  0.45593999997E+02  0.45594000000E+02  0.51100000000E-03 0.  1.
         11   -1    0    0    0    0 -0.00000000000E+00 -0.00000000000E+00 -0.45593999997E+02  0.45594000000E+02  0.51100000000E-03 0. -1.
    9900012    2    1    2    0    0 -0.30465684726E+02  0.23742562507E+02 -0.23178573968E+02  0.46142317506E+02  0.99999976720E+01 0.  0.
        -12    1    1    2    0    0  0.30465684726E+02 -0.23742562507E+02  0.23178573968E+02  0.45045682494E+02  0.00000000000E+00 0.  1.
         11    1    3    3    0    0 -0.16577595789E+02  0.93646240343E+01 -0.13974002863E+02  0.23617485508E+02  0.51100000000E-03 0. -1.
        -11    1    3    3    0    0 -0.35758068238E+01  0.13025266132E+01 -0.87393273349E+00  0.39047059688E+01  0.51100000000E-03 0.  1.
         12    1    3    3    0    0 -0.10312282113E+02  0.13075411859E+02 -0.83306383716E+01  0.18620126029E+02  0.00000000000E+00 0. -1.
</event>
<event>
 7    1  0.3846293E-008  0.4614233E+02  0.7816164E-02  0.1320468E+00
        -11   -1    0    0    0    0  0.00000000000E+00  0.00000000000E+00  0.45593999997E+02  0.45594000000E+02  0.51100000000E-03 0.  1.
         11   -1    0    0    0    0 -0.00000000000E+00 -0.00000000000E+00 -0.45593999997E+02  0.45594000000E+02  0.51100000000E-03 0. -1.
    9900012    2    1    2    0    0 -0.14818686753E+02  0.28330071419E+02 -0.31732102301E+02  0.46142326066E+02  0.10000075733E+02 0.  0.
        -12    1    1    2    0    0  0.14818686753E+02 -0.28330071419E+02  0.31732102301E+02  0.45045673934E+02  0.00000000000E+00 0.  1.
         11    1    3    3    0    0 -0.48626054330E+00  0.46178170293E+01 -0.19740562727E+01  0.50455506995E+01  0.51100000000E-03 0. -1.
        -11    1    3    3    0    0 -0.65250412961E+01  0.59429678332E+01 -0.76694191579E+01  0.11692519877E+02  0.51100000000E-03 0.  1.
         12    1    3    3    0    0 -0.78073849141E+01  0.17769286556E+02 -0.22088626871E+02  0.29404255490E+02  0.00000000000E+00 0. -1.
</event>
<event>
 7    1  0.3846293E-008  0.4614232E+02  0.7816164E-02  0.1320468E+00
        -11   -1    0    0    0    0  0.00000000000E+00  0.00000000000E+00  0.45593999997E+02  0.45594000000E+02  0.51100000000E-03 0.  1.
         11   -1    0    0    0    0 -0.00000000000E+00 -0.00000000000E+00 -0.45593999997E+02  0.45594000000E+02  0.51100000000E-03 0. -1.
    9900012    2    1    2    0    0 -0.36188919081E+00 -0.39544970086E+01 -0.44870307416E+02  0.46142317655E+02  0.99999990284E+01 0.  0.
        -12    1    1    2    0    0  0.36188919081E+00  0.39544970086E+01  0.44870307416E+02  0.45045682345E+02  0.00000000000E+00 0.  1.
         11    1    3    3    0    0 -0.11052750683E+01 -0.61271024583E+01 -0.22474024128E+02  0.23320479803E+02  0.51100000000E-03 0. -1.
        -11    1    3    3    0    0  0.85856670075E+00 -0.75184285172E+00 -0.30710182722E+01  0.32762109124E+01  0.51100000000E-03 0.  1.
        -12    1    3    3    0    0 -0.11518082324E+00  0.29244483015E+01 -0.19325265016E+02  0.19545626939E+02  0.00000000000E+00 0.  1.
</event>
<event>
 7    1  0.3846293E-008  0.4614232E+02  0.7816164E-02  0.1320468E+00
        -11   -1    0    0    0    0  0.00000000000E+00  0.00000000000E+00  0.45593999997E+02  0.45594000000E+02  0.51100000000E-03 0.  1.
         11   -1    0    0    0    0 -0.00000000000E+00 -0.00000000000E+00 -0.45593999997E+02  0.45594000000E+02  0.51100000000E-03 0. -1.
    9900012    2    1    2    0    0 -0.23676218616E+02  0.20223236614E+02 -0.32551051577E+02  0.46142316679E+02  0.99999901287E+01 0.  0.
        -12    1    1    2    0    0  0.23676218616E+02 -0.20223236614E+02  0.32551051577E+02  0.45045683321E+02  0.00000000000E+00 0.  1.
         11    1    3    3    0    0 -0.13809221696E+02  0.12060708182E+02 -0.22361132026E+02  0.28916699525E+02  0.51100000000E-03 0. -1.
        -11    1    3    3    0    0 -0.53586504864E+01  0.52471005216E+01 -0.90202131539E+01  0.11730790447E+02  0.51100000000E-03 0.  1.
        -12    1    3    3    0    0 -0.45083464341E+01  0.29154279106E+01 -0.11697063974E+01  0.54948267059E+01  0.00000000000E+00 0.  1.
</event>
<event>
 7    1  0.3846293E-008  0.4614232E+02  0.7816164E-02  0.1320468E+00
        -11   -1    0    0    0    0  0.00000000000E+00  0.00000000000E+00  0.45593999997E+02  0.45594000000E+02  0.51100000000E-03 0.  1.
         11   -1    0    0    0    0 -0.00000000000E+00 -0.00000000000E+00 -0.45593999997E+02  0.45594000000E+02  0.51100000000E-03 0. -1.
    9900012    2    1    2    0    0  0.35615412719E+02 -0.25856987677E+02  0.95954276144E+01  0.46142315790E+02  0.99999820238E+01 0.  0.
        -12    1    1    2    0    0 -0.35615412719E+02  0.25856987677E+02 -0.95954276144E+01  0.45045684210E+02  0.00000000000E+00 0.  1.
         11    1    3    3    0    0  0.15327171423E+02 -0.15832615363E+02  0.41485808024E+01  0.22423305198E+02  0.51100000000E-03 0. -1.
        -11    1    3    3    0    0  0.90774931263E+01 -0.50289936475E+01  0.22200611528E+00  0.10379833599E+02  0.51100000000E-03 0.  1.
         12    1    3    3    0    0  0.11210748170E+02 -0.49953786663E+01  0.52248406968E+01  0.13339176993E+02  0.00000000000E+00 0. -1.
</event>
<event>
 7    1  0.3846293E-008  0.4614232E+02  0.7816164E-02  0.1320468E+00
        -11   -1    0    0    0    0  0.00000000000E+00  0.00000000000E+00  0.45593999997E+02  0.45594000000E+02  0.51100000000E-03 0.  1.
         11   -1    0    0    0    0 -0.00000000000E+00 -0.00000000000E+00 -0.45593999997E+02  0.45594000000E+02  0.51100000000E-03 0. -1.
    9900012    2    1    2    0    0 -0.17891458682E+02  0.31190452078E+02 -0.27132360508E+02  0.46142316729E+02  0.99999905882E+01 0.  0.
        -12    1    1    2    0    0  0.17891458682E+02 -0.31190452078E+02  0.27132360508E+02  0.45045683271E+02  0.00000000000E+00 0.  1.
         11    1    3    3    0    0 -0.10380942667E+02  0.14222657851E+02 -0.15351565649E+02  0.23360619322E+02  0.51100000000E-03 0. -1.
        -11    1    3    3    0    0 -0.22036428526E+01  0.49902574608E+01 -0.47250488522E+00  0.54755796473E+01  0.51100000000E-03 0.  1.
        -12    1    3    3    0    0 -0.53068731623E+01  0.11977536767E+02 -0.11308289975E+02  0.17306117760E+02  0.00000000000E+00 0.  1.
</event>
<event>
 7    1  0.3846293E-008  0.4614232E+02  0.7816164E-02  0.1320468E+00
        -11   -1    0    0    0    0  0.00000000000E+00  0.00000000000E+00  0.45593999997E+02  0.45594000000E+02  0.51100000000E-03 0. -1.
         11   -1    0    0    0    0 -0.00000000000E+00 -0.00000000000E+00 -0.45593999997E+02  0.45594000000E+02  0.51100000000E-03 0.  1.
    9900012    2    1    2    0    0 -0.34079808284E+02 -0.21790954557E+02  0.19820053360E+02  0.46142317095E+02  0.99999939255E+01 0.  0.
        -12    1    1    2    0    0  0.34079808284E+02  0.21790954557E+02 -0.19820053360E+02  0.45045682905E+02  0.00000000000E+00 0.  1.
         11    1    3    3    0    0 -0.29813671428E+00 -0.14584927548E+01  0.10032001119E+01  0.17951315667E+01  0.51100000000E-03 0. -1.
        -11    1    3    3    0    0 -0.81117685768E+01 -0.89335293203E+01  0.59173253136E+01  0.13439623309E+02  0.51100000000E-03 0.  1.
         12    1    3    3    0    0 -0.25669902993E+02 -0.11398932482E+02  0.12899527935E+02  0.30907562219E+02  0.00000000000E+00 0. -1.
</event>
<event>
 7    1  0.3846293E-008  0.4614232E+02  0.7816164E-02  0.1320468E+00
        -11   -1    0    0    0    0  0.00000000000E+00  0.00000000000E+00  0.45593999997E+02  0.45594000000E+02  0.51100000000E-03 0. -1.
         11   -1    0    0    0    0 -0.00000000000E+00 -0.00000000000E+00 -0.45593999997E+02  0.45594000000E+02  0.51100000000E-03 0.  1.
    9900012    2    1    2    0    0 -0.62619762775E+01 -0.16815548438E+02  0.41317532151E+02  0.46142317862E+02  0.10000000925E+02 0.  0.
        -12    1    1    2    0    0  0.62619762775E+01  0.16815548438E+02 -0.41317532151E+02  0.45045682138E+02  0.00000000000E+00 0.  1.
         11    1    3    3    0    0  0.25568528230E+00 -0.71471798927E+01  0.18707269734E+02  0.20027718206E+02  0.51100000000E-03 0. -1.
        -11    1    3    3    0    0 -0.45436120450E+01 -0.54009111393E+01  0.18738866664E+02  0.20023970028E+02  0.51100000000E-03 0.  1.
        -12    1    3    3    0    0 -0.19740495147E+01 -0.42674574062E+01  0.38713957535E+01  0.60906296292E+01  0.00000000000E+00 0.  1.
</event>
<event>
 7    1  0.3846293E-008  0.4614232E+02  0.7816164E-02  0.1320468E+00
        -11   -1    0    0    0    0  0.00000000000E+00  0.00000000000E+00  0.45593999997E+02  0.45594000000E+02  0.51100000000E-03 0.  1.
         11   -1    0    0    0    0 -0.00000000000E+00 -0.00000000000E+00 -0.45593999997E+02  0.45594000000E+02  0.51100000000E-03 0. -1.
    9900012    2    1    2    0    0  0.22006907621E+02  0.18041457214E+02 -0.34918696447E+02  0.46142317377E+02  0.99999964932E+01 0.  0.
        -12    1    1    2    0    0 -0.22006907621E+02 -0.18041457214E+02  0.34918696447E+02  0.45045682623E+02  0.00000000000E+00 0.  1.
         11    1    3    3    0    0  0.36690674712E+01  0.57925673541E+01 -0.12563957336E+02  0.14313242709E+02  0.51100000000E-03 0. -1.
        -11    1    3    3    0    0  0.85759324439E+01  0.54682771561E+01 -0.13983422025E+02  0.17291175904E+02  0.51100000000E-03 0.  1.
        -12    1    3    3    0    0  0.97619077062E+01  0.67806127038E+01 -0.83713170862E+01  0.14537898764E+02  0.00000000000E+00 0.  1.
</event>
<event>
 7    1  0.3846293E-008  0.4614232E+02  0.7816164E-02  0.1320468E+00
        -11   -1    0    0    0    0  0.00000000000E+00  0.00000000000E+00  0.45593999997E+02  0.45594000000E+02  0.51100000000E-03 0.  1.
         11   -1    0    0    0    0 -0.00000000000E+00 -0.00000000000E+00 -0.45593999997E+02  0.45594000000E+02  0.51100000000E-03 0. -1.
    9900012    2    1    2    0    0 -0.32278699930E+02 -0.64153493720E+01 -0.30757802636E+02  0.46142316525E+02  0.99999887297E+01 0.  0.
        -12    1    1    2    0    0  0.32278699930E+02  0.64153493720E+01  0.30757802636E+02  0.45045683475E+02  0.00000000000E+00 0.  1.
         11    1    3    3    0    0 -0.11051633409E+02 -0.16716166470E+01 -0.12779539757E+02  0.16977913296E+02  0.51100000000E-03 0. -1.
        -11    1    3    3    0    0 -0.22272414934E+01 -0.30518209970E+01 -0.40974972843E+01  0.55734818851E+01  0.51100000000E-03 0.  1.
        -12    1    3    3    0    0 -0.18999825028E+02 -0.16919117280E+01 -0.13880765594E+02  0.23590921344E+02  0.00000000000E+00 0.  1.
</event>
<event>
 7    1  0.3846293E-008  0.4614231E+02  0.7816164E-02  0.1320468E+00
        -11   -1    0    0    0    0  0.00000000000E+00  0.00000000000E+00  0.45593999997E+02  0.45594000000E+02  0.51100000000E-03 0. -1.
         11   -1    0    0    0    0 -0.00000000000E+00 -0.00000000000E+00 -0.45593999997E+02  0.45594000000E+02  0.51100000000E-03 0.  1.
    9900012    2    1    2    0    0 -0.41671789121E+02  0.16737395051E+02  0.35263916858E+01  0.46142313859E+02  0.99999644169E+01 0.  0.
        -12    1    1    2    0    0  0.41671789121E+02 -0.16737395051E+02 -0.35263916858E+01  0.45045686141E+02  0.00000000000E+00 0.  1.
         11    1    3    3    0    0 -0.38853850834E+02  0.15138688294E+02  0.23488137009E+01  0.41765039614E+02  0.51100000000E-03 0. -1.
        -11    1    3    3    0    0 -0.23651410911E+01  0.10487908607E+01  0.20139243679E+01  0.32786805686E+01  0.51100000000E-03 0.  1.
         12    1    3    3    0    0 -0.45279719523E+00  0.54991589612E+00 -0.83634638303E+00  0.10985936761E+01  0.00000000000E+00 0. -1.
</event>
<event>
 7    1  0.3846293E-008  0.4614232E+02  0.7816164E-02  0.1320468E+00
        -11   -1    0    0    0    0  0.00000000000E+00  0.00000000000E+00  0.45593999997E+02  0.45594000000E+02  0.51100000000E-03 0. -1.
         11   -1    0    0    0    0 -0.00000000000E+00 -0.00000000000E+00 -0.45593999997E+02  0.45594000000E+02  0.51100000000E-03 0.  1.
    9900012    2    1    2    0    0 -0.15428421116E+02  0.41415849012E+02 -0.87065894102E+01  0.46142318446E+02  0.10000006245E+02 0.  0.
        -12    1    1    2    0    0  0.15428421116E+02 -0.41415849012E+02  0.87065894102E+01  0.45045681554E+02  0.00000000000E+00 0.  1.
         11    1    3    3    0    0 -0.39879890098E+01  0.21234159384E+02 -0.29299746054E+01  0.21803172534E+02  0.51100000000E-03 0. -1.
        -11    1    3    3    0    0 -0.38933517362E+01  0.11218409420E+02 -0.21051431659E+01  0.12059955459E+02  0.51100000000E-03 0.  1.
        -12    1    3    3    0    0 -0.75470803699E+01  0.89632802081E+01 -0.36714716389E+01  0.12279190453E+02  0.00000000000E+00 0.  1.
</event>
<event>
 7    1  0.3846293E-008  0.4614232E+02  0.7816164E-02  0.1320468E+00
        -11   -1    0    0    0    0  0.00000000000E+00  0.00000000000E+00  0.45593999997E+02  0.45594000000E+02  0.51100000000E-03 0. -1.
         11   -1    0    0    0    0 -0.00000000000E+00 -0.00000000000E+00 -0.45593999997E+02  0.45594000000E+02  0.51100000000E-03 0.  1.
    9900012    2    1    2    0    0  0.30411414715E+02 -0.20598110482E+02 -0.26076370296E+02  0.46142318873E+02  0.10000010140E+02 0.  0.
        -12    1    1    2    0    0 -0.30411414715E+02  0.20598110482E+02  0.26076370296E+02  0.45045681127E+02  0.00000000000E+00 0.  1.
         11    1    3    3    0    0  0.12105682062E+02 -0.66856597382E+01 -0.46407825558E+01  0.14587064383E+02  0.51100000000E-03 0. -1.
        -11    1    3    3    0    0  0.10974094128E+02 -0.66202944039E+01 -0.11906038132E+02  0.17493221092E+02  0.51100000000E-03 0.  1.
         12    1    3    3    0    0  0.73316385241E+01 -0.72921563396E+01 -0.95295496085E+01  0.14062033397E+02  0.00000000000E+00 0. -1.
</event>
<event>
 7    1  0.3846293E-008  0.4614232E+02  0.7816164E-02  0.1320468E+00
        -11   -1    0    0    0    0  0.00000000000E+00  0.00000000000E+00  0.45593999997E+02  0.45594000000E+02  0.51100000000E-03 0.  1.
         11   -1    0    0    0    0 -0.00000000000E+00 -0.00000000000E+00 -0.45593999997E+02  0.45594000000E+02  0.51100000000E-03 0. -1.
    9900012    2    1    2    0    0  0.31023409098E+02 -0.32405012987E+02  0.40714465585E+01  0.46142318122E+02  0.10000003291E+02 0.  0.
        -12    1    1    2    0    0 -0.31023409098E+02  0.32405012987E+02 -0.40714465585E+01  0.45045681878E+02  0.00000000000E+00 0.  1.
         11    1    3    3    0    0  0.10872534154E+02 -0.12110313554E+02  0.26494684107E+01  0.16489129038E+02  0.51100000000E-03 0.  1.
        -11    1    3    3    0    0  0.11857808249E+02 -0.10410299593E+02 -0.29051181706E+01  0.16044365551E+02  0.51100000000E-03 0. -1.
         12    1    3    3    0    0  0.82930666952E+01 -0.98843998408E+01  0.43270963184E+01  0.13608823534E+02  0.00000000000E+00 0. -1.
</event>
<event>
 7    1  0.3846293E-008  0.4614232E+02  0.7816164E-02  0.1320468E+00
        -11   -1    0    0    0    0  0.00000000000E+00  0.00000000000E+00  0.45593999997E+02  0.45594000000E+02  0.51100000000E-03 0. -1.
         11   -1    0    0    0    0 -0.00000000000E+00 -0.00000000000E+00 -0.45593999997E+02  0.45594000000E+02  0.51100000000E-03 0.  1.
    9900012    2    1    2    0    0  0.22429081662E+02 -0.13378132646E+02  0.36702524649E+02  0.46142318155E+02  0.10000003591E+02 0.  0.
        -12    1    1    2    0    0 -0.22429081662E+02  0.13378132646E+02 -0.36702524649E+02  0.45045681845E+02  0.00000000000E+00 0.  1.
         11    1    3    3    0    0  0.11693441082E+02 -0.40569921371E+01  0.14357780278E+02  0.18956307771E+02  0.51100000000E-03 0. -1.
        -11    1    3    3    0    0  0.81289098185E+01 -0.36240857686E+01  0.15742971204E+02  0.18084643073E+02  0.51100000000E-03 0.  1.
        -12    1    3    3    0    0  0.26067307609E+01 -0.56970547403E+01  0.66017731673E+01  0.91013673109E+01  0.00000000000E+00 0.  1.
</event>
<event>
 7    1  0.3846293E-008  0.4614232E+02  0.7816164E-02  0.1320468E+00
        -11   -1    0    0    0    0  0.00000000000E+00  0.00000000000E+00  0.45593999997E+02  0.45594000000E+02  0.51100000000E-03 0.  1.
         11   -1    0    0    0    0 -0.00000000000E+00 -0.00000000000E+00 -0.45593999997E+02  0.45594000000E+02  0.51100000000E-03 0. -1.
    9900012    2    1    2    0    0 -0.31122638901E+02 -0.27213492415E+02 -0.17886327325E+02  0.46142317335E+02  0.99999961172E+01 0.  0.
        -12    1    1    2    0    0  0.31122638901E+02  0.27213492415E+02  0.17886327325E+02  0.45045682665E+02  0.00000000000E+00 0.  1.
         11    1    3    3    0    0 -0.10692617207E+02 -0.70196454234E+01 -0.85051598433E+01  0.15360508742E+02  0.51100000000E-03 0. -1.
        -11    1    3    3    0    0 -0.12968249842E+02 -0.10603230268E+02 -0.79638812219E+01  0.18547975643E+02  0.51100000000E-03 0.  1.
        -12    1    3    3    0    0 -0.74617718518E+01 -0.95906167229E+01 -0.14172862597E+01  0.12233832949E+02  0.00000000000E+00 0.  1.
</event>
<event>
 7    1  0.3846293E-008  0.4614232E+02  0.7816164E-02  0.1320468E+00
        -11   -1    0    0    0    0  0.00000000000E+00  0.00000000000E+00  0.45593999997E+02  0.45594000000E+02  0.51100000000E-03 0.  1.
         11   -1    0    0    0    0 -0.00000000000E+00 -0.00000000000E+00 -0.45593999997E+02  0.45594000000E+02  0.51100000000E-03 0. -1.
    9900012    2    1    2    0    0  0.28420854213E+02  0.54303704218E+01 -0.34523610078E+02  0.46142317300E+02  0.99999957957E+01 0.  0.
        -12    1    1    2    0    0 -0.28420854213E+02 -0.54303704218E+01  0.34523610078E+02  0.45045682700E+02  0.00000000000E+00 0.  1.
         11    1    3    3    0    0  0.60216329524E+01  0.17384099883E+01 -0.44056062961E+01  0.76610377755E+01  0.51100000000E-03 0. -1.
        -11    1    3    3    0    0  0.15546015338E+02  0.23580003732E+01 -0.25972986221E+02  0.30361732035E+02  0.51100000000E-03 0.  1.
        -12    1    3    3    0    0  0.68532059228E+01  0.13339600603E+01 -0.41450175603E+01  0.81195474898E+01  0.00000000000E+00 0.  1.
</event>
<event>
 7    1  0.3846293E-008  0.4614231E+02  0.7816164E-02  0.1320468E+00
        -11   -1    0    0    0    0  0.00000000000E+00  0.00000000000E+00  0.45593999997E+02  0.45594000000E+02  0.51100000000E-03 0.  1.
         11   -1    0    0    0    0 -0.00000000000E+00 -0.00000000000E+00 -0.45593999997E+02  0.45594000000E+02  0.51100000000E-03 0. -1.
    9900012    2    1    2    0    0  0.27404646430E+02  0.18496034421E+02 -0.30594058869E+02  0.46142307938E+02  0.99999104249E+01 0.  0.
        -12    1    1    2    0    0 -0.27404646430E+02 -0.18496034421E+02  0.30594058869E+02  0.45045692062E+02  0.00000000000E+00 0.  1.
         11    1    3    3    0    0  0.16771340296E+02  0.67414281629E+01 -0.17418462835E+02  0.25102341660E+02  0.51100000000E-03 0. -1.
        -11    1    3    3    0    0  0.10561156414E+02  0.10100507656E+02 -0.10924812086E+02  0.18245815934E+02  0.51100000000E-03 0.  1.
        -12    1    3    3    0    0  0.72149719921E-01  0.16540986027E+01 -0.22507839478E+01  0.27941503448E+01  0.00000000000E+00 0.  1.
</event>
<event>
 7    1  0.3846293E-008  0.4614232E+02  0.7816164E-02  0.1320468E+00
        -11   -1    0    0    0    0  0.00000000000E+00  0.00000000000E+00  0.45593999997E+02  0.45594000000E+02  0.51100000000E-03 0. -1.
         11   -1    0    0    0    0 -0.00000000000E+00 -0.00000000000E+00 -0.45593999997E+02  0.45594000000E+02  0.51100000000E-03 0.  1.
    9900012    2    1    2    0    0 -0.10707375675E+02  0.42584324459E+02  0.10051910897E+02  0.46142317675E+02  0.99999992122E+01 0.  0.
        -12    1    1    2    0    0  0.10707375675E+02 -0.42584324459E+02 -0.10051910897E+02  0.45045682325E+02  0.00000000000E+00 0.  1.
         11    1    3    3    0    0 -0.24609391850E+01  0.27787900699E+01  0.28691602251E+01  0.46914791466E+01  0.51100000000E-03 0.  1.
        -11    1    3    3    0    0 -0.19987235870E+01  0.60488049434E+01  0.23118088517E+01  0.67769755532E+01  0.51100000000E-03 0. -1.
        -12    1    3    3    0    0 -0.62477129029E+01  0.33756729446E+02  0.48709418198E+01  0.34673862975E+02  0.00000000000E+00 0.  1.
</event>
<event>
 7    1  0.3846293E-008  0.4614232E+02  0.7816164E-02  0.1320468E+00
        -11   -1    0    0    0    0  0.00000000000E+00  0.00000000000E+00  0.45593999997E+02  0.45594000000E+02  0.51100000000E-03 0.  1.
         11   -1    0    0    0    0 -0.00000000000E+00 -0.00000000000E+00 -0.45593999997E+02  0.45594000000E+02  0.51100000000E-03 0. -1.
    9900012    2    1    2    0    0 -0.18493244973E+02  0.32731685278E+02 -0.24814316985E+02  0.46142315876E+02  0.99999828089E+01 0.  0.
        -12    1    1    2    0    0  0.18493244973E+02 -0.32731685278E+02  0.24814316985E+02  0.45045684124E+02  0.00000000000E+00 0.  1.
         11    1    3    3    0    0 -0.62034116720E+01  0.87681148176E+01 -0.99198267083E+01  0.14620708465E+02  0.51100000000E-03 0.  1.
        -11    1    3    3    0    0 -0.41783340190E+01  0.14583649458E+02 -0.62618572642E+01  0.16411951844E+02  0.51100000000E-03 0. -1.
         12    1    3    3    0    0 -0.81114992818E+01  0.93799210027E+01 -0.86326330129E+01  0.15109655567E+02  0.00000000000E+00 0. -1.
</event>
<event>
 7    1  0.3846293E-008  0.4614232E+02  0.7816164E-02  0.1320468E+00
        -11   -1    0    0    0    0  0.00000000000E+00  0.00000000000E+00  0.45593999997E+02  0.45594000000E+02  0.51100000000E-03 0.  1.
         11   -1    0    0    0    0 -0.00000000000E+00 -0.00000000000E+00 -0.45593999997E+02  0.45594000000E+02  0.51100000000E-03 0. -1.
    9900012    2    1    2    0    0  0.18403898184E+02 -0.29253065666E+01 -0.41010396188E+02  0.46142317827E+02  0.10000000602E+02 0.  0.
        -12    1    1    2    0    0 -0.18403898184E+02  0.29253065666E+01  0.41010396188E+02  0.45045682173E+02  0.00000000000E+00 0.  1.
         11    1    3    3    0    0  0.10922500597E+02 -0.18744403150E+01 -0.17676824978E+02  0.20863477356E+02  0.51100000000E-03 0. -1.
        -11    1    3    3    0    0  0.51059362830E+00 -0.20791516381E+01 -0.25295427199E+01  0.33139348244E+01  0.51100000000E-03 0.  1.
         12    1    3    3    0    0  0.69708039589E+01  0.10282853865E+01 -0.20804028490E+02  0.21964905647E+02  0.00000000000E+00 0. -1.
</event>
<event>
 7    1  0.3846293E-008  0.4614232E+02  0.7816164E-02  0.1320468E+00
        -11   -1    0    0    0    0  0.00000000000E+00  0.00000000000E+00  0.45593999997E+02  0.45594000000E+02  0.51100000000E-03 0.  1.
         11   -1    0    0    0    0 -0.00000000000E+00 -0.00000000000E+00 -0.45593999997E+02  0.45594000000E+02  0.51100000000E-03 0. -1.
    9900012    2    1    2    0    0 -0.28288850488E+02 -0.14258027431E+02 -0.32024414257E+02  0.46142317446E+02  0.99999971305E+01 0.  0.
        -12    1    1    2    0    0  0.28288850488E+02  0.14258027431E+02  0.32024414257E+02  0.45045682554E+02  0.00000000000E+00 0.  1.
         11    1    3    3    0    0 -0.72130327971E+01 -0.62738152930E+01 -0.74442212184E+01  0.12116312569E+02  0.51100000000E-03 0. -1.
        -11    1    3    3    0    0 -0.20137978143E+02 -0.73290748090E+01 -0.20027561242E+02  0.29331837835E+02  0.51100000000E-03 0.  1.
        -12    1    3    3    0    0 -0.93783954863E+00 -0.65513732945E+00 -0.45526317972E+01  0.46941670423E+01  0.00000000000E+00 0.  1.
</event>
<event>
 7    1  0.3846293E-008  0.4614232E+02  0.7816164E-02  0.1320468E+00
        -11   -1    0    0    0    0  0.00000000000E+00  0.00000000000E+00  0.45593999997E+02  0.45594000000E+02  0.51100000000E-03 0.  1.
         11   -1    0    0    0    0 -0.00000000000E+00 -0.00000000000E+00 -0.45593999997E+02  0.45594000000E+02  0.51100000000E-03 0. -1.
    9900012    2    1    2    0    0  0.31737555301E+02 -0.18658505976E+01 -0.31911746691E+02  0.46142318833E+02  0.10000009772E+02 0.  0.
        -12    1    1    2    0    0 -0.31737555301E+02  0.18658505976E+01  0.31911746691E+02  0.45045681167E+02  0.00000000000E+00 0.  1.
         11    1    3    3    0    0  0.18907872848E+01 -0.17457611596E+01 -0.57356580733E+01  0.62865358010E+01  0.51100000000E-03 0.  1.
        -11    1    3    3    0    0  0.45355621812E+01 -0.12579262173E+01 -0.45057199318E+01  0.65157666497E+01  0.51100000000E-03 0. -1.
        -12    1    3    3    0    0  0.25311205835E+02  0.11378367793E+01 -0.21670368686E+02  0.33340016382E+02  0.00000000000E+00 0.  1.
</event>
<event>
 7    1  0.3846293E-008  0.4614232E+02  0.7816164E-02  0.1320468E+00
        -11   -1    0    0    0    0  0.00000000000E+00  0.00000000000E+00  0.45593999997E+02  0.45594000000E+02  0.51100000000E-03 0. -1.
         11   -1    0    0    0    0 -0.00000000000E+00 -0.00000000000E+00 -0.45593999997E+02  0.45594000000E+02  0.51100000000E-03 0.  1.
    9900012    2    1    2    0    0 -0.34150949686E+02 -0.29352141438E+02  0.11304343639E+01  0.46142318151E+02  0.10000003552E+02 0.  0.
        -12    1    1    2    0    0  0.34150949686E+02  0.29352141438E+02 -0.11304343639E+01  0.45045681849E+02  0.00000000000E+00 0.  1.
         11    1    3    3    0    0 -0.12122093784E+02 -0.84507328162E+01  0.39626969008E+01  0.15299117943E+02  0.51100000000E-03 0. -1.
        -11    1    3    3    0    0 -0.28649350874E+01 -0.45870589276E+01  0.60452768518E+00  0.54419129581E+01  0.51100000000E-03 0.  1.
         12    1    3    3    0    0 -0.19163920814E+02 -0.16314349694E+02 -0.34367902221E+01  0.25401287249E+02  0.00000000000E+00 0. -1.
</event>
<event>
 7    1  0.3846293E-008  0.4614232E+02  0.7816164E-02  0.1320468E+00
        -11   -1    0    0    0    0  0.00000000000E+00  0.00000000000E+00  0.45593999997E+02  0.45594000000E+02  0.51100000000E-03 0. -1.
         11   -1    0    0    0    0 -0.00000000000E+00 -0.00000000000E+00 -0.45593999997E+02  0.45594000000E+02  0.51100000000E-03 0.  1.
    9900012    2    1    2    0    0 -0.16127781389E+02  0.11713555508E+02  0.40395553663E+02  0.46142317955E+02  0.10000001768E+02 0.  0.
        -12    1    1    2    0    0  0.16127781389E+02 -0.11713555508E+02 -0.40395553663E+02  0.45045682045E+02  0.00000000000E+00 0.  1.
         11    1    3    3    0    0 -0.28118914996E+01  0.14321704163E+00  0.12067904272E+02  0.12391995752E+02  0.51100000000E-03 0.  1.
        -11    1    3    3    0    0 -0.57954768442E+01  0.28367765517E+01  0.13565691369E+02  0.15022078273E+02  0.51100000000E-03 0. -1.
        -12    1    3    3    0    0 -0.75204130455E+01  0.87335619143E+01  0.14761958022E+02  0.18728243931E+02  0.00000000000E+00 0.  1.
</event>
<event>
 7    1  0.3846293E-008  0.4614231E+02  0.7816164E-02  0.1320468E+00
        -11   -1    0    0    0    0  0.00000000000E+00  0.00000000000E+00  0.45593999997E+02  0.45594000000E+02  0.51100000000E-03 0.  1.
         11   -1    0    0    0    0 -0.00000000000E+00 -0.00000000000E+00 -0.45593999997E+02  0.45594000000E+02  0.51100000000E-03 0. -1.
    9900012    2    1    2    0    0  0.32840617711E+02 -0.27784956949E+02 -0.13364276242E+02  0.46142313372E+02  0.99999599761E+01 0.  0.
        -12    1    1    2    0    0 -0.32840617711E+02  0.27784956949E+02  0.13364276242E+02  0.45045686628E+02  0.00000000000E+00 0.  1.
         11    1    3    3    0    0  0.15470440093E+01 -0.15580220266E+01 -0.24215152018E+01  0.32687174757E+01  0.51100000000E-03 0. -1.
        -11    1    3    3    0    0  0.30930929707E+02 -0.23874966724E+02 -0.10356408452E+02  0.40422662516E+02  0.51100000000E-03 0.  1.
         12    1    3    3    0    0  0.36264399465E+00 -0.23519681992E+01 -0.58635258807E+00  0.24509333802E+01  0.00000000000E+00 0. -1.
</event>
<event>
 7    1  0.3846293E-008  0.4614232E+02  0.7816164E-02  0.1320468E+00
        -11   -1    0    0    0    0  0.00000000000E+00  0.00000000000E+00  0.45593999997E+02  0.45594000000E+02  0.51100000000E-03 0.  1.
         11   -1    0    0    0    0 -0.00000000000E+00 -0.00000000000E+00 -0.45593999997E+02  0.45594000000E+02  0.51100000000E-03 0. -1.
    9900012    2    1    2    0    0 -0.32894119636E+02  0.45306071262E+01 -0.30439513354E+02  0.46142317845E+02  0.10000000768E+02 0.  0.
        -12    1    1    2    0    0  0.32894119636E+02 -0.45306071262E+01  0.30439513354E+02  0.45045682155E+02  0.00000000000E+00 0.  1.
         11    1    3    3    0    0 -0.20179235705E+01  0.18937086692E+01 -0.66357680321E+00  0.28457832832E+01  0.51100000000E-03 0. -1.
        -11    1    3    3    0    0 -0.26087554683E+01 -0.74164080489E+00 -0.12195328532E+01  0.29737008622E+01  0.51100000000E-03 0.  1.
         12    1    3    3    0    0 -0.28267440597E+02  0.33785392620E+01 -0.28556403697E+02  0.40322833700E+02  0.00000000000E+00 0. -1.
</event>
<event>
 7    1  0.3846293E-008  0.4614232E+02  0.7816164E-02  0.1320468E+00
        -11   -1    0    0    0    0  0.00000000000E+00  0.00000000000E+00  0.45593999997E+02  0.45594000000E+02  0.51100000000E-03 0.  1.
         11   -1    0    0    0    0 -0.00000000000E+00 -0.00000000000E+00 -0.45593999997E+02  0.45594000000E+02  0.51100000000E-03 0. -1.
    9900012    2    1    2    0    0  0.24499783265E+02  0.36349605991E+02 -0.10372091600E+02  0.46142317411E+02  0.99999968097E+01 0.  0.
        -12    1    1    2    0    0 -0.24499783265E+02 -0.36349605991E+02  0.10372091600E+02  0.45045682589E+02  0.00000000000E+00 0.  1.
         11    1    3    3    0    0  0.11516490790E+02  0.15547311843E+02 -0.16330495239E+01  0.19416882259E+02  0.51100000000E-03 0. -1.
        -11    1    3    3    0    0  0.70028939434E+01  0.14383281841E+02 -0.30966059450E+01  0.16294425082E+02  0.51100000000E-03 0.  1.
        -12    1    3    3    0    0  0.59803985313E+01  0.64190123067E+01 -0.56424361313E+01  0.10431010070E+02  0.00000000000E+00 0.  1.
</event>
<event>
 7    1  0.3846293E-008  0.4614232E+02  0.7816164E-02  0.1320468E+00
        -11   -1    0    0    0    0  0.00000000000E+00  0.00000000000E+00  0.45593999997E+02  0.45594000000E+02  0.51100000000E-03 0.  1.
         11   -1    0    0    0    0 -0.00000000000E+00 -0.00000000000E+00 -0.45593999997E+02  0.45594000000E+02  0.51100000000E-03 0. -1.
    9900012    2    1    2    0    0  0.69797986413E+01  0.20331002326E+02 -0.39585934497E+02  0.46142318136E+02  0.10000003414E+02 0.  0.
        -12    1    1    2    0    0 -0.69797986413E+01 -0.20331002326E+02  0.39585934497E+02  0.45045681864E+02  0.00000000000E+00 0.  1.
         11    1    3    3    0    0  0.25088630352E+01  0.12536549765E+02 -0.21826843667E+02  0.25295663234E+02  0.51100000000E-03 0. -1.
        -11    1    3    3    0    0  0.28925218156E+01  0.80831017635E+01 -0.17056026289E+02  0.19094796401E+02  0.51100000000E-03 0.  1.
        -12    1    3    3    0    0  0.15784137905E+01 -0.28864920279E+00 -0.70306454153E+00  0.17518585005E+01  0.00000000000E+00 0.  1.
</event>
<event>
 7    1  0.3846293E-008  0.4614232E+02  0.7816164E-02  0.1320468E+00
        -11   -1    0    0    0    0  0.00000000000E+00  0.00000000000E+00  0.45593999997E+02  0.45594000000E+02  0.51100000000E-03 0.  1.
         11   -1    0    0    0    0 -0.00000000000E+00 -0.00000000000E+00 -0.45593999997E+02  0.45594000000E+02  0.51100000000E-03 0. -1.
    9900012    2    1    2    0    0 -0.29612424835E+02 -0.30745489029E+01 -0.33804805838E+02  0.46142318150E+02  0.10000003549E+02 0.  0.
        -12    1    1    2    0    0  0.29612424835E+02  0.30745489029E+01  0.33804805838E+02  0.45045681850E+02  0.00000000000E+00 0.  1.
         11    1    3    3    0    0 -0.13271300258E+02  0.18014471601E+01 -0.17167684551E+02  0.21773883795E+02  0.51100000000E-03 0. -1.
        -11    1    3    3    0    0 -0.15362833553E+01  0.63043321443E+00 -0.38448346521E+00  0.17045352393E+01  0.51100000000E-03 0.  1.
        -12    1    3    3    0    0 -0.14804841221E+02 -0.55064292774E+01 -0.16252637821E+02  0.22663899116E+02  0.00000000000E+00 0.  1.
</event>
<event>
 7    1  0.3846293E-008  0.4614231E+02  0.7816164E-02  0.1320468E+00
        -11   -1    0    0    0    0  0.00000000000E+00  0.00000000000E+00  0.45593999997E+02  0.45594000000E+02  0.51100000000E-03 0. -1.
         11   -1    0    0    0    0 -0.00000000000E+00 -0.00000000000E+00 -0.45593999997E+02  0.45594000000E+02  0.51100000000E-03 0.  1.
    9900012    2    1    2    0    0  0.27975546904E+02  0.21667863783E+02  0.27874475083E+02  0.46142313118E+02  0.99999576630E+01 0.  0.
        -12    1    1    2    0    0 -0.27975546904E+02 -0.21667863783E+02 -0.27874475083E+02  0.45045686882E+02  0.00000000000E+00 0.  1.
         11    1    3    3    0    0  0.21968262758E+02  0.17478363145E+02  0.25107180035E+02  0.37662557486E+02  0.51100000000E-03 0. -1.
        -11    1    3    3    0    0  0.58213953562E+01  0.43778023363E+01  0.32133551634E+01  0.79611210803E+01  0.51100000000E-03 0.  1.
        -12    1    3    3    0    0  0.18588878962E+00 -0.18830169852E+00 -0.44606011522E+00  0.51863455165E+00  0.00000000000E+00 0.  1.
</event>
<event>
 7    1  0.3846293E-008  0.4614232E+02  0.7816164E-02  0.1320468E+00
        -11   -1    0    0    0    0  0.00000000000E+00  0.00000000000E+00  0.45593999997E+02  0.45594000000E+02  0.51100000000E-03 0.  1.
         11   -1    0    0    0    0 -0.00000000000E+00 -0.00000000000E+00 -0.45593999997E+02  0.45594000000E+02  0.51100000000E-03 0. -1.
    9900012    2    1    2    0    0  0.74331216545E+01  0.44374341865E+00 -0.44425952146E+02  0.46142318411E+02  0.10000005929E+02 0.  0.
        -12    1    1    2    0    0 -0.74331216545E+01 -0.44374341865E+00  0.44425952146E+02  0.45045681589E+02  0.00000000000E+00 0.  1.
         11    1    3    3    0    0  0.54615827924E+01 -0.29882753254E+00 -0.28521590354E+02  0.29041337798E+02  0.51100000000E-03 0. -1.
        -11    1    3    3    0    0 -0.15921179960E+01  0.17968818353E+01 -0.44149445256E+01  0.50254710693E+01  0.51100000000E-03 0.  1.
         12    1    3    3    0    0  0.35636568582E+01 -0.10543108841E+01 -0.11489417266E+02  0.12075509544E+02  0.00000000000E+00 0. -1.
</event>
<event>
 7    1  0.3846293E-008  0.4614232E+02  0.7816164E-02  0.1320468E+00
        -11   -1    0    0    0    0  0.00000000000E+00  0.00000000000E+00  0.45593999997E+02  0.45594000000E+02  0.51100000000E-03 0.  1.
         11   -1    0    0    0    0 -0.00000000000E+00 -0.00000000000E+00 -0.45593999997E+02  0.45594000000E+02  0.51100000000E-03 0. -1.
    9900012    2    1    2    0    0 -0.10273629632E+02 -0.39565303872E+02 -0.18924924304E+02  0.46142317674E+02  0.99999992083E+01 0.  0.
        -12    1    1    2    0    0  0.10273629632E+02  0.39565303872E+02  0.18924924304E+02  0.45045682326E+02  0.00000000000E+00 0.  1.
         11    1    3    3    0    0 -0.47845232121E+00 -0.70406815551E+01 -0.12770787257E+01  0.71715440260E+01  0.51100000000E-03 0. -1.
        -11    1    3    3    0    0 -0.88928880242E+01 -0.17264762533E+02 -0.89578843309E+01  0.21386892591E+02  0.51100000000E-03 0.  1.
        -12    1    3    3    0    0 -0.90228928649E+00 -0.15259859783E+02 -0.86899612476E+01  0.17583881057E+02  0.00000000000E+00 0.  1.
</event>
<event>
 7    1  0.3846293E-008  0.4614232E+02  0.7816164E-02  0.1320468E+00
        -11   -1    0    0    0    0  0.00000000000E+00  0.00000000000E+00  0.45593999997E+02  0.45594000000E+02  0.51100000000E-03 0. -1.
         11   -1    0    0    0    0 -0.00000000000E+00 -0.00000000000E+00 -0.45593999997E+02  0.45594000000E+02  0.51100000000E-03 0.  1.
    9900012    2    1    2    0    0 -0.50384152688E+01 -0.40015310084E+02 -0.20062474192E+02  0.46142317185E+02  0.99999947457E+01 0.  0.
        -12    1    1    2    0    0  0.50384152688E+01  0.40015310084E+02  0.20062474192E+02  0.45045682815E+02  0.00000000000E+00 0.  1.
         11    1    3    3    0    0 -0.34875636494E+01 -0.99399283583E+01 -0.85170976410E+01  0.13546447079E+02  0.51100000000E-03 0. -1.
        -11    1    3    3    0    0 -0.11070916081E+01 -0.90222151627E+01 -0.13151175885E+01  0.91845279031E+01  0.51100000000E-03 0.  1.
         12    1    3    3    0    0 -0.44376001129E+00 -0.21053166564E+02 -0.10230258962E+02  0.23411342203E+02  0.00000000000E+00 0. -1.
</event>
<event>
 7    1  0.3846293E-008  0.4614232E+02  0.7816164E-02  0.1320468E+00
        -11   -1    0    0    0    0  0.00000000000E+00  0.00000000000E+00  0.45593999997E+02  0.45594000000E+02  0.51100000000E-03 0. -1.
         11   -1    0    0    0    0 -0.00000000000E+00 -0.00000000000E+00 -0.45593999997E+02  0.45594000000E+02  0.51100000000E-03 0.  1.
    9900012    2    1    2    0    0 -0.20266586566E+02  0.12870722479E+02  0.38114608899E+02  0.46142318301E+02  0.10000004924E+02 0.  0.
        -12    1    1    2    0    0  0.20266586566E+02 -0.12870722479E+02 -0.38114608899E+02  0.45045681699E+02  0.00000000000E+00 0.  1.
         11    1    3    3    0    0 -0.43843771136E+01  0.36046011933E+01  0.47123531177E+01  0.73771393239E+01  0.51100000000E-03 0. -1.
        -11    1    3    3    0    0 -0.34958237717E+01 -0.89992725388E+00  0.52349479139E+01  0.63588782680E+01  0.51100000000E-03 0.  1.
         12    1    3    3    0    0 -0.12386385681E+02  0.10166048539E+02  0.28167307868E+02  0.32406300709E+02  0.00000000000E+00 0. -1.
</event>
<event>
 7    1  0.3846293E-008  0.4614232E+02  0.7816164E-02  0.1320468E+00
        -11   -1    0    0    0    0  0.00000000000E+00  0.00000000000E+00  0.45593999997E+02  0.45594000000E+02  0.51100000000E-03 0.  1.
         11   -1    0    0    0    0 -0.00000000000E+00 -0.00000000000E+00 -0.45593999997E+02  0.45594000000E+02  0.51100000000E-03 0. -1.
    9900012    2    1    2    0    0 -0.41992527200E+02  0.16271947988E+02  0.98225732091E+00  0.46142318060E+02  0.10000002729E+02 0.  0.
        -12    1    1    2    0    0  0.41992527200E+02 -0.16271947988E+02 -0.98225732091E+00  0.45045681940E+02  0.00000000000E+00 0.  1.
         11    1    3    3    0    0 -0.11332635412E+02  0.84962985743E+01  0.17850124843E+00  0.14165012453E+02  0.51100000000E-03 0.  1.
        -11    1    3    3    0    0 -0.14842621170E+02  0.54316956284E+01  0.20555390818E+01  0.15938380149E+02  0.51100000000E-03 0. -1.
        -12    1    3    3    0    0 -0.15817270618E+02  0.23439537855E+01 -0.12517830093E+01  0.16038925458E+02  0.00000000000E+00 0.  1.
</event>
<event>
 7    1  0.3846293E-008  0.4614232E+02  0.7816164E-02  0.1320468E+00
        -11   -1    0    0    0    0  0.00000000000E+00  0.00000000000E+00  0.45593999997E+02  0.45594000000E+02  0.51100000000E-03 0. -1.
         11   -1    0    0    0    0 -0.00000000000E+00 -0.00000000000E+00 -0.45593999997E+02  0.45594000000E+02  0.51100000000E-03 0.  1.
    9900012    2    1    2    0    0  0.44287075008E+02  0.75210544978E+01 -0.33469929146E+01  0.46142316132E+02  0.99999851451E+01 0.  0.
        -12    1    1    2    0    0 -0.44287075008E+02 -0.75210544978E+01  0.33469929146E+01  0.45045683868E+02  0.00000000000E+00 0.  1.
         11    1    3    3    0    0  0.29558987313E+02  0.50024043135E+01 -0.20766262580E+01  0.30051125715E+02  0.51100000000E-03 0. -1.
        -11    1    3    3    0    0  0.10429793840E+02  0.43848436403E+01 -0.14204116623E+01  0.11402851522E+02  0.51100000000E-03 0.  1.
        -12    1    3    3    0    0  0.42982938560E+01 -0.18661934560E+01  0.15004500565E+00  0.46883388946E+01  0.00000000000E+00 0.  1.
</event>
<event>
 7    1  0.3846293E-008  0.4614232E+02  0.7816164E-02  0.1320468E+00
        -11   -1    0    0    0    0  0.00000000000E+00  0.00000000000E+00  0.45593999997E+02  0.45594000000E+02  0.51100000000E-03 0.  1.
         11   -1    0    0    0    0 -0.00000000000E+00 -0.00000000000E+00 -0.45593999997E+02  0.45594000000E+02  0.51100000000E-03 0. -1.
    9900012    2    1    2    0    0  0.13658650705E+02  0.79761613840E+01 -0.42177430384E+02  0.46142317373E+02  0.99999964639E+01 0.  0.
        -12    1    1    2    0    0 -0.13658650705E+02 -0.79761613840E+01  0.42177430384E+02  0.45045682627E+02  0.00000000000E+00 0.  1.
         11    1    3    3    0    0  0.59566026087E+01  0.16947296271E+01 -0.20667224357E+02  0.21575156686E+02  0.51100000000E-03 0. -1.
        -11    1    3    3    0    0  0.76963166744E+01  0.65745607440E+01 -0.21872481921E+02  0.24101112111E+02  0.51100000000E-03 0.  1.
        -12    1    3    3    0    0  0.57314214070E-02 -0.29312898712E+00  0.36227589389E+00  0.46604857641E+00  0.00000000000E+00 0.  1.
</event>
<event>
 7    1  0.3846293E-008  0.4614232E+02  0.7816164E-02  0.1320468E+00
        -11   -1    0    0    0    0  0.00000000000E+00  0.00000000000E+00  0.45593999997E+02  0.45594000000E+02  0.51100000000E-03 0. -1.
         11   -1    0    0    0    0 -0.00000000000E+00 -0.00000000000E+00 -0.45593999997E+02  0.45594000000E+02  0.51100000000E-03 0.  1.
    9900012    2    1    2    0    0  0.16111466928E+02  0.39593867737E+02 -0.14207732925E+02  0.46142318699E+02  0.10000008556E+02 0.  0.
        -12    1    1    2    0    0 -0.16111466928E+02 -0.39593867737E+02  0.14207732925E+02  0.45045681301E+02  0.00000000000E+00 0.  1.
         11    1    3    3    0    0  0.80633859199E+01  0.28115360995E+02 -0.78183232012E+01  0.30275698082E+02  0.51100000000E-03 0. -1.
        -11    1    3    3    0    0 -0.96312794639E-01  0.16389082328E+01 -0.14259565780E+00  0.16479169071E+01  0.51100000000E-03 0.  1.
        -12    1    3    3    0    0  0.81443938031E+01  0.98395985092E+01 -0.62468140658E+01  0.14218703711E+02  0.00000000000E+00 0.  1.
</event>
<event>
 7    1  0.3846293E-008  0.4614232E+02  0.7816164E-02  0.1320468E+00
        -11   -1    0    0    0    0  0.00000000000E+00  0.00000000000E+00  0.45593999997E+02  0.45594000000E+02  0.51100000000E-03 0.  1.
         11   -1    0    0    0    0 -0.00000000000E+00 -0.00000000000E+00 -0.45593999997E+02  0.45594000000E+02  0.51100000000E-03 0. -1.
    9900012    2    1    2    0    0 -0.19473836454E+02  0.22177089793E+02 -0.34030279710E+02  0.46142317020E+02  0.99999932463E+01 0.  0.
        -12    1    1    2    0    0  0.19473836454E+02 -0.22177089793E+02  0.34030279710E+02  0.45045682980E+02  0.00000000000E+00 0.  1.
         11    1    3    3    0    0 -0.11910146062E+02  0.16602673657E+02 -0.19470125415E+02  0.28223857562E+02  0.51100000000E-03 0. -1.
        -11    1    3    3    0    0 -0.17819161883E+01  0.18187830077E+01 -0.10567205219E+01  0.27567835341E+01  0.51100000000E-03 0.  1.
         12    1    3    3    0    0 -0.57817742040E+01  0.37556331281E+01 -0.13503433774E+02  0.15161675924E+02  0.00000000000E+00 0. -1.
</event>
<event>
 7    1  0.3846293E-008  0.4614232E+02  0.7816164E-02  0.1320468E+00
        -11   -1    0    0    0    0  0.00000000000E+00  0.00000000000E+00  0.45593999997E+02  0.45594000000E+02  0.51100000000E-03 0.  1.
         11   -1    0    0    0    0 -0.00000000000E+00 -0.00000000000E+00 -0.45593999997E+02  0.45594000000E+02  0.51100000000E-03 0. -1.
    9900012    2    1    2    0    0 -0.11274822820E+02 -0.13236240712E+02 -0.41554708206E+02  0.46142317944E+02  0.10000001667E+02 0.  0.
        -12    1    1    2    0    0  0.11274822820E+02  0.13236240712E+02  0.41554708206E+02  0.45045682056E+02  0.00000000000E+00 0.  1.
         11    1    3    3    0    0 -0.46583893131E+01 -0.29068758473E+01 -0.14413532369E+02  0.15424021324E+02  0.51100000000E-03 0. -1.
        -11    1    3    3    0    0 -0.49543024709E+01 -0.10050740879E+02 -0.26729754591E+02  0.28983482985E+02  0.51100000000E-03 0.  1.
        -12    1    3    3    0    0 -0.16621310363E+01 -0.27862398588E+00 -0.41142124620E+00  0.17348136353E+01  0.00000000000E+00 0.  1.
</event>
<event>
 7    1  0.3846293E-008  0.4614231E+02  0.7816164E-02  0.1320468E+00
        -11   -1    0    0    0    0  0.00000000000E+00  0.00000000000E+00  0.45593999997E+02  0.45594000000E+02  0.51100000000E-03 0. -1.
         11   -1    0    0    0    0 -0.00000000000E+00 -0.00000000000E+00 -0.45593999997E+02  0.45594000000E+02  0.51100000000E-03 0.  1.
    9900012    2    1    2    0    0  0.16577385460E+02  0.25096767310E+02  0.33532915543E+02  0.46142313604E+02  0.99999620915E+01 0.  0.
        -12    1    1    2    0    0 -0.16577385460E+02 -0.25096767310E+02 -0.33532915543E+02  0.45045686396E+02  0.00000000000E+00 0.  1.
         11    1    3    3    0    0  0.82262659298E-01  0.21131315290E+01  0.47519721631E+01  0.52012817367E+01  0.51100000000E-03 0. -1.
        -11    1    3    3    0    0  0.26337793424E+01  0.33543231430E+01  0.84455854957E+01  0.94612996992E+01  0.51100000000E-03 0.  1.
        -12    1    3    3    0    0  0.13861343458E+02  0.19629312638E+02  0.20335357884E+02  0.31479732168E+02  0.00000000000E+00 0.  1.
</event>
<event>
 7    1  0.3846293E-008  0.4614231E+02  0.7816164E-02  0.1320468E+00
        -11   -1    0    0    0    0  0.00000000000E+00  0.00000000000E+00  0.45593999997E+02  0.45594000000E+02  0.51100000000E-03 0.  1.
         11   -1    0    0    0    0 -0.00000000000E+00 -0.00000000000E+00 -0.45593999997E+02  0.45594000000E+02  0.51100000000E-03 0. -1.
    9900012    2    1    2    0    0  0.42016740349E+02  0.11772359673E+02  0.11185655537E+02  0.46142314173E+02  0.99999672846E+01 0.  0.
        -12    1    1    2    0    0 -0.42016740349E+02 -0.11772359673E+02 -0.11185655537E+02  0.45045685827E+02  0.00000000000E+00 0.  1.
         11    1    3    3    0    0  0.31937813568E+02  0.99402956178E+01  0.68082398757E+01  0.34134814236E+02  0.51100000000E-03 0. -1.
        -11    1    3    3    0    0  0.37433157322E+01  0.16585369978E+01 -0.33739729288E+00  0.41081619781E+01  0.51100000000E-03 0.  1.
        -12    1    3    3    0    0  0.63356110486E+01  0.17352705715E+00  0.47148129546E+01  0.78993379593E+01  0.00000000000E+00 0.  1.
</event>
<event>
 7    1  0.3846293E-008  0.4614232E+02  0.7816164E-02  0.1320468E+00
        -11   -1    0    0    0    0  0.00000000000E+00  0.00000000000E+00  0.45593999997E+02  0.45594000000E+02  0.51100000000E-03 0.  1.
         11   -1    0    0    0    0 -0.00000000000E+00 -0.00000000000E+00 -0.45593999997E+02  0.45594000000E+02  0.51100000000E-03 0. -1.
    9900012    2    1    2    0    0  0.25636330775E+02 -0.22216466354E+02 -0.29636475151E+02  0.46142317718E+02  0.99999996087E+01 0.  0.
        -12    1    1    2    0    0 -0.25636330775E+02  0.22216466354E+02  0.29636475151E+02  0.45045682282E+02  0.00000000000E+00 0.  1.
         11    1    3    3    0    0  0.56356935740E+01 -0.36494975371E+01 -0.56372959439E+01  0.87669253535E+01  0.51100000000E-03 0. -1.
        -11    1    3    3    0    0  0.44777544518E+00  0.62009449288E+00  0.23492666240E+00  0.80013175617E+00  0.51100000000E-03 0.  1.
         12    1    3    3    0    0  0.19552861756E+02 -0.19187063310E+02 -0.24234105869E+02  0.36575260609E+02  0.00000000000E+00 0. -1.
</event>
<event>
 7    1  0.3846293E-008  0.4614232E+02  0.7816164E-02  0.1320468E+00
        -11   -1    0    0    0    0  0.00000000000E+00  0.00000000000E+00  0.45593999997E+02  0.45594000000E+02  0.51100000000E-03 0.  1.
         11   -1    0    0    0    0 -0.00000000000E+00 -0.00000000000E+00 -0.45593999997E+02  0.45594000000E+02  0.51100000000E-03 0. -1.
    9900012    2    1    2    0    0 -0.43845884719E+01  0.39824397576E+02 -0.20588982644E+02  0.46142318024E+02  0.10000002396E+02 0.  0.
        -12    1    1    2    0    0  0.43845884719E+01 -0.39824397576E+02  0.20588982644E+02  0.45045681976E+02  0.00000000000E+00 0.  1.
         11    1    3    3    0    0  0.14020878354E+01  0.98069207909E+01 -0.33739744283E+01  0.10465431162E+02  0.51100000000E-03 0. -1.
        -11    1    3    3    0    0 -0.37968355319E+01  0.28005114829E+02 -0.16616364767E+02  0.32784233939E+02  0.51100000000E-03 0.  1.
         12    1    3    3    0    0 -0.19898407755E+01  0.20123619562E+01 -0.59864344905E+00  0.28926529231E+01  0.00000000000E+00 0. -1.
</event>
<event>
 7    1  0.3846293E-008  0.4614232E+02  0.7816164E-02  0.1320468E+00
        -11   -1    0    0    0    0  0.00000000000E+00  0.00000000000E+00  0.45593999997E+02  0.45594000000E+02  0.51100000000E-03 0. -1.
         11   -1    0    0    0    0 -0.00000000000E+00 -0.00000000000E+00 -0.45593999997E+02  0.45594000000E+02  0.51100000000E-03 0.  1.
    9900012    2    1    2    0    0  0.21812713261E+02 -0.14258788438E+02  0.36742428014E+02  0.46142317366E+02  0.99999964002E+01 0.  0.
        -12    1    1    2    0    0 -0.21812713261E+02  0.14258788438E+02 -0.36742428014E+02  0.45045682634E+02  0.00000000000E+00 0.  1.
         11    1    3    3    0    0  0.16669780142E+02 -0.99260021328E+01  0.24545365751E+02  0.31287091083E+02  0.51100000000E-03 0. -1.
        -11    1    3    3    0    0  0.53862739863E+01 -0.15452227037E+01  0.90474142775E+01  0.10642150442E+02  0.51100000000E-03 0.  1.
        -12    1    3    3    0    0 -0.24334086712E+00 -0.27875636014E+01  0.31496479857E+01  0.42130758411E+01  0.00000000000E+00 0.  1.
</event>
<event>
 7    1  0.3846293E-008  0.4614232E+02  0.7816164E-02  0.1320468E+00
        -11   -1    0    0    0    0  0.00000000000E+00  0.00000000000E+00  0.45593999997E+02  0.45594000000E+02  0.51100000000E-03 0.  1.
         11   -1    0    0    0    0 -0.00000000000E+00 -0.00000000000E+00 -0.45593999997E+02  0.45594000000E+02  0.51100000000E-03 0. -1.
    9900012    2    1    2    0    0 -0.37145907241E+02  0.13180861754E+02 -0.21807335517E+02  0.46142318479E+02  0.10000006546E+02 0.  0.
        -12    1    1    2    0    0  0.37145907241E+02 -0.13180861754E+02  0.21807335517E+02  0.45045681521E+02  0.00000000000E+00 0.  1.
         11    1    3    3    0    0 -0.19706865085E+01  0.31582355412E+00  0.54741725004E+00  0.20695448144E+01  0.51100000000E-03 0.  1.
        -11    1    3    3    0    0 -0.15688459828E+02  0.56413497910E+01 -0.13624797046E+02  0.21531086689E+02  0.51100000000E-03 0. -1.
         12    1    3    3    0    0 -0.19486760905E+02  0.72236884089E+01 -0.87299557216E+01  0.22541686975E+02  0.00000000000E+00 0. -1.
</event>
<event>
 7    1  0.3846293E-008  0.4614232E+02  0.7816164E-02  0.1320468E+00
        -11   -1    0    0    0    0  0.00000000000E+00  0.00000000000E+00  0.45593999997E+02  0.45594000000E+02  0.51100000000E-03 0. -1.
         11   -1    0    0    0    0 -0.00000000000E+00 -0.00000000000E+00 -0.45593999997E+02  0.45594000000E+02  0.51100000000E-03 0.  1.
    9900012    2    1    2    0    0  0.12803178473E+02  0.42608290500E+02 -0.70516461874E+01  0.46142317496E+02  0.99999975806E+01 0.  0.
        -12    1    1    2    0    0 -0.12803178473E+02 -0.42608290500E+02  0.70516461874E+01  0.45045682504E+02  0.00000000000E+00 0.  1.
         11    1    3    3    0    0  0.21726135572E+01  0.52850490704E+01 -0.81141724536E+00  0.57715155334E+01  0.51100000000E-03 0. -1.
        -11    1    3    3    0    0  0.10112356428E+02  0.21849663260E+02 -0.63059794595E+01  0.24888409236E+02  0.51100000000E-03 0.  1.
         12    1    3    3    0    0  0.51820848805E+00  0.15473578170E+02  0.65750517467E-01  0.15482392727E+02  0.00000000000E+00 0. -1.
</event>
<event>
 7    1  0.3846293E-008  0.4614232E+02  0.7816164E-02  0.1320468E+00
        -11   -1    0    0    0    0  0.00000000000E+00  0.00000000000E+00  0.45593999997E+02  0.45594000000E+02  0.51100000000E-03 0.  1.
         11   -1    0    0    0    0 -0.00000000000E+00 -0.00000000000E+00 -0.45593999997E+02  0.45594000000E+02  0.51100000000E-03 0. -1.
    9900012    2    1    2    0    0  0.22329577384E+02 -0.24405753254E+02 -0.30575526847E+02  0.46142315856E+02  0.99999826264E+01 0.  0.
        -12    1    1    2    0    0 -0.22329577384E+02  0.24405753254E+02  0.30575526847E+02  0.45045684144E+02  0.00000000000E+00 0.  1.
         11    1    3    3    0    0  0.59527328371E+01 -0.65732929222E+01 -0.84850840534E+01  0.12273543080E+02  0.51100000000E-03 0. -1.
        -11    1    3    3    0    0  0.46664187931E+01 -0.78699584248E+01 -0.13346307740E+02  0.16181336178E+02  0.51100000000E-03 0.  1.
        -12    1    3    3    0    0  0.11710425754E+02 -0.99625019070E+01 -0.87441350541E+01  0.17687436598E+02  0.00000000000E+00 0.  1.
</event>
<event>
 7    1  0.3846293E-008  0.4614232E+02  0.7816164E-02  0.1320468E+00
        -11   -1    0    0    0    0  0.00000000000E+00  0.00000000000E+00  0.45593999997E+02  0.45594000000E+02  0.51100000000E-03 0. -1.
         11   -1    0    0    0    0 -0.00000000000E+00 -0.00000000000E+00 -0.45593999997E+02  0.45594000000E+02  0.51100000000E-03 0.  1.
    9900012    2    1    2    0    0 -0.28305098032E+02  0.35030804277E+02  0.88186774350E+00  0.46142317481E+02  0.99999974462E+01 0.  0.
        -12    1    1    2    0    0  0.28305098032E+02 -0.35030804277E+02 -0.88186774350E+00  0.45045682519E+02  0.00000000000E+00 0.  1.
         11    1    3    3    0    0 -0.20047679225E+02  0.25470378239E+02  0.34558539202E+01  0.32597431441E+02  0.51100000000E-03 0. -1.
        -11    1    3    3    0    0 -0.43830421286E+01  0.21370041754E+01 -0.15053451023E+01  0.51033233569E+01  0.51100000000E-03 0.  1.
         12    1    3    3    0    0 -0.38743766778E+01  0.74234218622E+01 -0.10686410745E+01  0.84415626830E+01  0.00000000000E+00 0. -1.
</event>
<event>
 7    1  0.3846293E-008  0.4614232E+02  0.7816164E-02  0.1320468E+00
        -11   -1    0    0    0    0  0.00000000000E+00  0.00000000000E+00  0.45593999997E+02  0.45594000000E+02  0.51100000000E-03 0.  1.
         11   -1    0    0    0    0 -0.00000000000E+00 -0.00000000000E+00 -0.45593999997E+02  0.45594000000E+02  0.51100000000E-03 0. -1.
    9900012    2    1    2    0    0 -0.12168761457E+01  0.29717923383E+02 -0.33830129857E+02  0.46142318255E+02  0.10000004499E+02 0.  0.
        -12    1    1    2    0    0  0.12168761457E+01 -0.29717923383E+02  0.33830129857E+02  0.45045681745E+02  0.00000000000E+00 0.  1.
         11    1    3    3    0    0  0.13671023048E+01  0.16390302730E+00 -0.10362958599E+01  0.17232940215E+01  0.51100000000E-03 0. -1.
        -11    1    3    3    0    0 -0.27518993197E+01  0.14510595686E+02 -0.18441479443E+02  0.23626648119E+02  0.51100000000E-03 0.  1.
         12    1    3    3    0    0  0.16792086912E+00  0.15043424670E+02 -0.14352354554E+02  0.20792376114E+02  0.00000000000E+00 0. -1.
</event>
<event>
 7    1  0.3846293E-008  0.4614231E+02  0.7816164E-02  0.1320468E+00
        -11   -1    0    0    0    0  0.00000000000E+00  0.00000000000E+00  0.45593999997E+02  0.45594000000E+02  0.51100000000E-03 0. -1.
         11   -1    0    0    0    0 -0.00000000000E+00 -0.00000000000E+00 -0.45593999997E+02  0.45594000000E+02  0.51100000000E-03 0.  1.
    9900012    2    1    2    0    0  0.11141914946E+02  0.43500262924E+02 -0.35635256321E+01  0.46142313658E+02  0.99999625821E+01 0.  0.
        -12    1    1    2    0    0 -0.11141914946E+02 -0.43500262924E+02  0.35635256321E+01  0.45045686342E+02  0.00000000000E+00 0.  1.
         11    1    3    3    0    0  0.91907632942E+00  0.10778882437E+02 -0.19056679591E+01  0.10984560917E+02  0.51100000000E-03 0. -1.
        -11    1    3    3    0    0  0.67694060400E+01  0.29875425083E+02 -0.17381146557E+01  0.30682029347E+02  0.51100000000E-03 0.  1.
        -12    1    3    3    0    0  0.34534325763E+01  0.28459554034E+01  0.80256982736E-01  0.44757233940E+01  0.00000000000E+00 0.  1.
</event>
<event>
 7    1  0.3846293E-008  0.4614232E+02  0.7816164E-02  0.1320468E+00
        -11   -1    0    0    0    0  0.00000000000E+00  0.00000000000E+00  0.45593999997E+02  0.45594000000E+02  0.51100000000E-03 0.  1.
         11   -1    0    0    0    0 -0.00000000000E+00 -0.00000000000E+00 -0.45593999997E+02  0.45594000000E+02  0.51100000000E-03 0. -1.
    9900012    2    1    2    0    0  0.11602582866E+02 -0.33864156741E+02 -0.27344333257E+02  0.46142316497E+02  0.99999884765E+01 0.  0.
        -12    1    1    2    0    0 -0.11602582866E+02  0.33864156741E+02  0.27344333257E+02  0.45045683503E+02  0.00000000000E+00 0.  1.
         11    1    3    3    0    0  0.10881211009E+02 -0.23233062665E+02 -0.20141198349E+02  0.32616618847E+02  0.51100000000E-03 0. -1.
        -11    1    3    3    0    0  0.22016914261E+00 -0.76393223942E+01 -0.27187505897E+01  0.81116783789E+01  0.51100000000E-03 0.  1.
         12    1    3    3    0    0  0.50120271478E+00 -0.29917716820E+01 -0.44843843184E+01  0.54140192717E+01  0.00000000000E+00 0. -1.
</event>
<event>
 7    1  0.3846293E-008  0.4614232E+02  0.7816164E-02  0.1320468E+00
        -11   -1    0    0    0    0  0.00000000000E+00  0.00000000000E+00  0.45593999997E+02  0.45594000000E+02  0.51100000000E-03 0. -1.
         11   -1    0    0    0    0 -0.00000000000E+00 -0.00000000000E+00 -0.45593999997E+02  0.45594000000E+02  0.51100000000E-03 0.  1.
    9900012    2    1    2    0    0 -0.18646011406E+02 -0.12795884368E+02  0.38957736309E+02  0.46142316340E+02  0.99999870424E+01 0.  0.
        -12    1    1    2    0    0  0.18646011406E+02  0.12795884368E+02 -0.38957736309E+02  0.45045683660E+02  0.00000000000E+00 0.  1.
         11    1    3    3    0    0 -0.34137811888E+00 -0.34647552661E+01  0.90938803750E+01  0.97375422263E+01  0.51100000000E-03 0.  1.
        -11    1    3    3    0    0 -0.63361069796E+00 -0.43406841009E+00  0.28497070978E+00  0.81919867417E+00  0.51100000000E-03 0. -1.
         12    1    3    3    0    0 -0.17671022589E+02 -0.88970606915E+01  0.29578885224E+02  0.35585575440E+02  0.00000000000E+00 0. -1.
</event>
<event>
 7    1  0.3846293E-008  0.4614232E+02  0.7816164E-02  0.1320468E+00
        -11   -1    0    0    0    0  0.00000000000E+00  0.00000000000E+00  0.45593999997E+02  0.45594000000E+02  0.51100000000E-03 0.  1.
         11   -1    0    0    0    0 -0.00000000000E+00 -0.00000000000E+00 -0.45593999997E+02  0.45594000000E+02  0.51100000000E-03 0. -1.
    9900012    2    1    2    0    0 -0.76504632098E+01  0.22854626573E+01 -0.44332385016E+02  0.46142319984E+02  0.10000020274E+02 0.  0.
        -12    1    1    2    0    0  0.76504632098E+01 -0.22854626573E+01  0.44332385016E+02  0.45045680016E+02  0.00000000000E+00 0.  1.
         11    1    3    3    0    0 -0.34387547203E+01 -0.18593795035E+01 -0.99675889770E+01  0.10706780863E+02  0.51100000000E-03 0. -1.
        -11    1    3    3    0    0  0.93077779187E+00 -0.97256541715E+00 -0.68029668182E+01  0.69348820162E+01  0.51100000000E-03 0.  1.
         12    1    3    3    0    0 -0.51424862814E+01  0.51174075780E+01 -0.27561829221E+02  0.28500657106E+02  0.00000000000E+00 0. -1.
</event>
<event>
 7    1  0.3846293E-008  0.4614232E+02  0.7816164E-02  0.1320468E+00
        -11   -1    0    0    0    0  0.00000000000E+00  0.00000000000E+00  0.45593999997E+02  0.45594000000E+02  0.51100000000E-03 0.  1.
         11   -1    0    0    0    0 -0.00000000000E+00 -0.00000000000E+00 -0.45593999997E+02  0.45594000000E+02  0.51100000000E-03 0. -1.
    9900012    2    1    2    0    0  0.42914408588E+01  0.20582150385E+02 -0.39838072058E+02  0.46142319137E+02  0.10000012544E+02 0.  0.
        -12    1    1    2    0    0 -0.42914408588E+01 -0.20582150385E+02  0.39838072058E+02  0.45045680863E+02  0.00000000000E+00 0.  1.
         11    1    3    3    0    0  0.19151183588E+01  0.32901592576E+01 -0.25146679847E+01  0.45624972990E+01  0.51100000000E-03 0. -1.
        -11    1    3    3    0    0  0.20668842505E+01  0.34493560249E+01 -0.12809612432E+02  0.13425953911E+02  0.51100000000E-03 0.  1.
        -12    1    3    3    0    0  0.30943824945E+00  0.13842635103E+02 -0.24513791641E+02  0.28153867927E+02  0.00000000000E+00 0.  1.
</event>
<event>
 7    1  0.3846293E-008  0.4614232E+02  0.7816164E-02  0.1320468E+00
        -11   -1    0    0    0    0  0.00000000000E+00  0.00000000000E+00  0.45593999997E+02  0.45594000000E+02  0.51100000000E-03 0.  1.
         11   -1    0    0    0    0 -0.00000000000E+00 -0.00000000000E+00 -0.45593999997E+02  0.45594000000E+02  0.51100000000E-03 0. -1.
    9900012    2    1    2    0    0 -0.43353864223E+02  0.41989623301E+01 -0.11485836955E+02  0.46142320094E+02  0.10000021269E+02 0.  0.
        -12    1    1    2    0    0  0.43353864223E+02 -0.41989623301E+01  0.11485836955E+02  0.45045679906E+02  0.00000000000E+00 0.  1.
         11    1    3    3    0    0 -0.18936841737E+02  0.47846348327E+01 -0.79474839723E+01  0.21086943999E+02  0.51100000000E-03 0. -1.
        -11    1    3    3    0    0 -0.15160579647E+02  0.17015568834E+01 -0.17724249145E+01  0.15358384075E+02  0.51100000000E-03 0.  1.
        -12    1    3    3    0    0 -0.92564428391E+01 -0.22872293860E+01 -0.17659280677E+01  0.96969920201E+01  0.00000000000E+00 0.  1.
</event>
<event>
 7    1  0.3846293E-008  0.4614232E+02  0.7816164E-02  0.1320468E+00
        -11   -1    0    0    0    0  0.00000000000E+00  0.00000000000E+00  0.45593999997E+02  0.45594000000E+02  0.51100000000E-03 0.  1.
         11   -1    0    0    0    0 -0.00000000000E+00 -0.00000000000E+00 -0.45593999997E+02  0.45594000000E+02  0.51100000000E-03 0. -1.
    9900012    2    1    2    0    0  0.31699457835E+02  0.20340853524E+02 -0.24708451288E+02  0.46142317475E+02  0.99999973897E+01 0.  0.
        -12    1    1    2    0    0 -0.31699457835E+02 -0.20340853524E+02  0.24708451288E+02  0.45045682525E+02  0.00000000000E+00 0.  1.
         11    1    3    3    0    0  0.62988458269E+01  0.31387784644E+01 -0.41081368481E+01  0.81488758502E+01  0.51100000000E-03 0. -1.
        -11    1    3    3    0    0  0.10923948382E+02  0.96118665345E+01 -0.14512579243E+02  0.20550804925E+02  0.51100000000E-03 0.  1.
         12    1    3    3    0    0  0.14476663627E+02  0.75902085247E+01 -0.60877351967E+01  0.17442636700E+02  0.00000000000E+00 0. -1.
</event>
<event>
 7    1  0.3846293E-008  0.4614232E+02  0.7816164E-02  0.1320468E+00
        -11   -1    0    0    0    0  0.00000000000E+00  0.00000000000E+00  0.45593999997E+02  0.45594000000E+02  0.51100000000E-03 0.  1.
         11   -1    0    0    0    0 -0.00000000000E+00 -0.00000000000E+00 -0.45593999997E+02  0.45594000000E+02  0.51100000000E-03 0. -1.
    9900012    2    1    2    0    0  0.20716426896E+02  0.72851745058E+01 -0.39330260839E+02  0.46142317315E+02  0.99999959317E+01 0.  0.
        -12    1    1    2    0    0 -0.20716426896E+02 -0.72851745058E+01  0.39330260839E+02  0.45045682685E+02  0.00000000000E+00 0.  1.
         11    1    3    3    0    0  0.89013430418E+01  0.36489138257E+01 -0.10212331439E+02  0.14029974830E+02  0.51100000000E-03 0. -1.
        -11    1    3    3    0    0  0.10455009054E+02  0.14986868703E+01 -0.19619129869E+02  0.22281461660E+02  0.51100000000E-03 0.  1.
        -12    1    3    3    0    0  0.13600748003E+01  0.21375738098E+01 -0.94987995310E+01  0.98308808244E+01  0.00000000000E+00 0.  1.
</event>
<event>
 7    1  0.3846293E-008  0.4614232E+02  0.7816164E-02  0.1320468E+00
        -11   -1    0    0    0    0  0.00000000000E+00  0.00000000000E+00  0.45593999997E+02  0.45594000000E+02  0.51100000000E-03 0.  1.
         11   -1    0    0    0    0 -0.00000000000E+00 -0.00000000000E+00 -0.45593999997E+02  0.45594000000E+02  0.51100000000E-03 0. -1.
    9900012    2    1    2    0    0  0.12971924385E+02  0.78868528925E+01 -0.42410378098E+02  0.46142318284E+02  0.10000004770E+02 0.  0.
        -12    1    1    2    0    0 -0.12971924385E+02 -0.78868528925E+01  0.42410378098E+02  0.45045681716E+02  0.00000000000E+00 0.  1.
         11    1    3    3    0    0  0.41852628835E+01  0.31327923004E+00 -0.90046072054E+01  0.99346625742E+01  0.51100000000E-03 0. -1.
        -11    1    3    3    0    0 -0.14433774104E+01  0.59277972774E+00 -0.31529916219E+01  0.35179656882E+01  0.51100000000E-03 0.  1.
         12    1    3    3    0    0  0.10230038912E+02  0.69807939347E+01 -0.30252779271E+02  0.32689690022E+02  0.00000000000E+00 0. -1.
</event>
<event>
 7    1  0.3846293E-008  0.4614233E+02  0.7816164E-02  0.1320468E+00
        -11   -1    0    0    0    0  0.00000000000E+00  0.00000000000E+00  0.45593999997E+02  0.45594000000E+02  0.51100000000E-03 0.  1.
         11   -1    0    0    0    0 -0.00000000000E+00 -0.00000000000E+00 -0.45593999997E+02  0.45594000000E+02  0.51100000000E-03 0. -1.
    9900012    2    1    2    0    0 -0.21614849041E+02  0.20391529823E+01 -0.39468377801E+02  0.46142326621E+02  0.10000080788E+02 0.  0.
        -12    1    1    2    0    0  0.21614849041E+02 -0.20391529823E+01  0.39468377801E+02  0.45045673379E+02  0.00000000000E+00 0.  1.
         11    1    3    3    0    0 -0.19820682705E+02  0.18477141324E+01 -0.38952361868E+02  0.43744256832E+02  0.51100000000E-03 0. -1.
        -11    1    3    3    0    0  0.16672601451E+00  0.18854827362E+00  0.18850259378E+00  0.31445429617E+00  0.51100000000E-03 0.  1.
        -12    1    3    3    0    0 -0.19608923507E+01  0.28905763217E-02 -0.70451852669E+00  0.20836154926E+01  0.00000000000E+00 0.  1.
</event>
<event>
 7    1  0.3846293E-008  0.4614232E+02  0.7816164E-02  0.1320468E+00
        -11   -1    0    0    0    0  0.00000000000E+00  0.00000000000E+00  0.45593999997E+02  0.45594000000E+02  0.51100000000E-03 0. -1.
         11   -1    0    0    0    0 -0.00000000000E+00 -0.00000000000E+00 -0.45593999997E+02  0.45594000000E+02  0.51100000000E-03 0.  1.
    9900012    2    1    2    0    0 -0.12162012694E+02  0.42006251447E+02  0.10801567911E+02  0.46142316714E+02  0.99999904508E+01 0.  0.
        -12    1    1    2    0    0  0.12162012694E+02 -0.42006251447E+02 -0.10801567911E+02  0.45045683286E+02  0.00000000000E+00 0.  1.
         11    1    3    3    0    0 -0.12090235770E+01  0.11236321163E+02 -0.61281168353E+00  0.11317782013E+02  0.51100000000E-03 0. -1.
        -11    1    3    3    0    0 -0.10639283905E+01  0.68531406164E+01  0.14071840332E+01  0.70765561605E+01  0.51100000000E-03 0.  1.
        -12    1    3    3    0    0 -0.98890607269E+01  0.23916789668E+02  0.10007195561E+02  0.27747978540E+02  0.00000000000E+00 0.  1.
</event>
<event>
 7    1  0.3846293E-008  0.4614232E+02  0.7816164E-02  0.1320468E+00
        -11   -1    0    0    0    0  0.00000000000E+00  0.00000000000E+00  0.45593999997E+02  0.45594000000E+02  0.51100000000E-03 0.  1.
         11   -1    0    0    0    0 -0.00000000000E+00 -0.00000000000E+00 -0.45593999997E+02  0.45594000000E+02  0.51100000000E-03 0. -1.
    9900012    2    1    2    0    0  0.57495184687E+01  0.44456992985E+02 -0.44308084106E+01  0.46142320395E+02  0.10000024017E+02 0.  0.
        -12    1    1    2    0    0 -0.57495184687E+01 -0.44456992985E+02  0.44308084106E+01  0.45045679605E+02  0.00000000000E+00 0.  1.
         11    1    3    3    0    0 -0.58325068314E+00  0.13317473108E+02  0.15642655522E+01  0.13421706237E+02  0.51100000000E-03 0. -1.
        -11    1    3    3    0    0  0.54064394445E+01  0.14109457415E+02 -0.26498942297E+01  0.15340414457E+02  0.51100000000E-03 0.  1.
         12    1    3    3    0    0  0.92632970733E+00  0.17030062462E+02 -0.33451797330E+01  0.17380199701E+02  0.00000000000E+00 0. -1.
</event>
<event>
 7    1  0.3846293E-008  0.4614232E+02  0.7816164E-02  0.1320468E+00
        -11   -1    0    0    0    0  0.00000000000E+00  0.00000000000E+00  0.45593999997E+02  0.45594000000E+02  0.51100000000E-03 0.  1.
         11   -1    0    0    0    0 -0.00000000000E+00 -0.00000000000E+00 -0.45593999997E+02  0.45594000000E+02  0.51100000000E-03 0. -1.
    9900012    2    1    2    0    0  0.76731404832E+01  0.18447839339E+01 -0.44348992426E+02  0.46142318278E+02  0.10000004713E+02 0.  0.
        -12    1    1    2    0    0 -0.76731404832E+01 -0.18447839339E+01  0.44348992426E+02  0.45045681722E+02  0.00000000000E+00 0.  1.
         11    1    3    3    0    0  0.48755307928E+01  0.18539217114E+01 -0.30442849511E+02  0.30886484307E+02  0.51100000000E-03 0. -1.
        -11    1    3    3    0    0  0.35265015359E+01 -0.71687247453E+00 -0.13767997639E+02  0.14230526290E+02  0.51100000000E-03 0.  1.
        -12    1    3    3    0    0 -0.72889184558E+00  0.70773469707E+00 -0.13814527515E+00  0.10253076812E+01  0.00000000000E+00 0.  1.
</event>
<event>
 7    1  0.3846293E-008  0.4614232E+02  0.7816164E-02  0.1320468E+00
        -11   -1    0    0    0    0  0.00000000000E+00  0.00000000000E+00  0.45593999997E+02  0.45594000000E+02  0.51100000000E-03 0. -1.
         11   -1    0    0    0    0 -0.00000000000E+00 -0.00000000000E+00 -0.45593999997E+02  0.45594000000E+02  0.51100000000E-03 0.  1.
    9900012    2    1    2    0    0  0.61829391641E+01  0.39815811468E+02 -0.20139162848E+02  0.46142318078E+02  0.10000002893E+02 0.  0.
        -12    1    1    2    0    0 -0.61829391641E+01 -0.39815811468E+02  0.20139162848E+02  0.45045681922E+02  0.00000000000E+00 0.  1.
         11    1    3    3    0    0  0.62031918533E+01  0.35660101603E+02 -0.18831110191E+02  0.40801141489E+02  0.51100000000E-03 0. -1.
        -11    1    3    3    0    0 -0.15206205345E+00  0.46343824734E+01 -0.96099623933E+00  0.47354131616E+01  0.51100000000E-03 0.  1.
        -12    1    3    3    0    0  0.13180936428E+00 -0.47867260797E+00 -0.34705641722E+00  0.60576342814E+00  0.00000000000E+00 0.  1.
</event>
<event>
 7    1  0.3846293E-008  0.4614232E+02  0.7816164E-02  0.1320468E+00
        -11   -1    0    0    0    0  0.00000000000E+00  0.00000000000E+00  0.45593999997E+02  0.45594000000E+02  0.51100000000E-03 0.  1.
         11   -1    0    0    0    0 -0.00000000000E+00 -0.00000000000E+00 -0.45593999997E+02  0.45594000000E+02  0.51100000000E-03 0. -1.
    9900012    2    1    2    0    0 -0.34679074748E+02 -0.22389035277E+02  0.18033479170E+02  0.46142317666E+02  0.99999991303E+01 0.  0.
        -12    1    1    2    0    0  0.34679074748E+02  0.22389035277E+02 -0.18033479170E+02  0.45045682334E+02  0.00000000000E+00 0.  1.
         11    1    3    3    0    0 -0.10988389951E+02 -0.10713912192E+02  0.55007423879E+01  0.16303091586E+02  0.51100000000E-03 0. -1.
        -11    1    3    3    0    0 -0.20695355711E+02 -0.12131579616E+02  0.10472967891E+02  0.26175485262E+02  0.51100000000E-03 0.  1.
        -12    1    3    3    0    0 -0.29953290858E+01  0.45645653176E+00  0.20597688903E+01  0.36637408177E+01  0.00000000000E+00 0.  1.
</event>
<event>
 7    1  0.3846293E-008  0.4614232E+02  0.7816164E-02  0.1320468E+00
        -11   -1    0    0    0    0  0.00000000000E+00  0.00000000000E+00  0.45593999997E+02  0.45594000000E+02  0.51100000000E-03 0.  1.
         11   -1    0    0    0    0 -0.00000000000E+00 -0.00000000000E+00 -0.45593999997E+02  0.45594000000E+02  0.51100000000E-03 0. -1.
    9900012    2    1    2    0    0  0.17709283964E+02  0.30216254046E+01 -0.41308165457E+02  0.46142317721E+02  0.99999996321E+01 0.  0.
        -12    1    1    2    0    0 -0.17709283964E+02 -0.30216254046E+01  0.41308165457E+02  0.45045682279E+02  0.00000000000E+00 0.  1.
         11    1    3    3    0    0  0.67187744338E+01 -0.35166790805E+00 -0.17226528795E+02  0.18493752859E+02  0.51100000000E-03 0. -1.
        -11    1    3    3    0    0  0.20261885429E+00 -0.13063409104E+01 -0.55160439592E+01  0.56722413731E+01  0.51100000000E-03 0.  1.
        -12    1    3    3    0    0  0.10787890676E+02  0.46796342231E+01 -0.18565592702E+02  0.21976323489E+02  0.00000000000E+00 0.  1.
</event>
<event>
 7    1  0.3846293E-008  0.4614232E+02  0.7816164E-02  0.1320468E+00
        -11   -1    0    0    0    0  0.00000000000E+00  0.00000000000E+00  0.45593999997E+02  0.45594000000E+02  0.51100000000E-03 0.  1.
         11   -1    0    0    0    0 -0.00000000000E+00 -0.00000000000E+00 -0.45593999997E+02  0.45594000000E+02  0.51100000000E-03 0. -1.
    9900012    2    1    2    0    0  0.67622147953E-01  0.14144148142E+01 -0.45023419900E+02  0.46142317837E+02  0.10000000696E+02 0.  0.
        -12    1    1    2    0    0 -0.67622147953E-01 -0.14144148142E+01  0.45023419900E+02  0.45045682163E+02  0.00000000000E+00 0.  1.
         11    1    3    3    0    0 -0.44496205350E+01  0.83194719557E+00 -0.15853074150E+02  0.16486698254E+02  0.51100000000E-03 0. -1.
        -11    1    3    3    0    0  0.84069690882E-02  0.79838742908E+00 -0.56366636538E+01  0.56929316324E+01  0.51100000000E-03 0.  1.
         12    1    3    3    0    0  0.45088357139E+01 -0.21591981047E+00 -0.23533682096E+02  0.23962687951E+02  0.00000000000E+00 0. -1.
</event>
<event>
 7    1  0.3846293E-008  0.4614232E+02  0.7816164E-02  0.1320468E+00
        -11   -1    0    0    0    0  0.00000000000E+00  0.00000000000E+00  0.45593999997E+02  0.45594000000E+02  0.51100000000E-03 0.  1.
         11   -1    0    0    0    0 -0.00000000000E+00 -0.00000000000E+00 -0.45593999997E+02  0.45594000000E+02  0.51100000000E-03 0. -1.
    9900012    2    1    2    0    0 -0.18018717092E+02  0.11911591997E+02 -0.39529144371E+02  0.46142318251E+02  0.10000004463E+02 0.  0.
        -12    1    1    2    0    0  0.18018717092E+02 -0.11911591997E+02  0.39529144371E+02  0.45045681749E+02  0.00000000000E+00 0.  1.
         11    1    3    3    0    0 -0.11474823003E+02  0.66475594373E+01 -0.19730334919E+02  0.23772835879E+02  0.51100000000E-03 0. -1.
        -11    1    3    3    0    0 -0.74742707231E+00  0.88463935157E+00  0.12275525164E+00  0.11646042777E+01  0.51100000000E-03 0.  1.
        -12    1    3    3    0    0 -0.57964670170E+01  0.43793932080E+01 -0.19921564704E+02  0.21204878094E+02  0.00000000000E+00 0.  1.
</event>
<event>
 7    1  0.3846293E-008  0.4614232E+02  0.7816164E-02  0.1320468E+00
        -11   -1    0    0    0    0  0.00000000000E+00  0.00000000000E+00  0.45593999997E+02  0.45594000000E+02  0.51100000000E-03 0.  1.
         11   -1    0    0    0    0 -0.00000000000E+00 -0.00000000000E+00 -0.45593999997E+02  0.45594000000E+02  0.51100000000E-03 0. -1.
    9900012    2    1    2    0    0 -0.20568925468E+02  0.30568861789E+02 -0.25914811716E+02  0.46142317940E+02  0.10000001633E+02 0.  0.
        -12    1    1    2    0    0  0.20568925468E+02 -0.30568861789E+02  0.25914811716E+02  0.45045682060E+02  0.00000000000E+00 0.  1.
         11    1    3    3    0    0 -0.99635230430E+01  0.13918852717E+02 -0.87136352330E+01  0.19207646696E+02  0.51100000000E-03 0. -1.
        -11    1    3    3    0    0 -0.11001983418E+02  0.13450907644E+02 -0.13355694146E+02  0.21916777180E+02  0.51100000000E-03 0.  1.
        -12    1    3    3    0    0  0.39658099301E+00  0.31991014280E+01 -0.38454823371E+01  0.50178940638E+01  0.00000000000E+00 0.  1.
</event>
<event>
 7    1  0.3846293E-008  0.4614232E+02  0.7816164E-02  0.1320468E+00
        -11   -1    0    0    0    0  0.00000000000E+00  0.00000000000E+00  0.45593999997E+02  0.45594000000E+02  0.51100000000E-03 0.  1.
         11   -1    0    0    0    0 -0.00000000000E+00 -0.00000000000E+00 -0.45593999997E+02  0.45594000000E+02  0.51100000000E-03 0. -1.
    9900012    2    1    2    0    0 -0.29234013286E+02  0.33963564728E+02  0.45784656785E+01  0.46142316413E+02  0.99999877101E+01 0.  0.
        -12    1    1    2    0    0  0.29234013286E+02 -0.33963564728E+02 -0.45784656785E+01  0.45045683587E+02  0.00000000000E+00 0.  1.
         11    1    3    3    0    0 -0.65741978871E+01  0.70949470559E+01  0.29867338336E+01  0.10123187780E+02  0.51100000000E-03 0.  1.
        -11    1    3    3    0    0 -0.24699745710E+01  0.23141799288E+01 -0.21510718770E+01  0.40104006789E+01  0.51100000000E-03 0. -1.
         12    1    3    3    0    0 -0.20189840828E+02  0.24554437743E+02  0.37428037219E+01  0.32008727954E+02  0.00000000000E+00 0. -1.
</event>
<event>
 7    1  0.3846293E-008  0.4614232E+02  0.7816164E-02  0.1320468E+00
        -11   -1    0    0    0    0  0.00000000000E+00  0.00000000000E+00  0.45593999997E+02  0.45594000000E+02  0.51100000000E-03 0.  1.
         11   -1    0    0    0    0 -0.00000000000E+00 -0.00000000000E+00 -0.45593999997E+02  0.45594000000E+02  0.51100000000E-03 0. -1.
    9900012    2    1    2    0    0  0.20327147586E+02  0.61568861184E+01 -0.39724214615E+02  0.46142318715E+02  0.10000008699E+02 0.  0.
        -12    1    1    2    0    0 -0.20327147586E+02 -0.61568861184E+01  0.39724214615E+02  0.45045681285E+02  0.00000000000E+00 0.  1.
         11    1    3    3    0    0  0.24428036605E+01  0.16795147335E+01 -0.81147404413E+01  0.86392749785E+01  0.51100000000E-03 0. -1.
        -11    1    3    3    0    0  0.28620743762E+00  0.17465370558E+01 -0.85745756008E+00  0.19666062425E+01  0.51100000000E-03 0.  1.
         12    1    3    3    0    0  0.17598136488E+02  0.27308343291E+01 -0.30752016614E+02  0.35536437494E+02  0.00000000000E+00 0. -1.
</event>
<event>
 7    1  0.3846293E-008  0.4614232E+02  0.7816164E-02  0.1320468E+00
        -11   -1    0    0    0    0  0.00000000000E+00  0.00000000000E+00  0.45593999997E+02  0.45594000000E+02  0.51100000000E-03 0.  1.
         11   -1    0    0    0    0 -0.00000000000E+00 -0.00000000000E+00 -0.45593999997E+02  0.45594000000E+02  0.51100000000E-03 0. -1.
    9900012    2    1    2    0    0 -0.16703147679E+02  0.61022757462E+01 -0.41386960630E+02  0.46142318500E+02  0.10000006736E+02 0.  0.
        -12    1    1    2    0    0  0.16703147679E+02 -0.61022757462E+01  0.41386960630E+02  0.45045681500E+02  0.00000000000E+00 0.  1.
         11    1    3    3    0    0 -0.68553935298E+01  0.23720505593E+01 -0.26190577466E+02  0.27176633209E+02  0.51100000000E-03 0. -1.
        -11    1    3    3    0    0 -0.10015559857E+02  0.35379644057E+01 -0.15350730897E+02  0.18667446818E+02  0.51100000000E-03 0.  1.
        -12    1    3    3    0    0  0.16780570840E+00  0.19226078119E+00  0.15434773316E+00  0.29823847251E+00  0.00000000000E+00 0.  1.
</event>
<event>
 7    1  0.3846293E-008  0.4614232E+02  0.7816164E-02  0.1320468E+00
        -11   -1    0    0    0    0  0.00000000000E+00  0.00000000000E+00  0.45593999997E+02  0.45594000000E+02  0.51100000000E-03 0. -1.
         11   -1    0    0    0    0 -0.00000000000E+00 -0.00000000000E+00 -0.45593999997E+02  0.45594000000E+02  0.51100000000E-03 0.  1.
    9900012    2    1    2    0    0 -0.38392384966E+02  0.13164979492E+02  0.19540258033E+02  0.46142316607E+02  0.99999894725E+01 0.  0.
        -12    1    1    2    0    0  0.38392384966E+02 -0.13164979492E+02 -0.19540258033E+02  0.45045683393E+02  0.00000000000E+00 0.  1.
         11    1    3    3    0    0 -0.16541729396E+02  0.69738925027E+01  0.47644232256E+01  0.18573198890E+02  0.51100000000E-03 0. -1.
        -11    1    3    3    0    0 -0.17666034682E+02  0.51966692300E+01  0.93712328150E+01  0.20661901103E+02  0.51100000000E-03 0.  1.
        -12    1    3    3    0    0 -0.41846208877E+01  0.99441775903E+00  0.54046019925E+01  0.69072166138E+01  0.00000000000E+00 0.  1.
</event>
<event>
 7    1  0.3846293E-008  0.4614232E+02  0.7816164E-02  0.1320468E+00
        -11   -1    0    0    0    0  0.00000000000E+00  0.00000000000E+00  0.45593999997E+02  0.45594000000E+02  0.51100000000E-03 0. -1.
         11   -1    0    0    0    0 -0.00000000000E+00 -0.00000000000E+00 -0.45593999997E+02  0.45594000000E+02  0.51100000000E-03 0.  1.
    9900012    2    1    2    0    0 -0.14008029104E+02  0.42008384553E+02  0.82573757112E+01  0.46142317568E+02  0.99999982355E+01 0.  0.
        -12    1    1    2    0    0  0.14008029104E+02 -0.42008384553E+02 -0.82573757112E+01  0.45045682432E+02  0.00000000000E+00 0.  1.
         11    1    3    3    0    0 -0.21828349001E+01  0.80595318349E+01  0.47849321318E+01  0.96237413393E+01  0.51100000000E-03 0. -1.
        -11    1    3    3    0    0 -0.94149992435E+01  0.19209769145E+02  0.13737321258E+01  0.21436990964E+02  0.51100000000E-03 0.  1.
        -12    1    3    3    0    0 -0.24101949609E+01  0.14739083573E+02  0.20987114536E+01  0.15081585265E+02  0.00000000000E+00 0.  1.
</event>
<event>
 7    1  0.3846293E-008  0.4614232E+02  0.7816164E-02  0.1320468E+00
        -11   -1    0    0    0    0  0.00000000000E+00  0.00000000000E+00  0.45593999997E+02  0.45594000000E+02  0.51100000000E-03 0.  1.
         11   -1    0    0    0    0 -0.00000000000E+00 -0.00000000000E+00 -0.45593999997E+02  0.45594000000E+02  0.51100000000E-03 0. -1.
    9900012    2    1    2    0    0  0.42806641453E+02  0.12866480213E+02 -0.55819921049E+01  0.46142317616E+02  0.99999986768E+01 0.  0.
        -12    1    1    2    0    0 -0.42806641453E+02 -0.12866480213E+02  0.55819921049E+01  0.45045682384E+02  0.00000000000E+00 0.  1.
         11    1    3    3    0    0  0.22784613048E+02  0.10095627164E+02 -0.13896145136E+01  0.24959793836E+02  0.51100000000E-03 0. -1.
        -11    1    3    3    0    0  0.37941322787E+01  0.14391751926E+01  0.83234864558E+00  0.41423990045E+01  0.51100000000E-03 0.  1.
        -12    1    3    3    0    0  0.16227896126E+02  0.13316778562E+01 -0.50247262369E+01  0.17040124775E+02  0.00000000000E+00 0.  1.
</event>
<event>
 7    1  0.3846293E-008  0.4614232E+02  0.7816164E-02  0.1320468E+00
        -11   -1    0    0    0    0  0.00000000000E+00  0.00000000000E+00  0.45593999997E+02  0.45594000000E+02  0.51100000000E-03 0.  1.
         11   -1    0    0    0    0 -0.00000000000E+00 -0.00000000000E+00 -0.45593999997E+02  0.45594000000E+02  0.51100000000E-03 0. -1.
    9900012    2    1    2    0    0  0.21429368809E+02 -0.33339239536E+02 -0.21410061577E+02  0.46142317886E+02  0.10000001141E+02 0.  0.
        -12    1    1    2    0    0 -0.21429368809E+02  0.33339239536E+02  0.21410061577E+02  0.45045682114E+02  0.00000000000E+00 0.  1.
         11    1    3    3    0    0  0.12677240163E+02 -0.20872336112E+02 -0.17925843280E+02  0.30293608080E+02  0.51100000000E-03 0. -1.
        -11    1    3    3    0    0  0.99021954655E+00 -0.33139435156E+01 -0.69535422895E+00  0.35279277401E+01  0.51100000000E-03 0.  1.
         12    1    3    3    0    0  0.77619090991E+01 -0.91529599077E+01 -0.27888640685E+01  0.12320782066E+02  0.00000000000E+00 0. -1.
</event>
<event>
 7    1  0.3846293E-008  0.4614232E+02  0.7816164E-02  0.1320468E+00
        -11   -1    0    0    0    0  0.00000000000E+00  0.00000000000E+00  0.45593999997E+02  0.45594000000E+02  0.51100000000E-03 0. -1.
         11   -1    0    0    0    0 -0.00000000000E+00 -0.00000000000E+00 -0.45593999997E+02  0.45594000000E+02  0.51100000000E-03 0.  1.
    9900012    2    1    2    0    0  0.23998940060E+02 -0.10432265540E+01  0.38106115530E+02  0.46142317783E+02  0.10000000197E+02 0.  0.
        -12    1    1    2    0    0 -0.23998940060E+02  0.10432265540E+01 -0.38106115530E+02  0.45045682217E+02  0.00000000000E+00 0.  1.
         11    1    3    3    0    0  0.15531937106E+02 -0.23952529906E+01  0.28089801396E+02  0.32187190773E+02  0.51100000000E-03 0. -1.
        -11    1    3    3    0    0  0.81692217533E+01  0.23144201882E+01  0.97174432026E+01  0.12904318173E+02  0.51100000000E-03 0.  1.
         12    1    3    3    0    0  0.29778119979E+00 -0.96239375156E+00  0.29887093170E+00  0.10508088360E+01  0.00000000000E+00 0. -1.
</event>
<event>
 7    1  0.3846293E-008  0.4614232E+02  0.7816164E-02  0.1320468E+00
        -11   -1    0    0    0    0  0.00000000000E+00  0.00000000000E+00  0.45593999997E+02  0.45594000000E+02  0.51100000000E-03 0.  1.
         11   -1    0    0    0    0 -0.00000000000E+00 -0.00000000000E+00 -0.45593999997E+02  0.45594000000E+02  0.51100000000E-03 0. -1.
    9900012    2    1    2    0    0  0.30344671773E+02 -0.87290548963E+01 -0.32126594642E+02  0.46142316658E+02  0.99999899448E+01 0.  0.
        -12    1    1    2    0    0 -0.30344671773E+02  0.87290548963E+01  0.32126594642E+02  0.45045683342E+02  0.00000000000E+00 0.  1.
         11    1    3    3    0    0  0.16359750356E+02 -0.27469114218E+01 -0.16434188934E+02  0.23351006836E+02  0.51100000000E-03 0. -1.
        -11    1    3    3    0    0  0.77622714658E+00 -0.11498555322E+00  0.61782225575E+00  0.99872661993E+00  0.51100000000E-03 0.  1.
         12    1    3    3    0    0  0.13208694271E+02 -0.58671579213E+01 -0.16310227963E+02  0.21792583202E+02  0.00000000000E+00 0. -1.
</event>
<event>
 7    1  0.3846293E-008  0.4614232E+02  0.7816164E-02  0.1320468E+00
        -11   -1    0    0    0    0  0.00000000000E+00  0.00000000000E+00  0.45593999997E+02  0.45594000000E+02  0.51100000000E-03 0. -1.
         11   -1    0    0    0    0 -0.00000000000E+00 -0.00000000000E+00 -0.45593999997E+02  0.45594000000E+02  0.51100000000E-03 0.  1.
    9900012    2    1    2    0    0 -0.42438238451E+02  0.51480907207E+00 -0.15094516625E+02  0.46142317151E+02  0.99999944353E+01 0.  0.
        -12    1    1    2    0    0  0.42438238451E+02 -0.51480907207E+00  0.15094516625E+02  0.45045682849E+02  0.00000000000E+00 0.  1.
         11    1    3    3    0    0 -0.11305593393E+02  0.27866852068E+01 -0.48900863037E+01  0.12629133016E+02  0.51100000000E-03 0. -1.
        -11    1    3    3    0    0 -0.76503367996E+01 -0.93648112175E+00 -0.56487848421E+01  0.95558055909E+01  0.51100000000E-03 0.  1.
         12    1    3    3    0    0 -0.23482308258E+02 -0.13353950130E+01 -0.45556454797E+01  0.23957378544E+02  0.00000000000E+00 0. -1.
</event>
<event>
 7    1  0.3846293E-008  0.4614232E+02  0.7816164E-02  0.1320468E+00
        -11   -1    0    0    0    0  0.00000000000E+00  0.00000000000E+00  0.45593999997E+02  0.45594000000E+02  0.51100000000E-03 0.  1.
         11   -1    0    0    0    0 -0.00000000000E+00 -0.00000000000E+00 -0.45593999997E+02  0.45594000000E+02  0.51100000000E-03 0. -1.
    9900012    2    1    2    0    0  0.41759777286E+02 -0.14843333394E+02 -0.80566749336E+01  0.46142317008E+02  0.99999931339E+01 0.  0.
        -12    1    1    2    0    0 -0.41759777286E+02  0.14843333394E+02  0.80566749336E+01  0.45045682992E+02  0.00000000000E+00 0.  1.
         11    1    3    3    0    0  0.79908797401E+01 -0.13880968413E+01  0.57140357950E+00  0.81306502922E+01  0.51100000000E-03 0. -1.
        -11    1    3    3    0    0  0.19370093525E+02 -0.69333315261E+01 -0.13732922821E+01  0.20619348709E+02  0.51100000000E-03 0.  1.
         12    1    3    3    0    0  0.14398804020E+02 -0.65219050269E+01 -0.72547862310E+01  0.17392318007E+02  0.00000000000E+00 0. -1.
</event>
<event>
 7    1  0.3846293E-008  0.4614232E+02  0.7816164E-02  0.1320468E+00
        -11   -1    0    0    0    0  0.00000000000E+00  0.00000000000E+00  0.45593999997E+02  0.45594000000E+02  0.51100000000E-03 0.  1.
         11   -1    0    0    0    0 -0.00000000000E+00 -0.00000000000E+00 -0.45593999997E+02  0.45594000000E+02  0.51100000000E-03 0. -1.
    9900012    2    1    2    0    0  0.14428835662E+01  0.44677041240E+01 -0.44800348286E+02  0.46142317636E+02  0.99999988570E+01 0.  0.
        -12    1    1    2    0    0 -0.14428835662E+01 -0.44677041240E+01  0.44800348286E+02  0.45045682364E+02  0.00000000000E+00 0.  1.
         11    1    3    3    0    0 -0.17966796858E+01 -0.33711504895E+00 -0.28164984589E+02  0.28224245988E+02  0.51100000000E-03 0. -1.
        -11    1    3    3    0    0  0.36594358468E+00 -0.43771117439E+00 -0.73178638575E+00  0.92791020839E+00  0.51100000000E-03 0.  1.
        -12    1    3    3    0    0  0.28736196673E+01  0.52425303473E+01 -0.15903577311E+02  0.16990161439E+02  0.00000000000E+00 0.  1.
</event>
<event>
 7    1  0.3846293E-008  0.4614232E+02  0.7816164E-02  0.1320468E+00
        -11   -1    0    0    0    0  0.00000000000E+00  0.00000000000E+00  0.45593999997E+02  0.45594000000E+02  0.51100000000E-03 0.  1.
         11   -1    0    0    0    0 -0.00000000000E+00 -0.00000000000E+00 -0.45593999997E+02  0.45594000000E+02  0.51100000000E-03 0. -1.
    9900012    2    1    2    0    0  0.26318989458E+02 -0.21401615498E+02 -0.29637732082E+02  0.46142317466E+02  0.99999973094E+01 0.  0.
        -12    1    1    2    0    0 -0.26318989458E+02  0.21401615498E+02  0.29637732082E+02  0.45045682534E+02  0.00000000000E+00 0.  1.
         11    1    3    3    0    0  0.69266978065E+01 -0.21034928442E+01 -0.42406824873E+01  0.83897087475E+01  0.51100000000E-03 0. -1.
        -11    1    3    3    0    0  0.20938509273E+01 -0.19798568530E+00 -0.13031835094E+01  0.24742064501E+01  0.51100000000E-03 0.  1.
        -12    1    3    3    0    0  0.17298440724E+02 -0.19100136968E+02 -0.24093866085E+02  0.35278402269E+02  0.00000000000E+00 0.  1.
</event>
<event>
 7    1  0.3846293E-008  0.4614232E+02  0.7816164E-02  0.1320468E+00
        -11   -1    0    0    0    0  0.00000000000E+00  0.00000000000E+00  0.45593999997E+02  0.45594000000E+02  0.51100000000E-03 0.  1.
         11   -1    0    0    0    0 -0.00000000000E+00 -0.00000000000E+00 -0.45593999997E+02  0.45594000000E+02  0.51100000000E-03 0. -1.
    9900012    2    1    2    0    0 -0.41693062611E+01 -0.34754738958E+02 -0.28352043739E+02  0.46142318975E+02  0.10000011073E+02 0.  0.
        -12    1    1    2    0    0  0.41693062611E+01  0.34754738958E+02  0.28352043739E+02  0.45045681025E+02  0.00000000000E+00 0.  1.
         11    1    3    3    0    0 -0.80163115064E+00 -0.28561909774E+00 -0.54942528791E+00  0.10129457926E+01  0.51100000000E-03 0.  1.
        -11    1    3    3    0    0  0.58136378499E+00 -0.24420645720E+02 -0.21990564056E+02  0.32867777974E+02  0.51100000000E-03 0. -1.
         12    1    3    3    0    0 -0.39490388954E+01 -0.10048474141E+02 -0.58120543958E+01  0.12261595209E+02  0.00000000000E+00 0. -1.
</event>
<event>
 7    1  0.3846293E-008  0.4614232E+02  0.7816164E-02  0.1320468E+00
        -11   -1    0    0    0    0  0.00000000000E+00  0.00000000000E+00  0.45593999997E+02  0.45594000000E+02  0.51100000000E-03 0. -1.
         11   -1    0    0    0    0 -0.00000000000E+00 -0.00000000000E+00 -0.45593999997E+02  0.45594000000E+02  0.51100000000E-03 0.  1.
    9900012    2    1    2    0    0  0.36204174272E+02 -0.22416844859E+02  0.14692045736E+02  0.46142319008E+02  0.10000011373E+02 0.  0.
        -12    1    1    2    0    0 -0.36204174272E+02  0.22416844859E+02 -0.14692045736E+02  0.45045680992E+02  0.00000000000E+00 0.  1.
         11    1    3    3    0    0  0.79150194149E+01 -0.67207057300E+01  0.36904450707E+01  0.11019746046E+02  0.51100000000E-03 0. -1.
        -11    1    3    3    0    0  0.21564503720E+02 -0.13056754064E+02  0.11837697020E+02  0.27850273220E+02  0.51100000000E-03 0.  1.
        -12    1    3    3    0    0  0.67246511364E+01 -0.26393850643E+01 -0.83609635553E+00  0.72722997421E+01  0.00000000000E+00 0.  1.
</event>
<event>
 7    1  0.3846293E-008  0.4614232E+02  0.7816164E-02  0.1320468E+00
        -11   -1    0    0    0    0  0.00000000000E+00  0.00000000000E+00  0.45593999997E+02  0.45594000000E+02  0.51100000000E-03 0. -1.
         11   -1    0    0    0    0 -0.00000000000E+00 -0.00000000000E+00 -0.45593999997E+02  0.45594000000E+02  0.51100000000E-03 0.  1.
    9900012    2    1    2    0    0  0.96572477021E+01 -0.25684362575E+01  0.43923276233E+02  0.46142317710E+02  0.99999995324E+01 0.  0.
        -12    1    1    2    0    0 -0.96572477021E+01  0.25684362575E+01 -0.43923276233E+02  0.45045682290E+02  0.00000000000E+00 0.  1.
         11    1    3    3    0    0  0.88943178940E+01 -0.30863313099E+01  0.44081918182E+02  0.45076045109E+02  0.51100000000E-03 0. -1.
        -11    1    3    3    0    0  0.35884217580E+00  0.27477983993E+00  0.17916575812E+00  0.48618134227E+00  0.51100000000E-03 0.  1.
         12    1    3    3    0    0  0.40408763226E+00  0.24311521252E+00 -0.33780770786E+00  0.58009125885E+00  0.00000000000E+00 0. -1.
</event>
<event>
 7    1  0.3846293E-008  0.4614232E+02  0.7816164E-02  0.1320468E+00
        -11   -1    0    0    0    0  0.00000000000E+00  0.00000000000E+00  0.45593999997E+02  0.45594000000E+02  0.51100000000E-03 0.  1.
         11   -1    0    0    0    0 -0.00000000000E+00 -0.00000000000E+00 -0.45593999997E+02  0.45594000000E+02  0.51100000000E-03 0. -1.
    9900012    2    1    2    0    0  0.56607416833E+01  0.19506081280E+02 -0.40206744798E+02  0.46142317293E+02  0.99999957296E+01 0.  0.
        -12    1    1    2    0    0 -0.56607416833E+01 -0.19506081280E+02  0.40206744798E+02  0.45045682707E+02  0.00000000000E+00 0.  1.
         11    1    3    3    0    0 -0.62033253233E+00  0.97781498881E+01 -0.20476723130E+02  0.22700070883E+02  0.51100000000E-03 0. -1.
        -11    1    3    3    0    0  0.38720678950E+00 -0.58991719386E+00 -0.62083903134E+00  0.93987911851E+00  0.51100000000E-03 0.  1.
        -12    1    3    3    0    0  0.58938674261E+01  0.10317848586E+02 -0.19109182636E+02  0.22502367291E+02  0.00000000000E+00 0.  1.
</event>
<event>
 7    1  0.3846293E-008  0.4614232E+02  0.7816164E-02  0.1320468E+00
        -11   -1    0    0    0    0  0.00000000000E+00  0.00000000000E+00  0.45593999997E+02  0.45594000000E+02  0.51100000000E-03 0.  1.
         11   -1    0    0    0    0 -0.00000000000E+00 -0.00000000000E+00 -0.45593999997E+02  0.45594000000E+02  0.51100000000E-03 0. -1.
    9900012    2    1    2    0    0 -0.25418306398E+02  0.32921092260E+02 -0.17298119285E+02  0.46142317115E+02  0.99999941114E+01 0.  0.
        -12    1    1    2    0    0  0.25418306398E+02 -0.32921092260E+02  0.17298119285E+02  0.45045682885E+02  0.00000000000E+00 0.  1.
         11    1    3    3    0    0 -0.90163356823E+00  0.19989872254E+01 -0.20172607080E+01  0.29796365624E+01  0.51100000000E-03 0. -1.
        -11    1    3    3    0    0 -0.21722019714E+01  0.13645734852E+00 -0.22169998740E-01  0.21765968350E+01  0.51100000000E-03 0.  1.
         12    1    3    3    0    0 -0.22344470859E+02  0.30785647686E+02 -0.15258688578E+02  0.40986083718E+02  0.00000000000E+00 0. -1.
</event>
<event>
 7    1  0.3846293E-008  0.4614232E+02  0.7816164E-02  0.1320468E+00
        -11   -1    0    0    0    0  0.00000000000E+00  0.00000000000E+00  0.45593999997E+02  0.45594000000E+02  0.51100000000E-03 0.  1.
         11   -1    0    0    0    0 -0.00000000000E+00 -0.00000000000E+00 -0.45593999997E+02  0.45594000000E+02  0.51100000000E-03 0. -1.
    9900012    2    1    2    0    0 -0.12332370260E+02  0.42011417851E+02  0.10586161381E+02  0.46142318755E+02  0.10000009061E+02 0.  0.
        -12    1    1    2    0    0  0.12332370260E+02 -0.42011417851E+02 -0.10586161381E+02  0.45045681245E+02  0.00000000000E+00 0.  1.
         11    1    3    3    0    0 -0.29821622802E+01  0.12831407139E+02  0.30912263823E+01  0.13531222481E+02  0.51100000000E-03 0. -1.
        -11    1    3    3    0    0 -0.89844330199E+00  0.10547732721E+02  0.58268723773E+01  0.12083638023E+02  0.51100000000E-03 0.  1.
         12    1    3    3    0    0 -0.84517646776E+01  0.18632277991E+02  0.16680626218E+01  0.20527458250E+02  0.00000000000E+00 0. -1.
</event>
<event>
 7    1  0.3846293E-008  0.4614232E+02  0.7816164E-02  0.1320468E+00
        -11   -1    0    0    0    0  0.00000000000E+00  0.00000000000E+00  0.45593999997E+02  0.45594000000E+02  0.51100000000E-03 0. -1.
         11   -1    0    0    0    0 -0.00000000000E+00 -0.00000000000E+00 -0.45593999997E+02  0.45594000000E+02  0.51100000000E-03 0.  1.
    9900012    2    1    2    0    0  0.24731883001E+02 -0.23340739126E+02 -0.29540774037E+02  0.46142317960E+02  0.10000001816E+02 0.  0.
        -12    1    1    2    0    0 -0.24731883001E+02  0.23340739126E+02  0.29540774037E+02  0.45045682040E+02  0.00000000000E+00 0.  1.
         11    1    3    3    0    0  0.14544622169E+02 -0.16921513464E+02 -0.15886673702E+02  0.27391057912E+02  0.51100000000E-03 0. -1.
        -11    1    3    3    0    0  0.35358226757E+01 -0.42662316638E+01 -0.40105304671E+01  0.68401118040E+01  0.51100000000E-03 0.  1.
        -12    1    3    3    0    0  0.66514381561E+01 -0.21529939981E+01 -0.96435698677E+01  0.11911148244E+02  0.00000000000E+00 0.  1.
</event>
<event>
 7    1  0.3846293E-008  0.4614232E+02  0.7816164E-02  0.1320468E+00
        -11   -1    0    0    0    0  0.00000000000E+00  0.00000000000E+00  0.45593999997E+02  0.45594000000E+02  0.51100000000E-03 0.  1.
         11   -1    0    0    0    0 -0.00000000000E+00 -0.00000000000E+00 -0.45593999997E+02  0.45594000000E+02  0.51100000000E-03 0. -1.
    9900012    2    1    2    0    0 -0.41027028426E+02  0.18236639571E+02 -0.36498346084E+01  0.46142318997E+02  0.10000011272E+02 0.  0.
        -12    1    1    2    0    0  0.41027028426E+02 -0.18236639571E+02  0.36498346084E+01  0.45045681003E+02  0.00000000000E+00 0.  1.
         11    1    3    3    0    0 -0.19554800716E+02  0.12817079899E+02 -0.22647901291E+01  0.23490360635E+02  0.51100000000E-03 0. -1.
        -11    1    3    3    0    0 -0.19311891783E+02  0.58277096282E+01 -0.24083799260E+00  0.20173481776E+02  0.51100000000E-03 0.  1.
        -12    1    3    3    0    0 -0.21603359274E+01 -0.40814995615E+00 -0.11442064867E+01  0.24784765866E+01  0.00000000000E+00 0.  1.
</event>
<event>
 7    1  0.3846293E-008  0.4614232E+02  0.7816164E-02  0.1320468E+00
        -11   -1    0    0    0    0  0.00000000000E+00  0.00000000000E+00  0.45593999997E+02  0.45594000000E+02  0.51100000000E-03 0. -1.
         11   -1    0    0    0    0 -0.00000000000E+00 -0.00000000000E+00 -0.45593999997E+02  0.45594000000E+02  0.51100000000E-03 0.  1.
    9900012    2    1    2    0    0 -0.29415838687E+02 -0.33759891652E+02  0.49083316865E+01  0.46142316855E+02  0.99999917397E+01 0.  0.
        -12    1    1    2    0    0  0.29415838687E+02  0.33759891652E+02 -0.49083316865E+01  0.45045683145E+02  0.00000000000E+00 0.  1.
         11    1    3    3    0    0 -0.13517654680E+02 -0.11037895106E+02  0.56468339943E+01  0.18342542104E+02  0.51100000000E-03 0. -1.
        -11    1    3    3    0    0 -0.17014622018E+01 -0.18983097618E+01 -0.49012473290E+00  0.25959152703E+01  0.51100000000E-03 0.  1.
         12    1    3    3    0    0 -0.14196721805E+02 -0.20823686784E+02 -0.24837757495E+00  0.25203859481E+02  0.00000000000E+00 0. -1.
</event>
<event>
 7    1  0.3846293E-008  0.4614232E+02  0.7816164E-02  0.1320468E+00
        -11   -1    0    0    0    0  0.00000000000E+00  0.00000000000E+00  0.45593999997E+02  0.45594000000E+02  0.51100000000E-03 0. -1.
         11   -1    0    0    0    0 -0.00000000000E+00 -0.00000000000E+00 -0.45593999997E+02  0.45594000000E+02  0.51100000000E-03 0.  1.
    9900012    2    1    2    0    0  0.20831613649E+02  0.32581009676E+02  0.23100545190E+02  0.46142317556E+02  0.99999981320E+01 0.  0.
        -12    1    1    2    0    0 -0.20831613649E+02 -0.32581009676E+02 -0.23100545190E+02  0.45045682444E+02  0.00000000000E+00 0.  1.
         11    1    3    3    0    0  0.79082466468E+01  0.13493106275E+02  0.78813169443E+01  0.17513407407E+02  0.51100000000E-03 0. -1.
        -11    1    3    3    0    0  0.95280217518E+01  0.74516495020E+01  0.68766300977E+01  0.13913961354E+02  0.51100000000E-03 0.  1.
        -12    1    3    3    0    0  0.33953452506E+01  0.11636253899E+02  0.83425981483E+01  0.14714948795E+02  0.00000000000E+00 0.  1.
</event>
<event>
 7    1  0.3846293E-008  0.4614232E+02  0.7816164E-02  0.1320468E+00
        -11   -1    0    0    0    0  0.00000000000E+00  0.00000000000E+00  0.45593999997E+02  0.45594000000E+02  0.51100000000E-03 0.  1.
         11   -1    0    0    0    0 -0.00000000000E+00 -0.00000000000E+00 -0.45593999997E+02  0.45594000000E+02  0.51100000000E-03 0. -1.
    9900012    2    1    2    0    0 -0.35541465216E+02  0.27339613263E+02 -0.42969045215E+01  0.46142316616E+02  0.99999895606E+01 0.  0.
        -12    1    1    2    0    0  0.35541465216E+02 -0.27339613263E+02  0.42969045215E+01  0.45045683384E+02  0.00000000000E+00 0.  1.
         11    1    3    3    0    0 -0.89400735156E+01  0.80195388770E+01 -0.17315813087E+01  0.12134096273E+02  0.51100000000E-03 0. -1.
        -11    1    3    3    0    0 -0.83612141089E+01  0.99190391164E+01  0.15943317126E+01  0.13070544451E+02  0.51100000000E-03 0.  1.
         12    1    3    3    0    0 -0.18240177591E+02  0.94010352691E+01 -0.41596549254E+01  0.20937675893E+02  0.00000000000E+00 0. -1.
</event>
<event>
 7    1  0.3846293E-008  0.4614233E+02  0.7816164E-02  0.1320468E+00
        -11   -1    0    0    0    0  0.00000000000E+00  0.00000000000E+00  0.45593999997E+02  0.45594000000E+02  0.51100000000E-03 0.  1.
         11   -1    0    0    0    0 -0.00000000000E+00 -0.00000000000E+00 -0.45593999997E+02  0.45594000000E+02  0.51100000000E-03 0. -1.
    9900012    2    1    2    0    0  0.20212388950E+02 -0.16004031764E+02 -0.36938365258E+02  0.46142328424E+02  0.10000097231E+02 0.  0.
        -12    1    1    2    0    0 -0.20212388950E+02  0.16004031764E+02  0.36938365258E+02  0.45045671576E+02  0.00000000000E+00 0.  1.
         11    1    3    3    0    0  0.34332785370E+01 -0.51903893747E+01 -0.11570531829E+02  0.13137912712E+02  0.51100000000E-03 0. -1.
        -11    1    3    3    0    0  0.27483935382E+01 -0.35850643424E+01 -0.23417888638E+01  0.50882539956E+01  0.51100000000E-03 0.  1.
        -12    1    3    3    0    0  0.14030716875E+02 -0.72285780470E+01 -0.23026044566E+02  0.27916161716E+02  0.00000000000E+00 0.  1.
</event>
<event>
 7    1  0.3846293E-008  0.4614232E+02  0.7816164E-02  0.1320468E+00
        -11   -1    0    0    0    0  0.00000000000E+00  0.00000000000E+00  0.45593999997E+02  0.45594000000E+02  0.51100000000E-03 0. -1.
         11   -1    0    0    0    0 -0.00000000000E+00 -0.00000000000E+00 -0.45593999997E+02  0.45594000000E+02  0.51100000000E-03 0.  1.
    9900012    2    1    2    0    0  0.75909505334E+00 -0.44336146592E+02  0.79273725440E+01  0.46142319238E+02  0.10000013465E+02 0.  0.
        -12    1    1    2    0    0 -0.75909505334E+00  0.44336146592E+02 -0.79273725440E+01  0.45045680762E+02  0.00000000000E+00 0.  1.
         11    1    3    3    0    0  0.35431091385E+01 -0.11517677469E+02  0.13091071674E+01  0.12121232548E+02  0.51100000000E-03 0. -1.
        -11    1    3    3    0    0 -0.26892515981E+01 -0.63762664879E+01  0.10607842973E+01  0.70010079323E+01  0.51100000000E-03 0.  1.
         12    1    3    3    0    0 -0.94762487127E-01 -0.26442202635E+02  0.55574810792E+01  0.27020078758E+02  0.00000000000E+00 0. -1.
</event>
<event>
 7    1  0.3846293E-008  0.4614232E+02  0.7816164E-02  0.1320468E+00
        -11   -1    0    0    0    0  0.00000000000E+00  0.00000000000E+00  0.45593999997E+02  0.45594000000E+02  0.51100000000E-03 0.  1.
         11   -1    0    0    0    0 -0.00000000000E+00 -0.00000000000E+00 -0.45593999997E+02  0.45594000000E+02  0.51100000000E-03 0. -1.
    9900012    2    1    2    0    0  0.89325403390E+00  0.25211727119E+02 -0.37318688917E+02  0.46142316193E+02  0.99999857032E+01 0.  0.
        -12    1    1    2    0    0 -0.89325403390E+00 -0.25211727119E+02  0.37318688917E+02  0.45045683807E+02  0.00000000000E+00 0.  1.
         11    1    3    3    0    0 -0.83439868379E+00  0.20045889339E+02 -0.26456153142E+02  0.33203342300E+02  0.51100000000E-03 0. -1.
        -11    1    3    3    0    0  0.29151497985E+01  0.49511105758E+01 -0.81661768902E+01  0.99848905624E+01  0.51100000000E-03 0.  1.
        -12    1    3    3    0    0 -0.11874970808E+01  0.21472720478E+00 -0.26963588846E+01  0.29540833306E+01  0.00000000000E+00 0.  1.
</event>
<event>
 7    1  0.3846293E-008  0.4614232E+02  0.7816164E-02  0.1320468E+00
        -11   -1    0    0    0    0  0.00000000000E+00  0.00000000000E+00  0.45593999997E+02  0.45594000000E+02  0.51100000000E-03 0.  1.
         11   -1    0    0    0    0 -0.00000000000E+00 -0.00000000000E+00 -0.45593999997E+02  0.45594000000E+02  0.51100000000E-03 0. -1.
    9900012    2    1    2    0    0  0.44547157569E+02  0.18302922911E-01 -0.66830985112E+01  0.46142318873E+02  0.10000010141E+02 0.  0.
        -12    1    1    2    0    0 -0.44547157569E+02 -0.18302922911E-01  0.66830985112E+01  0.45045681127E+02  0.00000000000E+00 0.  1.
         11    1    3    3    0    0  0.17754945137E+02  0.17880779461E+01 -0.83244992203E+00  0.17864161685E+02  0.51100000000E-03 0. -1.
        -11    1    3    3    0    0  0.22495629001E+02 -0.41139726192E+00 -0.24492010246E+01  0.22632303413E+02  0.51100000000E-03 0.  1.
        -12    1    3    3    0    0  0.42965834306E+01 -0.13583777613E+01 -0.34014475645E+01  0.56458537754E+01  0.00000000000E+00 0.  1.
</event>
<event>
 7    1  0.3846293E-008  0.4614232E+02  0.7816164E-02  0.1320468E+00
        -11   -1    0    0    0    0  0.00000000000E+00  0.00000000000E+00  0.45593999997E+02  0.45594000000E+02  0.51100000000E-03 0.  1.
         11   -1    0    0    0    0 -0.00000000000E+00 -0.00000000000E+00 -0.45593999997E+02  0.45594000000E+02  0.51100000000E-03 0. -1.
    9900012    2    1    2    0    0  0.36288172951E+02  0.25280117970E+02 -0.85555626679E+01  0.46142317485E+02  0.99999974780E+01 0.  0.
        -12    1    1    2    0    0 -0.36288172951E+02 -0.25280117970E+02  0.85555626679E+01  0.45045682515E+02  0.00000000000E+00 0.  1.
         11    1    3    3    0    0  0.96760667599E+01  0.79836929460E+01 -0.18958622778E+01  0.12686997873E+02  0.51100000000E-03 0. -1.
        -11    1    3    3    0    0  0.13938141281E+02  0.10501153874E+02  0.35525059091E+00  0.17454862311E+02  0.51100000000E-03 0.  1.
        -12    1    3    3    0    0  0.12673964910E+02  0.67952711503E+01 -0.70149509811E+01  0.16000457300E+02  0.00000000000E+00 0.  1.
</event>
<event>
 7    1  0.3846293E-008  0.4614232E+02  0.7816164E-02  0.1320468E+00
        -11   -1    0    0    0    0  0.00000000000E+00  0.00000000000E+00  0.45593999997E+02  0.45594000000E+02  0.51100000000E-03 0.  1.
         11   -1    0    0    0    0 -0.00000000000E+00 -0.00000000000E+00 -0.45593999997E+02  0.45594000000E+02  0.51100000000E-03 0. -1.
    9900012    2    1    2    0    0 -0.23407106853E+02  0.60404284889E+01 -0.38009657524E+02  0.46142317714E+02  0.99999995703E+01 0.  0.
        -12    1    1    2    0    0  0.23407106853E+02 -0.60404284889E+01  0.38009657524E+02  0.45045682286E+02  0.00000000000E+00 0.  1.
         11    1    3    3    0    0 -0.13582034977E+02 -0.64724013951E+00 -0.16264260191E+02  0.21199451732E+02  0.51100000000E-03 0. -1.
        -11    1    3    3    0    0 -0.20157109422E+01  0.48763706280E+00 -0.55404227801E+01  0.59158402067E+01  0.51100000000E-03 0.  1.
         12    1    3    3    0    0 -0.78093609334E+01  0.62000315656E+01 -0.16204974553E+02  0.19027025775E+02  0.00000000000E+00 0. -1.
</event>
<event>
 7    1  0.3846293E-008  0.4614232E+02  0.7816164E-02  0.1320468E+00
        -11   -1    0    0    0    0  0.00000000000E+00  0.00000000000E+00  0.45593999997E+02  0.45594000000E+02  0.51100000000E-03 0. -1.
         11   -1    0    0    0    0 -0.00000000000E+00 -0.00000000000E+00 -0.45593999997E+02  0.45594000000E+02  0.51100000000E-03 0.  1.
    9900012    2    1    2    0    0  0.13740827257E+02 -0.21153138058E+02  0.37320876821E+02  0.46142318408E+02  0.10000005896E+02 0.  0.
        -12    1    1    2    0    0 -0.13740827257E+02  0.21153138058E+02 -0.37320876821E+02  0.45045681592E+02  0.00000000000E+00 0.  1.
         11    1    3    3    0    0  0.13504045605E+02 -0.14977451877E+02  0.31543411985E+02  0.37438885565E+02  0.51100000000E-03 0. -1.
        -11    1    3    3    0    0 -0.77570710525E+00 -0.12992365610E+01  0.10985900638E+01  0.18699298233E+01  0.51100000000E-03 0.  1.
         12    1    3    3    0    0  0.10124887571E+01 -0.48764496201E+01  0.46788747726E+01  0.68335030196E+01  0.00000000000E+00 0. -1.
</event>
<event>
 7    1  0.3846293E-008  0.4614232E+02  0.7816164E-02  0.1320468E+00
        -11   -1    0    0    0    0  0.00000000000E+00  0.00000000000E+00  0.45593999997E+02  0.45594000000E+02  0.51100000000E-03 0. -1.
         11   -1    0    0    0    0 -0.00000000000E+00 -0.00000000000E+00 -0.45593999997E+02  0.45594000000E+02  0.51100000000E-03 0.  1.
    9900012    2    1    2    0    0  0.44732901383E+02  0.31286322590E+01  0.42770085785E+01  0.46142316429E+02  0.99999878529E+01 0.  0.
        -12    1    1    2    0    0 -0.44732901383E+02 -0.31286322590E+01 -0.42770085785E+01  0.45045683571E+02  0.00000000000E+00 0.  1.
         11    1    3    3    0    0  0.20205384837E+02  0.15246998609E+01  0.71491552279E+00  0.20275438110E+02  0.51100000000E-03 0. -1.
        -11    1    3    3    0    0  0.13420093355E+02 -0.66492894846E-01 -0.15810122175E+01  0.13513065043E+02  0.51100000000E-03 0.  1.
         12    1    3    3    0    0  0.11107423191E+02  0.16704252930E+01  0.51431052732E+01  0.12353813276E+02  0.00000000000E+00 0. -1.
</event>
<event>
 7    1  0.3846293E-008  0.4614232E+02  0.7816164E-02  0.1320468E+00
        -11   -1    0    0    0    0  0.00000000000E+00  0.00000000000E+00  0.45593999997E+02  0.45594000000E+02  0.51100000000E-03 0. -1.
         11   -1    0    0    0    0 -0.00000000000E+00 -0.00000000000E+00 -0.45593999997E+02  0.45594000000E+02  0.51100000000E-03 0.  1.
    9900012    2    1    2    0    0  0.36234393037E+02  0.13047922526E+02  0.23365230490E+02  0.46142317445E+02  0.99999971157E+01 0.  0.
        -12    1    1    2    0    0 -0.36234393037E+02 -0.13047922526E+02 -0.23365230490E+02  0.45045682555E+02  0.00000000000E+00 0.  1.
         11    1    3    3    0    0  0.19666275740E+02  0.72902330948E+01  0.12132150683E+02  0.24230125475E+02  0.51100000000E-03 0. -1.
        -11    1    3    3    0    0  0.42029530128E+01 -0.14972316736E+01  0.22884020905E+01  0.50143096335E+01  0.51100000000E-03 0.  1.
        -12    1    3    3    0    0  0.12365164284E+02  0.72549211043E+01  0.89446777158E+01  0.16897882336E+02  0.00000000000E+00 0.  1.
</event>
<event>
 7    1  0.3846293E-008  0.4614232E+02  0.7816164E-02  0.1320468E+00
        -11   -1    0    0    0    0  0.00000000000E+00  0.00000000000E+00  0.45593999997E+02  0.45594000000E+02  0.51100000000E-03 0. -1.
         11   -1    0    0    0    0 -0.00000000000E+00 -0.00000000000E+00 -0.45593999997E+02  0.45594000000E+02  0.51100000000E-03 0.  1.
    9900012    2    1    2    0    0 -0.29894031442E+02 -0.16829390247E+02  0.29193012742E+02  0.46142317800E+02  0.10000000356E+02 0.  0.
        -12    1    1    2    0    0  0.29894031442E+02  0.16829390247E+02 -0.29193012742E+02  0.45045682200E+02  0.00000000000E+00 0.  1.
         11    1    3    3    0    0 -0.84054139152E+00 -0.28978393378E+01  0.17997301105E+01  0.35132622148E+01  0.51100000000E-03 0.  1.
        -11    1    3    3    0    0 -0.63643084623E+01 -0.55302893060E+01  0.62109926179E+01  0.10472103493E+02  0.51100000000E-03 0. -1.
        -12    1    3    3    0    0 -0.22689181588E+02 -0.84012616034E+01  0.21182290013E+02  0.32156952092E+02  0.00000000000E+00 0.  1.
</event>
<event>
 7    1  0.3846293E-008  0.4614232E+02  0.7816164E-02  0.1320468E+00
        -11   -1    0    0    0    0  0.00000000000E+00  0.00000000000E+00  0.45593999997E+02  0.45594000000E+02  0.51100000000E-03 0.  1.
         11   -1    0    0    0    0 -0.00000000000E+00 -0.00000000000E+00 -0.45593999997E+02  0.45594000000E+02  0.51100000000E-03 0. -1.
    9900012    2    1    2    0    0 -0.32441496527E+02 -0.13785680684E+02 -0.28046708409E+02  0.46142317172E+02  0.99999946323E+01 0.  0.
        -12    1    1    2    0    0  0.32441496527E+02  0.13785680684E+02  0.28046708409E+02  0.45045682828E+02  0.00000000000E+00 0.  1.
         11    1    3    3    0    0 -0.17754061566E+02 -0.87980666118E+01 -0.21021583239E+02  0.28888053592E+02  0.51100000000E-03 0. -1.
        -11    1    3    3    0    0 -0.30862704820E+01 -0.20910347896E+00 -0.22690003948E+01  0.38362941501E+01  0.51100000000E-03 0.  1.
        -12    1    3    3    0    0 -0.11601164479E+02 -0.47785105928E+01 -0.47561247746E+01  0.13417969430E+02  0.00000000000E+00 0.  1.
</event>
<event>
 7    1  0.3846293E-008  0.4614232E+02  0.7816164E-02  0.1320468E+00
        -11   -1    0    0    0    0  0.00000000000E+00  0.00000000000E+00  0.45593999997E+02  0.45594000000E+02  0.51100000000E-03 0.  1.
         11   -1    0    0    0    0 -0.00000000000E+00 -0.00000000000E+00 -0.45593999997E+02  0.45594000000E+02  0.51100000000E-03 0. -1.
    9900012    2    1    2    0    0 -0.11575276776E+02  0.42765228416E+02 -0.81401417117E+01  0.46142315401E+02  0.99999784761E+01 0.  0.
        -12    1    1    2    0    0  0.11575276776E+02 -0.42765228416E+02  0.81401417117E+01  0.45045684599E+02  0.00000000000E+00 0.  1.
         11    1    3    3    0    0  0.62631531672E+00  0.40941990522E+01 -0.27386961188E+01  0.49653996261E+01  0.51100000000E-03 0. -1.
        -11    1    3    3    0    0 -0.28043494760E+01  0.50515926017E+01  0.39313145492E+00  0.57911584678E+01  0.51100000000E-03 0.  1.
         12    1    3    3    0    0 -0.93972426166E+01  0.33619436762E+02 -0.57945770479E+01  0.35385757307E+02  0.00000000000E+00 0. -1.
</event>
<event>
 7    1  0.3846293E-008  0.4614232E+02  0.7816164E-02  0.1320468E+00
        -11   -1    0    0    0    0  0.00000000000E+00  0.00000000000E+00  0.45593999997E+02  0.45594000000E+02  0.51100000000E-03 0.  1.
         11   -1    0    0    0    0 -0.00000000000E+00 -0.00000000000E+00 -0.45593999997E+02  0.45594000000E+02  0.51100000000E-03 0. -1.
    9900012    2    1    2    0    0  0.39950206451E+02 -0.20808129213E+02 -0.34101481621E+00  0.46142317322E+02  0.99999959917E+01 0.  0.
        -12    1    1    2    0    0 -0.39950206451E+02  0.20808129213E+02  0.34101481621E+00  0.45045682678E+02  0.00000000000E+00 0.  1.
         11    1    3    3    0    0  0.26937681599E+02 -0.15225894244E+02 -0.16816478408E+01  0.30988618640E+02  0.51100000000E-03 0. -1.
        -11    1    3    3    0    0  0.51415756739E+00 -0.13417736393E+01  0.13264596550E+01  0.19555587387E+01  0.51100000000E-03 0.  1.
         12    1    3    3    0    0  0.12498367285E+02 -0.42404613300E+01  0.14173369561E-01  0.13198139943E+02  0.00000000000E+00 0. -1.
</event>
<event>
 7    1  0.3846293E-008  0.4614232E+02  0.7816164E-02  0.1320468E+00
        -11   -1    0    0    0    0  0.00000000000E+00  0.00000000000E+00  0.45593999997E+02  0.45594000000E+02  0.51100000000E-03 0. -1.
         11   -1    0    0    0    0 -0.00000000000E+00 -0.00000000000E+00 -0.45593999997E+02  0.45594000000E+02  0.51100000000E-03 0.  1.
    9900012    2    1    2    0    0 -0.37798699827E+02  0.21483941451E+01  0.24408118706E+02  0.46142316913E+02  0.99999922692E+01 0.  0.
        -12    1    1    2    0    0  0.37798699827E+02 -0.21483941451E+01 -0.24408118706E+02  0.45045683087E+02  0.00000000000E+00 0.  1.
         11    1    3    3    0    0 -0.25080153221E+02  0.15976747510E+01  0.16424268244E+02  0.30022045863E+02  0.51100000000E-03 0. -1.
        -11    1    3    3    0    0 -0.13085025662E+02  0.99450234267E+00  0.82346440486E+01  0.15492459274E+02  0.51100000000E-03 0.  1.
        -12    1    3    3    0    0  0.36647905604E+00 -0.44378294856E+00 -0.25079358645E+00  0.62781177669E+00  0.00000000000E+00 0.  1.
</event>
<event>
 7    1  0.3846293E-008  0.4614232E+02  0.7816164E-02  0.1320468E+00
        -11   -1    0    0    0    0  0.00000000000E+00  0.00000000000E+00  0.45593999997E+02  0.45594000000E+02  0.51100000000E-03 0.  1.
         11   -1    0    0    0    0 -0.00000000000E+00 -0.00000000000E+00 -0.45593999997E+02  0.45594000000E+02  0.51100000000E-03 0. -1.
    9900012    2    1    2    0    0 -0.33403145943E+02  0.11423350580E+02 -0.27979466224E+02  0.46142316216E+02  0.99999859111E+01 0.  0.
        -12    1    1    2    0    0  0.33403145943E+02 -0.11423350580E+02  0.27979466224E+02  0.45045683784E+02  0.00000000000E+00 0.  1.
         11    1    3    3    0    0 -0.11207382596E+02  0.62177754293E+01 -0.91197135023E+01  0.15730077259E+02  0.51100000000E-03 0. -1.
        -11    1    3    3    0    0 -0.41716700636E+01  0.14442355879E+01 -0.55525670078E+00  0.44493772393E+01  0.51100000000E-03 0.  1.
         12    1    3    3    0    0 -0.18024093284E+02  0.37613395626E+01 -0.18304496021E+02  0.25962861718E+02  0.00000000000E+00 0. -1.
</event>
<event>
 7    1  0.3846293E-008  0.4614231E+02  0.7816164E-02  0.1320468E+00
        -11   -1    0    0    0    0  0.00000000000E+00  0.00000000000E+00  0.45593999997E+02  0.45594000000E+02  0.51100000000E-03 0.  1.
         11   -1    0    0    0    0 -0.00000000000E+00 -0.00000000000E+00 -0.45593999997E+02  0.45594000000E+02  0.51100000000E-03 0. -1.
    9900012    2    1    2    0    0 -0.20195554544E+02 -0.96239517443E+01 -0.39097741063E+02  0.46142309565E+02  0.99999252596E+01 0.  0.
        -12    1    1    2    0    0  0.20195554544E+02  0.96239517443E+01  0.39097741063E+02  0.45045690435E+02  0.00000000000E+00 0.  1.
         11    1    3    3    0    0 -0.70899842797E+01 -0.31557193596E+01 -0.78001505857E+01  0.11003126428E+02  0.51100000000E-03 0. -1.
        -11    1    3    3    0    0 -0.50006720527E+01 -0.34868060048E+01 -0.66451287006E+01  0.90178862714E+01  0.51100000000E-03 0.  1.
        -12    1    3    3    0    0 -0.81048982116E+01 -0.29814263799E+01 -0.24652461777E+02  0.26121296866E+02  0.00000000000E+00 0.  1.
</event>
<event>
 7    1  0.3846293E-008  0.4614232E+02  0.7816164E-02  0.1320468E+00
        -11   -1    0    0    0    0  0.00000000000E+00  0.00000000000E+00  0.45593999997E+02  0.45594000000E+02  0.51100000000E-03 0.  1.
         11   -1    0    0    0    0 -0.00000000000E+00 -0.00000000000E+00 -0.45593999997E+02  0.45594000000E+02  0.51100000000E-03 0. -1.
    9900012    2    1    2    0    0 -0.94489718886E+01  0.30359547560E+01 -0.43938745955E+02  0.46142317775E+02  0.10000000128E+02 0.  0.
        -12    1    1    2    0    0  0.94489718886E+01 -0.30359547560E+01  0.43938745955E+02  0.45045682225E+02  0.00000000000E+00 0.  1.
         11    1    3    3    0    0 -0.55530214512E+01  0.55522339155E+01 -0.18602373262E+02  0.20191870640E+02  0.51100000000E-03 0. -1.
        -11    1    3    3    0    0 -0.23358999960E+00 -0.75651405550E+00 -0.99156551791E+00  0.12688893732E+01  0.51100000000E-03 0.  1.
        -12    1    3    3    0    0 -0.36623604378E+01 -0.17597651040E+01 -0.24344807175E+02  0.24681557762E+02  0.00000000000E+00 0.  1.
</event>
<event>
 7    1  0.3846293E-008  0.4614232E+02  0.7816164E-02  0.1320468E+00
        -11   -1    0    0    0    0  0.00000000000E+00  0.00000000000E+00  0.45593999997E+02  0.45594000000E+02  0.51100000000E-03 0.  1.
         11   -1    0    0    0    0 -0.00000000000E+00 -0.00000000000E+00 -0.45593999997E+02  0.45594000000E+02  0.51100000000E-03 0. -1.
    9900012    2    1    2    0    0 -0.14644499621E+02  0.34329798646E+01 -0.42460178580E+02  0.46142317799E+02  0.10000000349E+02 0.  0.
        -12    1    1    2    0    0  0.14644499621E+02 -0.34329798646E+01  0.42460178580E+02  0.45045682201E+02  0.00000000000E+00 0.  1.
         11    1    3    3    0    0 -0.53561355509E+01  0.19931767704E+01 -0.16629555599E+02  0.17584170761E+02  0.51100000000E-03 0. -1.
        -11    1    3    3    0    0 -0.64949133670E+01 -0.18827380786E+01 -0.21008613552E+02  0.22070125644E+02  0.51100000000E-03 0.  1.
        -12    1    3    3    0    0 -0.27934507034E+01  0.33225411728E+01 -0.48220094282E+01  0.64880213935E+01  0.00000000000E+00 0.  1.
</event>
<event>
 7    1  0.3846293E-008  0.4614232E+02  0.7816164E-02  0.1320468E+00
        -11   -1    0    0    0    0  0.00000000000E+00  0.00000000000E+00  0.45593999997E+02  0.45594000000E+02  0.51100000000E-03 0. -1.
         11   -1    0    0    0    0 -0.00000000000E+00 -0.00000000000E+00 -0.45593999997E+02  0.45594000000E+02  0.51100000000E-03 0.  1.
    9900012    2    1    2    0    0 -0.28518122362E+02  0.74027673777E+01  0.34073878433E+02  0.46142318083E+02  0.10000002932E+02 0.  0.
        -12    1    1    2    0    0  0.28518122362E+02 -0.74027673777E+01 -0.34073878433E+02  0.45045681917E+02  0.00000000000E+00 0.  1.
         11    1    3    3    0    0 -0.68697051864E+00 -0.39718224477E+00 -0.90127721309E-01  0.79862725743E+00  0.51100000000E-03 0.  1.
        -11    1    3    3    0    0 -0.10300498139E+02  0.46890610727E+01  0.87120997784E+01  0.14282445115E+02  0.51100000000E-03 0. -1.
         12    1    3    3    0    0 -0.17530653704E+02  0.31108885498E+01  0.25451906376E+02  0.31061245710E+02  0.00000000000E+00 0. -1.
</event>
<event>
 7    1  0.3846293E-008  0.4614232E+02  0.7816164E-02  0.1320468E+00
        -11   -1    0    0    0    0  0.00000000000E+00  0.00000000000E+00  0.45593999997E+02  0.45594000000E+02  0.51100000000E-03 0.  1.
         11   -1    0    0    0    0 -0.00000000000E+00 -0.00000000000E+00 -0.45593999997E+02  0.45594000000E+02  0.51100000000E-03 0. -1.
    9900012    2    1    2    0    0 -0.95847177276E+01  0.41980652597E+02 -0.13223896431E+02  0.46142318262E+02  0.10000004569E+02 0.  0.
        -12    1    1    2    0    0  0.95847177276E+01 -0.41980652597E+02  0.13223896431E+02  0.45045681738E+02  0.00000000000E+00 0.  1.
         11    1    3    3    0    0 -0.36989805259E+01  0.20995252423E+02 -0.58942817681E+01  0.22118445675E+02  0.51100000000E-03 0. -1.
        -11    1    3    3    0    0 -0.32337147979E+01  0.17353864883E+02 -0.32439074919E+01  0.17948160737E+02  0.51100000000E-03 0.  1.
        -12    1    3    3    0    0 -0.26520224038E+01  0.36315352907E+01 -0.40857071706E+01  0.60757118498E+01  0.00000000000E+00 0.  1.
</event>
<event>
 7    1  0.3846293E-008  0.4614232E+02  0.7816164E-02  0.1320468E+00
        -11   -1    0    0    0    0  0.00000000000E+00  0.00000000000E+00  0.45593999997E+02  0.45594000000E+02  0.51100000000E-03 0.  1.
         11   -1    0    0    0    0 -0.00000000000E+00 -0.00000000000E+00 -0.45593999997E+02  0.45594000000E+02  0.51100000000E-03 0. -1.
    9900012    2    1    2    0    0  0.12482115597E+02 -0.41211869368E+02 -0.13224676249E+02  0.46142318204E+02  0.10000004042E+02 0.  0.
        -12    1    1    2    0    0 -0.12482115597E+02  0.41211869368E+02  0.13224676249E+02  0.45045681796E+02  0.00000000000E+00 0.  1.
         11    1    3    3    0    0  0.31756544203E+01 -0.13715745599E+02  0.20024550979E-01  0.14078595796E+02  0.51100000000E-03 0.  1.
        -11    1    3    3    0    0  0.54483346025E+01 -0.11595528075E+02 -0.51383812822E+01  0.13803752524E+02  0.51100000000E-03 0. -1.
        -12    1    3    3    0    0  0.38581265742E+01 -0.15900595693E+02 -0.81063195176E+01  0.18259969885E+02  0.00000000000E+00 0.  1.
</event>
<event>
 7    1  0.3846293E-008  0.4614232E+02  0.7816164E-02  0.1320468E+00
        -11   -1    0    0    0    0  0.00000000000E+00  0.00000000000E+00  0.45593999997E+02  0.45594000000E+02  0.51100000000E-03 0. -1.
         11   -1    0    0    0    0 -0.00000000000E+00 -0.00000000000E+00 -0.45593999997E+02  0.45594000000E+02  0.51100000000E-03 0.  1.
    9900012    2    1    2    0    0 -0.38600303484E+02  0.29759629978E+01  0.23027672876E+02  0.46142317600E+02  0.99999985327E+01 0.  0.
        -12    1    1    2    0    0  0.38600303484E+02 -0.29759629978E+01 -0.23027672876E+02  0.45045682400E+02  0.00000000000E+00 0.  1.
         11    1    3    3    0    0 -0.77442235776E+01  0.14251487950E+01  0.48225329576E+01  0.92336814053E+01  0.51100000000E-03 0. -1.
        -11    1    3    3    0    0  0.30965708846E+00 -0.66507755529E+00  0.10001607280E+01  0.12403779303E+01  0.51100000000E-03 0.  1.
        -12    1    3    3    0    0 -0.31165736994E+02  0.22158917581E+01  0.17204979190E+02  0.35668258265E+02  0.00000000000E+00 0.  1.
</event>
<event>
 7    1  0.3846293E-008  0.4614232E+02  0.7816164E-02  0.1320468E+00
        -11   -1    0    0    0    0  0.00000000000E+00  0.00000000000E+00  0.45593999997E+02  0.45594000000E+02  0.51100000000E-03 0. -1.
         11   -1    0    0    0    0 -0.00000000000E+00 -0.00000000000E+00 -0.45593999997E+02  0.45594000000E+02  0.51100000000E-03 0.  1.
    9900012    2    1    2    0    0  0.24378661065E+02 -0.36366770343E+02  0.10594919735E+02  0.46142318468E+02  0.10000006443E+02 0.  0.
        -12    1    1    2    0    0 -0.24378661065E+02  0.36366770343E+02 -0.10594919735E+02  0.45045681532E+02  0.00000000000E+00 0.  1.
         11    1    3    3    0    0  0.11280927063E+02 -0.16178965949E+02  0.64120128957E+01  0.20739627871E+02  0.51100000000E-03 0. -1.
        -11    1    3    3    0    0  0.75290365700E+01 -0.15325158117E+02  0.54041670427E+01  0.17909547305E+02  0.51100000000E-03 0.  1.
        -12    1    3    3    0    0  0.55686974320E+01 -0.48626462770E+01 -0.12212602038E+01  0.74931432917E+01  0.00000000000E+00 0.  1.
</event>
<event>
 7    1  0.3846293E-008  0.4614232E+02  0.7816164E-02  0.1320468E+00
        -11   -1    0    0    0    0  0.00000000000E+00  0.00000000000E+00  0.45593999997E+02  0.45594000000E+02  0.51100000000E-03 0.  1.
         11   -1    0    0    0    0 -0.00000000000E+00 -0.00000000000E+00 -0.45593999997E+02  0.45594000000E+02  0.51100000000E-03 0. -1.
    9900012    2    1    2    0    0 -0.22589697233E+02  0.11069554000E+02 -0.37366883603E+02  0.46142318331E+02  0.10000005195E+02 0.  0.
        -12    1    1    2    0    0  0.22589697233E+02 -0.11069554000E+02  0.37366883603E+02  0.45045681669E+02  0.00000000000E+00 0.  1.
         11    1    3    3    0    0 -0.61434955417E+01  0.11547019184E+01 -0.62727422719E+01  0.88556857364E+01  0.51100000000E-03 0.  1.
        -11    1    3    3    0    0 -0.16108462725E+02  0.79033435798E+01 -0.24389412103E+02  0.30278521003E+02  0.51100000000E-03 0. -1.
        -12    1    3    3    0    0 -0.33773896598E+00  0.20115085018E+01 -0.67047292278E+01  0.70081115916E+01  0.00000000000E+00 0.  1.
</event>
<event>
 7    1  0.3846293E-008  0.4614232E+02  0.7816164E-02  0.1320468E+00
        -11   -1    0    0    0    0  0.00000000000E+00  0.00000000000E+00  0.45593999997E+02  0.45594000000E+02  0.51100000000E-03 0.  1.
         11   -1    0    0    0    0 -0.00000000000E+00 -0.00000000000E+00 -0.45593999997E+02  0.45594000000E+02  0.51100000000E-03 0. -1.
    9900012    2    1    2    0    0  0.71871089593E+01 -0.44403378937E+02 -0.24080855224E+01  0.46142317942E+02  0.10000001649E+02 0.  0.
        -12    1    1    2    0    0 -0.71871089593E+01  0.44403378937E+02  0.24080855224E+01  0.45045682058E+02  0.00000000000E+00 0.  1.
         11    1    3    3    0    0  0.58694302112E+01 -0.16048634123E+02 -0.13867088269E+01  0.17144440202E+02  0.51100000000E-03 0. -1.
        -11    1    3    3    0    0 -0.89856599374E+00 -0.44991061168E+01  0.16839985438E+01  0.48872515847E+01  0.51100000000E-03 0.  1.
         12    1    3    3    0    0  0.22162447418E+01 -0.23855638697E+02 -0.27053752394E+01  0.24110626155E+02  0.00000000000E+00 0. -1.
</event>
<event>
 7    1  0.3846293E-008  0.4614232E+02  0.7816164E-02  0.1320468E+00
        -11   -1    0    0    0    0  0.00000000000E+00  0.00000000000E+00  0.45593999997E+02  0.45594000000E+02  0.51100000000E-03 0.  1.
         11   -1    0    0    0    0 -0.00000000000E+00 -0.00000000000E+00 -0.45593999997E+02  0.45594000000E+02  0.51100000000E-03 0. -1.
    9900012    2    1    2    0    0 -0.35907911268E+02 -0.10168791890E+02 -0.25225603772E+02  0.46142317567E+02  0.99999982312E+01 0.  0.
        -12    1    1    2    0    0  0.35907911268E+02  0.10168791890E+02  0.25225603772E+02  0.45045682433E+02  0.00000000000E+00 0.  1.
         11    1    3    3    0    0 -0.22474051247E+02 -0.56674523419E+01 -0.12919774700E+02  0.26535326907E+02  0.51100000000E-03 0. -1.
        -11    1    3    3    0    0 -0.13343633956E+01 -0.96445889232E+00  0.41523336759E+00  0.16979769248E+01  0.51100000000E-03 0.  1.
        -12    1    3    3    0    0 -0.12099496626E+02 -0.35368806561E+01 -0.12721062440E+02  0.17909013735E+02  0.00000000000E+00 0.  1.
</event>
<event>
 7    1  0.3846293E-008  0.4614232E+02  0.7816164E-02  0.1320468E+00
        -11   -1    0    0    0    0  0.00000000000E+00  0.00000000000E+00  0.45593999997E+02  0.45594000000E+02  0.51100000000E-03 0.  1.
         11   -1    0    0    0    0 -0.00000000000E+00 -0.00000000000E+00 -0.45593999997E+02  0.45594000000E+02  0.51100000000E-03 0. -1.
    9900012    2    1    2    0    0 -0.44686950751E+01 -0.16728780612E+02 -0.41584758263E+02  0.46142318118E+02  0.10000003255E+02 0.  0.
        -12    1    1    2    0    0  0.44686950751E+01  0.16728780612E+02  0.41584758263E+02  0.45045681882E+02  0.00000000000E+00 0.  1.
         11    1    3    3    0    0 -0.97329206122E+00  0.27595920259E+00 -0.99871689507E+00  0.14215789164E+01  0.51100000000E-03 0. -1.
        -11    1    3    3    0    0 -0.42793113291E+01 -0.46898168657E+01 -0.15948212446E+02  0.17165441101E+02  0.51100000000E-03 0.  1.
         12    1    3    3    0    0  0.78390831522E+00 -0.12314922949E+02 -0.24637828921E+02  0.27555298101E+02  0.00000000000E+00 0. -1.
</event>
<event>
 7    1  0.3846293E-008  0.4614232E+02  0.7816164E-02  0.1320468E+00
        -11   -1    0    0    0    0  0.00000000000E+00  0.00000000000E+00  0.45593999997E+02  0.45594000000E+02  0.51100000000E-03 0.  1.
         11   -1    0    0    0    0 -0.00000000000E+00 -0.00000000000E+00 -0.45593999997E+02  0.45594000000E+02  0.51100000000E-03 0. -1.
    9900012    2    1    2    0    0  0.31226296508E+01 -0.36933060682E+02 -0.25599059252E+02  0.46142316279E+02  0.99999864839E+01 0.  0.
        -12    1    1    2    0    0 -0.31226296508E+01  0.36933060682E+02  0.25599059252E+02  0.45045683721E+02  0.00000000000E+00 0.  1.
         11    1    3    3    0    0  0.62023306840E+00 -0.10168386134E+02 -0.57047194127E+01  0.11675812154E+02  0.51100000000E-03 0. -1.
        -11    1    3    3    0    0  0.46539811146E+01 -0.10998294221E+02 -0.11002581964E+02  0.16238190358E+02  0.51100000000E-03 0.  1.
        -12    1    3    3    0    0 -0.21515845322E+01 -0.15766380328E+02 -0.88917578759E+01  0.18228313766E+02  0.00000000000E+00 0.  1.
</event>
<event>
 7    1  0.3846293E-008  0.4614232E+02  0.7816164E-02  0.1320468E+00
        -11   -1    0    0    0    0  0.00000000000E+00  0.00000000000E+00  0.45593999997E+02  0.45594000000E+02  0.51100000000E-03 0.  1.
         11   -1    0    0    0    0 -0.00000000000E+00 -0.00000000000E+00 -0.45593999997E+02  0.45594000000E+02  0.51100000000E-03 0. -1.
    9900012    2    1    2    0    0 -0.39982936384E+02 -0.20398318953E+02  0.37930061033E+01  0.46142317484E+02  0.99999974772E+01 0.  0.
        -12    1    1    2    0    0  0.39982936384E+02  0.20398318953E+02 -0.37930061033E+01  0.45045682516E+02  0.00000000000E+00 0.  1.
         11    1    3    3    0    0 -0.72028206822E+01 -0.48689449348E+01 -0.17694398161E+01  0.88723259680E+01  0.51100000000E-03 0. -1.
        -11    1    3    3    0    0 -0.32612663676E+01 -0.18261735895E+01  0.26777771202E+01  0.45979624690E+01  0.51100000000E-03 0.  1.
         12    1    3    3    0    0 -0.29518849334E+02 -0.13703200429E+02  0.28846687992E+01  0.32672029048E+02  0.00000000000E+00 0. -1.
</event>
<event>
 7    1  0.3846293E-008  0.4614232E+02  0.7816164E-02  0.1320468E+00
        -11   -1    0    0    0    0  0.00000000000E+00  0.00000000000E+00  0.45593999997E+02  0.45594000000E+02  0.51100000000E-03 0. -1.
         11   -1    0    0    0    0 -0.00000000000E+00 -0.00000000000E+00 -0.45593999997E+02  0.45594000000E+02  0.51100000000E-03 0.  1.
    9900012    2    1    2    0    0 -0.13041124642E+02  0.42345897985E+02 -0.81158830707E+01  0.46142316898E+02  0.99999921337E+01 0.  0.
        -12    1    1    2    0    0  0.13041124642E+02 -0.42345897985E+02  0.81158830707E+01  0.45045683102E+02  0.00000000000E+00 0.  1.
         11    1    3    3    0    0 -0.48763831936E+01  0.11413547317E+02 -0.38113736751E+01  0.12983633735E+02  0.51100000000E-03 0. -1.
        -11    1    3    3    0    0 -0.29736231277E+01  0.24183318154E+01  0.14933841932E+00  0.38357613977E+01  0.51100000000E-03 0.  1.
         12    1    3    3    0    0 -0.51911183207E+01  0.28514018853E+02 -0.44538478149E+01  0.29322921766E+02  0.00000000000E+00 0. -1.
</event>
<event>
 7    1  0.3846293E-008  0.4614232E+02  0.7816164E-02  0.1320468E+00
        -11   -1    0    0    0    0  0.00000000000E+00  0.00000000000E+00  0.45593999997E+02  0.45594000000E+02  0.51100000000E-03 0.  1.
         11   -1    0    0    0    0 -0.00000000000E+00 -0.00000000000E+00 -0.45593999997E+02  0.45594000000E+02  0.51100000000E-03 0. -1.
    9900012    2    1    2    0    0 -0.21011974614E+02 -0.11355991317E+01 -0.39828642423E+02  0.46142318522E+02  0.10000006934E+02 0.  0.
        -12    1    1    2    0    0  0.21011974614E+02  0.11355991317E+01  0.39828642423E+02  0.45045681478E+02  0.00000000000E+00 0.  1.
         11    1    3    3    0    0 -0.57081770692E+01  0.14303941244E+01 -0.16166003178E+02  0.17203748772E+02  0.51100000000E-03 0. -1.
        -11    1    3    3    0    0 -0.11163080507E+02 -0.41921104595E+01 -0.19435583701E+02  0.22801975146E+02  0.51100000000E-03 0.  1.
        -12    1    3    3    0    0 -0.41407170380E+01  0.16261172034E+01 -0.42270555446E+01  0.61365946033E+01  0.00000000000E+00 0.  1.
</event>
<event>
 7    1  0.3846293E-008  0.4614232E+02  0.7816164E-02  0.1320468E+00
        -11   -1    0    0    0    0  0.00000000000E+00  0.00000000000E+00  0.45593999997E+02  0.45594000000E+02  0.51100000000E-03 0.  1.
         11   -1    0    0    0    0 -0.00000000000E+00 -0.00000000000E+00 -0.45593999997E+02  0.45594000000E+02  0.51100000000E-03 0. -1.
    9900012    2    1    2    0    0  0.29997887340E+02 -0.23116604487E+02 -0.24389810342E+02  0.46142317672E+02  0.99999991844E+01 0.  0.
        -12    1    1    2    0    0 -0.29997887340E+02  0.23116604487E+02  0.24389810342E+02  0.45045682328E+02  0.00000000000E+00 0.  1.
         11    1    3    3    0    0  0.12927590580E+02 -0.68400121471E+01 -0.11952269962E+02  0.18888227071E+02  0.51100000000E-03 0.  1.
        -11    1    3    3    0    0  0.10173109910E+02 -0.93664958556E+01 -0.41222263746E+01  0.14429697169E+02  0.51100000000E-03 0. -1.
         12    1    3    3    0    0  0.68971868502E+01 -0.69100964845E+01 -0.83153140055E+01  0.12824393431E+02  0.00000000000E+00 0. -1.
</event>
<event>
 7    1  0.3846293E-008  0.4614232E+02  0.7816164E-02  0.1320468E+00
        -11   -1    0    0    0    0  0.00000000000E+00  0.00000000000E+00  0.45593999997E+02  0.45594000000E+02  0.51100000000E-03 0.  1.
         11   -1    0    0    0    0 -0.00000000000E+00 -0.00000000000E+00 -0.45593999997E+02  0.45594000000E+02  0.51100000000E-03 0. -1.
    9900012    2    1    2    0    0  0.45230675768E+01  0.24155387179E+02 -0.37751453350E+02  0.46142322071E+02  0.10000039303E+02 0.  0.
        -12    1    1    2    0    0 -0.45230675768E+01 -0.24155387179E+02  0.37751453350E+02  0.45045677929E+02  0.00000000000E+00 0.  1.
         11    1    3    3    0    0 -0.35250741466E+00  0.30519288158E+01 -0.97561757913E+01  0.10228465051E+02  0.51100000000E-03 0. -1.
        -11    1    3    3    0    0  0.38513438472E+01  0.15545323826E+02 -0.24495245058E+02  0.29266140384E+02  0.51100000000E-03 0.  1.
        -12    1    3    3    0    0  0.10242311442E+01  0.55581345364E+01 -0.35000325008E+01  0.66477166357E+01  0.00000000000E+00 0.  1.
</event>
<event>
 7    1  0.3846293E-008  0.4614232E+02  0.7816164E-02  0.1320468E+00
        -11   -1    0    0    0    0  0.00000000000E+00  0.00000000000E+00  0.45593999997E+02  0.45594000000E+02  0.51100000000E-03 0.  1.
         11   -1    0    0    0    0 -0.00000000000E+00 -0.00000000000E+00 -0.45593999997E+02  0.45594000000E+02  0.51100000000E-03 0. -1.
    9900012    2    1    2    0    0  0.16011415776E+01  0.44993527221E+02  0.14602760671E+01  0.46142317051E+02  0.99999935234E+01 0.  0.
        -12    1    1    2    0    0 -0.16011415776E+01 -0.44993527221E+02 -0.14602760671E+01  0.45045682949E+02  0.00000000000E+00 0.  1.
         11    1    3    3    0    0  0.33748248300E+01  0.63171335940E+01 -0.43715301107E+00  0.71754248999E+01  0.51100000000E-03 0.  1.
        -11    1    3    3    0    0  0.75246028460E+00  0.78001368370E+01  0.15354331562E+01  0.79853544940E+01  0.51100000000E-03 0. -1.
        -12    1    3    3    0    0 -0.25261435370E+01  0.30876256790E+02  0.36199592204E+00  0.30981537657E+02  0.00000000000E+00 0.  1.
</event>
<event>
 7    1  0.3846293E-008  0.4614232E+02  0.7816164E-02  0.1320468E+00
        -11   -1    0    0    0    0  0.00000000000E+00  0.00000000000E+00  0.45593999997E+02  0.45594000000E+02  0.51100000000E-03 0. -1.
         11   -1    0    0    0    0 -0.00000000000E+00 -0.00000000000E+00 -0.45593999997E+02  0.45594000000E+02  0.51100000000E-03 0.  1.
    9900012    2    1    2    0    0 -0.13876039339E+01  0.55489064030E+01  0.44681066370E+02  0.46142317644E+02  0.99999989360E+01 0.  0.
        -12    1    1    2    0    0  0.13876039339E+01 -0.55489064030E+01 -0.44681066370E+02  0.45045682356E+02  0.00000000000E+00 0.  1.
         11    1    3    3    0    0 -0.37042033000E+01  0.42311490535E+01  0.23222381075E+02  0.23893570839E+02  0.51100000000E-03 0. -1.
        -11    1    3    3    0    0 -0.13146477677E+01  0.13638094713E+01  0.11362103519E+02  0.11518926672E+02  0.51100000000E-03 0.  1.
         12    1    3    3    0    0  0.36312471338E+01 -0.46052121860E-01  0.10096581775E+02  0.10729820133E+02  0.00000000000E+00 0. -1.
</event>
<event>
 7    1  0.3846293E-008  0.4614232E+02  0.7816164E-02  0.1320468E+00
        -11   -1    0    0    0    0  0.00000000000E+00  0.00000000000E+00  0.45593999997E+02  0.45594000000E+02  0.51100000000E-03 0.  1.
         11   -1    0    0    0    0 -0.00000000000E+00 -0.00000000000E+00 -0.45593999997E+02  0.45594000000E+02  0.51100000000E-03 0. -1.
    9900012    2    1    2    0    0 -0.30763452019E+01  0.17243386819E+02 -0.41500785807E+02  0.46142317506E+02  0.99999976719E+01 0.  0.
        -12    1    1    2    0    0  0.30763452019E+01 -0.17243386819E+02  0.41500785807E+02  0.45045682494E+02  0.00000000000E+00 0.  1.
         11    1    3    3    0    0 -0.34140339081E+01  0.12803040475E+02 -0.31257785858E+02  0.33950296758E+02  0.51100000000E-03 0. -1.
        -11    1    3    3    0    0 -0.10747462066E+01  0.36861328481E+01 -0.32879092000E+01  0.50549977201E+01  0.51100000000E-03 0.  1.
         12    1    3    3    0    0  0.14124349129E+01  0.75421349655E+00 -0.69550907484E+01  0.71370230279E+01  0.00000000000E+00 0. -1.
</event>
<event>
 7    1  0.3846293E-008  0.4614232E+02  0.7816164E-02  0.1320468E+00
        -11   -1    0    0    0    0  0.00000000000E+00  0.00000000000E+00  0.45593999997E+02  0.45594000000E+02  0.51100000000E-03 0.  1.
         11   -1    0    0    0    0 -0.00000000000E+00 -0.00000000000E+00 -0.45593999997E+02  0.45594000000E+02  0.51100000000E-03 0. -1.
    9900012    2    1    2    0    0 -0.20483962614E+02  0.10039001067E+02 -0.38842491149E+02  0.46142318903E+02  0.10000010415E+02 0.  0.
        -12    1    1    2    0    0  0.20483962614E+02 -0.10039001067E+02  0.38842491149E+02  0.45045681097E+02  0.00000000000E+00 0.  1.
         11    1    3    3    0    0 -0.12186000904E+02  0.48350309748E+01 -0.20869098044E+02  0.24645392997E+02  0.51100000000E-03 0. -1.
        -11    1    3    3    0    0 -0.78822574965E+01  0.14611176634E+01 -0.12647982714E+02  0.14974522198E+02  0.51100000000E-03 0.  1.
         12    1    3    3    0    0 -0.41570421393E+00  0.37428524288E+01 -0.53254103911E+01  0.65224037081E+01  0.00000000000E+00 0. -1.
</event>
<event>
 7    1  0.3846293E-008  0.4614232E+02  0.7816164E-02  0.1320468E+00
        -11   -1    0    0    0    0  0.00000000000E+00  0.00000000000E+00  0.45593999997E+02  0.45594000000E+02  0.51100000000E-03 0.  1.
         11   -1    0    0    0    0 -0.00000000000E+00 -0.00000000000E+00 -0.45593999997E+02  0.45594000000E+02  0.51100000000E-03 0. -1.
    9900012    2    1    2    0    0 -0.22873098450E+02  0.23996792115E+02 -0.30497357754E+02  0.46142317693E+02  0.99999993793E+01 0.  0.
        -12    1    1    2    0    0  0.22873098450E+02 -0.23996792115E+02  0.30497357754E+02  0.45045682307E+02  0.00000000000E+00 0.  1.
         11    1    3    3    0    0 -0.52813028431E+01  0.45577042713E+01 -0.10029947837E+02  0.12217392595E+02  0.51100000000E-03 0.  1.
        -11    1    3    3    0    0 -0.11306791168E+02  0.90857958511E+01 -0.80944068961E+01  0.16610678373E+02  0.51100000000E-03 0. -1.
         12    1    3    3    0    0 -0.62850044387E+01  0.10353291993E+02 -0.12373003021E+02  0.17314246724E+02  0.00000000000E+00 0. -1.
</event>
<event>
 7    1  0.3846293E-008  0.4614232E+02  0.7816164E-02  0.1320468E+00
        -11   -1    0    0    0    0  0.00000000000E+00  0.00000000000E+00  0.45593999997E+02  0.45594000000E+02  0.51100000000E-03 0. -1.
         11   -1    0    0    0    0 -0.00000000000E+00 -0.00000000000E+00 -0.45593999997E+02  0.45594000000E+02  0.51100000000E-03 0.  1.
    9900012    2    1    2    0    0 -0.35860779101E+02  0.14476999188E+02  0.23098366535E+02  0.46142317412E+02  0.99999968143E+01 0.  0.
        -12    1    1    2    0    0  0.35860779101E+02 -0.14476999188E+02 -0.23098366535E+02  0.45045682588E+02  0.00000000000E+00 0.  1.
         11    1    3    3    0    0 -0.18919701166E+02  0.10519678045E+02  0.11321585309E+02  0.24429429231E+02  0.51100000000E-03 0. -1.
        -11    1    3    3    0    0 -0.55305789722E+00  0.13851001035E+01  0.24902963220E+00  0.15120817945E+01  0.51100000000E-03 0.  1.
         12    1    3    3    0    0 -0.16388020038E+02  0.25722210396E+01  0.11527751594E+02  0.20200806386E+02  0.00000000000E+00 0. -1.
</event>
<event>
 7    1  0.3846293E-008  0.4614232E+02  0.7816164E-02  0.1320468E+00
        -11   -1    0    0    0    0  0.00000000000E+00  0.00000000000E+00  0.45593999997E+02  0.45594000000E+02  0.51100000000E-03 0.  1.
         11   -1    0    0    0    0 -0.00000000000E+00 -0.00000000000E+00 -0.45593999997E+02  0.45594000000E+02  0.51100000000E-03 0. -1.
    9900012    2    1    2    0    0 -0.11645154656E+02  0.39152741146E+02 -0.18988594689E+02  0.46142317693E+02  0.99999993799E+01 0.  0.
        -12    1    1    2    0    0  0.11645154656E+02 -0.39152741146E+02  0.18988594689E+02  0.45045682307E+02  0.00000000000E+00 0.  1.
         11    1    3    3    0    0 -0.55458376806E+01  0.17307560266E+02 -0.97372312305E+01  0.20618477884E+02  0.51100000000E-03 0. -1.
        -11    1    3    3    0    0 -0.64486977040E+01  0.16895460700E+02 -0.44601585172E+01  0.18626199521E+02  0.51100000000E-03 0.  1.
        -12    1    3    3    0    0  0.34938072897E+00  0.49497201807E+01 -0.47912049413E+01  0.68976402886E+01  0.00000000000E+00 0.  1.
</event>
<event>
 7    1  0.3846293E-008  0.4614232E+02  0.7816164E-02  0.1320468E+00
        -11   -1    0    0    0    0  0.00000000000E+00  0.00000000000E+00  0.45593999997E+02  0.45594000000E+02  0.51100000000E-03 0. -1.
         11   -1    0    0    0    0 -0.00000000000E+00 -0.00000000000E+00 -0.45593999997E+02  0.45594000000E+02  0.51100000000E-03 0.  1.
    9900012    2    1    2    0    0  0.15966776592E+02 -0.90908047309E+01  0.41128248098E+02  0.46142317888E+02  0.10000001153E+02 0.  0.
        -12    1    1    2    0    0 -0.15966776592E+02  0.90908047309E+01 -0.41128248098E+02  0.45045682112E+02  0.00000000000E+00 0.  1.
         11    1    3    3    0    0  0.40351631046E+01 -0.17157680029E+01  0.69081855793E+01  0.81822630964E+01  0.51100000000E-03 0. -1.
        -11    1    3    3    0    0  0.74608931697E+01 -0.87800654403E+01  0.21304418015E+02  0.24220501713E+02  0.51100000000E-03 0.  1.
         12    1    3    3    0    0  0.44707203176E+01  0.14050287123E+01  0.12915644504E+02  0.13739553078E+02  0.00000000000E+00 0. -1.
</event>
<event>
 7    1  0.3846293E-008  0.4614232E+02  0.7816164E-02  0.1320468E+00
        -11   -1    0    0    0    0  0.00000000000E+00  0.00000000000E+00  0.45593999997E+02  0.45594000000E+02  0.51100000000E-03 0. -1.
         11   -1    0    0    0    0 -0.00000000000E+00 -0.00000000000E+00 -0.45593999997E+02  0.45594000000E+02  0.51100000000E-03 0.  1.
    9900012    2    1    2    0    0 -0.21349142342E+02 -0.38309867040E+02  0.10280162826E+02  0.46142317198E+02  0.99999948650E+01 0.  0.
        -12    1    1    2    0    0  0.21349142342E+02  0.38309867040E+02 -0.10280162826E+02  0.45045682802E+02  0.00000000000E+00 0.  1.
         11    1    3    3    0    0 -0.99738906304E+01 -0.21222932959E+02  0.70568082534E+01  0.24488567142E+02  0.51100000000E-03 0. -1.
        -11    1    3    3    0    0 -0.38766982817E+01 -0.18131674918E+01  0.15691380618E+01  0.45583506270E+01  0.51100000000E-03 0.  1.
        -12    1    3    3    0    0 -0.74985534297E+01 -0.15273766590E+02  0.16542165108E+01  0.17095399429E+02  0.00000000000E+00 0.  1.
</event>
<event>
 7    1  0.3846293E-008  0.4614232E+02  0.7816164E-02  0.1320468E+00
        -11   -1    0    0    0    0  0.00000000000E+00  0.00000000000E+00  0.45593999997E+02  0.45594000000E+02  0.51100000000E-03 0.  1.
         11   -1    0    0    0    0 -0.00000000000E+00 -0.00000000000E+00 -0.45593999997E+02  0.45594000000E+02  0.51100000000E-03 0. -1.
    9900012    2    1    2    0    0 -0.35015955324E+02 -0.19271910900E+01 -0.28271576450E+02  0.46142320654E+02  0.10000026383E+02 0.  0.
        -12    1    1    2    0    0  0.35015955324E+02  0.19271910900E+01  0.28271576450E+02  0.45045679346E+02  0.00000000000E+00 0.  1.
         11    1    3    3    0    0 -0.27667310516E+02  0.13071059737E+01 -0.23063706355E+02  0.36043350958E+02  0.51100000000E-03 0. -1.
        -11    1    3    3    0    0 -0.38380712234E+01 -0.11217093751E+00 -0.31648679126E+01  0.49759182268E+01  0.51100000000E-03 0.  1.
        -12    1    3    3    0    0 -0.35105735850E+01 -0.31221261262E+01 -0.20430021826E+01  0.51230514697E+01  0.00000000000E+00 0.  1.
</event>
<event>
 7    1  0.3846293E-008  0.4614232E+02  0.7816164E-02  0.1320468E+00
        -11   -1    0    0    0    0  0.00000000000E+00  0.00000000000E+00  0.45593999997E+02  0.45594000000E+02  0.51100000000E-03 0. -1.
         11   -1    0    0    0    0 -0.00000000000E+00 -0.00000000000E+00 -0.45593999997E+02  0.45594000000E+02  0.51100000000E-03 0.  1.
    9900012    2    1    2    0    0  0.20186082989E+01  0.53629615296E+01  0.44679719885E+02  0.46142317578E+02  0.99999983345E+01 0.  0.
        -12    1    1    2    0    0 -0.20186082989E+01 -0.53629615296E+01 -0.44679719885E+02  0.45045682422E+02  0.00000000000E+00 0.  1.
         11    1    3    3    0    0 -0.14011763814E+01  0.20949273930E+01  0.69814568224E+01  0.74224494379E+01  0.51100000000E-03 0. -1.
        -11    1    3    3    0    0 -0.12350547060E+01  0.33350128933E+00  0.10338097405E+01  0.16447936276E+01  0.51100000000E-03 0.  1.
         12    1    3    3    0    0  0.46548393863E+01  0.29345328473E+01  0.36664453322E+02  0.37075074513E+02  0.00000000000E+00 0. -1.
</event>
<event>
 7    1  0.3846293E-008  0.4614232E+02  0.7816164E-02  0.1320468E+00
        -11   -1    0    0    0    0  0.00000000000E+00  0.00000000000E+00  0.45593999997E+02  0.45594000000E+02  0.51100000000E-03 0.  1.
         11   -1    0    0    0    0 -0.00000000000E+00 -0.00000000000E+00 -0.45593999997E+02  0.45594000000E+02  0.51100000000E-03 0. -1.
    9900012    2    1    2    0    0 -0.30318972384E+02 -0.18411039797E+02 -0.27765212538E+02  0.46142317631E+02  0.99999988132E+01 0.  0.
        -12    1    1    2    0    0  0.30318972384E+02  0.18411039797E+02  0.27765212538E+02  0.45045682369E+02  0.00000000000E+00 0.  1.
         11    1    3    3    0    0 -0.56789024959E+01 -0.41157718755E+01 -0.39810324217E+01  0.80646221916E+01  0.51100000000E-03 0. -1.
        -11    1    3    3    0    0 -0.10296136809E+02 -0.10614681620E+02 -0.13725094103E+02  0.20175730656E+02  0.51100000000E-03 0.  1.
         12    1    3    3    0    0 -0.14343933079E+02 -0.36805863009E+01 -0.10059086013E+02  0.17901964784E+02  0.00000000000E+00 0. -1.
</event>
<event>
 7    1  0.3846293E-008  0.4614232E+02  0.7816164E-02  0.1320468E+00
        -11   -1    0    0    0    0  0.00000000000E+00  0.00000000000E+00  0.45593999997E+02  0.45594000000E+02  0.51100000000E-03 0.  1.
         11   -1    0    0    0    0 -0.00000000000E+00 -0.00000000000E+00 -0.45593999997E+02  0.45594000000E+02  0.51100000000E-03 0. -1.
    9900012    2    1    2    0    0  0.20974168081E+02 -0.39863157491E+02  0.35573473298E+00  0.46142316532E+02  0.99999887966E+01 0.  0.
        -12    1    1    2    0    0 -0.20974168081E+02  0.39863157491E+02 -0.35573473298E+00  0.45045683468E+02  0.00000000000E+00 0.  1.
         11    1    3    3    0    0  0.84377171565E+01 -0.16581560233E+02  0.45176567910E+01  0.19145559112E+02  0.51100000000E-03 0.  1.
        -11    1    3    3    0    0  0.10726549866E+02 -0.17566516369E+02 -0.22537550082E+01  0.20705573677E+02  0.51100000000E-03 0. -1.
        -12    1    3    3    0    0  0.18099010587E+01 -0.57150808890E+01 -0.19081670498E+01  0.62911837439E+01  0.00000000000E+00 0.  1.
</event>
<event>
 7    1  0.3846293E-008  0.4614232E+02  0.7816164E-02  0.1320468E+00
        -11   -1    0    0    0    0  0.00000000000E+00  0.00000000000E+00  0.45593999997E+02  0.45594000000E+02  0.51100000000E-03 0. -1.
         11   -1    0    0    0    0 -0.00000000000E+00 -0.00000000000E+00 -0.45593999997E+02  0.45594000000E+02  0.51100000000E-03 0.  1.
    9900012    2    1    2    0    0 -0.97341316073E+01  0.33046479298E+02  0.29022239828E+02  0.46142317446E+02  0.99999971236E+01 0.  0.
        -12    1    1    2    0    0  0.97341316073E+01 -0.33046479298E+02 -0.29022239828E+02  0.45045682554E+02  0.00000000000E+00 0.  1.
         11    1    3    3    0    0 -0.92168475419E+01  0.20438817515E+02  0.19892095442E+02  0.29973171360E+02  0.51100000000E-03 0. -1.
        -11    1    3    3    0    0 -0.24385847970E-01  0.38869472838E+01  0.54423770649E+01  0.66879310878E+01  0.51100000000E-03 0.  1.
         12    1    3    3    0    0 -0.49289821735E+00  0.87207144985E+01  0.36877673212E+01  0.94812149977E+01  0.00000000000E+00 0. -1.
</event>
<event>
 7    1  0.3846293E-008  0.4614232E+02  0.7816164E-02  0.1320468E+00
        -11   -1    0    0    0    0  0.00000000000E+00  0.00000000000E+00  0.45593999997E+02  0.45594000000E+02  0.51100000000E-03 0.  1.
         11   -1    0    0    0    0 -0.00000000000E+00 -0.00000000000E+00 -0.45593999997E+02  0.45594000000E+02  0.51100000000E-03 0. -1.
    9900012    2    1    2    0    0 -0.11092756430E+02 -0.17305599268E+02 -0.40082171580E+02  0.46142317745E+02  0.99999998532E+01 0.  0.
        -12    1    1    2    0    0  0.11092756430E+02  0.17305599268E+02  0.40082171580E+02  0.45045682255E+02  0.00000000000E+00 0.  1.
         11    1    3    3    0    0 -0.58367641785E+01 -0.35108173923E+01 -0.12944613927E+02  0.14627258281E+02  0.51100000000E-03 0. -1.
        -11    1    3    3    0    0 -0.81658968527E+00  0.14441962419E-01 -0.48817325999E+01  0.49495798531E+01  0.51100000000E-03 0.  1.
         12    1    3    3    0    0 -0.44394025660E+01 -0.13809223838E+02 -0.22255825053E+02  0.26565479611E+02  0.00000000000E+00 0. -1.
</event>
<event>
 7    1  0.3846293E-008  0.4614232E+02  0.7816164E-02  0.1320468E+00
        -11   -1    0    0    0    0  0.00000000000E+00  0.00000000000E+00  0.45593999997E+02  0.45594000000E+02  0.51100000000E-03 0. -1.
         11   -1    0    0    0    0 -0.00000000000E+00 -0.00000000000E+00 -0.45593999997E+02  0.45594000000E+02  0.51100000000E-03 0.  1.
    9900012    2    1    2    0    0 -0.19701758558E+02 -0.40232316981E+02  0.47238711979E+01  0.46142316755E+02  0.99999908239E+01 0.  0.
        -12    1    1    2    0    0  0.19701758558E+02  0.40232316981E+02 -0.47238711979E+01  0.45045683245E+02  0.00000000000E+00 0.  1.
         11    1    3    3    0    0 -0.91732089777E+01 -0.14464383194E+02  0.24728617434E+01  0.17305524829E+02  0.51100000000E-03 0. -1.
        -11    1    3    3    0    0 -0.11116695126E+02 -0.23024047373E+02  0.34234590962E+01  0.25795498452E+02  0.51100000000E-03 0.  1.
        -12    1    3    3    0    0  0.58814554487E+00 -0.27438864138E+01 -0.11724496416E+01  0.30412934742E+01  0.00000000000E+00 0.  1.
</event>
<event>
 7    1  0.3846293E-008  0.4614232E+02  0.7816164E-02  0.1320468E+00
        -11   -1    0    0    0    0  0.00000000000E+00  0.00000000000E+00  0.45593999997E+02  0.45594000000E+02  0.51100000000E-03 0.  1.
         11   -1    0    0    0    0 -0.00000000000E+00 -0.00000000000E+00 -0.45593999997E+02  0.45594000000E+02  0.51100000000E-03 0. -1.
    9900012    2    1    2    0    0  0.35232031446E+02 -0.18390336539E+02 -0.21204080672E+02  0.46142317022E+02  0.99999932592E+01 0.  0.
        -12    1    1    2    0    0 -0.35232031446E+02  0.18390336539E+02  0.21204080672E+02  0.45045682978E+02  0.00000000000E+00 0.  1.
         11    1    3    3    0    0  0.17353664068E+02 -0.13824410551E+02 -0.11731624822E+02  0.25097709156E+02  0.51100000000E-03 0. -1.
        -11    1    3    3    0    0  0.94712431750E+01 -0.32611723066E+01 -0.68745345428E+01  0.12149029489E+02  0.51100000000E-03 0.  1.
        -12    1    3    3    0    0  0.84071242031E+01 -0.13047536819E+01 -0.25979213074E+01  0.88955783767E+01  0.00000000000E+00 0.  1.
</event>
<event>
 7    1  0.3846293E-008  0.4614232E+02  0.7816164E-02  0.1320468E+00
        -11   -1    0    0    0    0  0.00000000000E+00  0.00000000000E+00  0.45593999997E+02  0.45594000000E+02  0.51100000000E-03 0.  1.
         11   -1    0    0    0    0 -0.00000000000E+00 -0.00000000000E+00 -0.45593999997E+02  0.45594000000E+02  0.51100000000E-03 0. -1.
    9900012    2    1    2    0    0 -0.25226376257E+02  0.34003468229E+01 -0.37164241085E+02  0.46142320596E+02  0.10000025847E+02 0.  0.
        -12    1    1    2    0    0  0.25226376257E+02 -0.34003468229E+01  0.37164241085E+02  0.45045679404E+02  0.00000000000E+00 0.  1.
         11    1    3    3    0    0 -0.43456151784E+01  0.38145520244E+01 -0.11377859234E+02  0.12762870344E+02  0.51100000000E-03 0. -1.
        -11    1    3    3    0    0 -0.86505253239E+01  0.14571469426E+01 -0.95731314835E+01  0.12984595190E+02  0.51100000000E-03 0.  1.
         12    1    3    3    0    0 -0.12230235755E+02 -0.18713521441E+01 -0.16213250368E+02  0.20394855061E+02  0.00000000000E+00 0. -1.
</event>
<event>
 7    1  0.3846293E-008  0.4614232E+02  0.7816164E-02  0.1320468E+00
        -11   -1    0    0    0    0  0.00000000000E+00  0.00000000000E+00  0.45593999997E+02  0.45594000000E+02  0.51100000000E-03 0. -1.
         11   -1    0    0    0    0 -0.00000000000E+00 -0.00000000000E+00 -0.45593999997E+02  0.45594000000E+02  0.51100000000E-03 0.  1.
    9900012    2    1    2    0    0  0.71959896827E+01  0.28833600839E+02  0.33851952300E+02  0.46142317861E+02  0.10000000907E+02 0.  0.
        -12    1    1    2    0    0 -0.71959896827E+01 -0.28833600839E+02 -0.33851952300E+02  0.45045682139E+02  0.00000000000E+00 0.  1.
         11    1    3    3    0    0 -0.10343613182E+01  0.76706120885E+01  0.82986106479E+01  0.11347913116E+02  0.51100000000E-03 0. -1.
        -11    1    3    3    0    0  0.15829461624E+01  0.94073436966E+01  0.14430611561E+02  0.17298739384E+02  0.51100000000E-03 0.  1.
        -12    1    3    3    0    0  0.66474048386E+01  0.11755645054E+02  0.11122730091E+02  0.17495665360E+02  0.00000000000E+00 0.  1.
</event>
<event>
 7    1  0.3846293E-008  0.4614232E+02  0.7816164E-02  0.1320468E+00
        -11   -1    0    0    0    0  0.00000000000E+00  0.00000000000E+00  0.45593999997E+02  0.45594000000E+02  0.51100000000E-03 0. -1.
         11   -1    0    0    0    0 -0.00000000000E+00 -0.00000000000E+00 -0.45593999997E+02  0.45594000000E+02  0.51100000000E-03 0.  1.
    9900012    2    1    2    0    0 -0.18342534872E+02  0.40292571184E+02  0.83170686158E+01  0.46142317538E+02  0.99999979644E+01 0.  0.
        -12    1    1    2    0    0  0.18342534872E+02 -0.40292571184E+02 -0.83170686158E+01  0.45045682462E+02  0.00000000000E+00 0.  1.
         11    1    3    3    0    0 -0.46027182649E+00  0.47099058797E+01 -0.13969196570E+01  0.49342120282E+01  0.51100000000E-03 0. -1.
        -11    1    3    3    0    0 -0.27963358433E+01  0.30721589673E+01  0.37474762472E+00  0.41711018822E+01  0.51100000000E-03 0.  1.
         12    1    3    3    0    0 -0.15085927202E+02  0.32510506337E+02  0.93392406481E+01  0.37037003627E+02  0.00000000000E+00 0. -1.
</event>
<event>
 7    1  0.3846293E-008  0.4614232E+02  0.7816164E-02  0.1320468E+00
        -11   -1    0    0    0    0  0.00000000000E+00  0.00000000000E+00  0.45593999997E+02  0.45594000000E+02  0.51100000000E-03 0.  1.
         11   -1    0    0    0    0 -0.00000000000E+00 -0.00000000000E+00 -0.45593999997E+02  0.45594000000E+02  0.51100000000E-03 0. -1.
    9900012    2    1    2    0    0 -0.28160054477E+02 -0.32940521495E+02 -0.12290110060E+02  0.46142318411E+02  0.10000005925E+02 0.  0.
        -12    1    1    2    0    0  0.28160054477E+02  0.32940521495E+02  0.12290110060E+02  0.45045681589E+02  0.00000000000E+00 0.  1.
         11    1    3    3    0    0 -0.51064070843E+01 -0.71565462556E+01 -0.34939172394E+01  0.94603914060E+01  0.51100000000E-03 0. -1.
        -11    1    3    3    0    0 -0.16159485939E+02 -0.23146283509E+02 -0.68563621410E+01  0.29049769847E+02  0.51100000000E-03 0.  1.
        -12    1    3    3    0    0 -0.68941614540E+01 -0.26376917312E+01 -0.19398306792E+01  0.76321571581E+01  0.00000000000E+00 0.  1.
</event>
<event>
 7    1  0.3846293E-008  0.4614232E+02  0.7816164E-02  0.1320468E+00
        -11   -1    0    0    0    0  0.00000000000E+00  0.00000000000E+00  0.45593999997E+02  0.45594000000E+02  0.51100000000E-03 0.  1.
         11   -1    0    0    0    0 -0.00000000000E+00 -0.00000000000E+00 -0.45593999997E+02  0.45594000000E+02  0.51100000000E-03 0. -1.
    9900012    2    1    2    0    0  0.23050891338E+02  0.38292210808E+02 -0.56103914668E+01  0.46142317716E+02  0.99999995860E+01 0.  0.
        -12    1    1    2    0    0 -0.23050891338E+02 -0.38292210808E+02  0.56103914668E+01  0.45045682284E+02  0.00000000000E+00 0.  1.
         11    1    3    3    0    0  0.11677569324E+02  0.17492707723E+02 -0.64648248151E+01  0.22003509014E+02  0.51100000000E-03 0. -1.
        -11    1    3    3    0    0  0.96518224203E+01  0.19555510767E+02 -0.10567460223E+00  0.21807953704E+02  0.51100000000E-03 0.  1.
         12    1    3    3    0    0  0.17214995944E+01  0.12439923181E+01  0.96010795058E+00  0.23308549971E+01  0.00000000000E+00 0. -1.
</event>
<event>
 7    1  0.3846293E-008  0.4614232E+02  0.7816164E-02  0.1320468E+00
        -11   -1    0    0    0    0  0.00000000000E+00  0.00000000000E+00  0.45593999997E+02  0.45594000000E+02  0.51100000000E-03 0. -1.
         11   -1    0    0    0    0 -0.00000000000E+00 -0.00000000000E+00 -0.45593999997E+02  0.45594000000E+02  0.51100000000E-03 0.  1.
    9900012    2    1    2    0    0 -0.44867796961E+02 -0.34920940623E+01  0.19492489558E+01  0.46142317670E+02  0.99999991669E+01 0.  0.
        -12    1    1    2    0    0  0.44867796961E+02  0.34920940623E+01 -0.19492489558E+01  0.45045682330E+02  0.00000000000E+00 0.  1.
         11    1    3    3    0    0 -0.94679855206E+01 -0.16629086707E+01  0.10903402459E+01  0.96745468720E+01  0.51100000000E-03 0. -1.
        -11    1    3    3    0    0 -0.63888647171E+01  0.14956615118E+01  0.29456436873E+01  0.71924552640E+01  0.51100000000E-03 0.  1.
        -12    1    3    3    0    0 -0.29010946724E+02 -0.33248469033E+01 -0.20867349774E+01  0.29275315534E+02  0.00000000000E+00 0.  1.
</event>
<event>
 7    1  0.3846293E-008  0.4614231E+02  0.7816164E-02  0.1320468E+00
        -11   -1    0    0    0    0  0.00000000000E+00  0.00000000000E+00  0.45593999997E+02  0.45594000000E+02  0.51100000000E-03 0. -1.
         11   -1    0    0    0    0 -0.00000000000E+00 -0.00000000000E+00 -0.45593999997E+02  0.45594000000E+02  0.51100000000E-03 0.  1.
    9900012    2    1    2    0    0 -0.36411061899E+02 -0.26510766495E+02  0.72634107005E+00  0.46142314967E+02  0.99999745207E+01 0.  0.
        -12    1    1    2    0    0  0.36411061899E+02  0.26510766495E+02 -0.72634107005E+00  0.45045685033E+02  0.00000000000E+00 0.  1.
         11    1    3    3    0    0 -0.42488043434E+01 -0.22066170541E+01  0.77975354855E+00  0.48507229388E+01  0.51100000000E-03 0. -1.
        -11    1    3    3    0    0 -0.30293645842E+02 -0.19549691054E+02 -0.11263487113E+01  0.36071651756E+02  0.51100000000E-03 0.  1.
        -12    1    3    3    0    0 -0.18686117135E+01 -0.47544583869E+01  0.10729362328E+01  0.52199402725E+01  0.00000000000E+00 0.  1.
</event>
<event>
 7    1  0.3846293E-008  0.4614232E+02  0.7816164E-02  0.1320468E+00
        -11   -1    0    0    0    0  0.00000000000E+00  0.00000000000E+00  0.45593999997E+02  0.45594000000E+02  0.51100000000E-03 0.  1.
         11   -1    0    0    0    0 -0.00000000000E+00 -0.00000000000E+00 -0.45593999997E+02  0.45594000000E+02  0.51100000000E-03 0. -1.
    9900012    2    1    2    0    0  0.70314714779E+01  0.33548843331E+02 -0.29225788047E+02  0.46142321328E+02  0.10000032528E+02 0.  0.
        -12    1    1    2    0    0 -0.70314714779E+01 -0.33548843331E+02  0.29225788047E+02  0.45045678672E+02  0.00000000000E+00 0.  1.
         11    1    3    3    0    0 -0.73131261045E+00  0.68221551010E+01 -0.46081652264E+01  0.82650956057E+01  0.51100000000E-03 0. -1.
        -11    1    3    3    0    0 -0.11051014189E+01  0.47116415145E+01 -0.25548708852E+01  0.54724930707E+01  0.51100000000E-03 0.  1.
         12    1    3    3    0    0  0.88678855072E+01  0.22015046716E+02 -0.22062751936E+02  0.32404732652E+02  0.00000000000E+00 0. -1.
</event>
<event>
 7    1  0.3846293E-008  0.4614232E+02  0.7816164E-02  0.1320468E+00
        -11   -1    0    0    0    0  0.00000000000E+00  0.00000000000E+00  0.45593999997E+02  0.45594000000E+02  0.51100000000E-03 0.  1.
         11   -1    0    0    0    0 -0.00000000000E+00 -0.00000000000E+00 -0.45593999997E+02  0.45594000000E+02  0.51100000000E-03 0. -1.
    9900012    2    1    2    0    0  0.44088894182E+02  0.78417327831E+01 -0.48775267448E+01  0.46142316185E+02  0.99999856278E+01 0.  0.
        -12    1    1    2    0    0 -0.44088894182E+02 -0.78417327831E+01  0.48775267448E+01  0.45045683815E+02  0.00000000000E+00 0.  1.
         11    1    3    3    0    0  0.31844712042E+02  0.33286135909E+01 -0.44829496701E+01  0.32330514866E+02  0.51100000000E-03 0. -1.
        -11    1    3    3    0    0 -0.68253828582E-01  0.98584825146E+00  0.10888352265E+00  0.99418873593E+00  0.51100000000E-03 0.  1.
        -12    1    3    3    0    0  0.12312435968E+02  0.35272709408E+01 -0.50346059742E+00  0.12817612583E+02  0.00000000000E+00 0.  1.
</event>
<event>
 7    1  0.3846293E-008  0.4614232E+02  0.7816164E-02  0.1320468E+00
        -11   -1    0    0    0    0  0.00000000000E+00  0.00000000000E+00  0.45593999997E+02  0.45594000000E+02  0.51100000000E-03 0.  1.
         11   -1    0    0    0    0 -0.00000000000E+00 -0.00000000000E+00 -0.45593999997E+02  0.45594000000E+02  0.51100000000E-03 0. -1.
    9900012    2    1    2    0    0  0.23509331620E+01 -0.21617485995E+02 -0.39449598882E+02  0.46142318304E+02  0.10000004953E+02 0.  0.
        -12    1    1    2    0    0 -0.23509331620E+01  0.21617485995E+02  0.39449598882E+02  0.45045681696E+02  0.00000000000E+00 0.  1.
         11    1    3    3    0    0 -0.18321514099E+01 -0.69801705250E+01 -0.20956556287E+02  0.22164313908E+02  0.51100000000E-03 0. -1.
        -11    1    3    3    0    0  0.18182443198E+01 -0.82648471448E+01 -0.10497737566E+02  0.13483923947E+02  0.51100000000E-03 0.  1.
         12    1    3    3    0    0  0.23648402521E+01 -0.63724683250E+01 -0.79953050285E+01  0.10494080449E+02  0.00000000000E+00 0. -1.
</event>
<event>
 7    1  0.3846293E-008  0.4614230E+02  0.7816164E-02  0.1320468E+00
        -11   -1    0    0    0    0  0.00000000000E+00  0.00000000000E+00  0.45593999997E+02  0.45594000000E+02  0.51100000000E-03 0.  1.
         11   -1    0    0    0    0 -0.00000000000E+00 -0.00000000000E+00 -0.45593999997E+02  0.45594000000E+02  0.51100000000E-03 0. -1.
    9900012    2    1    2    0    0  0.27191321178E+02  0.18086010219E+02 -0.31026490547E+02  0.46142302884E+02  0.99998643360E+01 0.  0.
        -12    1    1    2    0    0 -0.27191321178E+02 -0.18086010219E+02  0.31026490547E+02  0.45045697116E+02  0.00000000000E+00 0.  1.
         11    1    3    3    0    0  0.91103369856E+01  0.29590972299E+01 -0.11889442520E+02  0.15268049650E+02  0.51100000000E-03 0. -1.
        -11    1    3    3    0    0  0.13963804704E+02  0.82700654985E+01 -0.12945947802E+02  0.20760043110E+02  0.51100000000E-03 0.  1.
        -12    1    3    3    0    0  0.41171794876E+01  0.68568474906E+01 -0.61911002250E+01  0.10114210124E+02  0.00000000000E+00 0.  1.
</event>
<event>
 7    1  0.3846293E-008  0.4614232E+02  0.7816164E-02  0.1320468E+00
        -11   -1    0    0    0    0  0.00000000000E+00  0.00000000000E+00  0.45593999997E+02  0.45594000000E+02  0.51100000000E-03 0.  1.
         11   -1    0    0    0    0 -0.00000000000E+00 -0.00000000000E+00 -0.45593999997E+02  0.45594000000E+02  0.51100000000E-03 0. -1.
    9900012    2    1    2    0    0 -0.39662956606E+02 -0.45966679340E+01 -0.20852673372E+02  0.46142317970E+02  0.10000001901E+02 0.  0.
        -12    1    1    2    0    0  0.39662956606E+02  0.45966679340E+01  0.20852673372E+02  0.45045682030E+02  0.00000000000E+00 0.  1.
         11    1    3    3    0    0 -0.18359081351E+01  0.16505692184E+01 -0.12622440270E+01  0.27727599374E+01  0.51100000000E-03 0. -1.
        -11    1    3    3    0    0 -0.45219263004E+01 -0.10643957303E+01 -0.60586961673E+00  0.46848515442E+01  0.51100000000E-03 0.  1.
        -12    1    3    3    0    0 -0.33305122170E+02 -0.51828414221E+01 -0.18984559729E+02  0.38684706488E+02  0.00000000000E+00 0.  1.
</event>
<event>
 7    1  0.3846293E-008  0.4614232E+02  0.7816164E-02  0.1320468E+00
        -11   -1    0    0    0    0  0.00000000000E+00  0.00000000000E+00  0.45593999997E+02  0.45594000000E+02  0.51100000000E-03 0.  1.
         11   -1    0    0    0    0 -0.00000000000E+00 -0.00000000000E+00 -0.45593999997E+02  0.45594000000E+02  0.51100000000E-03 0. -1.
    9900012    2    1    2    0    0 -0.16724219348E+02 -0.39248566339E+02 -0.14455590393E+02  0.46142316899E+02  0.99999921348E+01 0.  0.
        -12    1    1    2    0    0  0.16724219348E+02  0.39248566339E+02  0.14455590393E+02  0.45045683101E+02  0.00000000000E+00 0.  1.
         11    1    3    3    0    0 -0.52433063507E+01 -0.18822667434E+02 -0.89995581616E+01  0.21512255069E+02  0.51100000000E-03 0. -1.
        -11    1    3    3    0    0 -0.39677764718E+01 -0.92419180159E+01 -0.47908327558E+01  0.11140393956E+02  0.51100000000E-03 0.  1.
        -12    1    3    3    0    0 -0.75131365256E+01 -0.11183980889E+02 -0.66519947598E+00  0.13489667873E+02  0.00000000000E+00 0.  1.
</event>
<event>
 7    1  0.3846293E-008  0.4614232E+02  0.7816164E-02  0.1320468E+00
        -11   -1    0    0    0    0  0.00000000000E+00  0.00000000000E+00  0.45593999997E+02  0.45594000000E+02  0.51100000000E-03 0.  1.
         11   -1    0    0    0    0 -0.00000000000E+00 -0.00000000000E+00 -0.45593999997E+02  0.45594000000E+02  0.51100000000E-03 0. -1.
    9900012    2    1    2    0    0  0.36262431341E+02 -0.30623033456E+01 -0.26547539967E+02  0.46142317557E+02  0.99999981360E+01 0.  0.
        -12    1    1    2    0    0 -0.36262431341E+02  0.30623033456E+01  0.26547539967E+02  0.45045682443E+02  0.00000000000E+00 0.  1.
         11    1    3    3    0    0  0.16074244450E+02 -0.33736716989E+00 -0.16877742047E+02  0.23309940543E+02  0.51100000000E-03 0.  1.
        -11    1    3    3    0    0  0.86879451546E+01  0.46096765794E+00 -0.48651567184E+01  0.99680806752E+01  0.51100000000E-03 0. -1.
        -12    1    3    3    0    0  0.11500241736E+02 -0.31859038337E+01 -0.48046412015E+01  0.12864296339E+02  0.00000000000E+00 0.  1.
</event>
<event>
 7    1  0.3846293E-008  0.4614232E+02  0.7816164E-02  0.1320468E+00
        -11   -1    0    0    0    0  0.00000000000E+00  0.00000000000E+00  0.45593999997E+02  0.45594000000E+02  0.51100000000E-03 0.  1.
         11   -1    0    0    0    0 -0.00000000000E+00 -0.00000000000E+00 -0.45593999997E+02  0.45594000000E+02  0.51100000000E-03 0. -1.
    9900012    2    1    2    0    0  0.28418341778E+02 -0.20978633794E+02 -0.27953684074E+02  0.46142315650E+02  0.99999807481E+01 0.  0.
        -12    1    1    2    0    0 -0.28418341778E+02  0.20978633794E+02  0.27953684074E+02  0.45045684350E+02  0.00000000000E+00 0.  1.
         11    1    3    3    0    0  0.21480573653E+02 -0.19227251043E+02 -0.20294929303E+02  0.35256012009E+02  0.51100000000E-03 0. -1.
        -11    1    3    3    0    0  0.63707898629E+01 -0.24050179940E+01 -0.71872877598E+01  0.99009181712E+01  0.51100000000E-03 0.  1.
        -12    1    3    3    0    0  0.56697826190E+00  0.65363524307E+00 -0.47146701125E+00  0.98538546932E+00  0.00000000000E+00 0.  1.
</event>
<event>
 7    1  0.3846293E-008  0.4614232E+02  0.7816164E-02  0.1320468E+00
        -11   -1    0    0    0    0  0.00000000000E+00  0.00000000000E+00  0.45593999997E+02  0.45594000000E+02  0.51100000000E-03 0.  1.
         11   -1    0    0    0    0 -0.00000000000E+00 -0.00000000000E+00 -0.45593999997E+02  0.45594000000E+02  0.51100000000E-03 0. -1.
    9900012    2    1    2    0    0 -0.69376175410E+01  0.40047476360E+02 -0.19421184236E+02  0.46142319885E+02  0.10000019363E+02 0.  0.
        -12    1    1    2    0    0  0.69376175410E+01 -0.40047476360E+02  0.19421184236E+02  0.45045680115E+02  0.00000000000E+00 0.  1.
         11    1    3    3    0    0 -0.25282498750E+01  0.28771619831E+02 -0.99444024397E+01  0.30546510361E+02  0.51100000000E-03 0. -1.
        -11    1    3    3    0    0 -0.18961967585E+01  0.76396180775E+01 -0.69726023677E+01  0.10515536627E+02  0.51100000000E-03 0.  1.
         12    1    3    3    0    0 -0.25131709074E+01  0.36362384517E+01 -0.25041794285E+01  0.50802728960E+01  0.00000000000E+00 0. -1.
</event>
<event>
 7    1  0.3846293E-008  0.4614232E+02  0.7816164E-02  0.1320468E+00
        -11   -1    0    0    0    0  0.00000000000E+00  0.00000000000E+00  0.45593999997E+02  0.45594000000E+02  0.51100000000E-03 0.  1.
         11   -1    0    0    0    0 -0.00000000000E+00 -0.00000000000E+00 -0.45593999997E+02  0.45594000000E+02  0.51100000000E-03 0. -1.
    9900012    2    1    2    0    0 -0.35948138485E+02  0.54033645729E+01 -0.26601664961E+02  0.46142316655E+02  0.99999899172E+01 0.  0.
        -12    1    1    2    0    0  0.35948138485E+02 -0.54033645729E+01  0.26601664961E+02  0.45045683345E+02  0.00000000000E+00 0.  1.
         11    1    3    3    0    0 -0.19328471575E+02  0.11822070849E+01 -0.92201046499E+01  0.21447558300E+02  0.51100000000E-03 0. -1.
        -11    1    3    3    0    0 -0.10909558479E+01  0.12212188633E+01 -0.97294383447E+00  0.19047782391E+01  0.51100000000E-03 0.  1.
         12    1    3    3    0    0 -0.15528711063E+02  0.29999386247E+01 -0.16408616477E+02  0.22789980116E+02  0.00000000000E+00 0. -1.
</event>
<event>
 7    1  0.3846293E-008  0.4614232E+02  0.7816164E-02  0.1320468E+00
        -11   -1    0    0    0    0  0.00000000000E+00  0.00000000000E+00  0.45593999997E+02  0.45594000000E+02  0.51100000000E-03 0. -1.
         11   -1    0    0    0    0 -0.00000000000E+00 -0.00000000000E+00 -0.45593999997E+02  0.45594000000E+02  0.51100000000E-03 0.  1.
    9900012    2    1    2    0    0 -0.41423072846E+02 -0.17575505836E+02 -0.20842454036E+01  0.46142318206E+02  0.10000004055E+02 0.  0.
        -12    1    1    2    0    0  0.41423072846E+02  0.17575505836E+02  0.20842454036E+01  0.45045681794E+02  0.00000000000E+00 0.  1.
         11    1    3    3    0    0 -0.29028200127E+02 -0.13478147261E+02 -0.11583743725E+01  0.32025594259E+02  0.51100000000E-03 0. -1.
        -11    1    3    3    0    0 -0.91464805859E+01 -0.41104033315E+01 -0.27410942517E+01  0.10395533686E+02  0.51100000000E-03 0.  1.
        -12    1    3    3    0    0 -0.32483921329E+01  0.13044756339E-01  0.18152232206E+01  0.37211902606E+01  0.00000000000E+00 0.  1.
</event>
<event>
 7    1  0.3846293E-008  0.4614232E+02  0.7816164E-02  0.1320468E+00
        -11   -1    0    0    0    0  0.00000000000E+00  0.00000000000E+00  0.45593999997E+02  0.45594000000E+02  0.51100000000E-03 0. -1.
         11   -1    0    0    0    0 -0.00000000000E+00 -0.00000000000E+00 -0.45593999997E+02  0.45594000000E+02  0.51100000000E-03 0.  1.
    9900012    2    1    2    0    0 -0.27829649346E+02  0.31285195049E+02  0.16609053339E+02  0.46142318023E+02  0.10000002387E+02 0.  0.
        -12    1    1    2    0    0  0.27829649346E+02 -0.31285195049E+02 -0.16609053339E+02  0.45045681977E+02  0.00000000000E+00 0.  1.
         11    1    3    3    0    0 -0.15549541978E+02  0.21432509720E+02  0.10697980021E+02  0.28558492702E+02  0.51100000000E-03 0. -1.
        -11    1    3    3    0    0 -0.11715333768E+02  0.10290420130E+02  0.48981373254E+01  0.16344220424E+02  0.51100000000E-03 0.  1.
        -12    1    3    3    0    0 -0.56477360065E+00 -0.43773480147E+00  0.10129359921E+01  0.12396048969E+01  0.00000000000E+00 0.  1.
</event>
<event>
 7    1  0.3846293E-008  0.4614232E+02  0.7816164E-02  0.1320468E+00
        -11   -1    0    0    0    0  0.00000000000E+00  0.00000000000E+00  0.45593999997E+02  0.45594000000E+02  0.51100000000E-03 0.  1.
         11   -1    0    0    0    0 -0.00000000000E+00 -0.00000000000E+00 -0.45593999997E+02  0.45594000000E+02  0.51100000000E-03 0. -1.
    9900012    2    1    2    0    0  0.12121986039E+02  0.34123977474E+02 -0.26790391890E+02  0.46142317834E+02  0.10000000666E+02 0.  0.
        -12    1    1    2    0    0 -0.12121986039E+02 -0.34123977474E+02  0.26790391890E+02  0.45045682166E+02  0.00000000000E+00 0.  1.
         11    1    3    3    0    0  0.89962605737E+00  0.13368739619E+01  0.23838557615E+00  0.16289220292E+01  0.51100000000E-03 0. -1.
        -11    1    3    3    0    0  0.47449538098E+01  0.16850946643E+02 -0.93509214873E+01  0.19847133857E+02  0.51100000000E-03 0.  1.
         12    1    3    3    0    0  0.64774061718E+01  0.15936156869E+02 -0.17677855979E+02  0.24666261948E+02  0.00000000000E+00 0. -1.
</event>
<event>
 7    1  0.3846293E-008  0.4614232E+02  0.7816164E-02  0.1320468E+00
        -11   -1    0    0    0    0  0.00000000000E+00  0.00000000000E+00  0.45593999997E+02  0.45594000000E+02  0.51100000000E-03 0. -1.
         11   -1    0    0    0    0 -0.00000000000E+00 -0.00000000000E+00 -0.45593999997E+02  0.45594000000E+02  0.51100000000E-03 0.  1.
    9900012    2    1    2    0    0 -0.29484520057E+02 -0.32490061786E+02 -0.10206492652E+02  0.46142317298E+02  0.99999957788E+01 0.  0.
        -12    1    1    2    0    0  0.29484520057E+02  0.32490061786E+02  0.10206492652E+02  0.45045682702E+02  0.00000000000E+00 0.  1.
         11    1    3    3    0    0 -0.20229888565E+02 -0.24078800827E+02 -0.39359481044E+01  0.31694301197E+02  0.51100000000E-03 0. -1.
        -11    1    3    3    0    0 -0.53086368552E+01 -0.47688503522E+01 -0.15598184642E+01  0.73045597297E+01  0.51100000000E-03 0.  1.
        -12    1    3    3    0    0 -0.39459946363E+01 -0.36424106063E+01 -0.47107260836E+01  0.71434563714E+01  0.00000000000E+00 0.  1.
</event>
<event>
 7    1  0.3846293E-008  0.4614232E+02  0.7816164E-02  0.1320468E+00
        -11   -1    0    0    0    0  0.00000000000E+00  0.00000000000E+00  0.45593999997E+02  0.45594000000E+02  0.51100000000E-03 0.  1.
         11   -1    0    0    0    0 -0.00000000000E+00 -0.00000000000E+00 -0.45593999997E+02  0.45594000000E+02  0.51100000000E-03 0. -1.
    9900012    2    1    2    0    0  0.40018071642E+02 -0.71837730576E+01 -0.19392287191E+02  0.46142318123E+02  0.10000003301E+02 0.  0.
        -12    1    1    2    0    0 -0.40018071642E+02  0.71837730576E+01  0.19392287191E+02  0.45045681877E+02  0.00000000000E+00 0.  1.
         11    1    3    3    0    0  0.19769488042E+02 -0.70686585425E+01 -0.69412816903E+01  0.22112891778E+02  0.51100000000E-03 0. -1.
        -11    1    3    3    0    0  0.15864615682E+02 -0.45239023522E+00 -0.80016635504E+01  0.17774062774E+02  0.51100000000E-03 0.  1.
        -12    1    3    3    0    0  0.43839679183E+01  0.33727572010E+00 -0.44493419500E+01  0.62553635712E+01  0.00000000000E+00 0.  1.
</event>
<event>
 7    1  0.3846293E-008  0.4614232E+02  0.7816164E-02  0.1320468E+00
        -11   -1    0    0    0    0  0.00000000000E+00  0.00000000000E+00  0.45593999997E+02  0.45594000000E+02  0.51100000000E-03 0.  1.
         11   -1    0    0    0    0 -0.00000000000E+00 -0.00000000000E+00 -0.45593999997E+02  0.45594000000E+02  0.51100000000E-03 0. -1.
    9900012    2    1    2    0    0  0.25573562315E+02 -0.28619327180E+02 -0.23580512318E+02  0.46142317200E+02  0.99999948829E+01 0.  0.
        -12    1    1    2    0    0 -0.25573562315E+02  0.28619327180E+02  0.23580512318E+02  0.45045682800E+02  0.00000000000E+00 0.  1.
         11    1    3    3    0    0  0.12447938938E+02 -0.11681963081E+02 -0.13263244532E+02  0.21617888449E+02  0.51100000000E-03 0. -1.
        -11    1    3    3    0    0  0.39155782033E+01 -0.23084350604E+01 -0.32369964242E+00  0.45569075933E+01  0.51100000000E-03 0.  1.
         12    1    3    3    0    0  0.92100451737E+01 -0.14628929039E+02 -0.99935681439E+01  0.19967521157E+02  0.00000000000E+00 0. -1.
</event>
<event>
 7    1  0.3846293E-008  0.4614232E+02  0.7816164E-02  0.1320468E+00
        -11   -1    0    0    0    0  0.00000000000E+00  0.00000000000E+00  0.45593999997E+02  0.45594000000E+02  0.51100000000E-03 0.  1.
         11   -1    0    0    0    0 -0.00000000000E+00 -0.00000000000E+00 -0.45593999997E+02  0.45594000000E+02  0.51100000000E-03 0. -1.
    9900012    2    1    2    0    0 -0.13896940780E+02 -0.11427782248E+01 -0.42833195006E+02  0.46142317637E+02  0.99999988677E+01 0.  0.
        -12    1    1    2    0    0  0.13896940780E+02  0.11427782248E+01  0.42833195006E+02  0.45045682363E+02  0.00000000000E+00 0.  1.
         11    1    3    3    0    0 -0.11003560782E+02 -0.11985634359E+01 -0.34224184638E+02  0.35969566561E+02  0.51100000000E-03 0. -1.
        -11    1    3    3    0    0 -0.17516984569E+01 -0.13387865422E+01 -0.79559563708E+01  0.82557882073E+01  0.51100000000E-03 0.  1.
        -12    1    3    3    0    0 -0.11416815412E+01  0.13945717533E+01 -0.65305399771E+00  0.19169628688E+01  0.00000000000E+00 0.  1.
</event>
<event>
 7    1  0.3846293E-008  0.4614232E+02  0.7816164E-02  0.1320468E+00
        -11   -1    0    0    0    0  0.00000000000E+00  0.00000000000E+00  0.45593999997E+02  0.45594000000E+02  0.51100000000E-03 0.  1.
         11   -1    0    0    0    0 -0.00000000000E+00 -0.00000000000E+00 -0.45593999997E+02  0.45594000000E+02  0.51100000000E-03 0. -1.
    9900012    2    1    2    0    0  0.39290624648E+01 -0.43151513155E+02 -0.12313518464E+02  0.46142319226E+02  0.10000013355E+02 0.  0.
        -12    1    1    2    0    0 -0.39290624648E+01  0.43151513155E+02  0.12313518464E+02  0.45045680774E+02  0.00000000000E+00 0.  1.
         11    1    3    3    0    0  0.24748557442E+01 -0.26199495417E+01 -0.10433490096E+01  0.37520159878E+01  0.51100000000E-03 0. -1.
        -11    1    3    3    0    0 -0.76409282727E+00 -0.15936771358E+02 -0.23153746234E+01  0.16122204536E+02  0.51100000000E-03 0.  1.
         12    1    3    3    0    0  0.22182995478E+01 -0.24594792255E+02 -0.89547948313E+01  0.26268098702E+02  0.00000000000E+00 0. -1.
</event>
<event>
 7    1  0.3846293E-008  0.4614232E+02  0.7816164E-02  0.1320468E+00
        -11   -1    0    0    0    0  0.00000000000E+00  0.00000000000E+00  0.45593999997E+02  0.45594000000E+02  0.51100000000E-03 0.  1.
         11   -1    0    0    0    0 -0.00000000000E+00 -0.00000000000E+00 -0.45593999997E+02  0.45594000000E+02  0.51100000000E-03 0. -1.
    9900012    2    1    2    0    0  0.11742969008E+02 -0.40185329648E+02 -0.16623943077E+02  0.46142317371E+02  0.99999964461E+01 0.  0.
        -12    1    1    2    0    0 -0.11742969008E+02  0.40185329648E+02  0.16623943077E+02  0.45045682629E+02  0.00000000000E+00 0.  1.
         11    1    3    3    0    0  0.25424759472E+01 -0.43055000682E+01 -0.41528536566E+00  0.50173675344E+01  0.51100000000E-03 0. -1.
        -11    1    3    3    0    0 -0.61972058579E+00 -0.98350679955E+01 -0.56189263895E+01  0.11343938915E+02  0.51100000000E-03 0.  1.
        -12    1    3    3    0    0  0.98202136462E+01 -0.26044761585E+02 -0.10589731322E+02  0.29781010922E+02  0.00000000000E+00 0.  1.
</event>
<event>
 7    1  0.3846293E-008  0.4614232E+02  0.7816164E-02  0.1320468E+00
        -11   -1    0    0    0    0  0.00000000000E+00  0.00000000000E+00  0.45593999997E+02  0.45594000000E+02  0.51100000000E-03 0. -1.
         11   -1    0    0    0    0 -0.00000000000E+00 -0.00000000000E+00 -0.45593999997E+02  0.45594000000E+02  0.51100000000E-03 0.  1.
    9900012    2    1    2    0    0  0.43929723730E+02 -0.78474871704E+00 -0.99336323978E+01  0.46142317519E+02  0.99999977930E+01 0.  0.
        -12    1    1    2    0    0 -0.43929723730E+02  0.78474871704E+00  0.99336323978E+01  0.45045682481E+02  0.00000000000E+00 0.  1.
         11    1    3    3    0    0  0.43157351080E+01 -0.74556420354E+00  0.17788372446E+01  0.47271236189E+01  0.51100000000E-03 0. -1.
        -11    1    3    3    0    0  0.24598161481E+02  0.75895037979E+00 -0.85204130075E+01  0.26043098741E+02  0.51100000000E-03 0.  1.
        -12    1    3    3    0    0  0.15015827141E+02 -0.79813489329E+00 -0.31920566349E+01  0.15372095159E+02  0.00000000000E+00 0.  1.
</event>
<event>
 7    1  0.3846293E-008  0.4614232E+02  0.7816164E-02  0.1320468E+00
        -11   -1    0    0    0    0  0.00000000000E+00  0.00000000000E+00  0.45593999997E+02  0.45594000000E+02  0.51100000000E-03 0. -1.
         11   -1    0    0    0    0 -0.00000000000E+00 -0.00000000000E+00 -0.45593999997E+02  0.45594000000E+02  0.51100000000E-03 0.  1.
    9900012    2    1    2    0    0 -0.37323167315E+02 -0.41620756036E+01  0.24875123103E+02  0.46142318286E+02  0.10000004782E+02 0.  0.
        -12    1    1    2    0    0  0.37323167315E+02  0.41620756036E+01 -0.24875123103E+02  0.45045681714E+02  0.00000000000E+00 0.  1.
         11    1    3    3    0    0 -0.24935825388E+02 -0.25999738116E+00  0.16705107527E+02  0.30015389456E+02  0.51100000000E-03 0. -1.
        -11    1    3    3    0    0 -0.32081280482E+01 -0.14049388970E+01  0.49905393094E+01  0.60968370273E+01  0.51100000000E-03 0.  1.
         12    1    3    3    0    0 -0.91792138787E+01 -0.24971393255E+01  0.31794762664E+01  0.10030091803E+02  0.00000000000E+00 0. -1.
</event>
<event>
 7    1  0.3846293E-008  0.4614232E+02  0.7816164E-02  0.1320468E+00
        -11   -1    0    0    0    0  0.00000000000E+00  0.00000000000E+00  0.45593999997E+02  0.45594000000E+02  0.51100000000E-03 0.  1.
         11   -1    0    0    0    0 -0.00000000000E+00 -0.00000000000E+00 -0.45593999997E+02  0.45594000000E+02  0.51100000000E-03 0. -1.
    9900012    2    1    2    0    0  0.25876774635E+02  0.19722314274E+01 -0.36818695189E+02  0.46142317879E+02  0.10000001076E+02 0.  0.
        -12    1    1    2    0    0 -0.25876774635E+02 -0.19722314274E+01  0.36818695189E+02  0.45045682121E+02  0.00000000000E+00 0.  1.
         11    1    3    3    0    0  0.17415828513E+02  0.39099027229E+01 -0.29910199484E+02  0.34831285586E+02  0.51100000000E-03 0. -1.
        -11    1    3    3    0    0  0.20568077865E+00 -0.87014242113E-01  0.16961565563E+00  0.28043857223E+00  0.51100000000E-03 0.  1.
        -12    1    3    3    0    0  0.82552653427E+01 -0.18506570534E+01 -0.70781113607E+01  0.11030593721E+02  0.00000000000E+00 0.  1.
</event>
<event>
 7    1  0.3846293E-008  0.4614232E+02  0.7816164E-02  0.1320468E+00
        -11   -1    0    0    0    0  0.00000000000E+00  0.00000000000E+00  0.45593999997E+02  0.45594000000E+02  0.51100000000E-03 0.  1.
         11   -1    0    0    0    0 -0.00000000000E+00 -0.00000000000E+00 -0.45593999997E+02  0.45594000000E+02  0.51100000000E-03 0. -1.
    9900012    2    1    2    0    0  0.81916302250E+01  0.13277316451E+02 -0.42257822162E+02  0.46142317946E+02  0.10000001684E+02 0.  0.
        -12    1    1    2    0    0 -0.81916302250E+01 -0.13277316451E+02  0.42257822162E+02  0.45045682054E+02  0.00000000000E+00 0.  1.
         11    1    3    3    0    0  0.20232628687E+01  0.12362703194E+01 -0.11985306550E+02  0.12217591019E+02  0.51100000000E-03 0. -1.
        -11    1    3    3    0    0  0.76660555190E+01  0.11258263472E+02 -0.26766594575E+02  0.30032773582E+02  0.51100000000E-03 0.  1.
        -12    1    3    3    0    0 -0.14976881627E+01  0.78278265939E+00 -0.35059210360E+01  0.38919533445E+01  0.00000000000E+00 0.  1.
</event>
<event>
 7    1  0.3846293E-008  0.4614232E+02  0.7816164E-02  0.1320468E+00
        -11   -1    0    0    0    0  0.00000000000E+00  0.00000000000E+00  0.45593999997E+02  0.45594000000E+02  0.51100000000E-03 0. -1.
         11   -1    0    0    0    0 -0.00000000000E+00 -0.00000000000E+00 -0.45593999997E+02  0.45594000000E+02  0.51100000000E-03 0.  1.
    9900012    2    1    2    0    0  0.27579307223E+02  0.32512523599E+02 -0.14540671314E+02  0.46142317633E+02  0.99999988302E+01 0.  0.
        -12    1    1    2    0    0 -0.27579307223E+02 -0.32512523599E+02  0.14540671314E+02  0.45045682367E+02  0.00000000000E+00 0.  1.
         11    1    3    3    0    0  0.94555790330E+00  0.29657172709E+01 -0.21292856459E+01  0.37713944772E+01  0.51100000000E-03 0. -1.
        -11    1    3    3    0    0  0.19188722055E+02  0.18696692872E+02 -0.11577304284E+02  0.29185738866E+02  0.51100000000E-03 0.  1.
         12    1    3    3    0    0  0.74450272654E+01  0.10850113456E+02 -0.83408138394E+00  0.13185184289E+02  0.00000000000E+00 0. -1.
</event>
<event>
 7    1  0.3846293E-008  0.4614232E+02  0.7816164E-02  0.1320468E+00
        -11   -1    0    0    0    0  0.00000000000E+00  0.00000000000E+00  0.45593999997E+02  0.45594000000E+02  0.51100000000E-03 0.  1.
         11   -1    0    0    0    0 -0.00000000000E+00 -0.00000000000E+00 -0.45593999997E+02  0.45594000000E+02  0.51100000000E-03 0. -1.
    9900012    2    1    2    0    0 -0.10918769388E+02 -0.39582688253E+02 -0.18523087864E+02  0.46142317429E+02  0.99999969696E+01 0.  0.
        -12    1    1    2    0    0  0.10918769388E+02  0.39582688253E+02  0.18523087864E+02  0.45045682571E+02  0.00000000000E+00 0.  1.
         11    1    3    3    0    0 -0.50318300705E+01 -0.15947934812E+02 -0.11269666792E+02  0.20165845593E+02  0.51100000000E-03 0. -1.
        -11    1    3    3    0    0  0.78407427034E+00 -0.40924515789E+01 -0.26064488524E+00  0.41750291501E+01  0.51100000000E-03 0.  1.
        -12    1    3    3    0    0 -0.66710135882E+01 -0.19542301862E+02 -0.69927761864E+01  0.21801442685E+02  0.00000000000E+00 0.  1.
</event>
<event>
 7    1  0.3846293E-008  0.4614232E+02  0.7816164E-02  0.1320468E+00
        -11   -1    0    0    0    0  0.00000000000E+00  0.00000000000E+00  0.45593999997E+02  0.45594000000E+02  0.51100000000E-03 0.  1.
         11   -1    0    0    0    0 -0.00000000000E+00 -0.00000000000E+00 -0.45593999997E+02  0.45594000000E+02  0.51100000000E-03 0. -1.
    9900012    2    1    2    0    0  0.12251852561E+02 -0.99460933667E+01 -0.42191004157E+02  0.46142317674E+02  0.99999992060E+01 0.  0.
        -12    1    1    2    0    0 -0.12251852561E+02  0.99460933667E+01  0.42191004157E+02  0.45045682326E+02  0.00000000000E+00 0.  1.
         11    1    3    3    0    0 -0.33922477365E+00 -0.26047971265E+01 -0.53636825611E+01  0.59723640541E+01  0.51100000000E-03 0.  1.
        -11    1    3    3    0    0  0.67014743687E+01 -0.37567729554E+01 -0.10858818947E+02  0.13301768714E+02  0.51100000000E-03 0. -1.
         12    1    3    3    0    0  0.58896029655E+01 -0.35845232849E+01 -0.25968502649E+02  0.26868184906E+02  0.00000000000E+00 0. -1.
</event>
<event>
 7    1  0.3846293E-008  0.4614232E+02  0.7816164E-02  0.1320468E+00
        -11   -1    0    0    0    0  0.00000000000E+00  0.00000000000E+00  0.45593999997E+02  0.45594000000E+02  0.51100000000E-03 0.  1.
         11   -1    0    0    0    0 -0.00000000000E+00 -0.00000000000E+00 -0.45593999997E+02  0.45594000000E+02  0.51100000000E-03 0. -1.
    9900012    2    1    2    0    0 -0.20018526408E+02  0.27911600759E+02 -0.29143005750E+02  0.46142316071E+02  0.99999845882E+01 0.  0.
        -12    1    1    2    0    0  0.20018526408E+02 -0.27911600759E+02  0.29143005750E+02  0.45045683929E+02  0.00000000000E+00 0.  1.
         11    1    3    3    0    0 -0.12181131561E+02  0.10620339263E+02 -0.14403137823E+02  0.21647677741E+02  0.51100000000E-03 0. -1.
        -11    1    3    3    0    0 -0.24410583873E+01  0.39476889208E+01 -0.13443715649E+01  0.48322198865E+01  0.51100000000E-03 0.  1.
        -12    1    3    3    0    0 -0.53963364595E+01  0.13343572576E+02 -0.13395496362E+02  0.19662418444E+02  0.00000000000E+00 0.  1.
</event>
<event>
 7    1  0.3846293E-008  0.4614232E+02  0.7816164E-02  0.1320468E+00
        -11   -1    0    0    0    0  0.00000000000E+00  0.00000000000E+00  0.45593999997E+02  0.45594000000E+02  0.51100000000E-03 0.  1.
         11   -1    0    0    0    0 -0.00000000000E+00 -0.00000000000E+00 -0.45593999997E+02  0.45594000000E+02  0.51100000000E-03 0. -1.
    9900012    2    1    2    0    0  0.35350817410E+02 -0.23959958518E+02 -0.14330164403E+02  0.46142317460E+02  0.99999972520E+01 0.  0.
        -12    1    1    2    0    0 -0.35350817410E+02  0.23959958518E+02  0.14330164403E+02  0.45045682540E+02  0.00000000000E+00 0.  1.
         11    1    3    3    0    0  0.11601254301E+02 -0.52162937022E+01 -0.53532349981E+01  0.13800577762E+02  0.51100000000E-03 0.  1.
        -11    1    3    3    0    0  0.22949670613E+02 -0.15782919580E+02 -0.90120406524E+01  0.29274644467E+02  0.51100000000E-03 0. -1.
        -12    1    3    3    0    0  0.79989249539E+00 -0.29607452357E+01  0.35111247373E-01  0.30670952308E+01  0.00000000000E+00 0.  1.
</event>
<event>
 7    1  0.3846293E-008  0.4614232E+02  0.7816164E-02  0.1320468E+00
        -11   -1    0    0    0    0  0.00000000000E+00  0.00000000000E+00  0.45593999997E+02  0.45594000000E+02  0.51100000000E-03 0.  1.
         11   -1    0    0    0    0 -0.00000000000E+00 -0.00000000000E+00 -0.45593999997E+02  0.45594000000E+02  0.51100000000E-03 0. -1.
    9900012    2    1    2    0    0 -0.26769663516E+02 -0.20001835588E+02 -0.30206377337E+02  0.46142317150E+02  0.99999944255E+01 0.  0.
        -12    1    1    2    0    0  0.26769663516E+02  0.20001835588E+02  0.30206377337E+02  0.45045682850E+02  0.00000000000E+00 0.  1.
         11    1    3    3    0    0 -0.13011887560E+02 -0.65536229015E+01 -0.13258697645E+02  0.19699041970E+02  0.51100000000E-03 0. -1.
        -11    1    3    3    0    0 -0.10965722023E+01 -0.17799231029E+01 -0.51862085139E+01  0.55917220833E+01  0.51100000000E-03 0.  1.
        -12    1    3    3    0    0 -0.12661203754E+02 -0.11668289583E+02 -0.11761471178E+02  0.20851553097E+02  0.00000000000E+00 0.  1.
</event>
<event>
 7    1  0.3846293E-008  0.4614232E+02  0.7816164E-02  0.1320468E+00
        -11   -1    0    0    0    0  0.00000000000E+00  0.00000000000E+00  0.45593999997E+02  0.45594000000E+02  0.51100000000E-03 0. -1.
         11   -1    0    0    0    0 -0.00000000000E+00 -0.00000000000E+00 -0.45593999997E+02  0.45594000000E+02  0.51100000000E-03 0.  1.
    9900012    2    1    2    0    0 -0.29154805524E+02  0.16239205118E+02 -0.30255560688E+02  0.46142318514E+02  0.10000006864E+02 0.  0.
        -12    1    1    2    0    0  0.29154805524E+02 -0.16239205118E+02  0.30255560688E+02  0.45045681486E+02  0.00000000000E+00 0.  1.
         11    1    3    3    0    0 -0.18783191831E+02  0.13635050335E+02 -0.23605914862E+02  0.33105318451E+02  0.51100000000E-03 0. -1.
        -11    1    3    3    0    0 -0.26532497037E+01  0.12434637726E+01 -0.29102639490E+00  0.29445938205E+01  0.51100000000E-03 0.  1.
         12    1    3    3    0    0 -0.77183639889E+01  0.13606910101E+01 -0.63586194315E+01  0.10092406243E+02  0.00000000000E+00 0. -1.
</event>
<event>
 7    1  0.3846293E-008  0.4614232E+02  0.7816164E-02  0.1320468E+00
        -11   -1    0    0    0    0  0.00000000000E+00  0.00000000000E+00  0.45593999997E+02  0.45594000000E+02  0.51100000000E-03 0.  1.
         11   -1    0    0    0    0 -0.00000000000E+00 -0.00000000000E+00 -0.45593999997E+02  0.45594000000E+02  0.51100000000E-03 0. -1.
    9900012    2    1    2    0    0  0.39872978771E+02  0.16435585482E+02 -0.13005022600E+02  0.46142317421E+02  0.99999968953E+01 0.  0.
        -12    1    1    2    0    0 -0.39872978771E+02 -0.16435585482E+02  0.13005022600E+02  0.45045682579E+02  0.00000000000E+00 0.  1.
         11    1    3    3    0    0  0.91541401395E+01  0.27794241413E+01 -0.67483560167E+01  0.11707424543E+02  0.51100000000E-03 0.  1.
        -11    1    3    3    0    0  0.13512241643E+02  0.52200520472E+01 -0.46078352133E+01  0.15200715878E+02  0.51100000000E-03 0. -1.
        -12    1    3    3    0    0  0.17206596989E+02  0.84361092940E+01 -0.16488313695E+01  0.19234176999E+02  0.00000000000E+00 0.  1.
</event>
<event>
 7    1  0.3846293E-008  0.4614232E+02  0.7816164E-02  0.1320468E+00
        -11   -1    0    0    0    0  0.00000000000E+00  0.00000000000E+00  0.45593999997E+02  0.45594000000E+02  0.51100000000E-03 0.  1.
         11   -1    0    0    0    0 -0.00000000000E+00 -0.00000000000E+00 -0.45593999997E+02  0.45594000000E+02  0.51100000000E-03 0. -1.
    9900012    2    1    2    0    0 -0.74055510483E+01  0.17879664997E+02 -0.40676637321E+02  0.46142318404E+02  0.10000005863E+02 0.  0.
        -12    1    1    2    0    0  0.74055510483E+01 -0.17879664997E+02  0.40676637321E+02  0.45045681596E+02  0.00000000000E+00 0.  1.
         11    1    3    3    0    0 -0.26994543183E+01  0.20594203797E+01 -0.74307179569E+01  0.81696900512E+01  0.51100000000E-03 0. -1.
        -11    1    3    3    0    0 -0.38079151510E+00 -0.84674800746E+00 -0.33103095116E+01  0.34380421303E+01  0.51100000000E-03 0.  1.
        -12    1    3    3    0    0 -0.43253052149E+01  0.16666992625E+02 -0.29935609852E+02  0.34534586223E+02  0.00000000000E+00 0.  1.
</event>
<event>
 7    1  0.3846293E-008  0.4614232E+02  0.7816164E-02  0.1320468E+00
        -11   -1    0    0    0    0  0.00000000000E+00  0.00000000000E+00  0.45593999997E+02  0.45594000000E+02  0.51100000000E-03 0. -1.
         11   -1    0    0    0    0 -0.00000000000E+00 -0.00000000000E+00 -0.45593999997E+02  0.45594000000E+02  0.51100000000E-03 0.  1.
    9900012    2    1    2    0    0  0.24833049036E+02 -0.79635980429E+01  0.36728930429E+02  0.46142317092E+02  0.99999938974E+01 0.  0.
        -12    1    1    2    0    0 -0.24833049036E+02  0.79635980429E+01 -0.36728930429E+02  0.45045682908E+02  0.00000000000E+00 0.  1.
         11    1    3    3    0    0  0.92216922986E+01 -0.23379352782E+01  0.19881623447E+02  0.22040519535E+02  0.51100000000E-03 0. -1.
        -11    1    3    3    0    0  0.16886315101E+01 -0.71806872833E+00  0.44884681414E+01  0.48490664662E+01  0.51100000000E-03 0.  1.
        -12    1    3    3    0    0  0.13922725227E+02 -0.49075940364E+01  0.12358838841E+02  0.19252731091E+02  0.00000000000E+00 0.  1.
</event>
<event>
 7    1  0.3846293E-008  0.4614232E+02  0.7816164E-02  0.1320468E+00
        -11   -1    0    0    0    0  0.00000000000E+00  0.00000000000E+00  0.45593999997E+02  0.45594000000E+02  0.51100000000E-03 0.  1.
         11   -1    0    0    0    0 -0.00000000000E+00 -0.00000000000E+00 -0.45593999997E+02  0.45594000000E+02  0.51100000000E-03 0. -1.
    9900012    2    1    2    0    0 -0.26297744939E+02 -0.16066730494E+02 -0.32854253370E+02  0.46142321160E+02  0.10000030993E+02 0.  0.
        -12    1    1    2    0    0  0.26297744939E+02  0.16066730494E+02  0.32854253370E+02  0.45045678840E+02  0.00000000000E+00 0.  1.
         11    1    3    3    0    0 -0.60628622451E+01  0.60971373690E-01 -0.55346590864E+01  0.82094133515E+01  0.51100000000E-03 0.  1.
        -11    1    3    3    0    0 -0.26914527566E+01 -0.36047030332E+01 -0.69324883465E+01  0.82642118096E+01  0.51100000000E-03 0. -1.
         12    1    3    3    0    0 -0.17543429938E+02 -0.12522998834E+02 -0.20387105937E+02  0.29668695999E+02  0.00000000000E+00 0. -1.
</event>
<event>
 7    1  0.3846293E-008  0.4614233E+02  0.7816164E-02  0.1320468E+00
        -11   -1    0    0    0    0  0.00000000000E+00  0.00000000000E+00  0.45593999997E+02  0.45594000000E+02  0.51100000000E-03 0.  1.
         11   -1    0    0    0    0 -0.00000000000E+00 -0.00000000000E+00 -0.45593999997E+02  0.45594000000E+02  0.51100000000E-03 0. -1.
    9900012    2    1    2    0    0  0.17576229363E+02  0.14691196597E+02 -0.38786043979E+02  0.46142330911E+02  0.10000119914E+02 0.  0.
        -12    1    1    2    0    0 -0.17576229363E+02 -0.14691196597E+02  0.38786043979E+02  0.45045669089E+02  0.00000000000E+00 0.  1.
         11    1    3    3    0    0 -0.15454999985E+00  0.23312133006E-02 -0.62990844594E+01  0.63009805924E+01  0.51100000000E-03 0.  1.
        -11    1    3    3    0    0  0.78124081941E+01  0.64054724090E+01 -0.15403516974E+02  0.18420969953E+02  0.51100000000E-03 0. -1.
        -12    1    3    3    0    0  0.99183711689E+01  0.82833929744E+01 -0.17083442546E+02  0.21420380366E+02  0.00000000000E+00 0.  1.
</event>
<event>
 7    1  0.3846293E-008  0.4614232E+02  0.7816164E-02  0.1320468E+00
        -11   -1    0    0    0    0  0.00000000000E+00  0.00000000000E+00  0.45593999997E+02  0.45594000000E+02  0.51100000000E-03 0. -1.
         11   -1    0    0    0    0 -0.00000000000E+00 -0.00000000000E+00 -0.45593999997E+02  0.45594000000E+02  0.51100000000E-03 0.  1.
    9900012    2    1    2    0    0 -0.20545286819E+02  0.31759047445E+02  0.24461554520E+02  0.46142317026E+02  0.99999932969E+01 0.  0.
        -12    1    1    2    0    0  0.20545286819E+02 -0.31759047445E+02 -0.24461554520E+02  0.45045682974E+02  0.00000000000E+00 0.  1.
         11    1    3    3    0    0 -0.80817733664E+01  0.11089667044E+02  0.79434519442E+01  0.15855415635E+02  0.51100000000E-03 0. -1.
        -11    1    3    3    0    0 -0.57856181470E+01  0.60417391261E+01  0.19506213641E+01  0.85895816533E+01  0.51100000000E-03 0.  1.
        -12    1    3    3    0    0 -0.66778953051E+01  0.14627641274E+02  0.14567481212E+02  0.21697319738E+02  0.00000000000E+00 0.  1.
</event>
<event>
 7    1  0.3846293E-008  0.4614232E+02  0.7816164E-02  0.1320468E+00
        -11   -1    0    0    0    0  0.00000000000E+00  0.00000000000E+00  0.45593999997E+02  0.45594000000E+02  0.51100000000E-03 0.  1.
         11   -1    0    0    0    0 -0.00000000000E+00 -0.00000000000E+00 -0.45593999997E+02  0.45594000000E+02  0.51100000000E-03 0. -1.
    9900012    2    1    2    0    0 -0.18125465118E+02 -0.74119595852E+01 -0.40566536482E+02  0.46142317490E+02  0.99999975259E+01 0.  0.
        -12    1    1    2    0    0  0.18125465118E+02  0.74119595852E+01  0.40566536482E+02  0.45045682510E+02  0.00000000000E+00 0.  1.
         11    1    3    3    0    0 -0.14565788386E+02 -0.27071968943E+01 -0.31839287159E+02  0.35117393317E+02  0.51100000000E-03 0. -1.
        -11    1    3    3    0    0  0.20299515634E+00  0.30687656568E+00 -0.13913161271E+00  0.39336767386E+00  0.51100000000E-03 0.  1.
         12    1    3    3    0    0 -0.37626718888E+01 -0.50116392566E+01 -0.85881177106E+01  0.10631556499E+02  0.00000000000E+00 0. -1.
</event>
<event>
 7    1  0.3846293E-008  0.4614232E+02  0.7816164E-02  0.1320468E+00
        -11   -1    0    0    0    0  0.00000000000E+00  0.00000000000E+00  0.45593999997E+02  0.45594000000E+02  0.51100000000E-03 0.  1.
         11   -1    0    0    0    0 -0.00000000000E+00 -0.00000000000E+00 -0.45593999997E+02  0.45594000000E+02  0.51100000000E-03 0. -1.
    9900012    2    1    2    0    0 -0.21063248265E+02  0.18148807019E+02 -0.35441130139E+02  0.46142319528E+02  0.10000016111E+02 0.  0.
        -12    1    1    2    0    0  0.21063248265E+02 -0.18148807019E+02  0.35441130139E+02  0.45045680472E+02  0.00000000000E+00 0.  1.
         11    1    3    3    0    0 -0.44780955985E+01  0.17952624868E+01 -0.60367765647E+01  0.77278055837E+01  0.51100000000E-03 0. -1.
        -11    1    3    3    0    0 -0.77810933103E-01  0.16502727567E+01 -0.31334605414E-01  0.16524033501E+01  0.51100000000E-03 0.  1.
         12    1    3    3    0    0 -0.16507341733E+02  0.14703271775E+02 -0.29373018969E+02  0.36762110594E+02  0.00000000000E+00 0. -1.
</event>
<event>
 7    1  0.3846293E-008  0.4614232E+02  0.7816164E-02  0.1320468E+00
        -11   -1    0    0    0    0  0.00000000000E+00  0.00000000000E+00  0.45593999997E+02  0.45594000000E+02  0.51100000000E-03 0.  1.
         11   -1    0    0    0    0 -0.00000000000E+00 -0.00000000000E+00 -0.45593999997E+02  0.45594000000E+02  0.51100000000E-03 0. -1.
    9900012    2    1    2    0    0 -0.26674114544E+02 -0.35007144013E+02 -0.95971305921E+01  0.46142318362E+02  0.10000005477E+02 0.  0.
        -12    1    1    2    0    0  0.26674114544E+02  0.35007144013E+02  0.95971305921E+01  0.45045681638E+02  0.00000000000E+00 0.  1.
         11    1    3    3    0    0 -0.17072525065E+02 -0.23809745153E+02 -0.59370943270E+01  0.29893547224E+02  0.51100000000E-03 0. -1.
        -11    1    3    3    0    0 -0.28837295530E+01 -0.37263786219E+01 -0.40220798576E+01  0.61950722684E+01  0.51100000000E-03 0.  1.
         12    1    3    3    0    0 -0.67178599266E+01 -0.74710202381E+01  0.36204359253E+00  0.10053698869E+02  0.00000000000E+00 0. -1.
</event>
<event>
 7    1  0.3846293E-008  0.4614232E+02  0.7816164E-02  0.1320468E+00
        -11   -1    0    0    0    0  0.00000000000E+00  0.00000000000E+00  0.45593999997E+02  0.45594000000E+02  0.51100000000E-03 0.  1.
         11   -1    0    0    0    0 -0.00000000000E+00 -0.00000000000E+00 -0.45593999997E+02  0.45594000000E+02  0.51100000000E-03 0. -1.
    9900012    2    1    2    0    0 -0.25842582614E+02  0.36098683409E+02 -0.76262328253E+01  0.46142318219E+02  0.10000004173E+02 0.  0.
        -12    1    1    2    0    0  0.25842582614E+02 -0.36098683409E+02  0.76262328253E+01  0.45045681781E+02  0.00000000000E+00 0.  1.
         11    1    3    3    0    0 -0.99789621792E+01  0.10448928947E+02 -0.48650675640E+01  0.15245611991E+02  0.51100000000E-03 0. -1.
        -11    1    3    3    0    0 -0.21917948041E+01  0.11809240891E+01  0.86090272136E+00  0.26343310202E+01  0.51100000000E-03 0.  1.
         12    1    3    3    0    0 -0.13671825630E+02  0.24468830373E+02 -0.36220679827E+01  0.28262375208E+02  0.00000000000E+00 0. -1.
</event>
<event>
 7    1  0.3846293E-008  0.4614232E+02  0.7816164E-02  0.1320468E+00
        -11   -1    0    0    0    0  0.00000000000E+00  0.00000000000E+00  0.45593999997E+02  0.45594000000E+02  0.51100000000E-03 0. -1.
         11   -1    0    0    0    0 -0.00000000000E+00 -0.00000000000E+00 -0.45593999997E+02  0.45594000000E+02  0.51100000000E-03 0.  1.
    9900012    2    1    2    0    0 -0.15174441223E+02 -0.38135246019E+02  0.18562129322E+02  0.46142319848E+02  0.10000019032E+02 0.  0.
        -12    1    1    2    0    0  0.15174441223E+02  0.38135246019E+02 -0.18562129322E+02  0.45045680152E+02  0.00000000000E+00 0.  1.
         11    1    3    3    0    0 -0.10663405111E+02 -0.18710587795E+02  0.11907552154E+02  0.24608618465E+02  0.51100000000E-03 0. -1.
        -11    1    3    3    0    0 -0.15550858808E+01 -0.10910658234E+01  0.81205997105E+00  0.20659521740E+01  0.51100000000E-03 0.  1.
        -12    1    3    3    0    0 -0.29559502316E+01 -0.18333592400E+02  0.58425171973E+01  0.19467749209E+02  0.00000000000E+00 0.  1.
</event>
<event>
 7    1  0.3846293E-008  0.4614232E+02  0.7816164E-02  0.1320468E+00
        -11   -1    0    0    0    0  0.00000000000E+00  0.00000000000E+00  0.45593999997E+02  0.45594000000E+02  0.51100000000E-03 0.  1.
         11   -1    0    0    0    0 -0.00000000000E+00 -0.00000000000E+00 -0.45593999997E+02  0.45594000000E+02  0.51100000000E-03 0. -1.
    9900012    2    1    2    0    0  0.17777959715E+02  0.77324168121E+01 -0.40660388306E+02  0.46142319868E+02  0.10000019212E+02 0.  0.
        -12    1    1    2    0    0 -0.17777959715E+02 -0.77324168121E+01  0.40660388306E+02  0.45045680132E+02  0.00000000000E+00 0.  1.
         11    1    3    3    0    0  0.16391234692E+00 -0.66549681114E+00 -0.57135354030E+00  0.89229949694E+00  0.51100000000E-03 0. -1.
        -11    1    3    3    0    0  0.12519822238E+01 -0.68149758353E+00 -0.78124816635E+01  0.79414588363E+01  0.51100000000E-03 0.  1.
         12    1    3    3    0    0  0.16362065144E+02  0.90794112067E+01 -0.32276553102E+02  0.37308561535E+02  0.00000000000E+00 0. -1.
</event>
<event>
 7    1  0.3846293E-008  0.4614232E+02  0.7816164E-02  0.1320468E+00
        -11   -1    0    0    0    0  0.00000000000E+00  0.00000000000E+00  0.45593999997E+02  0.45594000000E+02  0.51100000000E-03 0.  1.
         11   -1    0    0    0    0 -0.00000000000E+00 -0.00000000000E+00 -0.45593999997E+02  0.45594000000E+02  0.51100000000E-03 0. -1.
    9900012    2    1    2    0    0  0.21986240510E+02 -0.90191232651E+01 -0.38267141976E+02  0.46142317507E+02  0.99999976838E+01 0.  0.
        -12    1    1    2    0    0 -0.21986240510E+02  0.90191232651E+01  0.38267141976E+02  0.45045682493E+02  0.00000000000E+00 0.  1.
         11    1    3    3    0    0  0.47154988246E-01  0.33538576479E+00 -0.22526360938E+01  0.22779545291E+01  0.51100000000E-03 0. -1.
        -11    1    3    3    0    0 -0.29477627084E+00 -0.42783715486E+00  0.96128288849E-01  0.52837353261E+00  0.51100000000E-03 0.  1.
         12    1    3    3    0    0  0.22233861792E+02 -0.89266718750E+01 -0.36110634171E+02  0.43335989445E+02  0.00000000000E+00 0. -1.
</event>
<event>
 7    1  0.3846293E-008  0.4614232E+02  0.7816164E-02  0.1320468E+00
        -11   -1    0    0    0    0  0.00000000000E+00  0.00000000000E+00  0.45593999997E+02  0.45594000000E+02  0.51100000000E-03 0.  1.
         11   -1    0    0    0    0 -0.00000000000E+00 -0.00000000000E+00 -0.45593999997E+02  0.45594000000E+02  0.51100000000E-03 0. -1.
    9900012    2    1    2    0    0  0.91607163837E+01  0.44021538555E+02  0.27016777038E+01  0.46142316035E+02  0.99999842633E+01 0.  0.
        -12    1    1    2    0    0 -0.91607163837E+01 -0.44021538555E+02 -0.27016777038E+01  0.45045683965E+02  0.00000000000E+00 0.  1.
         11    1    3    3    0    0  0.14049412386E+01  0.64310856864E+01  0.22834223488E+01  0.69675491297E+01  0.51100000000E-03 0. -1.
        -11    1    3    3    0    0  0.51243900691E+01  0.10752467286E+02  0.23434046737E+01  0.12139459298E+02  0.51100000000E-03 0.  1.
         12    1    3    3    0    0  0.26313850761E+01  0.26837985583E+02 -0.19251493186E+01  0.27035307608E+02  0.00000000000E+00 0. -1.
</event>
<event>
 7    1  0.3846293E-008  0.4614232E+02  0.7816164E-02  0.1320468E+00
        -11   -1    0    0    0    0  0.00000000000E+00  0.00000000000E+00  0.45593999997E+02  0.45594000000E+02  0.51100000000E-03 0.  1.
         11   -1    0    0    0    0 -0.00000000000E+00 -0.00000000000E+00 -0.45593999997E+02  0.45594000000E+02  0.51100000000E-03 0. -1.
    9900012    2    1    2    0    0 -0.25030473135E+02 -0.33842430379E+02 -0.16039912389E+02  0.46142317979E+02  0.10000001988E+02 0.  0.
        -12    1    1    2    0    0  0.25030473135E+02  0.33842430379E+02  0.16039912389E+02  0.45045682021E+02  0.00000000000E+00 0.  1.
         11    1    3    3    0    0 -0.72497553133E+01 -0.17343471507E+02 -0.75866673181E+01  0.20270976229E+02  0.51100000000E-03 0. -1.
        -11    1    3    3    0    0 -0.14158454015E+02 -0.13860952362E+02 -0.79981904656E+01  0.21367238274E+02  0.51100000000E-03 0.  1.
        -12    1    3    3    0    0 -0.36222638065E+01 -0.26380065097E+01 -0.45505460517E+00  0.45041034760E+01  0.00000000000E+00 0.  1.
</event>
<event>
 7    1  0.3846293E-008  0.4614232E+02  0.7816164E-02  0.1320468E+00
        -11   -1    0    0    0    0  0.00000000000E+00  0.00000000000E+00  0.45593999997E+02  0.45594000000E+02  0.51100000000E-03 0.  1.
         11   -1    0    0    0    0 -0.00000000000E+00 -0.00000000000E+00 -0.45593999997E+02  0.45594000000E+02  0.51100000000E-03 0. -1.
    9900012    2    1    2    0    0  0.18198798092E+02 -0.35379955417E+02 -0.21122878604E+02  0.46142317657E+02  0.99999990466E+01 0.  0.
        -12    1    1    2    0    0 -0.18198798092E+02  0.35379955417E+02  0.21122878604E+02  0.45045682343E+02  0.00000000000E+00 0.  1.
         11    1    3    3    0    0  0.10100436892E+02 -0.15696200926E+02 -0.11048607056E+02  0.21690119111E+02  0.51100000000E-03 0. -1.
        -11    1    3    3    0    0  0.58389652632E+01 -0.68431872209E+01 -0.59184778943E+01  0.10768059599E+02  0.51100000000E-03 0.  1.
        -12    1    3    3    0    0  0.22593959364E+01 -0.12840567270E+02 -0.41557936541E+01  0.13684138946E+02  0.00000000000E+00 0.  1.
</event>
<event>
 7    1  0.3846293E-008  0.4614232E+02  0.7816164E-02  0.1320468E+00
        -11   -1    0    0    0    0  0.00000000000E+00  0.00000000000E+00  0.45593999997E+02  0.45594000000E+02  0.51100000000E-03 0. -1.
         11   -1    0    0    0    0 -0.00000000000E+00 -0.00000000000E+00 -0.45593999997E+02  0.45594000000E+02  0.51100000000E-03 0.  1.
    9900012    2    1    2    0    0 -0.30850272504E+01  0.41070781242E+02 -0.18242451477E+02  0.46142317623E+02  0.99999987371E+01 0.  0.
        -12    1    1    2    0    0  0.30850272504E+01 -0.41070781242E+02  0.18242451477E+02  0.45045682377E+02  0.00000000000E+00 0.  1.
         11    1    3    3    0    0 -0.54653824823E+00  0.29786574937E+02 -0.96609077057E+01  0.31318874317E+02  0.51100000000E-03 0. -1.
        -11    1    3    3    0    0 -0.22569704810E+01  0.11497812489E+02 -0.84502207163E+01  0.14446447252E+02  0.51100000000E-03 0.  1.
        -12    1    3    3    0    0 -0.28151852120E+00 -0.21360618416E+00 -0.13132305462E+00  0.37699605351E+00  0.00000000000E+00 0.  1.
</event>
<event>
 7    1  0.3846293E-008  0.4614231E+02  0.7816164E-02  0.1320468E+00
        -11   -1    0    0    0    0  0.00000000000E+00  0.00000000000E+00  0.45593999997E+02  0.45594000000E+02  0.51100000000E-03 0.  1.
         11   -1    0    0    0    0 -0.00000000000E+00 -0.00000000000E+00 -0.45593999997E+02  0.45594000000E+02  0.51100000000E-03 0. -1.
    9900012    2    1    2    0    0 -0.19708485598E+02  0.26461213038E+02 -0.30667469043E+02  0.46142313663E+02  0.99999626339E+01 0.  0.
        -12    1    1    2    0    0  0.19708485598E+02 -0.26461213038E+02  0.30667469043E+02  0.45045686337E+02  0.00000000000E+00 0.  1.
         11    1    3    3    0    0 -0.10846070433E+02  0.87517910721E+01 -0.15533945779E+02  0.20869464836E+02  0.51100000000E-03 0. -1.
        -11    1    3    3    0    0 -0.18166364533E+00  0.23342676010E+01 -0.31868045730E+01  0.39544317620E+01  0.51100000000E-03 0.  1.
        -12    1    3    3    0    0 -0.86807515196E+01  0.15375154365E+02 -0.11946718691E+02  0.21318417065E+02  0.00000000000E+00 0.  1.
</event>
<event>
 7    1  0.3846293E-008  0.4614232E+02  0.7816164E-02  0.1320468E+00
        -11   -1    0    0    0    0  0.00000000000E+00  0.00000000000E+00  0.45593999997E+02  0.45594000000E+02  0.51100000000E-03 0.  1.
         11   -1    0    0    0    0 -0.00000000000E+00 -0.00000000000E+00 -0.45593999997E+02  0.45594000000E+02  0.51100000000E-03 0. -1.
    9900012    2    1    2    0    0  0.28465971901E+02 -0.10624127291E+02 -0.33255523088E+02  0.46142318155E+02  0.10000003596E+02 0.  0.
        -12    1    1    2    0    0 -0.28465971901E+02  0.10624127291E+02  0.33255523088E+02  0.45045681845E+02  0.00000000000E+00 0.  1.
         11    1    3    3    0    0  0.72756166711E+01 -0.20377385701E+01 -0.69730892409E+01  0.10281583061E+02  0.51100000000E-03 0. -1.
        -11    1    3    3    0    0  0.21578664913E+02 -0.87422522437E+01 -0.26589189787E+02  0.35341912336E+02  0.51100000000E-03 0.  1.
        -12    1    3    3    0    0 -0.38830968338E+00  0.15586352265E+00  0.30675594007E+00  0.51882275843E+00  0.00000000000E+00 0.  1.
</event>
<event>
 7    1  0.3846293E-008  0.4614232E+02  0.7816164E-02  0.1320468E+00
        -11   -1    0    0    0    0  0.00000000000E+00  0.00000000000E+00  0.45593999997E+02  0.45594000000E+02  0.51100000000E-03 0. -1.
         11   -1    0    0    0    0 -0.00000000000E+00 -0.00000000000E+00 -0.45593999997E+02  0.45594000000E+02  0.51100000000E-03 0.  1.
    9900012    2    1    2    0    0 -0.34906962451E+02 -0.27928226720E+02  0.55345834775E+01  0.46142317748E+02  0.99999998840E+01 0.  0.
        -12    1    1    2    0    0  0.34906962451E+02  0.27928226720E+02 -0.55345834775E+01  0.45045682252E+02  0.00000000000E+00 0.  1.
         11    1    3    3    0    0 -0.76551449094E+01 -0.42665021683E+01  0.27133816121E+01  0.91742424412E+01  0.51100000000E-03 0. -1.
        -11    1    3    3    0    0 -0.48719568963E+01 -0.75015917908E+01 -0.13636535512E+01  0.90481707911E+01  0.51100000000E-03 0.  1.
        -12    1    3    3    0    0 -0.22379860645E+02 -0.16160132760E+02  0.41848554166E+01  0.27919904516E+02  0.00000000000E+00 0.  1.
</event>
<event>
 7    1  0.3846293E-008  0.4614232E+02  0.7816164E-02  0.1320468E+00
        -11   -1    0    0    0    0  0.00000000000E+00  0.00000000000E+00  0.45593999997E+02  0.45594000000E+02  0.51100000000E-03 0.  1.
         11   -1    0    0    0    0 -0.00000000000E+00 -0.00000000000E+00 -0.45593999997E+02  0.45594000000E+02  0.51100000000E-03 0. -1.
    9900012    2    1    2    0    0  0.11892975806E+02 -0.39642776122E+02 -0.17779789944E+02  0.46142317603E+02  0.99999985581E+01 0.  0.
        -12    1    1    2    0    0 -0.11892975806E+02  0.39642776122E+02  0.17779789944E+02  0.45045682397E+02  0.00000000000E+00 0.  1.
         11    1    3    3    0    0  0.34183585263E+00 -0.14806673698E+02 -0.73185985763E+01  0.16520179270E+02  0.51100000000E-03 0. -1.
        -11    1    3    3    0    0  0.31397130725E+01 -0.50283908098E+01 -0.62481056092E+00  0.59609479793E+01  0.51100000000E-03 0.  1.
         12    1    3    3    0    0  0.84114268807E+01 -0.19807711614E+02 -0.98363808066E+01  0.23661190353E+02  0.00000000000E+00 0. -1.
</event>
<event>
 7    1  0.3846293E-008  0.4614231E+02  0.7816164E-02  0.1320468E+00
        -11   -1    0    0    0    0  0.00000000000E+00  0.00000000000E+00  0.45593999997E+02  0.45594000000E+02  0.51100000000E-03 0. -1.
         11   -1    0    0    0    0 -0.00000000000E+00 -0.00000000000E+00 -0.45593999997E+02  0.45594000000E+02  0.51100000000E-03 0.  1.
    9900012    2    1    2    0    0 -0.22137466985E+02 -0.35700783617E+02  0.16263490433E+02  0.46142306350E+02  0.99998959443E+01 0.  0.
        -12    1    1    2    0    0  0.22137466985E+02  0.35700783617E+02 -0.16263490433E+02  0.45045693650E+02  0.00000000000E+00 0.  1.
         11    1    3    3    0    0 -0.65633628138E+01 -0.11849225931E+02  0.79593492916E+01  0.15710923843E+02  0.51100000000E-03 0. -1.
        -11    1    3    3    0    0 -0.68908089442E+01 -0.93063553222E+01  0.67904422546E+01  0.13423919084E+02  0.51100000000E-03 0.  1.
        -12    1    3    3    0    0 -0.86832952266E+01 -0.14545202363E+02  0.15136988871E+01  0.17007463424E+02  0.00000000000E+00 0.  1.
</event>
<event>
 7    1  0.3846293E-008  0.4614232E+02  0.7816164E-02  0.1320468E+00
        -11   -1    0    0    0    0  0.00000000000E+00  0.00000000000E+00  0.45593999997E+02  0.45594000000E+02  0.51100000000E-03 0. -1.
         11   -1    0    0    0    0 -0.00000000000E+00 -0.00000000000E+00 -0.45593999997E+02  0.45594000000E+02  0.51100000000E-03 0.  1.
    9900012    2    1    2    0    0  0.96259187006E+01 -0.39962566435E+02  0.18424127192E+02  0.46142317747E+02  0.99999998680E+01 0.  0.
        -12    1    1    2    0    0 -0.96259187006E+01  0.39962566435E+02 -0.18424127192E+02  0.45045682253E+02  0.00000000000E+00 0.  1.
         11    1    3    3    0    0  0.74734516476E+01 -0.23994476401E+02  0.80746582179E+01  0.26396732428E+02  0.51100000000E-03 0. -1.
        -11    1    3    3    0    0  0.94037510548E+00 -0.34318356539E+01  0.48183632967E+01  0.59898603001E+01  0.51100000000E-03 0.  1.
        -12    1    3    3    0    0  0.12120919474E+01 -0.12536254380E+02  0.55311056774E+01  0.13755725018E+02  0.00000000000E+00 0.  1.
</event>
<event>
 7    1  0.3846293E-008  0.4614232E+02  0.7816164E-02  0.1320468E+00
        -11   -1    0    0    0    0  0.00000000000E+00  0.00000000000E+00  0.45593999997E+02  0.45594000000E+02  0.51100000000E-03 0. -1.
         11   -1    0    0    0    0 -0.00000000000E+00 -0.00000000000E+00 -0.45593999997E+02  0.45594000000E+02  0.51100000000E-03 0.  1.
    9900012    2    1    2    0    0 -0.57173097008E+01  0.10256698907E+02  0.43488227821E+02  0.46142318057E+02  0.10000002701E+02 0.  0.
        -12    1    1    2    0    0  0.57173097008E+01 -0.10256698907E+02 -0.43488227821E+02  0.45045681943E+02  0.00000000000E+00 0.  1.
         11    1    3    3    0    0 -0.37880541542E+01  0.31517307308E+01  0.11155667710E+02  0.12195559979E+02  0.51100000000E-03 0. -1.
        -11    1    3    3    0    0 -0.10847024930E+01  0.48114317151E+01  0.73899991631E+01  0.88847364924E+01  0.51100000000E-03 0.  1.
        -12    1    3    3    0    0 -0.84455305370E+00  0.22935364610E+01  0.24942560947E+02  0.25062021586E+02  0.00000000000E+00 0.  1.
</event>
<event>
 7    1  0.3846293E-008  0.4614232E+02  0.7816164E-02  0.1320468E+00
        -11   -1    0    0    0    0  0.00000000000E+00  0.00000000000E+00  0.45593999997E+02  0.45594000000E+02  0.51100000000E-03 0.  1.
         11   -1    0    0    0    0 -0.00000000000E+00 -0.00000000000E+00 -0.45593999997E+02  0.45594000000E+02  0.51100000000E-03 0. -1.
    9900012    2    1    2    0    0  0.41620833550E+02 -0.83549265687E+01  0.15067011607E+02  0.46142318497E+02  0.10000006706E+02 0.  0.
        -12    1    1    2    0    0 -0.41620833550E+02  0.83549265687E+01 -0.15067011607E+02  0.45045681503E+02  0.00000000000E+00 0.  1.
         11    1    3    3    0    0  0.13228430195E+02  0.34921581872E+00  0.61003655042E+01  0.14571471328E+02  0.51100000000E-03 0.  1.
        -11    1    3    3    0    0  0.15414513191E+02 -0.76741207643E+01  0.43763210442E+01  0.17766584718E+02  0.51100000000E-03 0. -1.
         12    1    3    3    0    0  0.12977890164E+02 -0.10300216232E+01  0.45903250588E+01  0.13804262450E+02  0.00000000000E+00 0. -1.
</event>
<event>
 7    1  0.3846293E-008  0.4614232E+02  0.7816164E-02  0.1320468E+00
        -11   -1    0    0    0    0  0.00000000000E+00  0.00000000000E+00  0.45593999997E+02  0.45594000000E+02  0.51100000000E-03 0. -1.
         11   -1    0    0    0    0 -0.00000000000E+00 -0.00000000000E+00 -0.45593999997E+02  0.45594000000E+02  0.51100000000E-03 0.  1.
    9900012    2    1    2    0    0 -0.20627023522E+02  0.33319417403E+02  0.22213865263E+02  0.46142317795E+02  0.10000000306E+02 0.  0.
        -12    1    1    2    0    0  0.20627023522E+02 -0.33319417403E+02 -0.22213865263E+02  0.45045682205E+02  0.00000000000E+00 0.  1.
         11    1    3    3    0    0 -0.14435252002E+02  0.22972764247E+02  0.15876582956E+02  0.31435494017E+02  0.51100000000E-03 0. -1.
        -11    1    3    3    0    0 -0.47817312136E+01  0.93925006510E+01  0.72332232758E+01  0.12782939455E+02  0.51100000000E-03 0.  1.
         12    1    3    3    0    0 -0.14100403068E+01  0.95415250526E+00 -0.89594096869E+00  0.19238843233E+01  0.00000000000E+00 0. -1.
</event>
<event>
 7    1  0.3846293E-008  0.4614232E+02  0.7816164E-02  0.1320468E+00
        -11   -1    0    0    0    0  0.00000000000E+00  0.00000000000E+00  0.45593999997E+02  0.45594000000E+02  0.51100000000E-03 0. -1.
         11   -1    0    0    0    0 -0.00000000000E+00 -0.00000000000E+00 -0.45593999997E+02  0.45594000000E+02  0.51100000000E-03 0.  1.
    9900012    2    1    2    0    0 -0.25746363285E+02 -0.36346578063E+02 -0.67204562384E+01  0.46142317728E+02  0.99999996997E+01 0.  0.
        -12    1    1    2    0    0  0.25746363285E+02  0.36346578063E+02  0.67204562384E+01  0.45045682272E+02  0.00000000000E+00 0.  1.
         11    1    3    3    0    0 -0.68439758826E+01 -0.90699256924E+01 -0.37475721741E+01  0.11964441291E+02  0.51100000000E-03 0. -1.
        -11    1    3    3    0    0 -0.23119707105E+01 -0.24727637631E+00 -0.39501176706E+00  0.23584716936E+01  0.51100000000E-03 0.  1.
        -12    1    3    3    0    0 -0.16590416692E+02 -0.27029375994E+02 -0.25778722972E+01  0.31819404743E+02  0.00000000000E+00 0.  1.
</event>
<event>
 7    1  0.3846293E-008  0.4614232E+02  0.7816164E-02  0.1320468E+00
        -11   -1    0    0    0    0  0.00000000000E+00  0.00000000000E+00  0.45593999997E+02  0.45594000000E+02  0.51100000000E-03 0.  1.
         11   -1    0    0    0    0 -0.00000000000E+00 -0.00000000000E+00 -0.45593999997E+02  0.45594000000E+02  0.51100000000E-03 0. -1.
    9900012    2    1    2    0    0 -0.22342752846E+02 -0.10998592639E+02 -0.37535926867E+02  0.46142318181E+02  0.10000003830E+02 0.  0.
        -12    1    1    2    0    0  0.22342752846E+02  0.10998592639E+02  0.37535926867E+02  0.45045681819E+02  0.00000000000E+00 0.  1.
         11    1    3    3    0    0 -0.12618916243E+02 -0.52109497418E+01 -0.15692499803E+02  0.20800134487E+02  0.51100000000E-03 0. -1.
        -11    1    3    3    0    0 -0.96166223841E+01 -0.68279819253E+01 -0.19794376668E+02  0.23041660339E+02  0.51100000000E-03 0.  1.
         12    1    3    3    0    0 -0.10721421935E+00  0.10403390281E+01 -0.20490503953E+01  0.23005233546E+01  0.00000000000E+00 0. -1.
</event>
<event>
 7    1  0.3846293E-008  0.4614232E+02  0.7816164E-02  0.1320468E+00
        -11   -1    0    0    0    0  0.00000000000E+00  0.00000000000E+00  0.45593999997E+02  0.45594000000E+02  0.51100000000E-03 0.  1.
         11   -1    0    0    0    0 -0.00000000000E+00 -0.00000000000E+00 -0.45593999997E+02  0.45594000000E+02  0.51100000000E-03 0. -1.
    9900012    2    1    2    0    0 -0.41394692866E+02 -0.16277861862E+02  0.71150637419E+01  0.46142317451E+02  0.99999971700E+01 0.  0.
        -12    1    1    2    0    0  0.41394692866E+02  0.16277861862E+02 -0.71150637419E+01  0.45045682549E+02  0.00000000000E+00 0.  1.
         11    1    3    3    0    0 -0.29826023866E+02 -0.11984337130E+02  0.47597840266E+01  0.32494177637E+02  0.51100000000E-03 0. -1.
        -11    1    3    3    0    0 -0.10603245174E+02 -0.26265494538E+01  0.34207050700E+01  0.11446780932E+02  0.51100000000E-03 0.  1.
        -12    1    3    3    0    0 -0.96542382632E+00 -0.16669752776E+01 -0.10654253546E+01  0.22013588819E+01  0.00000000000E+00 0.  1.
</event>
<event>
 7    1  0.3846293E-008  0.4614232E+02  0.7816164E-02  0.1320468E+00
        -11   -1    0    0    0    0  0.00000000000E+00  0.00000000000E+00  0.45593999997E+02  0.45594000000E+02  0.51100000000E-03 0.  1.
         11   -1    0    0    0    0 -0.00000000000E+00 -0.00000000000E+00 -0.45593999997E+02  0.45594000000E+02  0.51100000000E-03 0. -1.
    9900012    2    1    2    0    0 -0.15450890778E+02 -0.20269824687E+02 -0.37141855809E+02  0.46142320167E+02  0.10000021937E+02 0.  0.
        -12    1    1    2    0    0  0.15450890778E+02  0.20269824687E+02  0.37141855809E+02  0.45045679833E+02  0.00000000000E+00 0.  1.
         11    1    3    3    0    0 -0.28178172779E+01 -0.10003992701E+02 -0.12863787868E+02  0.16537744790E+02  0.51100000000E-03 0. -1.
        -11    1    3    3    0    0 -0.12986793261E+00  0.45332675203E+00 -0.71833874504E+00  0.85929135791E+00  0.51100000000E-03 0.  1.
        -12    1    3    3    0    0 -0.12503205567E+02 -0.10719158738E+02 -0.23559729196E+02  0.28745284018E+02  0.00000000000E+00 0.  1.
</event>
<event>
 7    1  0.3846293E-008  0.4614232E+02  0.7816164E-02  0.1320468E+00
        -11   -1    0    0    0    0  0.00000000000E+00  0.00000000000E+00  0.45593999997E+02  0.45594000000E+02  0.51100000000E-03 0.  1.
         11   -1    0    0    0    0 -0.00000000000E+00 -0.00000000000E+00 -0.45593999997E+02  0.45594000000E+02  0.51100000000E-03 0. -1.
    9900012    2    1    2    0    0  0.17724037934E+02 -0.92954647506E+00 -0.41401786699E+02  0.46142317419E+02  0.99999968839E+01 0.  0.
        -12    1    1    2    0    0 -0.17724037934E+02  0.92954647506E+00  0.41401786699E+02  0.45045682581E+02  0.00000000000E+00 0.  1.
         11    1    3    3    0    0  0.31189483097E+01 -0.16740568673E+01 -0.61271309617E+01  0.70761599075E+01  0.51100000000E-03 0.  1.
        -11    1    3    3    0    0  0.11179865419E+02 -0.30348818992E+01 -0.26406639725E+02  0.28835924136E+02  0.51100000000E-03 0. -1.
         12    1    3    3    0    0  0.34252242046E+01  0.37793922914E+01 -0.88680160119E+01  0.10230233376E+02  0.00000000000E+00 0. -1.
</event>
<event>
 7    1  0.3846293E-008  0.4614232E+02  0.7816164E-02  0.1320468E+00
        -11   -1    0    0    0    0  0.00000000000E+00  0.00000000000E+00  0.45593999997E+02  0.45594000000E+02  0.51100000000E-03 0.  1.
         11   -1    0    0    0    0 -0.00000000000E+00 -0.00000000000E+00 -0.45593999997E+02  0.45594000000E+02  0.51100000000E-03 0. -1.
    9900012    2    1    2    0    0  0.89242099276E+00  0.71367788580E+01 -0.44467780750E+02  0.46142317049E+02  0.99999935065E+01 0.  0.
        -12    1    1    2    0    0 -0.89242099276E+00 -0.71367788580E+01  0.44467780750E+02  0.45045682951E+02  0.00000000000E+00 0.  1.
         11    1    3    3    0    0  0.17384893198E+01 -0.18404010578E+00 -0.17943622384E+02  0.18028582873E+02  0.51100000000E-03 0. -1.
        -11    1    3    3    0    0  0.13148156462E+01  0.77370239101E-01 -0.79836145511E+01  0.80915281560E+01  0.51100000000E-03 0.  1.
        -12    1    3    3    0    0 -0.21608839732E+01  0.72434487246E+01 -0.18540543815E+02  0.20022206021E+02  0.00000000000E+00 0.  1.
</event>
<event>
 7    1  0.3846293E-008  0.4614232E+02  0.7816164E-02  0.1320468E+00
        -11   -1    0    0    0    0  0.00000000000E+00  0.00000000000E+00  0.45593999997E+02  0.45594000000E+02  0.51100000000E-03 0. -1.
         11   -1    0    0    0    0 -0.00000000000E+00 -0.00000000000E+00 -0.45593999997E+02  0.45594000000E+02  0.51100000000E-03 0.  1.
    9900012    2    1    2    0    0  0.94339673258E+01 -0.18868727043E+02  0.39800557118E+02  0.46142323774E+02  0.10000054834E+02 0.  0.
        -12    1    1    2    0    0 -0.94339673258E+01  0.18868727043E+02 -0.39800557118E+02  0.45045676226E+02  0.00000000000E+00 0.  1.
         11    1    3    3    0    0  0.41460306505E+01 -0.77719645613E+01  0.16822933991E+02  0.18989579027E+02  0.51100000000E-03 0. -1.
        -11    1    3    3    0    0  0.32010239454E+01 -0.42801788201E+00  0.29950801092E+01  0.44045724796E+01  0.51100000000E-03 0.  1.
        -12    1    3    3    0    0  0.20869127299E+01 -0.10668744600E+02  0.19982543017E+02  0.22748172268E+02  0.00000000000E+00 0.  1.
</event>
<event>
 7    1  0.3846293E-008  0.4614232E+02  0.7816164E-02  0.1320468E+00
        -11   -1    0    0    0    0  0.00000000000E+00  0.00000000000E+00  0.45593999997E+02  0.45594000000E+02  0.51100000000E-03 0.  1.
         11   -1    0    0    0    0 -0.00000000000E+00 -0.00000000000E+00 -0.45593999997E+02  0.45594000000E+02  0.51100000000E-03 0. -1.
    9900012    2    1    2    0    0 -0.24216502808E+02  0.27352630192E+02 -0.26353521598E+02  0.46142317773E+02  0.10000000106E+02 0.  0.
        -12    1    1    2    0    0  0.24216502808E+02 -0.27352630192E+02  0.26353521598E+02  0.45045682227E+02  0.00000000000E+00 0.  1.
         11    1    3    3    0    0 -0.50065770192E+01  0.27176669926E+01 -0.66874959339E+01  0.87848807311E+01  0.51100000000E-03 0. -1.
        -11    1    3    3    0    0 -0.33582194587E+01  0.14258932307E+01 -0.19993364499E+01  0.41603071929E+01  0.51100000000E-03 0.  1.
        -12    1    3    3    0    0 -0.15851706330E+02  0.23209069969E+02 -0.17666689215E+02  0.33197129849E+02  0.00000000000E+00 0.  1.
</event>
<event>
 7    1  0.3846293E-008  0.4614232E+02  0.7816164E-02  0.1320468E+00
        -11   -1    0    0    0    0  0.00000000000E+00  0.00000000000E+00  0.45593999997E+02  0.45594000000E+02  0.51100000000E-03 0.  1.
         11   -1    0    0    0    0 -0.00000000000E+00 -0.00000000000E+00 -0.45593999997E+02  0.45594000000E+02  0.51100000000E-03 0. -1.
    9900012    2    1    2    0    0  0.20846162551E+02 -0.69483733551E+01 -0.39322653244E+02  0.46142318259E+02  0.10000004536E+02 0.  0.
        -12    1    1    2    0    0 -0.20846162551E+02  0.69483733551E+01  0.39322653244E+02  0.45045681741E+02  0.00000000000E+00 0.  1.
         11    1    3    3    0    0  0.40013860200E+01 -0.11317088627E+01 -0.27881191898E+01  0.50065421109E+01  0.51100000000E-03 0. -1.
        -11    1    3    3    0    0  0.53879013193E+01 -0.31635129956E+01 -0.72069605664E+01  0.95382166030E+01  0.51100000000E-03 0.  1.
        -12    1    3    3    0    0  0.11456875212E+02 -0.26531514968E+01 -0.29327573488E+02  0.31597559545E+02  0.00000000000E+00 0.  1.
</event>
<event>
 7    1  0.3846293E-008  0.4614232E+02  0.7816164E-02  0.1320468E+00
        -11   -1    0    0    0    0  0.00000000000E+00  0.00000000000E+00  0.45593999997E+02  0.45594000000E+02  0.51100000000E-03 0. -1.
         11   -1    0    0    0    0 -0.00000000000E+00 -0.00000000000E+00 -0.45593999997E+02  0.45594000000E+02  0.51100000000E-03 0.  1.
    9900012    2    1    2    0    0 -0.30141197366E+02  0.32726748807E+02  0.70414237322E+01  0.46142317473E+02  0.99999973733E+01 0.  0.
        -12    1    1    2    0    0  0.30141197366E+02 -0.32726748807E+02 -0.70414237322E+01  0.45045682527E+02  0.00000000000E+00 0.  1.
         11    1    3    3    0    0 -0.11530243810E+02  0.12973696973E+02 -0.56847796530E+00  0.17366246080E+02  0.51100000000E-03 0.  1.
        -11    1    3    3    0    0 -0.16161179010E+02  0.19385081579E+02  0.73417919978E+01  0.26284349047E+02  0.51100000000E-03 0. -1.
         12    1    3    3    0    0 -0.24497745468E+01  0.36797025462E+00  0.26810969969E+00  0.24917223460E+01  0.00000000000E+00 0. -1.
</event>
<event>
 7    1  0.3846293E-008  0.4614232E+02  0.7816164E-02  0.1320468E+00
        -11   -1    0    0    0    0  0.00000000000E+00  0.00000000000E+00  0.45593999997E+02  0.45594000000E+02  0.51100000000E-03 0.  1.
         11   -1    0    0    0    0 -0.00000000000E+00 -0.00000000000E+00 -0.45593999997E+02  0.45594000000E+02  0.51100000000E-03 0. -1.
    9900012    2    1    2    0    0 -0.86918764903E+01 -0.21237565528E+02 -0.38762489046E+02  0.46142318037E+02  0.10000002517E+02 0.  0.
        -12    1    1    2    0    0  0.86918764903E+01  0.21237565528E+02  0.38762489046E+02  0.45045681963E+02  0.00000000000E+00 0.  1.
         11    1    3    3    0    0 -0.33138233589E+01 -0.63926891823E+01 -0.20099248153E+02  0.21350121237E+02  0.51100000000E-03 0. -1.
        -11    1    3    3    0    0 -0.27789166382E+01 -0.37937535271E+01 -0.76206644181E+01  0.89548573379E+01  0.51100000000E-03 0.  1.
        -12    1    3    3    0    0 -0.25991364932E+01 -0.11051122818E+02 -0.11042576475E+02  0.15837339463E+02  0.00000000000E+00 0.  1.
</event>
<event>
 7    1  0.3846293E-008  0.4614232E+02  0.7816164E-02  0.1320468E+00
        -11   -1    0    0    0    0  0.00000000000E+00  0.00000000000E+00  0.45593999997E+02  0.45594000000E+02  0.51100000000E-03 0.  1.
         11   -1    0    0    0    0 -0.00000000000E+00 -0.00000000000E+00 -0.45593999997E+02  0.45594000000E+02  0.51100000000E-03 0. -1.
    9900012    2    1    2    0    0 -0.25330398139E+02 -0.65770210480E+01 -0.36663707569E+02  0.46142315096E+02  0.99999756985E+01 0.  0.
        -12    1    1    2    0    0  0.25330398139E+02  0.65770210480E+01  0.36663707569E+02  0.45045684904E+02  0.00000000000E+00 0.  1.
         11    1    3    3    0    0 -0.74601520330E+01 -0.41117164909E+01 -0.13418426683E+02  0.15893843329E+02  0.51100000000E-03 0. -1.
        -11    1    3    3    0    0 -0.15597923399E+02  0.46141258059E+00 -0.19566632883E+02  0.25027209964E+02  0.51100000000E-03 0.  1.
         12    1    3    3    0    0 -0.22723227076E+01 -0.29267171377E+01 -0.36786480023E+01  0.52212618031E+01  0.00000000000E+00 0. -1.
</event>
<event>
 7    1  0.3846293E-008  0.4614232E+02  0.7816164E-02  0.1320468E+00
        -11   -1    0    0    0    0  0.00000000000E+00  0.00000000000E+00  0.45593999997E+02  0.45594000000E+02  0.51100000000E-03 0. -1.
         11   -1    0    0    0    0 -0.00000000000E+00 -0.00000000000E+00 -0.45593999997E+02  0.45594000000E+02  0.51100000000E-03 0.  1.
    9900012    2    1    2    0    0 -0.42256492226E+02  0.15565502147E+02 -0.11034034184E+01  0.46142317727E+02  0.99999996856E+01 0.  0.
        -12    1    1    2    0    0  0.42256492226E+02 -0.15565502147E+02  0.11034034184E+01  0.45045682273E+02  0.00000000000E+00 0.  1.
         11    1    3    3    0    0 -0.12130842669E+02  0.60122622219E+01  0.49653583939E+00  0.13548106472E+02  0.51100000000E-03 0. -1.
        -11    1    3    3    0    0 -0.22123638927E+02  0.38369286806E+01  0.81248844114E+00  0.22468590494E+02  0.51100000000E-03 0.  1.
        -12    1    3    3    0    0 -0.80020106304E+01  0.57163112443E+01 -0.24124276989E+01  0.10125620760E+02  0.00000000000E+00 0.  1.
</event>
<event>
 7    1  0.3846293E-008  0.4614232E+02  0.7816164E-02  0.1320468E+00
        -11   -1    0    0    0    0  0.00000000000E+00  0.00000000000E+00  0.45593999997E+02  0.45594000000E+02  0.51100000000E-03 0.  1.
         11   -1    0    0    0    0 -0.00000000000E+00 -0.00000000000E+00 -0.45593999997E+02  0.45594000000E+02  0.51100000000E-03 0. -1.
    9900012    2    1    2    0    0  0.17011053147E+02  0.36555511048E+02 -0.20085621837E+02  0.46142317391E+02  0.99999966236E+01 0.  0.
        -12    1    1    2    0    0 -0.17011053147E+02 -0.36555511048E+02  0.20085621837E+02  0.45045682609E+02  0.00000000000E+00 0.  1.
         11    1    3    3    0    0  0.61888053257E+01  0.14464246927E+02 -0.83516818228E+01  0.17811971818E+02  0.51100000000E-03 0. -1.
        -11    1    3    3    0    0  0.31078586969E+01  0.14933766203E+02 -0.65750949481E+01  0.16610479600E+02  0.51100000000E-03 0.  1.
        -12    1    3    3    0    0  0.77143891249E+01  0.71574979178E+01 -0.51588450656E+01  0.11719865973E+02  0.00000000000E+00 0.  1.
</event>
<event>
 7    1  0.3846293E-008  0.4614232E+02  0.7816164E-02  0.1320468E+00
        -11   -1    0    0    0    0  0.00000000000E+00  0.00000000000E+00  0.45593999997E+02  0.45594000000E+02  0.51100000000E-03 0.  1.
         11   -1    0    0    0    0 -0.00000000000E+00 -0.00000000000E+00 -0.45593999997E+02  0.45594000000E+02  0.51100000000E-03 0. -1.
    9900012    2    1    2    0    0 -0.20254968960E+02  0.32116168369E+02 -0.24236366787E+02  0.46142317484E+02  0.99999974733E+01 0.  0.
        -12    1    1    2    0    0  0.20254968960E+02 -0.32116168369E+02  0.24236366787E+02  0.45045682516E+02  0.00000000000E+00 0.  1.
         11    1    3    3    0    0 -0.14018200001E+00  0.19726221698E+01 -0.42009959491E+00  0.20217252902E+01  0.51100000000E-03 0. -1.
        -11    1    3    3    0    0 -0.39789507291E+01  0.29230098327E+01 -0.82329267941E+00  0.50053817520E+01  0.51100000000E-03 0.  1.
        -12    1    3    3    0    0 -0.16135836231E+02  0.27220536367E+02 -0.22992974513E+02  0.39115210442E+02  0.00000000000E+00 0.  1.
</event>
<event>
 7    1  0.3846293E-008  0.4614232E+02  0.7816164E-02  0.1320468E+00
        -11   -1    0    0    0    0  0.00000000000E+00  0.00000000000E+00  0.45593999997E+02  0.45594000000E+02  0.51100000000E-03 0.  1.
         11   -1    0    0    0    0 -0.00000000000E+00 -0.00000000000E+00 -0.45593999997E+02  0.45594000000E+02  0.51100000000E-03 0. -1.
    9900012    2    1    2    0    0  0.52825198107E+01  0.28056875090E+02 -0.34842792314E+02  0.46142318391E+02  0.10000005746E+02 0.  0.
        -12    1    1    2    0    0 -0.52825198107E+01 -0.28056875090E+02  0.34842792314E+02  0.45045681609E+02  0.00000000000E+00 0.  1.
         11    1    3    3    0    0  0.26466904787E+01  0.36863215430E+01 -0.36888723014E+01  0.58482233307E+01  0.51100000000E-03 0. -1.
        -11    1    3    3    0    0  0.10859375954E+01  0.20049067028E+02 -0.20508651386E+02  0.28701030139E+02  0.51100000000E-03 0.  1.
         12    1    3    3    0    0  0.15498917366E+01  0.43214865198E+01 -0.10645268627E+02  0.11593064921E+02  0.00000000000E+00 0. -1.
</event>
<event>
 7    1  0.3846293E-008  0.4614232E+02  0.7816164E-02  0.1320468E+00
        -11   -1    0    0    0    0  0.00000000000E+00  0.00000000000E+00  0.45593999997E+02  0.45594000000E+02  0.51100000000E-03 0.  1.
         11   -1    0    0    0    0 -0.00000000000E+00 -0.00000000000E+00 -0.45593999997E+02  0.45594000000E+02  0.51100000000E-03 0. -1.
    9900012    2    1    2    0    0  0.31144078696E+01  0.14805133251E+02 -0.42429020922E+02  0.46142319593E+02  0.10000016703E+02 0.  0.
        -12    1    1    2    0    0 -0.31144078696E+01 -0.14805133251E+02  0.42429020922E+02  0.45045680407E+02  0.00000000000E+00 0.  1.
         11    1    3    3    0    0  0.89137730370E+00  0.12252826247E+02 -0.30545172929E+02  0.32923151339E+02  0.51100000000E-03 0. -1.
        -11    1    3    3    0    0  0.31985434350E+01  0.20839806124E+01 -0.11421180311E+02  0.12042301078E+02  0.51100000000E-03 0.  1.
         12    1    3    3    0    0 -0.97551286906E+00  0.46832639159E+00 -0.46266768210E+00  0.11768671764E+01  0.00000000000E+00 0. -1.
</event>
<event>
 7    1  0.3846293E-008  0.4614232E+02  0.7816164E-02  0.1320468E+00
        -11   -1    0    0    0    0  0.00000000000E+00  0.00000000000E+00  0.45593999997E+02  0.45594000000E+02  0.51100000000E-03 0.  1.
         11   -1    0    0    0    0 -0.00000000000E+00 -0.00000000000E+00 -0.45593999997E+02  0.45594000000E+02  0.51100000000E-03 0. -1.
    9900012    2    1    2    0    0  0.13976665229E+02  0.39264866864E+02 -0.17089080217E+02  0.46142316484E+02  0.99999883549E+01 0.  0.
        -12    1    1    2    0    0 -0.13976665229E+02 -0.39264866864E+02  0.17089080217E+02  0.45045683516E+02  0.00000000000E+00 0.  1.
         11    1    3    3    0    0  0.10869794195E+02  0.34763928178E+02 -0.13269587535E+02  0.38765514079E+02  0.51100000000E-03 0. -1.
        -11    1    3    3    0    0  0.86606628912E+00  0.32378171801E+00  0.42164457970E+00  0.10162134770E+01  0.51100000000E-03 0.  1.
         12    1    3    3    0    0  0.22408047441E+01  0.41771569677E+01 -0.42411372618E+01  0.63605889277E+01  0.00000000000E+00 0. -1.
</event>
<event>
 7    1  0.3846293E-008  0.4614232E+02  0.7816164E-02  0.1320468E+00
        -11   -1    0    0    0    0  0.00000000000E+00  0.00000000000E+00  0.45593999997E+02  0.45594000000E+02  0.51100000000E-03 0.  1.
         11   -1    0    0    0    0 -0.00000000000E+00 -0.00000000000E+00 -0.45593999997E+02  0.45594000000E+02  0.51100000000E-03 0. -1.
    9900012    2    1    2    0    0 -0.40818362736E+02 -0.46730527995E+01 -0.18469903085E+02  0.46142317866E+02  0.10000000956E+02 0.  0.
        -12    1    1    2    0    0  0.40818362736E+02  0.46730527995E+01  0.18469903085E+02  0.45045682134E+02  0.00000000000E+00 0.  1.
         11    1    3    3    0    0 -0.63639236242E+01  0.44372666666E+00 -0.63826110342E+01  0.90240867197E+01  0.51100000000E-03 0. -1.
        -11    1    3    3    0    0 -0.61637033940E+01  0.72880403827E+00 -0.21184114898E+01  0.65582057269E+01  0.51100000000E-03 0.  1.
         12    1    3    3    0    0 -0.28290735718E+02 -0.58455835044E+01 -0.99688805614E+01  0.30560025419E+02  0.00000000000E+00 0. -1.
</event>
<event>
 7    1  0.3846293E-008  0.4614232E+02  0.7816164E-02  0.1320468E+00
        -11   -1    0    0    0    0  0.00000000000E+00  0.00000000000E+00  0.45593999997E+02  0.45594000000E+02  0.51100000000E-03 0.  1.
         11   -1    0    0    0    0 -0.00000000000E+00 -0.00000000000E+00 -0.45593999997E+02  0.45594000000E+02  0.51100000000E-03 0. -1.
    9900012    2    1    2    0    0 -0.28000243758E+01 -0.43657442083E+02  0.10737837785E+02  0.46142317121E+02  0.99999941608E+01 0.  0.
        -12    1    1    2    0    0  0.28000243758E+01  0.43657442083E+02 -0.10737837785E+02  0.45045682879E+02  0.00000000000E+00 0.  1.
         11    1    3    3    0    0  0.78557222969E+00 -0.28988699042E+01 -0.12340405304E+01  0.32470643267E+01  0.51100000000E-03 0. -1.
        -11    1    3    3    0    0 -0.39665419031E+01 -0.23961947558E+02  0.85528791115E+01  0.25749953918E+02  0.51100000000E-03 0.  1.
        -12    1    3    3    0    0  0.38094529768E+00 -0.16796624621E+02  0.34189992038E+01  0.17145298876E+02  0.00000000000E+00 0.  1.
</event>
<event>
 7    1  0.3846293E-008  0.4614232E+02  0.7816164E-02  0.1320468E+00
        -11   -1    0    0    0    0  0.00000000000E+00  0.00000000000E+00  0.45593999997E+02  0.45594000000E+02  0.51100000000E-03 0.  1.
         11   -1    0    0    0    0 -0.00000000000E+00 -0.00000000000E+00 -0.45593999997E+02  0.45594000000E+02  0.51100000000E-03 0. -1.
    9900012    2    1    2    0    0 -0.26147653568E+02 -0.75703859695E+01 -0.35890152319E+02  0.46142316919E+02  0.99999923184E+01 0.  0.
        -12    1    1    2    0    0  0.26147653568E+02  0.75703859695E+01  0.35890152319E+02  0.45045683081E+02  0.00000000000E+00 0.  1.
         11    1    3    3    0    0 -0.38096231877E+01  0.75042393074E+00 -0.47063809426E+01  0.61013430280E+01  0.51100000000E-03 0. -1.
        -11    1    3    3    0    0 -0.34409499585E+01  0.89601838755E+00 -0.20226839381E+01  0.40907500709E+01  0.51100000000E-03 0.  1.
         12    1    3    3    0    0 -0.18897080421E+02 -0.92168282878E+01 -0.29161087438E+02  0.35950223820E+02  0.00000000000E+00 0. -1.
</event>
<event>
 7    1  0.3846293E-008  0.4614232E+02  0.7816164E-02  0.1320468E+00
        -11   -1    0    0    0    0  0.00000000000E+00  0.00000000000E+00  0.45593999997E+02  0.45594000000E+02  0.51100000000E-03 0. -1.
         11   -1    0    0    0    0 -0.00000000000E+00 -0.00000000000E+00 -0.45593999997E+02  0.45594000000E+02  0.51100000000E-03 0.  1.
    9900012    2    1    2    0    0  0.11413204464E+01 -0.32700949222E+02  0.30958985491E+02  0.46142317909E+02  0.10000001351E+02 0.  0.
        -12    1    1    2    0    0 -0.11413204464E+01  0.32700949222E+02 -0.30958985491E+02  0.45045682091E+02  0.00000000000E+00 0.  1.
         11    1    3    3    0    0 -0.17714386357E+00 -0.39800291964E+01  0.50029621185E+01  0.63954392009E+01  0.51100000000E-03 0. -1.
        -11    1    3    3    0    0  0.42742870258E+01 -0.90152808533E+01  0.10865616815E+02  0.14751489670E+02  0.51100000000E-03 0.  1.
        -12    1    3    3    0    0 -0.29558227158E+01 -0.19705639173E+02  0.15090406557E+02  0.24995389038E+02  0.00000000000E+00 0.  1.
</event>
<event>
 7    1  0.3846293E-008  0.4614232E+02  0.7816164E-02  0.1320468E+00
        -11   -1    0    0    0    0  0.00000000000E+00  0.00000000000E+00  0.45593999997E+02  0.45594000000E+02  0.51100000000E-03 0.  1.
         11   -1    0    0    0    0 -0.00000000000E+00 -0.00000000000E+00 -0.45593999997E+02  0.45594000000E+02  0.51100000000E-03 0. -1.
    9900012    2    1    2    0    0  0.44432317482E+02  0.12510290392E+01 -0.73018930711E+01  0.46142317044E+02  0.99999934643E+01 0.  0.
        -12    1    1    2    0    0 -0.44432317482E+02 -0.12510290392E+01  0.73018930711E+01  0.45045682956E+02  0.00000000000E+00 0.  1.
         11    1    3    3    0    0  0.21918383041E+02  0.35761503374E+01 -0.27223199114E+01  0.22374436135E+02  0.51100000000E-03 0. -1.
        -11    1    3    3    0    0  0.82985667552E+01  0.10017741866E+01  0.32908524498E+00  0.83652889413E+01  0.51100000000E-03 0.  1.
        -12    1    3    3    0    0  0.14215367686E+02 -0.33268954849E+01 -0.49086584047E+01  0.15402591968E+02  0.00000000000E+00 0.  1.
</event>
<event>
 7    1  0.3846293E-008  0.4614232E+02  0.7816164E-02  0.1320468E+00
        -11   -1    0    0    0    0  0.00000000000E+00  0.00000000000E+00  0.45593999997E+02  0.45594000000E+02  0.51100000000E-03 0.  1.
         11   -1    0    0    0    0 -0.00000000000E+00 -0.00000000000E+00 -0.45593999997E+02  0.45594000000E+02  0.51100000000E-03 0. -1.
    9900012    2    1    2    0    0  0.82763348829E+01 -0.28947258735E+02 -0.33506298059E+02  0.46142317443E+02  0.99999970999E+01 0.  0.
        -12    1    1    2    0    0 -0.82763348829E+01  0.28947258735E+02  0.33506298059E+02  0.45045682557E+02  0.00000000000E+00 0.  1.
         11    1    3    3    0    0  0.13130115992E+01 -0.12026750573E+02 -0.16100400378E+02  0.20139255731E+02  0.51100000000E-03 0. -1.
        -11    1    3    3    0    0 -0.49629419966E+00 -0.32132398245E+00  0.25503516809E+00  0.64389458174E+00  0.51100000000E-03 0.  1.
         12    1    3    3    0    0  0.74596174834E+01 -0.16599184179E+02 -0.17660932849E+02  0.25359167130E+02  0.00000000000E+00 0. -1.
</event>
<event>
 7    1  0.3846293E-008  0.4614232E+02  0.7816164E-02  0.1320468E+00
        -11   -1    0    0    0    0  0.00000000000E+00  0.00000000000E+00  0.45593999997E+02  0.45594000000E+02  0.51100000000E-03 0.  1.
         11   -1    0    0    0    0 -0.00000000000E+00 -0.00000000000E+00 -0.45593999997E+02  0.45594000000E+02  0.51100000000E-03 0. -1.
    9900012    2    1    2    0    0  0.23116615960E+01  0.36543936436E+02 -0.26235673223E+02  0.46142316310E+02  0.99999867718E+01 0.  0.
        -12    1    1    2    0    0 -0.23116615960E+01 -0.36543936436E+02  0.26235673223E+02  0.45045683690E+02  0.00000000000E+00 0.  1.
         11    1    3    3    0    0  0.30961958444E+01  0.10468485880E+02 -0.51169810461E+01  0.12056497029E+02  0.51100000000E-03 0. -1.
        -11    1    3    3    0    0  0.18675583021E+01  0.11063368783E+02 -0.65107078662E+01  0.12972093895E+02  0.51100000000E-03 0.  1.
        -12    1    3    3    0    0 -0.26520925505E+01  0.15012081773E+02 -0.14607984311E+02  0.21113725386E+02  0.00000000000E+00 0.  1.
</event>
<event>
 7    1  0.3846293E-008  0.4614232E+02  0.7816164E-02  0.1320468E+00
        -11   -1    0    0    0    0  0.00000000000E+00  0.00000000000E+00  0.45593999997E+02  0.45594000000E+02  0.51100000000E-03 0. -1.
         11   -1    0    0    0    0 -0.00000000000E+00 -0.00000000000E+00 -0.45593999997E+02  0.45594000000E+02  0.51100000000E-03 0.  1.
    9900012    2    1    2    0    0  0.85919802823E+01  0.37743097523E+02  0.23038006388E+02  0.46142320139E+02  0.10000021687E+02 0.  0.
        -12    1    1    2    0    0 -0.85919802823E+01 -0.37743097523E+02 -0.23038006388E+02  0.45045679861E+02  0.00000000000E+00 0.  1.
         11    1    3    3    0    0  0.17991945450E+01  0.23121406359E+02  0.12975080580E+02  0.26574221520E+02  0.51100000000E-03 0. -1.
        -11    1    3    3    0    0  0.36636391260E+01  0.59573459571E+01  0.69094665685E+01  0.98312232718E+01  0.51100000000E-03 0.  1.
        -12    1    3    3    0    0  0.31291466114E+01  0.86643452064E+01  0.31534592386E+01  0.97368753479E+01  0.00000000000E+00 0.  1.
</event>
<event>
 7    1  0.3846293E-008  0.4614232E+02  0.7816164E-02  0.1320468E+00
        -11   -1    0    0    0    0  0.00000000000E+00  0.00000000000E+00  0.45593999997E+02  0.45594000000E+02  0.51100000000E-03 0. -1.
         11   -1    0    0    0    0 -0.00000000000E+00 -0.00000000000E+00 -0.45593999997E+02  0.45594000000E+02  0.51100000000E-03 0.  1.
    9900012    2    1    2    0    0 -0.30562614564E+02  0.15264077233E+02  0.29360652174E+02  0.46142319199E+02  0.10000013113E+02 0.  0.
        -12    1    1    2    0    0  0.30562614564E+02 -0.15264077233E+02 -0.29360652174E+02  0.45045680801E+02  0.00000000000E+00 0.  1.
         11    1    3    3    0    0 -0.12510610128E+02  0.52806716734E+01  0.15147026403E+02  0.20342892326E+02  0.51100000000E-03 0. -1.
        -11    1    3    3    0    0 -0.95617679939E+01  0.20306353313E+01  0.78676043600E+01  0.12547911605E+02  0.51100000000E-03 0.  1.
        -12    1    3    3    0    0 -0.84902364420E+01  0.79527702285E+01  0.63460214110E+01  0.13251515268E+02  0.00000000000E+00 0.  1.
</event>
<event>
 7    1  0.3846293E-008  0.4614232E+02  0.7816164E-02  0.1320468E+00
        -11   -1    0    0    0    0  0.00000000000E+00  0.00000000000E+00  0.45593999997E+02  0.45594000000E+02  0.51100000000E-03 0.  1.
         11   -1    0    0    0    0 -0.00000000000E+00 -0.00000000000E+00 -0.45593999997E+02  0.45594000000E+02  0.51100000000E-03 0. -1.
    9900012    2    1    2    0    0 -0.16582603979E+02 -0.19259413249E+02 -0.37191474698E+02  0.46142317148E+02  0.99999944086E+01 0.  0.
        -12    1    1    2    0    0  0.16582603979E+02  0.19259413249E+02  0.37191474698E+02  0.45045682852E+02  0.00000000000E+00 0.  1.
         11    1    3    3    0    0 -0.42690212824E+01 -0.76802191851E+01 -0.19036620271E+02  0.20966716983E+02  0.51100000000E-03 0. -1.
        -11    1    3    3    0    0 -0.49189227222E+01 -0.23161583450E+01 -0.42250575837E+01  0.68856010683E+01  0.51100000000E-03 0.  1.
        -12    1    3    3    0    0 -0.73946599745E+01 -0.92630357191E+01 -0.13929796843E+02  0.18289999097E+02  0.00000000000E+00 0.  1.
</event>
<event>
 7    1  0.3846293E-008  0.4614232E+02  0.7816164E-02  0.1320468E+00
        -11   -1    0    0    0    0  0.00000000000E+00  0.00000000000E+00  0.45593999997E+02  0.45594000000E+02  0.51100000000E-03 0. -1.
         11   -1    0    0    0    0 -0.00000000000E+00 -0.00000000000E+00 -0.45593999997E+02  0.45594000000E+02  0.51100000000E-03 0.  1.
    9900012    2    1    2    0    0  0.10066459621E+02 -0.80851626496E+01  0.43155648846E+02  0.46142317724E+02  0.99999996612E+01 0.  0.
        -12    1    1    2    0    0 -0.10066459621E+02  0.80851626496E+01 -0.43155648846E+02  0.45045682276E+02  0.00000000000E+00 0.  1.
         11    1    3    3    0    0  0.31444213577E+01 -0.26091892129E+01  0.72179531866E+01  0.82942210296E+01  0.51100000000E-03 0. -1.
        -11    1    3    3    0    0  0.38087829035E+01  0.24445114633E+00  0.53323586241E+01  0.65574867386E+01  0.51100000000E-03 0.  1.
        -12    1    3    3    0    0  0.31132553601E+01 -0.57204245830E+01  0.30605337035E+02  0.31290609956E+02  0.00000000000E+00 0.  1.
</event>
<event>
 7    1  0.3846293E-008  0.4614232E+02  0.7816164E-02  0.1320468E+00
        -11   -1    0    0    0    0  0.00000000000E+00  0.00000000000E+00  0.45593999997E+02  0.45594000000E+02  0.51100000000E-03 0.  1.
         11   -1    0    0    0    0 -0.00000000000E+00 -0.00000000000E+00 -0.45593999997E+02  0.45594000000E+02  0.51100000000E-03 0. -1.
    9900012    2    1    2    0    0  0.42587354999E+02 -0.14675832834E+02 -0.22494750149E+00  0.46142317892E+02  0.10000001197E+02 0.  0.
        -12    1    1    2    0    0 -0.42587354999E+02  0.14675832834E+02  0.22494750149E+00  0.45045682108E+02  0.00000000000E+00 0.  1.
         11    1    3    3    0    0  0.73919919223E+01 -0.27448305441E+01  0.33546837286E+01  0.85691039483E+01  0.51100000000E-03 0. -1.
        -11    1    3    3    0    0  0.28715178416E+02 -0.11105813040E+02 -0.38932597552E+01  0.31033176223E+02  0.51100000000E-03 0.  1.
         12    1    3    3    0    0  0.64801846610E+01 -0.82518924931E+00  0.31362852511E+00  0.65400377208E+01  0.00000000000E+00 0. -1.
</event>
<event>
 7    1  0.3846293E-008  0.4614232E+02  0.7816164E-02  0.1320468E+00
        -11   -1    0    0    0    0  0.00000000000E+00  0.00000000000E+00  0.45593999997E+02  0.45594000000E+02  0.51100000000E-03 0. -1.
         11   -1    0    0    0    0 -0.00000000000E+00 -0.00000000000E+00 -0.45593999997E+02  0.45594000000E+02  0.51100000000E-03 0.  1.
    9900012    2    1    2    0    0 -0.23337901081E+02  0.37786651147E+02  0.75249493477E+01  0.46142317693E+02  0.99999993833E+01 0.  0.
        -12    1    1    2    0    0  0.23337901081E+02 -0.37786651147E+02 -0.75249493477E+01  0.45045682307E+02  0.00000000000E+00 0.  1.
         11    1    3    3    0    0 -0.15184885732E+02  0.31966239285E+02  0.66731308719E+01  0.36013218193E+02  0.51100000000E-03 0. -1.
        -11    1    3    3    0    0 -0.39987281601E+01  0.34781924426E+01  0.97055230187E-01  0.53006668962E+01  0.51100000000E-03 0.  1.
         12    1    3    3    0    0 -0.41542871889E+01  0.23422194192E+01  0.75476324554E+00  0.48284326041E+01  0.00000000000E+00 0. -1.
</event>
<event>
 7    1  0.3846293E-008  0.4614232E+02  0.7816164E-02  0.1320468E+00
        -11   -1    0    0    0    0  0.00000000000E+00  0.00000000000E+00  0.45593999997E+02  0.45594000000E+02  0.51100000000E-03 0.  1.
         11   -1    0    0    0    0 -0.00000000000E+00 -0.00000000000E+00 -0.45593999997E+02  0.45594000000E+02  0.51100000000E-03 0. -1.
    9900012    2    1    2    0    0 -0.33672111723E+02  0.19145808977E+02 -0.22994355070E+02  0.46142317916E+02  0.10000001416E+02 0.  0.
        -12    1    1    2    0    0  0.33672111723E+02 -0.19145808977E+02  0.22994355070E+02  0.45045682084E+02  0.00000000000E+00 0.  1.
         11    1    3    3    0    0 -0.81799648063E+01  0.52033773923E+01 -0.40483315776E+01  0.10505995876E+02  0.51100000000E-03 0. -1.
        -11    1    3    3    0    0 -0.15808207114E+02  0.10759405143E+02 -0.81452848806E+01  0.20784847299E+02  0.51100000000E-03 0.  1.
        -12    1    3    3    0    0 -0.96839398029E+01  0.31830264410E+01 -0.10800738612E+02  0.14851474741E+02  0.00000000000E+00 0.  1.
</event>
<event>
 7    1  0.3846293E-008  0.4614232E+02  0.7816164E-02  0.1320468E+00
        -11   -1    0    0    0    0  0.00000000000E+00  0.00000000000E+00  0.45593999997E+02  0.45594000000E+02  0.51100000000E-03 0.  1.
         11   -1    0    0    0    0 -0.00000000000E+00 -0.00000000000E+00 -0.45593999997E+02  0.45594000000E+02  0.51100000000E-03 0. -1.
    9900012    2    1    2    0    0 -0.38879808041E+02 -0.22568667675E+02 -0.28511838290E+01  0.46142317819E+02  0.10000000528E+02 0.  0.
        -12    1    1    2    0    0  0.38879808041E+02  0.22568667675E+02  0.28511838290E+01  0.45045682181E+02  0.00000000000E+00 0.  1.
         11    1    3    3    0    0 -0.13767584320E+02 -0.86979679123E+01  0.85386615575E+00  0.16307363720E+02  0.51100000000E-03 0. -1.
        -11    1    3    3    0    0 -0.17608324161E+02 -0.13309816425E+02 -0.30342486970E+01  0.22280281830E+02  0.51100000000E-03 0.  1.
        -12    1    3    3    0    0 -0.75038995596E+01 -0.56088333785E+00 -0.67080128767E+00  0.75546722687E+01  0.00000000000E+00 0.  1.
</event>
<event>
 7    1  0.3846293E-008  0.4614232E+02  0.7816164E-02  0.1320468E+00
        -11   -1    0    0    0    0  0.00000000000E+00  0.00000000000E+00  0.45593999997E+02  0.45594000000E+02  0.51100000000E-03 0.  1.
         11   -1    0    0    0    0 -0.00000000000E+00 -0.00000000000E+00 -0.45593999997E+02  0.45594000000E+02  0.51100000000E-03 0. -1.
    9900012    2    1    2    0    0 -0.35888219798E+02  0.15005743091E+02 -0.22715124989E+02  0.46142317086E+02  0.99999938394E+01 0.  0.
        -12    1    1    2    0    0  0.35888219798E+02 -0.15005743091E+02  0.22715124989E+02  0.45045682914E+02  0.00000000000E+00 0.  1.
         11    1    3    3    0    0 -0.63795036041E+01 -0.29021157674E+00 -0.16239986953E+01  0.65893596819E+01  0.51100000000E-03 0.  1.
        -11    1    3    3    0    0 -0.17390020033E+02  0.89212875451E+01 -0.10135669488E+02  0.22016674691E+02  0.51100000000E-03 0. -1.
        -12    1    3    3    0    0 -0.12118696160E+02  0.63746671228E+01 -0.10955456806E+02  0.17536282713E+02  0.00000000000E+00 0.  1.
</event>
<event>
 7    1  0.3846293E-008  0.4614232E+02  0.7816164E-02  0.1320468E+00
        -11   -1    0    0    0    0  0.00000000000E+00  0.00000000000E+00  0.45593999997E+02  0.45594000000E+02  0.51100000000E-03 0. -1.
         11   -1    0    0    0    0 -0.00000000000E+00 -0.00000000000E+00 -0.45593999997E+02  0.45594000000E+02  0.51100000000E-03 0.  1.
    9900012    2    1    2    0    0  0.90586000448E+01 -0.43482739551E+02 -0.75037752105E+01  0.46142317454E+02  0.99999971996E+01 0.  0.
        -12    1    1    2    0    0 -0.90586000448E+01  0.43482739551E+02  0.75037752105E+01  0.45045682546E+02  0.00000000000E+00 0.  1.
         11    1    3    3    0    0  0.47689118691E+01 -0.26619774166E+02 -0.30699709821E+01  0.27217266930E+02  0.51100000000E-03 0. -1.
        -11    1    3    3    0    0 -0.14104151970E+01 -0.22935457653E+01 -0.11439825550E+00  0.26949416371E+01  0.51100000000E-03 0.  1.
        -12    1    3    3    0    0  0.57001033727E+01 -0.14569419620E+02 -0.43194059729E+01  0.16230108886E+02  0.00000000000E+00 0.  1.
</event>
<event>
 7    1  0.3846293E-008  0.4614232E+02  0.7816164E-02  0.1320468E+00
        -11   -1    0    0    0    0  0.00000000000E+00  0.00000000000E+00  0.45593999997E+02  0.45594000000E+02  0.51100000000E-03 0. -1.
         11   -1    0    0    0    0 -0.00000000000E+00 -0.00000000000E+00 -0.45593999997E+02  0.45594000000E+02  0.51100000000E-03 0.  1.
    9900012    2    1    2    0    0  0.37627703663E+02 -0.86125948396E+01  0.23218367652E+02  0.46142317973E+02  0.10000001935E+02 0.  0.
        -12    1    1    2    0    0 -0.37627703663E+02  0.86125948396E+01 -0.23218367652E+02  0.45045682027E+02  0.00000000000E+00 0.  1.
         11    1    3    3    0    0  0.22347294070E+02 -0.72896179039E+01  0.14864787652E+02  0.27811903812E+02  0.51100000000E-03 0. -1.
        -11    1    3    3    0    0  0.70776418649E+01 -0.16097088579E+01  0.68613156037E+01  0.99880843534E+01  0.51100000000E-03 0.  1.
        -12    1    3    3    0    0  0.82027677284E+01  0.28673192226E+00  0.14922643963E+01  0.83423298083E+01  0.00000000000E+00 0.  1.
</event>
<event>
 7    1  0.3846293E-008  0.4614232E+02  0.7816164E-02  0.1320468E+00
        -11   -1    0    0    0    0  0.00000000000E+00  0.00000000000E+00  0.45593999997E+02  0.45594000000E+02  0.51100000000E-03 0. -1.
         11   -1    0    0    0    0 -0.00000000000E+00 -0.00000000000E+00 -0.45593999997E+02  0.45594000000E+02  0.51100000000E-03 0.  1.
    9900012    2    1    2    0    0 -0.40216001758E+02  0.18815063678E+02  0.76013249459E+01  0.46142316971E+02  0.99999927991E+01 0.  0.
        -12    1    1    2    0    0  0.40216001758E+02 -0.18815063678E+02 -0.76013249459E+01  0.45045683029E+02  0.00000000000E+00 0.  1.
         11    1    3    3    0    0 -0.19227433770E+02  0.10329017897E+02  0.42009526888E+01  0.22226804175E+02  0.51100000000E-03 0.  1.
        -11    1    3    3    0    0 -0.21037719499E+02  0.91915818070E+01  0.33989351426E+01  0.23208265299E+02  0.51100000000E-03 0. -1.
        -12    1    3    3    0    0  0.49151511131E-01 -0.70553602686E+00  0.14371144604E-02  0.70724749667E+00  0.00000000000E+00 0.  1.
</event>
<event>
 7    1  0.3846293E-008  0.4614232E+02  0.7816164E-02  0.1320468E+00
        -11   -1    0    0    0    0  0.00000000000E+00  0.00000000000E+00  0.45593999997E+02  0.45594000000E+02  0.51100000000E-03 0.  1.
         11   -1    0    0    0    0 -0.00000000000E+00 -0.00000000000E+00 -0.45593999997E+02  0.45594000000E+02  0.51100000000E-03 0. -1.
    9900012    2    1    2    0    0  0.36695473354E+01  0.39734114441E+02 -0.20900902462E+02  0.46142321497E+02  0.10000034066E+02 0.  0.
        -12    1    1    2    0    0 -0.36695473354E+01 -0.39734114441E+02  0.20900902462E+02  0.45045678503E+02  0.00000000000E+00 0.  1.
         11    1    3    3    0    0  0.74121862275E+00  0.68017297343E+01 -0.49674192242E+01  0.84550686831E+01  0.51100000000E-03 0. -1.
        -11    1    3    3    0    0  0.58442565179E+01  0.25561296409E+02 -0.11945365363E+02  0.28813659300E+02  0.51100000000E-03 0.  1.
        -12    1    3    3    0    0 -0.29159278052E+01  0.73710882976E+01 -0.39881178751E+01  0.88735935135E+01  0.00000000000E+00 0.  1.
</event>
<event>
 7    1  0.3846293E-008  0.4614232E+02  0.7816164E-02  0.1320468E+00
        -11   -1    0    0    0    0  0.00000000000E+00  0.00000000000E+00  0.45593999997E+02  0.45594000000E+02  0.51100000000E-03 0. -1.
         11   -1    0    0    0    0 -0.00000000000E+00 -0.00000000000E+00 -0.45593999997E+02  0.45594000000E+02  0.51100000000E-03 0.  1.
    9900012    2    1    2    0    0  0.44964996728E+02 -0.11319563032E+01  0.24456784282E+01  0.46142316535E+02  0.99999888193E+01 0.  0.
        -12    1    1    2    0    0 -0.44964996728E+02  0.11319563032E+01 -0.24456784282E+01  0.45045683465E+02  0.00000000000E+00 0.  1.
         11    1    3    3    0    0  0.41282533403E+01  0.28979429904E+00 -0.49076188564E+00  0.41674097311E+01  0.51100000000E-03 0. -1.
        -11    1    3    3    0    0  0.10477296942E+02  0.19200975558E+01  0.40907217073E+01  0.11410281775E+02  0.51100000000E-03 0.  1.
         12    1    3    3    0    0  0.30359446446E+02 -0.33418481581E+01 -0.11542813935E+01  0.30564625029E+02  0.00000000000E+00 0. -1.
</event>
<event>
 7    1  0.3846293E-008  0.4614232E+02  0.7816164E-02  0.1320468E+00
        -11   -1    0    0    0    0  0.00000000000E+00  0.00000000000E+00  0.45593999997E+02  0.45594000000E+02  0.51100000000E-03 0. -1.
         11   -1    0    0    0    0 -0.00000000000E+00 -0.00000000000E+00 -0.45593999997E+02  0.45594000000E+02  0.51100000000E-03 0.  1.
    9900012    2    1    2    0    0  0.27988297606E+02 -0.27916255946E+02  0.21597485301E+02  0.46142317407E+02  0.99999967738E+01 0.  0.
        -12    1    1    2    0    0 -0.27988297606E+02  0.27916255946E+02 -0.21597485301E+02  0.45045682593E+02  0.00000000000E+00 0.  1.
         11    1    3    3    0    0  0.85831997201E+01 -0.68872539828E+01  0.56143537397E+01  0.12354211955E+02  0.51100000000E-03 0. -1.
        -11    1    3    3    0    0  0.40591727071E+01 -0.95325496681E+00  0.62075449074E+00  0.42155562500E+01  0.51100000000E-03 0.  1.
        -12    1    3    3    0    0  0.15345925178E+02 -0.20075746996E+02  0.15362377071E+02  0.29572549202E+02  0.00000000000E+00 0.  1.
</event>
<event>
 7    1  0.3846293E-008  0.4614232E+02  0.7816164E-02  0.1320468E+00
        -11   -1    0    0    0    0  0.00000000000E+00  0.00000000000E+00  0.45593999997E+02  0.45594000000E+02  0.51100000000E-03 0.  1.
         11   -1    0    0    0    0 -0.00000000000E+00 -0.00000000000E+00 -0.45593999997E+02  0.45594000000E+02  0.51100000000E-03 0. -1.
    9900012    2    1    2    0    0 -0.84423229010E+00  0.27023827416E+02 -0.36029343036E+02  0.46142317233E+02  0.99999951846E+01 0.  0.
        -12    1    1    2    0    0  0.84423229010E+00 -0.27023827416E+02  0.36029343036E+02  0.45045682767E+02  0.00000000000E+00 0.  1.
         11    1    3    3    0    0  0.11854523080E+01  0.12284012544E+02 -0.16868591982E+02  0.20900996556E+02  0.51100000000E-03 0. -1.
        -11    1    3    3    0    0 -0.14662895715E+01  0.14991951187E+02 -0.15821721646E+02  0.21845719984E+02  0.51100000000E-03 0.  1.
         12    1    3    3    0    0 -0.56339502669E+00 -0.25213631509E+00 -0.33390294079E+01  0.33956006927E+01  0.00000000000E+00 0. -1.
</event>
<event>
 7    1  0.3846293E-008  0.4614232E+02  0.7816164E-02  0.1320468E+00
        -11   -1    0    0    0    0  0.00000000000E+00  0.00000000000E+00  0.45593999997E+02  0.45594000000E+02  0.51100000000E-03 0.  1.
         11   -1    0    0    0    0 -0.00000000000E+00 -0.00000000000E+00 -0.45593999997E+02  0.45594000000E+02  0.51100000000E-03 0. -1.
    9900012    2    1    2    0    0  0.93211424573E+01 -0.45406081092E+01 -0.43836202755E+02  0.46142317735E+02  0.99999997659E+01 0.  0.
        -12    1    1    2    0    0 -0.93211424573E+01  0.45406081092E+01  0.43836202755E+02  0.45045682265E+02  0.00000000000E+00 0.  1.
         11    1    3    3    0    0 -0.53041716220E+00 -0.24104225600E+01 -0.73138255689E+01  0.77190364682E+01  0.51100000000E-03 0. -1.
        -11    1    3    3    0    0  0.37834132531E+01 -0.34002649763E+01 -0.10428120474E+02  0.11602659808E+02  0.51100000000E-03 0.  1.
        -12    1    3    3    0    0  0.60681463664E+01  0.12700794271E+01 -0.26094256712E+02  0.26820621459E+02  0.00000000000E+00 0.  1.
</event>
<event>
 7    1  0.3846293E-008  0.4614232E+02  0.7816164E-02  0.1320468E+00
        -11   -1    0    0    0    0  0.00000000000E+00  0.00000000000E+00  0.45593999997E+02  0.45594000000E+02  0.51100000000E-03 0. -1.
         11   -1    0    0    0    0 -0.00000000000E+00 -0.00000000000E+00 -0.45593999997E+02  0.45594000000E+02  0.51100000000E-03 0.  1.
    9900012    2    1    2    0    0 -0.10946505161E+02  0.40919863617E+02  0.15324892936E+02  0.46142316997E+02  0.99999930365E+01 0.  0.
        -12    1    1    2    0    0  0.10946505161E+02 -0.40919863617E+02 -0.15324892936E+02  0.45045683003E+02  0.00000000000E+00 0.  1.
         11    1    3    3    0    0 -0.28684353778E+01  0.11125619066E+02  0.21188556641E+01  0.11683187524E+02  0.51100000000E-03 0. -1.
        -11    1    3    3    0    0 -0.50998622302E+01  0.21385061281E+02  0.54795887783E+01  0.22657346142E+02  0.51100000000E-03 0.  1.
        -12    1    3    3    0    0 -0.29782075534E+01  0.84091832699E+01  0.77264484935E+01  0.11801783332E+02  0.00000000000E+00 0.  1.
</event>
<event>
 7    1  0.3846293E-008  0.4614232E+02  0.7816164E-02  0.1320468E+00
        -11   -1    0    0    0    0  0.00000000000E+00  0.00000000000E+00  0.45593999997E+02  0.45594000000E+02  0.51100000000E-03 0. -1.
         11   -1    0    0    0    0 -0.00000000000E+00 -0.00000000000E+00 -0.45593999997E+02  0.45594000000E+02  0.51100000000E-03 0.  1.
    9900012    2    1    2    0    0 -0.37609906968E+02  0.24484407279E+02 -0.38887150339E+01  0.46142318669E+02  0.10000008281E+02 0.  0.
        -12    1    1    2    0    0  0.37609906968E+02 -0.24484407279E+02  0.38887150339E+01  0.45045681331E+02  0.00000000000E+00 0.  1.
         11    1    3    3    0    0 -0.10075362820E+02  0.58706680187E+01 -0.90814122696E+00  0.11696255797E+02  0.51100000000E-03 0. -1.
        -11    1    3    3    0    0 -0.18995802780E+02  0.17264877771E+02 -0.24230993580E+01  0.25783481892E+02  0.51100000000E-03 0.  1.
         12    1    3    3    0    0 -0.85387413681E+01  0.13488614894E+01 -0.55747444894E+00  0.86625809797E+01  0.00000000000E+00 0. -1.
</event>
<event>
 7    1  0.3846293E-008  0.4614232E+02  0.7816164E-02  0.1320468E+00
        -11   -1    0    0    0    0  0.00000000000E+00  0.00000000000E+00  0.45593999997E+02  0.45594000000E+02  0.51100000000E-03 0.  1.
         11   -1    0    0    0    0 -0.00000000000E+00 -0.00000000000E+00 -0.45593999997E+02  0.45594000000E+02  0.51100000000E-03 0. -1.
    9900012    2    1    2    0    0  0.82316256922E+01 -0.15029253635E+02 -0.41659035557E+02  0.46142319076E+02  0.10000011992E+02 0.  0.
        -12    1    1    2    0    0 -0.82316256922E+01  0.15029253635E+02  0.41659035557E+02  0.45045680924E+02  0.00000000000E+00 0.  1.
         11    1    3    3    0    0  0.32666024637E+01 -0.42151687995E+01 -0.63488981908E+01  0.82913719108E+01  0.51100000000E-03 0. -1.
        -11    1    3    3    0    0  0.23583175329E+01 -0.38015925078E+01 -0.53653545204E+01  0.69857566929E+01  0.51100000000E-03 0.  1.
         12    1    3    3    0    0  0.26067056955E+01 -0.70124923276E+01 -0.29944782846E+02  0.30865190473E+02  0.00000000000E+00 0. -1.
</event>
<event>
 7    1  0.3846293E-008  0.4614232E+02  0.7816164E-02  0.1320468E+00
        -11   -1    0    0    0    0  0.00000000000E+00  0.00000000000E+00  0.45593999997E+02  0.45594000000E+02  0.51100000000E-03 0.  1.
         11   -1    0    0    0    0 -0.00000000000E+00 -0.00000000000E+00 -0.45593999997E+02  0.45594000000E+02  0.51100000000E-03 0. -1.
    9900012    2    1    2    0    0 -0.39399028969E+02 -0.16316968713E+02 -0.14511596532E+02  0.46142318901E+02  0.10000010399E+02 0.  0.
        -12    1    1    2    0    0  0.39399028969E+02  0.16316968713E+02  0.14511596532E+02  0.45045681099E+02  0.00000000000E+00 0.  1.
         11    1    3    3    0    0 -0.31444209112E+02 -0.11521217463E+02 -0.11919836028E+02  0.35546578312E+02  0.51100000000E-03 0. -1.
        -11    1    3    3    0    0 -0.40622727644E+01 -0.14242943102E+00 -0.19089226973E+01  0.44906939643E+01  0.51100000000E-03 0.  1.
        -12    1    3    3    0    0 -0.38925470933E+01 -0.46533218193E+01 -0.68283780683E+00  0.61050466254E+01  0.00000000000E+00 0.  1.
</event>
<event>
 7    1  0.3846293E-008  0.4614232E+02  0.7816164E-02  0.1320468E+00
        -11   -1    0    0    0    0  0.00000000000E+00  0.00000000000E+00  0.45593999997E+02  0.45594000000E+02  0.51100000000E-03 0. -1.
         11   -1    0    0    0    0 -0.00000000000E+00 -0.00000000000E+00 -0.45593999997E+02  0.45594000000E+02  0.51100000000E-03 0.  1.
    9900012    2    1    2    0    0  0.14559285137E+02  0.11733381090E+02  0.40981319717E+02  0.46142316730E+02  0.99999906021E+01 0.  0.
        -12    1    1    2    0    0 -0.14559285137E+02 -0.11733381090E+02 -0.40981319717E+02  0.45045683270E+02  0.00000000000E+00 0.  1.
         11    1    3    3    0    0  0.15233887311E+01  0.98363467490E+00  0.11539400125E+02  0.11681010484E+02  0.51100000000E-03 0. -1.
        -11    1    3    3    0    0  0.40332613886E+01  0.51557971816E+00  0.91944655588E+01  0.10053418177E+02  0.51100000000E-03 0.  1.
        -12    1    3    3    0    0  0.90026350171E+01  0.10234166697E+02  0.20247454033E+02  0.24407888070E+02  0.00000000000E+00 0.  1.
</event>
<event>
 7    1  0.3846293E-008  0.4614232E+02  0.7816164E-02  0.1320468E+00
        -11   -1    0    0    0    0  0.00000000000E+00  0.00000000000E+00  0.45593999997E+02  0.45594000000E+02  0.51100000000E-03 0.  1.
         11   -1    0    0    0    0 -0.00000000000E+00 -0.00000000000E+00 -0.45593999997E+02  0.45594000000E+02  0.51100000000E-03 0. -1.
    9900012    2    1    2    0    0 -0.36609582586E+02 -0.26177739371E+02  0.18914946494E+01  0.46142319545E+02  0.10000016262E+02 0.  0.
        -12    1    1    2    0    0  0.36609582586E+02  0.26177739371E+02 -0.18914946494E+01  0.45045680455E+02  0.00000000000E+00 0.  1.
         11    1    3    3    0    0 -0.31460469505E+02 -0.18606207851E+02  0.25986745505E+01  0.36642942318E+02  0.51100000000E-03 0. -1.
        -11    1    3    3    0    0 -0.33513441904E+01 -0.63233432754E+01  0.12572421024E+00  0.71576521918E+01  0.51100000000E-03 0.  1.
         12    1    3    3    0    0 -0.17977688905E+01 -0.12481882447E+01 -0.83290411132E+00  0.23417250344E+01  0.00000000000E+00 0. -1.
</event>
<event>
 7    1  0.3846293E-008  0.4614232E+02  0.7816164E-02  0.1320468E+00
        -11   -1    0    0    0    0  0.00000000000E+00  0.00000000000E+00  0.45593999997E+02  0.45594000000E+02  0.51100000000E-03 0. -1.
         11   -1    0    0    0    0 -0.00000000000E+00 -0.00000000000E+00 -0.45593999997E+02  0.45594000000E+02  0.51100000000E-03 0.  1.
    9900012    2    1    2    0    0 -0.14757462734E+02 -0.38309161220E+02  0.18540193300E+02  0.46142319770E+02  0.10000018323E+02 0.  0.
        -12    1    1    2    0    0  0.14757462734E+02  0.38309161220E+02 -0.18540193300E+02  0.45045680230E+02  0.00000000000E+00 0.  1.
         11    1    3    3    0    0 -0.48012542666E+01 -0.15577427121E+02  0.37608792330E+01  0.16728792279E+02  0.51100000000E-03 0. -1.
        -11    1    3    3    0    0 -0.26341751522E+01 -0.19221818706E+01  0.10313383497E+01  0.34201346360E+01  0.51100000000E-03 0.  1.
         12    1    3    3    0    0 -0.73220333153E+01 -0.20809552229E+02  0.13747975717E+02  0.25993392856E+02  0.00000000000E+00 0. -1.
</event>
<event>
 7    1  0.3846293E-008  0.4614232E+02  0.7816164E-02  0.1320468E+00
        -11   -1    0    0    0    0  0.00000000000E+00  0.00000000000E+00  0.45593999997E+02  0.45594000000E+02  0.51100000000E-03 0. -1.
         11   -1    0    0    0    0 -0.00000000000E+00 -0.00000000000E+00 -0.45593999997E+02  0.45594000000E+02  0.51100000000E-03 0.  1.
    9900012    2    1    2    0    0 -0.24788017177E+02 -0.41100280102E+01  0.37386833842E+02  0.46142317959E+02  0.10000001802E+02 0.  0.
        -12    1    1    2    0    0  0.24788017177E+02  0.41100280102E+01 -0.37386833842E+02  0.45045682041E+02  0.00000000000E+00 0.  1.
         11    1    3    3    0    0 -0.68093977188E+01 -0.23030559174E+01  0.65278180833E+01  0.97100140598E+01  0.51100000000E-03 0. -1.
        -11    1    3    3    0    0  0.46131550650E+00  0.12061335365E+00  0.25368970845E+01  0.25813187824E+01  0.51100000000E-03 0.  1.
         12    1    3    3    0    0 -0.18439934965E+02 -0.19275854465E+01  0.28322118675E+02  0.33850985117E+02  0.00000000000E+00 0. -1.
</event>
<event>
 7    1  0.3846293E-008  0.4614232E+02  0.7816164E-02  0.1320468E+00
        -11   -1    0    0    0    0  0.00000000000E+00  0.00000000000E+00  0.45593999997E+02  0.45594000000E+02  0.51100000000E-03 0.  1.
         11   -1    0    0    0    0 -0.00000000000E+00 -0.00000000000E+00 -0.45593999997E+02  0.45594000000E+02  0.51100000000E-03 0. -1.
    9900012    2    1    2    0    0 -0.98289389537E+00 -0.21039941626E+02 -0.39817939719E+02  0.46142317105E+02  0.99999940137E+01 0.  0.
        -12    1    1    2    0    0  0.98289389537E+00  0.21039941626E+02  0.39817939719E+02  0.45045682895E+02  0.00000000000E+00 0.  1.
         11    1    3    3    0    0  0.73393365262E+00 -0.33871226870E+01 -0.26782432109E+01  0.43799823813E+01  0.51100000000E-03 0. -1.
        -11    1    3    3    0    0 -0.33986696036E+01 -0.15768351455E+02 -0.28358470153E+02  0.32625062335E+02  0.51100000000E-03 0.  1.
         12    1    3    3    0    0  0.16818420556E+01 -0.18844674846E+01 -0.87812263555E+01  0.91372723888E+01  0.00000000000E+00 0. -1.
</event>
<event>
 7    1  0.3846293E-008  0.4614231E+02  0.7816164E-02  0.1320468E+00
        -11   -1    0    0    0    0  0.00000000000E+00  0.00000000000E+00  0.45593999997E+02  0.45594000000E+02  0.51100000000E-03 0.  1.
         11   -1    0    0    0    0 -0.00000000000E+00 -0.00000000000E+00 -0.45593999997E+02  0.45594000000E+02  0.51100000000E-03 0. -1.
    9900012    2    1    2    0    0 -0.86637932930E-01  0.13091179711E+02 -0.43101360284E+02  0.46142314850E+02  0.99999734511E+01 0.  0.
        -12    1    1    2    0    0  0.86637932930E-01 -0.13091179711E+02  0.43101360284E+02  0.45045685150E+02  0.00000000000E+00 0.  1.
         11    1    3    3    0    0  0.12326734318E+01  0.19757532451E+01 -0.26762147928E+01  0.35475640309E+01  0.51100000000E-03 0. -1.
        -11    1    3    3    0    0 -0.19917646202E+01  0.20122057304E+01 -0.32268071216E+01  0.42928292145E+01  0.51100000000E-03 0.  1.
         12    1    3    3    0    0  0.67245325541E+00  0.91032207351E+01 -0.37198338369E+02  0.38301921604E+02  0.00000000000E+00 0. -1.
</event>
<event>
 7    1  0.3846293E-008  0.4614232E+02  0.7816164E-02  0.1320468E+00
        -11   -1    0    0    0    0  0.00000000000E+00  0.00000000000E+00  0.45593999997E+02  0.45594000000E+02  0.51100000000E-03 0.  1.
         11   -1    0    0    0    0 -0.00000000000E+00 -0.00000000000E+00 -0.45593999997E+02  0.45594000000E+02  0.51100000000E-03 0. -1.
    9900012    2    1    2    0    0  0.46028139891E+01  0.94723334648E+01 -0.43797287413E+02  0.46142318935E+02  0.10000010704E+02 0.  0.
        -12    1    1    2    0    0 -0.46028139891E+01 -0.94723334648E+01  0.43797287413E+02  0.45045681065E+02  0.00000000000E+00 0.  1.
         11    1    3    3    0    0  0.29768666702E+01  0.10420715390E+01 -0.22313570654E+02  0.22535374056E+02  0.51100000000E-03 0. -1.
        -11    1    3    3    0    0  0.21682830198E+01  0.21687017561E+01 -0.10643721711E+02  0.11076711186E+02  0.51100000000E-03 0.  1.
        -12    1    3    3    0    0 -0.54233570089E+00  0.62615601696E+01 -0.10839995047E+02  0.12530233693E+02  0.00000000000E+00 0.  1.
</event>
<event>
 7    1  0.3846293E-008  0.4614232E+02  0.7816164E-02  0.1320468E+00
        -11   -1    0    0    0    0  0.00000000000E+00  0.00000000000E+00  0.45593999997E+02  0.45594000000E+02  0.51100000000E-03 0.  1.
         11   -1    0    0    0    0 -0.00000000000E+00 -0.00000000000E+00 -0.45593999997E+02  0.45594000000E+02  0.51100000000E-03 0. -1.
    9900012    2    1    2    0    0 -0.85278898979E+01 -0.14606728500E+02 -0.41749637396E+02  0.46142316008E+02  0.99999840177E+01 0.  0.
        -12    1    1    2    0    0  0.85278898979E+01  0.14606728500E+02  0.41749637396E+02  0.45045683992E+02  0.00000000000E+00 0.  1.
         11    1    3    3    0    0 -0.35457753927E+01 -0.42962449079E+01 -0.15432117248E+02  0.16406720771E+02  0.51100000000E-03 0. -1.
        -11    1    3    3    0    0 -0.78970043994E+00  0.10807229358E+01 -0.52843636428E+01  0.54512464831E+01  0.51100000000E-03 0.  1.
         12    1    3    3    0    0 -0.41924140653E+01 -0.11391206528E+02 -0.21033156505E+02  0.24284348754E+02  0.00000000000E+00 0. -1.
</event>
<event>
 7    1  0.3846293E-008  0.4614232E+02  0.7816164E-02  0.1320468E+00
        -11   -1    0    0    0    0  0.00000000000E+00  0.00000000000E+00  0.45593999997E+02  0.45594000000E+02  0.51100000000E-03 0.  1.
         11   -1    0    0    0    0 -0.00000000000E+00 -0.00000000000E+00 -0.45593999997E+02  0.45594000000E+02  0.51100000000E-03 0. -1.
    9900012    2    1    2    0    0  0.83460414070E+01  0.13956745383E+02 -0.42007932463E+02  0.46142317203E+02  0.99999949071E+01 0.  0.
        -12    1    1    2    0    0 -0.83460414070E+01 -0.13956745383E+02  0.42007932463E+02  0.45045682797E+02  0.00000000000E+00 0.  1.
         11    1    3    3    0    0  0.43262445109E+01  0.56566033980E+01 -0.28105402937E+02  0.28993572186E+02  0.51100000000E-03 0. -1.
        -11    1    3    3    0    0  0.19622553321E+00 -0.44901764205E+00 -0.74857930779E+00  0.89470248906E+00  0.51100000000E-03 0.  1.
        -12    1    3    3    0    0  0.38235713630E+01  0.87491596275E+01 -0.13153950218E+02  0.16254042528E+02  0.00000000000E+00 0.  1.
</event>
<event>
 7    1  0.3846293E-008  0.4614232E+02  0.7816164E-02  0.1320468E+00
        -11   -1    0    0    0    0  0.00000000000E+00  0.00000000000E+00  0.45593999997E+02  0.45594000000E+02  0.51100000000E-03 0.  1.
         11   -1    0    0    0    0 -0.00000000000E+00 -0.00000000000E+00 -0.45593999997E+02  0.45594000000E+02  0.51100000000E-03 0. -1.
    9900012    2    1    2    0    0  0.23621186123E+02 -0.36832221868E+02  0.10702366935E+02  0.46142315860E+02  0.99999826645E+01 0.  0.
        -12    1    1    2    0    0 -0.23621186123E+02  0.36832221868E+02 -0.10702366935E+02  0.45045684140E+02  0.00000000000E+00 0.  1.
         11    1    3    3    0    0  0.76331285319E+01 -0.12078801514E+02  0.64614235137E+01  0.15681584464E+02  0.51100000000E-03 0. -1.
        -11    1    3    3    0    0  0.22551449979E+01 -0.34854083162E+01 -0.16511957347E+01  0.44676837072E+01  0.51100000000E-03 0.  1.
         12    1    3    3    0    0  0.13732912593E+02 -0.21268012038E+02  0.58921391563E+01  0.25993047689E+02  0.00000000000E+00 0. -1.
</event>
<event>
 7    1  0.3846293E-008  0.4614232E+02  0.7816164E-02  0.1320468E+00
        -11   -1    0    0    0    0  0.00000000000E+00  0.00000000000E+00  0.45593999997E+02  0.45594000000E+02  0.51100000000E-03 0. -1.
         11   -1    0    0    0    0 -0.00000000000E+00 -0.00000000000E+00 -0.45593999997E+02  0.45594000000E+02  0.51100000000E-03 0.  1.
    9900012    2    1    2    0    0 -0.20229364740E+01 -0.35775776933E+02  0.27296793436E+02  0.46142318531E+02  0.10000007022E+02 0.  0.
        -12    1    1    2    0    0  0.20229364740E+01  0.35775776933E+02 -0.27296793436E+02  0.45045681469E+02  0.00000000000E+00 0.  1.
         11    1    3    3    0    0 -0.13347530307E+01 -0.68578098876E+01  0.29788669887E+01  0.75950491048E+01  0.51100000000E-03 0. -1.
        -11    1    3    3    0    0  0.16628933189E+01 -0.21200518614E+01  0.78673651792E+00  0.28069180065E+01  0.51100000000E-03 0.  1.
        -12    1    3    3    0    0 -0.23510767622E+01 -0.26797915184E+02  0.23531189929E+02  0.35740351420E+02  0.00000000000E+00 0.  1.
</event>
<event>
 7    1  0.3846293E-008  0.4614232E+02  0.7816164E-02  0.1320468E+00
        -11   -1    0    0    0    0  0.00000000000E+00  0.00000000000E+00  0.45593999997E+02  0.45594000000E+02  0.51100000000E-03 0. -1.
         11   -1    0    0    0    0 -0.00000000000E+00 -0.00000000000E+00 -0.45593999997E+02  0.45594000000E+02  0.51100000000E-03 0.  1.
    9900012    2    1    2    0    0  0.40223044550E+02  0.14901704663E+02  0.13753521408E+02  0.46142318011E+02  0.10000002282E+02 0.  0.
        -12    1    1    2    0    0 -0.40223044550E+02 -0.14901704663E+02 -0.13753521408E+02  0.45045681989E+02  0.00000000000E+00 0.  1.
         11    1    3    3    0    0  0.27492214463E+02  0.13633844753E+02  0.87185458734E+01  0.31901671135E+02  0.51100000000E-03 0. -1.
        -11    1    3    3    0    0  0.14702504817E+01 -0.48469285975E+00 -0.42312345066E+00  0.16048667742E+01  0.51100000000E-03 0.  1.
         12    1    3    3    0    0  0.11260579605E+02  0.17525527700E+01  0.54580989850E+01  0.12635780102E+02  0.00000000000E+00 0. -1.
</event>
<event>
 7    1  0.3846293E-008  0.4614232E+02  0.7816164E-02  0.1320468E+00
        -11   -1    0    0    0    0  0.00000000000E+00  0.00000000000E+00  0.45593999997E+02  0.45594000000E+02  0.51100000000E-03 0.  1.
         11   -1    0    0    0    0 -0.00000000000E+00 -0.00000000000E+00 -0.45593999997E+02  0.45594000000E+02  0.51100000000E-03 0. -1.
    9900012    2    1    2    0    0  0.87356354411E+01  0.47565144163E+01 -0.43933787739E+02  0.46142318064E+02  0.10000002764E+02 0.  0.
        -12    1    1    2    0    0 -0.87356354411E+01 -0.47565144163E+01  0.43933787739E+02  0.45045681936E+02  0.00000000000E+00 0.  1.
         11    1    3    3    0    0  0.94524721432E+01  0.40628534665E+01 -0.32276426722E+02  0.33876595610E+02  0.51100000000E-03 0. -1.
        -11    1    3    3    0    0  0.13477738081E+01  0.45279511284E+00 -0.25057790775E+01  0.28810495828E+01  0.51100000000E-03 0.  1.
         12    1    3    3    0    0 -0.20646105103E+01  0.24086583701E+00 -0.91515819392E+01  0.93846728712E+01  0.00000000000E+00 0. -1.
</event>
<event>
 7    1  0.3846293E-008  0.4614232E+02  0.7816164E-02  0.1320468E+00
        -11   -1    0    0    0    0  0.00000000000E+00  0.00000000000E+00  0.45593999997E+02  0.45594000000E+02  0.51100000000E-03 0.  1.
         11   -1    0    0    0    0 -0.00000000000E+00 -0.00000000000E+00 -0.45593999997E+02  0.45594000000E+02  0.51100000000E-03 0. -1.
    9900012    2    1    2    0    0 -0.28519139986E+02  0.71835761806E+01 -0.34119912063E+02  0.46142317505E+02  0.99999976625E+01 0.  0.
        -12    1    1    2    0    0  0.28519139986E+02 -0.71835761806E+01  0.34119912063E+02  0.45045682495E+02  0.00000000000E+00 0.  1.
         11    1    3    3    0    0 -0.12199231588E+02  0.37898836441E+01 -0.11484523530E+02  0.17177856396E+02  0.51100000000E-03 0. -1.
        -11    1    3    3    0    0 -0.51106405077E+01  0.42097363638E+01 -0.10594675294E+02  0.12493505173E+02  0.51100000000E-03 0.  1.
        -12    1    3    3    0    0 -0.11209267890E+02 -0.81604382726E+00 -0.12040713238E+02  0.16470955936E+02  0.00000000000E+00 0.  1.
</event>
<event>
 7    1  0.3846293E-008  0.4614232E+02  0.7816164E-02  0.1320468E+00
        -11   -1    0    0    0    0  0.00000000000E+00  0.00000000000E+00  0.45593999997E+02  0.45594000000E+02  0.51100000000E-03 0. -1.
         11   -1    0    0    0    0 -0.00000000000E+00 -0.00000000000E+00 -0.45593999997E+02  0.45594000000E+02  0.51100000000E-03 0.  1.
    9900012    2    1    2    0    0  0.44770848308E+02 -0.40568601078E+01  0.28682050464E+01  0.46142316829E+02  0.99999915040E+01 0.  0.
        -12    1    1    2    0    0 -0.44770848308E+02  0.40568601078E+01 -0.28682050464E+01  0.45045683171E+02  0.00000000000E+00 0.  1.
         11    1    3    3    0    0  0.76057856547E+01 -0.42509129302E-01  0.19553494817E+01  0.78532269996E+01  0.51100000000E-03 0. -1.
        -11    1    3    3    0    0  0.26754710433E+02 -0.17384759735E+01  0.41984105854E+01  0.27137860652E+02  0.51100000000E-03 0.  1.
        -12    1    3    3    0    0  0.10410352220E+02 -0.22758750050E+01 -0.32855550207E+01  0.11151229178E+02  0.00000000000E+00 0.  1.
</event>
<event>
 7    1  0.3846293E-008  0.4614232E+02  0.7816164E-02  0.1320468E+00
        -11   -1    0    0    0    0  0.00000000000E+00  0.00000000000E+00  0.45593999997E+02  0.45594000000E+02  0.51100000000E-03 0.  1.
         11   -1    0    0    0    0 -0.00000000000E+00 -0.00000000000E+00 -0.45593999997E+02  0.45594000000E+02  0.51100000000E-03 0. -1.
    9900012    2    1    2    0    0 -0.30660348495E+02  0.20192384552E+02 -0.26102183238E+02  0.46142319480E+02  0.10000015675E+02 0.  0.
        -12    1    1    2    0    0  0.30660348495E+02 -0.20192384552E+02  0.26102183238E+02  0.45045680520E+02  0.00000000000E+00 0.  1.
         11    1    3    3    0    0 -0.25168688529E+01  0.20304072344E+01 -0.21846126809E+01  0.39025267695E+01  0.51100000000E-03 0. -1.
        -11    1    3    3    0    0 -0.21158675484E+02  0.13518175966E+02 -0.22536807980E+02  0.33739270055E+02  0.51100000000E-03 0.  1.
        -12    1    3    3    0    0 -0.69848041580E+01  0.46438013518E+01 -0.13807625771E+01  0.85005226554E+01  0.00000000000E+00 0.  1.
</event>
<event>
 7    1  0.3846293E-008  0.4614232E+02  0.7816164E-02  0.1320468E+00
        -11   -1    0    0    0    0  0.00000000000E+00  0.00000000000E+00  0.45593999997E+02  0.45594000000E+02  0.51100000000E-03 0.  1.
         11   -1    0    0    0    0 -0.00000000000E+00 -0.00000000000E+00 -0.45593999997E+02  0.45594000000E+02  0.51100000000E-03 0. -1.
    9900012    2    1    2    0    0  0.34388359196E+02 -0.66008520282E+00 -0.29088116309E+02  0.46142317953E+02  0.10000001748E+02 0.  0.
        -12    1    1    2    0    0 -0.34388359196E+02  0.66008520282E+00  0.29088116309E+02  0.45045682047E+02  0.00000000000E+00 0.  1.
         11    1    3    3    0    0  0.21417679236E+02 -0.25270308055E+00 -0.22858531471E+02  0.31325601414E+02  0.51100000000E-03 0. -1.
        -11    1    3    3    0    0  0.30728492206E+00 -0.29855277094E+00  0.34301573909E+00  0.54883316112E+00  0.51100000000E-03 0.  1.
         12    1    3    3    0    0  0.12663395038E+02 -0.10882935133E+00 -0.65726005773E+01  0.14267883377E+02  0.00000000000E+00 0. -1.
</event>
<event>
 7    1  0.3846293E-008  0.4614232E+02  0.7816164E-02  0.1320468E+00
        -11   -1    0    0    0    0  0.00000000000E+00  0.00000000000E+00  0.45593999997E+02  0.45594000000E+02  0.51100000000E-03 0.  1.
         11   -1    0    0    0    0 -0.00000000000E+00 -0.00000000000E+00 -0.45593999997E+02  0.45594000000E+02  0.51100000000E-03 0. -1.
    9900012    2    1    2    0    0  0.64768674842E+01  0.36478794718E+02 -0.25621500361E+02  0.46142316996E+02  0.99999930251E+01 0.  0.
        -12    1    1    2    0    0 -0.64768674842E+01 -0.36478794718E+02  0.25621500361E+02  0.45045683004E+02  0.00000000000E+00 0.  1.
         11    1    3    3    0    0  0.43560397691E+01  0.65049404611E+01 -0.72488858672E+01  0.10669380462E+02  0.51100000000E-03 0. -1.
        -11    1    3    3    0    0  0.14754897679E+01  0.57840271701E+01 -0.21722442131E+01  0.63522189464E+01  0.51100000000E-03 0.  1.
         12    1    3    3    0    0  0.64533794716E+00  0.24189827087E+02 -0.16200370281E+02  0.29120717588E+02  0.00000000000E+00 0. -1.
</event>
<event>
 7    1  0.3846293E-008  0.4614232E+02  0.7816164E-02  0.1320468E+00
        -11   -1    0    0    0    0  0.00000000000E+00  0.00000000000E+00  0.45593999997E+02  0.45594000000E+02  0.51100000000E-03 0. -1.
         11   -1    0    0    0    0 -0.00000000000E+00 -0.00000000000E+00 -0.45593999997E+02  0.45594000000E+02  0.51100000000E-03 0.  1.
    9900012    2    1    2    0    0  0.62181899078E+01  0.44442693852E+02 -0.39108394594E+01  0.46142316657E+02  0.99999899300E+01 0.  0.
        -12    1    1    2    0    0 -0.62181899078E+01 -0.44442693852E+02  0.39108394594E+01  0.45045683343E+02  0.00000000000E+00 0.  1.
         11    1    3    3    0    0  0.25140248755E+01  0.15394641695E+02 -0.40558998443E+01  0.16117246595E+02  0.51100000000E-03 0. -1.
        -11    1    3    3    0    0 -0.58647356388E+00  0.19444114908E+02 -0.75683229127E+00  0.19467674519E+02  0.51100000000E-03 0.  1.
         12    1    3    3    0    0  0.42906385962E+01  0.96039372489E+01  0.90189267615E+00  0.10557395543E+02  0.00000000000E+00 0. -1.
</event>
<event>
 7    1  0.3846293E-008  0.4614232E+02  0.7816164E-02  0.1320468E+00
        -11   -1    0    0    0    0  0.00000000000E+00  0.00000000000E+00  0.45593999997E+02  0.45594000000E+02  0.51100000000E-03 0.  1.
         11   -1    0    0    0    0 -0.00000000000E+00 -0.00000000000E+00 -0.45593999997E+02  0.45594000000E+02  0.51100000000E-03 0. -1.
    9900012    2    1    2    0    0  0.21465381960E+02 -0.32606526159E+02 -0.22475883036E+02  0.46142317753E+02  0.99999999257E+01 0.  0.
        -12    1    1    2    0    0 -0.21465381960E+02  0.32606526159E+02  0.22475883036E+02  0.45045682247E+02  0.00000000000E+00 0.  1.
         11    1    3    3    0    0  0.20264674433E+01 -0.97130563738E+01 -0.62681218081E+01  0.11736242400E+02  0.51100000000E-03 0. -1.
        -11    1    3    3    0    0  0.97251943829E+01 -0.13867563849E+02 -0.73753937664E+01  0.18473905011E+02  0.51100000000E-03 0.  1.
        -12    1    3    3    0    0  0.97137201342E+01 -0.90259059361E+01 -0.88323674613E+01  0.15932170341E+02  0.00000000000E+00 0.  1.
</event>
<event>
 7    1  0.3846293E-008  0.4614232E+02  0.7816164E-02  0.1320468E+00
        -11   -1    0    0    0    0  0.00000000000E+00  0.00000000000E+00  0.45593999997E+02  0.45594000000E+02  0.51100000000E-03 0.  1.
         11   -1    0    0    0    0 -0.00000000000E+00 -0.00000000000E+00 -0.45593999997E+02  0.45594000000E+02  0.51100000000E-03 0. -1.
    9900012    2    1    2    0    0 -0.55336003444E+01 -0.58343792898E+01 -0.44322147163E+02  0.46142318258E+02  0.10000004532E+02 0.  0.
        -12    1    1    2    0    0  0.55336003444E+01  0.58343792898E+01  0.44322147163E+02  0.45045681742E+02  0.00000000000E+00 0.  1.
         11    1    3    3    0    0 -0.27948306099E+01 -0.91210374228E+00 -0.19234862482E+02  0.19458235951E+02  0.51100000000E-03 0. -1.
        -11    1    3    3    0    0 -0.42614923795E+01 -0.35339396224E+00 -0.11723149368E+02  0.12478679255E+02  0.51100000000E-03 0.  1.
        -12    1    3    3    0    0  0.15227226450E+01 -0.45688815853E+01 -0.13364135313E+02  0.14205403052E+02  0.00000000000E+00 0.  1.
</event>
<event>
 7    1  0.3846293E-008  0.4614232E+02  0.7816164E-02  0.1320468E+00
        -11   -1    0    0    0    0  0.00000000000E+00  0.00000000000E+00  0.45593999997E+02  0.45594000000E+02  0.51100000000E-03 0.  1.
         11   -1    0    0    0    0 -0.00000000000E+00 -0.00000000000E+00 -0.45593999997E+02  0.45594000000E+02  0.51100000000E-03 0. -1.
    9900012    2    1    2    0    0  0.19918085788E+01 -0.24246205353E+02 -0.37911313760E+02  0.46142317783E+02  0.10000000198E+02 0.  0.
        -12    1    1    2    0    0 -0.19918085788E+01  0.24246205353E+02  0.37911313760E+02  0.45045682217E+02  0.00000000000E+00 0.  1.
         11    1    3    3    0    0  0.13072726984E+01 -0.11812966521E+02 -0.13559113259E+02  0.18030659793E+02  0.51100000000E-03 0. -1.
        -11    1    3    3    0    0  0.23186617667E+01 -0.12152380948E+01 -0.34211021749E+01  0.43077762671E+01  0.51100000000E-03 0.  1.
        -12    1    3    3    0    0 -0.16341258862E+01 -0.11218000737E+02 -0.20931098326E+02  0.23803881723E+02  0.00000000000E+00 0.  1.
</event>
<event>
 7    1  0.3846293E-008  0.4614232E+02  0.7816164E-02  0.1320468E+00
        -11   -1    0    0    0    0  0.00000000000E+00  0.00000000000E+00  0.45593999997E+02  0.45594000000E+02  0.51100000000E-03 0.  1.
         11   -1    0    0    0    0 -0.00000000000E+00 -0.00000000000E+00 -0.45593999997E+02  0.45594000000E+02  0.51100000000E-03 0. -1.
    9900012    2    1    2    0    0  0.12826029764E+01 -0.54485747498E+01 -0.44696549377E+02  0.46142316928E+02  0.99999924000E+01 0.  0.
        -12    1    1    2    0    0 -0.12826029764E+01  0.54485747498E+01  0.44696549377E+02  0.45045683072E+02  0.00000000000E+00 0.  1.
         11    1    3    3    0    0  0.25243014629E+00 -0.45911993733E+01 -0.18763145496E+02  0.19318345215E+02  0.51100000000E-03 0. -1.
        -11    1    3    3    0    0  0.33496217455E+01  0.13644470928E+01 -0.14888692016E+02  0.15321711129E+02  0.51100000000E-03 0.  1.
         12    1    3    3    0    0 -0.23194489154E+01 -0.22218224694E+01 -0.11044711866E+02  0.11502260584E+02  0.00000000000E+00 0. -1.
</event>
<event>
 7    1  0.3846293E-008  0.4614232E+02  0.7816164E-02  0.1320468E+00
        -11   -1    0    0    0    0  0.00000000000E+00  0.00000000000E+00  0.45593999997E+02  0.45594000000E+02  0.51100000000E-03 0.  1.
         11   -1    0    0    0    0 -0.00000000000E+00 -0.00000000000E+00 -0.45593999997E+02  0.45594000000E+02  0.51100000000E-03 0. -1.
    9900012    2    1    2    0    0 -0.30006109889E+02 -0.23313302900E+02 -0.24191668845E+02  0.46142316919E+02  0.99999923178E+01 0.  0.
        -12    1    1    2    0    0  0.30006109889E+02  0.23313302900E+02  0.24191668845E+02  0.45045683081E+02  0.00000000000E+00 0.  1.
         11    1    3    3    0    0 -0.21492095506E+02 -0.16851812977E+02 -0.13629415849E+02  0.30523019944E+02  0.51100000000E-03 0. -1.
        -11    1    3    3    0    0 -0.15015009325E+01  0.37458594579E+00 -0.62974214666E+00  0.16707468730E+01  0.51100000000E-03 0.  1.
        -12    1    3    3    0    0 -0.70125134504E+01 -0.68360758684E+01 -0.99325108490E+01  0.13948550102E+02  0.00000000000E+00 0.  1.
</event>
<event>
 7    1  0.3846293E-008  0.4614232E+02  0.7816164E-02  0.1320468E+00
        -11   -1    0    0    0    0  0.00000000000E+00  0.00000000000E+00  0.45593999997E+02  0.45594000000E+02  0.51100000000E-03 0. -1.
         11   -1    0    0    0    0 -0.00000000000E+00 -0.00000000000E+00 -0.45593999997E+02  0.45594000000E+02  0.51100000000E-03 0.  1.
    9900012    2    1    2    0    0 -0.38903619219E+02  0.20481104279E+02  0.98054319127E+01  0.46142315237E+02  0.99999769786E+01 0.  0.
        -12    1    1    2    0    0  0.38903619219E+02 -0.20481104279E+02 -0.98054319127E+01  0.45045684763E+02  0.00000000000E+00 0.  1.
         11    1    3    3    0    0 -0.56720708610E+01  0.69488181834E+01  0.22530829745E+01  0.92485050224E+01  0.51100000000E-03 0. -1.
        -11    1    3    3    0    0 -0.55330520862E+01  0.36984754398E+01  0.22614233664E+01  0.70290413195E+01  0.51100000000E-03 0.  1.
         12    1    3    3    0    0 -0.27698496272E+02  0.98338106561E+01  0.52909255718E+01  0.29864768895E+02  0.00000000000E+00 0. -1.
</event>
<event>
 7    1  0.3846293E-008  0.4614232E+02  0.7816164E-02  0.1320468E+00
        -11   -1    0    0    0    0  0.00000000000E+00  0.00000000000E+00  0.45593999997E+02  0.45594000000E+02  0.51100000000E-03 0.  1.
         11   -1    0    0    0    0 -0.00000000000E+00 -0.00000000000E+00 -0.45593999997E+02  0.45594000000E+02  0.51100000000E-03 0. -1.
    9900012    2    1    2    0    0 -0.17316436425E+02 -0.27061308597E+02 -0.31574357830E+02  0.46142318011E+02  0.10000002283E+02 0.  0.
        -12    1    1    2    0    0  0.17316436425E+02  0.27061308597E+02  0.31574357830E+02  0.45045681989E+02  0.00000000000E+00 0.  1.
         11    1    3    3    0    0  0.54782347283E+00 -0.33514344849E+01 -0.22795815935E+01  0.40900753253E+01  0.51100000000E-03 0.  1.
        -11    1    3    3    0    0 -0.13164466212E+02 -0.20384521826E+02 -0.25224169665E+02  0.35001294780E+02  0.51100000000E-03 0. -1.
         12    1    3    3    0    0 -0.46997936862E+01 -0.33253522859E+01 -0.40706065715E+01  0.70509479064E+01  0.00000000000E+00 0. -1.
</event>
<event>
 7    1  0.3846293E-008  0.4614232E+02  0.7816164E-02  0.1320468E+00
        -11   -1    0    0    0    0  0.00000000000E+00  0.00000000000E+00  0.45593999997E+02  0.45594000000E+02  0.51100000000E-03 0.  1.
         11   -1    0    0    0    0 -0.00000000000E+00 -0.00000000000E+00 -0.45593999997E+02  0.45594000000E+02  0.51100000000E-03 0. -1.
    9900012    2    1    2    0    0 -0.17197007371E+02  0.10601848007E+02 -0.40261361063E+02  0.46142318316E+02  0.10000005064E+02 0.  0.
        -12    1    1    2    0    0  0.17197007371E+02 -0.10601848007E+02  0.40261361063E+02  0.45045681684E+02  0.00000000000E+00 0.  1.
         11    1    3    3    0    0 -0.98508453345E+01  0.55446561375E+01 -0.13145312496E+02  0.17337289476E+02  0.51100000000E-03 0. -1.
        -11    1    3    3    0    0 -0.22496154030E+01  0.50771522057E+00 -0.32823619861E+01  0.40115389411E+01  0.51100000000E-03 0.  1.
        -12    1    3    3    0    0 -0.50965466336E+01  0.45494766487E+01 -0.23833686581E+02  0.24793489900E+02  0.00000000000E+00 0.  1.
</event>
<event>
 7    1  0.3846293E-008  0.4614232E+02  0.7816164E-02  0.1320468E+00
        -11   -1    0    0    0    0  0.00000000000E+00  0.00000000000E+00  0.45593999997E+02  0.45594000000E+02  0.51100000000E-03 0.  1.
         11   -1    0    0    0    0 -0.00000000000E+00 -0.00000000000E+00 -0.45593999997E+02  0.45594000000E+02  0.51100000000E-03 0. -1.
    9900012    2    1    2    0    0  0.38901007703E+02  0.10747093169E+02 -0.20008127152E+02  0.46142316921E+02  0.99999923390E+01 0.  0.
        -12    1    1    2    0    0 -0.38901007703E+02 -0.10747093169E+02  0.20008127152E+02  0.45045683079E+02  0.00000000000E+00 0.  1.
         11    1    3    3    0    0  0.12512585587E+02  0.58292354246E+01 -0.28570323952E+01  0.14096361874E+02  0.51100000000E-03 0. -1.
        -11    1    3    3    0    0  0.46745989017E+01  0.13865033915E+01 -0.46769268947E+01  0.67563238514E+01  0.51100000000E-03 0.  1.
         12    1    3    3    0    0  0.21713823214E+02  0.35313543533E+01 -0.12474167862E+02  0.25289631196E+02  0.00000000000E+00 0. -1.
</event>
<event>
 7    1  0.3846293E-008  0.4614232E+02  0.7816164E-02  0.1320468E+00
        -11   -1    0    0    0    0  0.00000000000E+00  0.00000000000E+00  0.45593999997E+02  0.45594000000E+02  0.51100000000E-03 0.  1.
         11   -1    0    0    0    0 -0.00000000000E+00 -0.00000000000E+00 -0.45593999997E+02  0.45594000000E+02  0.51100000000E-03 0. -1.
    9900012    2    1    2    0    0 -0.30378481853E+02 -0.19237307907E+02 -0.27132772898E+02  0.46142317184E+02  0.99999947360E+01 0.  0.
        -12    1    1    2    0    0  0.30378481853E+02  0.19237307907E+02  0.27132772898E+02  0.45045682816E+02  0.00000000000E+00 0.  1.
         11    1    3    3    0    0 -0.11847400401E+02 -0.11539720931E+02 -0.99034134295E+01  0.19277023973E+02  0.51100000000E-03 0. -1.
        -11    1    3    3    0    0 -0.96583707324E+01 -0.65152415368E+01 -0.10184331633E+02  0.15474272473E+02  0.51100000000E-03 0.  1.
        -12    1    3    3    0    0 -0.88727107193E+01 -0.11823454392E+01 -0.70450278362E+01  0.11391020738E+02  0.00000000000E+00 0.  1.
</event>
<event>
 7    1  0.3846293E-008  0.4614232E+02  0.7816164E-02  0.1320468E+00
        -11   -1    0    0    0    0  0.00000000000E+00  0.00000000000E+00  0.45593999997E+02  0.45594000000E+02  0.51100000000E-03 0.  1.
         11   -1    0    0    0    0 -0.00000000000E+00 -0.00000000000E+00 -0.45593999997E+02  0.45594000000E+02  0.51100000000E-03 0. -1.
    9900012    2    1    2    0    0  0.38682056257E+02 -0.22872213368E+02 -0.31102794893E+01  0.46142318086E+02  0.10000002959E+02 0.  0.
        -12    1    1    2    0    0 -0.38682056257E+02  0.22872213368E+02  0.31102794893E+01  0.45045681914E+02  0.00000000000E+00 0.  1.
         11    1    3    3    0    0  0.14692240556E+02 -0.93290070507E+01 -0.69259630574E+00  0.17417577186E+02  0.51100000000E-03 0. -1.
        -11    1    3    3    0    0  0.93561803127E+01 -0.27024421707E+01 -0.38156747714E+01  0.10459477901E+02  0.51100000000E-03 0.  1.
        -12    1    3    3    0    0  0.14633635388E+02 -0.10840764147E+02  0.13979915879E+01  0.18265262999E+02  0.00000000000E+00 0.  1.
</event>
<event>
 7    1  0.3846293E-008  0.4614232E+02  0.7816164E-02  0.1320468E+00
        -11   -1    0    0    0    0  0.00000000000E+00  0.00000000000E+00  0.45593999997E+02  0.45594000000E+02  0.51100000000E-03 0.  1.
         11   -1    0    0    0    0 -0.00000000000E+00 -0.00000000000E+00 -0.45593999997E+02  0.45594000000E+02  0.51100000000E-03 0. -1.
    9900012    2    1    2    0    0  0.50817340231E+01  0.21856090884E+02 -0.39058934579E+02  0.46142322074E+02  0.10000039324E+02 0.  0.
        -12    1    1    2    0    0 -0.50817340231E+01 -0.21856090884E+02  0.39058934579E+02  0.45045677926E+02  0.00000000000E+00 0.  1.
         11    1    3    3    0    0  0.49549490989E-01  0.52074122426E+01 -0.60566229186E+01  0.79876328694E+01  0.51100000000E-03 0. -1.
        -11    1    3    3    0    0 -0.97457722539E+00  0.26913785965E+01 -0.11331986858E+02  0.11687910247E+02  0.51100000000E-03 0.  1.
         12    1    3    3    0    0  0.60067617575E+01  0.13957300045E+02 -0.21670324802E+02  0.26466778958E+02  0.00000000000E+00 0. -1.
</event>
<event>
 7    1  0.3846293E-008  0.4614232E+02  0.7816164E-02  0.1320468E+00
        -11   -1    0    0    0    0  0.00000000000E+00  0.00000000000E+00  0.45593999997E+02  0.45594000000E+02  0.51100000000E-03 0.  1.
         11   -1    0    0    0    0 -0.00000000000E+00 -0.00000000000E+00 -0.45593999997E+02  0.45594000000E+02  0.51100000000E-03 0. -1.
    9900012    2    1    2    0    0  0.36888112893E+02 -0.40353427553E+01 -0.25536182412E+02  0.46142317897E+02  0.10000001237E+02 0.  0.
        -12    1    1    2    0    0 -0.36888112893E+02  0.40353427553E+01  0.25536182412E+02  0.45045682103E+02  0.00000000000E+00 0.  1.
         11    1    3    3    0    0  0.10532133316E+02  0.14916963385E+01 -0.63704815695E+01  0.12398952610E+02  0.51100000000E-03 0. -1.
        -11    1    3    3    0    0  0.42073568144E+01  0.10996126930E+01 -0.13401809975E+01  0.45505037969E+01  0.51100000000E-03 0.  1.
         12    1    3    3    0    0  0.22148622763E+02 -0.66266517868E+01 -0.17825519845E+02  0.29192861490E+02  0.00000000000E+00 0. -1.
</event>
<event>
 7    1  0.3846293E-008  0.4614231E+02  0.7816164E-02  0.1320468E+00
        -11   -1    0    0    0    0  0.00000000000E+00  0.00000000000E+00  0.45593999997E+02  0.45594000000E+02  0.51100000000E-03 0.  1.
         11   -1    0    0    0    0 -0.00000000000E+00 -0.00000000000E+00 -0.45593999997E+02  0.45594000000E+02  0.51100000000E-03 0. -1.
    9900012    2    1    2    0    0  0.20496441302E+02 -0.17923119835E+02 -0.35885532132E+02  0.46142314890E+02  0.99999738176E+01 0.  0.
        -12    1    1    2    0    0 -0.20496441302E+02  0.17923119835E+02  0.35885532132E+02  0.45045685110E+02  0.00000000000E+00 0.  1.
         11    1    3    3    0    0  0.11193665766E+02 -0.90923610083E+01 -0.19681135777E+02  0.24399104240E+02  0.51100000000E-03 0. -1.
        -11    1    3    3    0    0  0.56092963802E+01 -0.83891985344E+00 -0.69390896043E+01  0.89620844227E+01  0.51100000000E-03 0.  1.
         12    1    3    3    0    0  0.36934791555E+01 -0.79918389736E+01 -0.92653067500E+01  0.12781126227E+02  0.00000000000E+00 0. -1.
</event>
<event>
 7    1  0.3846293E-008  0.4614232E+02  0.7816164E-02  0.1320468E+00
        -11   -1    0    0    0    0  0.00000000000E+00  0.00000000000E+00  0.45593999997E+02  0.45594000000E+02  0.51100000000E-03 0.  1.
         11   -1    0    0    0    0 -0.00000000000E+00 -0.00000000000E+00 -0.45593999997E+02  0.45594000000E+02  0.51100000000E-03 0. -1.
    9900012    2    1    2    0    0  0.17636965084E+01 -0.26007117794E+01 -0.44935945006E+02  0.46142317846E+02  0.10000000778E+02 0.  0.
        -12    1    1    2    0    0 -0.17636965084E+01  0.26007117794E+01  0.44935945006E+02  0.45045682154E+02  0.00000000000E+00 0.  1.
         11    1    3    3    0    0  0.22999447169E+01 -0.46420880900E+01 -0.30652752217E+02  0.31087456413E+02  0.51100000000E-03 0. -1.
        -11    1    3    3    0    0 -0.37228218005E+00  0.14311273620E+01 -0.10668653284E+01  0.18234367107E+01  0.51100000000E-03 0.  1.
         12    1    3    3    0    0 -0.16396602850E+00  0.61024894864E+00 -0.13216327461E+02  0.13231424722E+02  0.00000000000E+00 0. -1.
</event>
<event>
 7    1  0.3846293E-008  0.4614232E+02  0.7816164E-02  0.1320468E+00
        -11   -1    0    0    0    0  0.00000000000E+00  0.00000000000E+00  0.45593999997E+02  0.45594000000E+02  0.51100000000E-03 0.  1.
         11   -1    0    0    0    0 -0.00000000000E+00 -0.00000000000E+00 -0.45593999997E+02  0.45594000000E+02  0.51100000000E-03 0. -1.
    9900012    2    1    2    0    0  0.82796507131E+01  0.20998546871E+02 -0.38982329447E+02  0.46142316569E+02  0.99999891270E+01 0.  0.
        -12    1    1    2    0    0 -0.82796507131E+01 -0.20998546871E+02  0.38982329447E+02  0.45045683431E+02  0.00000000000E+00 0.  1.
         11    1    3    3    0    0 -0.10714047896E+01  0.62512353340E+01 -0.83554658823E+01  0.10489979113E+02  0.51100000000E-03 0. -1.
        -11    1    3    3    0    0  0.34956063673E+01  0.35445340018E+01 -0.48871415445E+01  0.69761836201E+01  0.51100000000E-03 0.  1.
         12    1    3    3    0    0  0.58554491353E+01  0.11202777536E+02 -0.25739722021E+02  0.28676153835E+02  0.00000000000E+00 0. -1.
</event>
<event>
 7    1  0.3846293E-008  0.4614232E+02  0.7816164E-02  0.1320468E+00
        -11   -1    0    0    0    0  0.00000000000E+00  0.00000000000E+00  0.45593999997E+02  0.45594000000E+02  0.51100000000E-03 0.  1.
         11   -1    0    0    0    0 -0.00000000000E+00 -0.00000000000E+00 -0.45593999997E+02  0.45594000000E+02  0.51100000000E-03 0. -1.
    9900012    2    1    2    0    0 -0.18800130726E+02  0.18532297257E+02 -0.36499620532E+02  0.46142320341E+02  0.10000023525E+02 0.  0.
        -12    1    1    2    0    0  0.18800130726E+02 -0.18532297257E+02  0.36499620532E+02  0.45045679659E+02  0.00000000000E+00 0.  1.
         11    1    3    3    0    0 -0.10444819758E+02  0.15447182780E+02 -0.26737272926E+02  0.32597415225E+02  0.51100000000E-03 0. -1.
        -11    1    3    3    0    0 -0.25681476593E+01  0.15483216791E+01 -0.15335261823E+01  0.33681426981E+01  0.51100000000E-03 0.  1.
         12    1    3    3    0    0 -0.57871633092E+01  0.15367927980E+01 -0.82288214243E+01  0.10176762418E+02  0.00000000000E+00 0. -1.
</event>
<event>
 7    1  0.3846293E-008  0.4614232E+02  0.7816164E-02  0.1320468E+00
        -11   -1    0    0    0    0  0.00000000000E+00  0.00000000000E+00  0.45593999997E+02  0.45594000000E+02  0.51100000000E-03 0.  1.
         11   -1    0    0    0    0 -0.00000000000E+00 -0.00000000000E+00 -0.45593999997E+02  0.45594000000E+02  0.51100000000E-03 0. -1.
    9900012    2    1    2    0    0 -0.15136148046E+02 -0.39972397933E+02 -0.14220332024E+02  0.46142318552E+02  0.10000007215E+02 0.  0.
        -12    1    1    2    0    0  0.15136148046E+02  0.39972397933E+02  0.14220332024E+02  0.45045681448E+02  0.00000000000E+00 0.  1.
         11    1    3    3    0    0 -0.60827949749E+01 -0.72312984997E+01 -0.20509915689E+01  0.96694694464E+01  0.51100000000E-03 0. -1.
        -11    1    3    3    0    0  0.70316683187E+00 -0.15655288323E+01 -0.61084649373E+00  0.18216634756E+01  0.51100000000E-03 0.  1.
         12    1    3    3    0    0 -0.97565199034E+01 -0.31175570601E+02 -0.11558493961E+02  0.34651185630E+02  0.00000000000E+00 0. -1.
</event>
<event>
 7    1  0.3846293E-008  0.4614232E+02  0.7816164E-02  0.1320468E+00
        -11   -1    0    0    0    0  0.00000000000E+00  0.00000000000E+00  0.45593999997E+02  0.45594000000E+02  0.51100000000E-03 0.  1.
         11   -1    0    0    0    0 -0.00000000000E+00 -0.00000000000E+00 -0.45593999997E+02  0.45594000000E+02  0.51100000000E-03 0. -1.
    9900012    2    1    2    0    0 -0.40665726346E+02 -0.80220635216E+00 -0.19358946308E+02  0.46142316118E+02  0.99999850172E+01 0.  0.
        -12    1    1    2    0    0  0.40665726346E+02  0.80220635216E+00  0.19358946308E+02  0.45045683882E+02  0.00000000000E+00 0.  1.
         11    1    3    3    0    0 -0.40983833933E+01 -0.27022117627E+00 -0.38428193532E+01  0.56246801478E+01  0.51100000000E-03 0.  1.
        -11    1    3    3    0    0 -0.19800349387E+02  0.67366281137E+00 -0.12537194228E+02  0.23445445118E+02  0.51100000000E-03 0. -1.
         12    1    3    3    0    0 -0.16766993566E+02 -0.12056479873E+01 -0.29789327264E+01  0.17072190852E+02  0.00000000000E+00 0. -1.
</event>
<event>
 7    1  0.3846293E-008  0.4614232E+02  0.7816164E-02  0.1320468E+00
        -11   -1    0    0    0    0  0.00000000000E+00  0.00000000000E+00  0.45593999997E+02  0.45594000000E+02  0.51100000000E-03 0.  1.
         11   -1    0    0    0    0 -0.00000000000E+00 -0.00000000000E+00 -0.45593999997E+02  0.45594000000E+02  0.51100000000E-03 0. -1.
    9900012    2    1    2    0    0 -0.41522260732E+02 -0.15594094825E+02  0.78638095810E+01  0.46142318399E+02  0.10000005819E+02 0.  0.
        -12    1    1    2    0    0  0.41522260732E+02  0.15594094825E+02 -0.78638095810E+01  0.45045681601E+02  0.00000000000E+00 0.  1.
         11    1    3    3    0    0 -0.30903575190E+02 -0.90467290426E+01  0.79873222613E+01  0.33176370854E+02  0.51100000000E-03 0. -1.
        -11    1    3    3    0    0 -0.20415908317E+01  0.30011566435E-01  0.61389260089E+00  0.21321018280E+01  0.51100000000E-03 0.  1.
        -12    1    3    3    0    0 -0.85770947107E+01 -0.65773773490E+01 -0.73740528118E+00  0.10833845717E+02  0.00000000000E+00 0.  1.
</event>
<event>
 7    1  0.3846293E-008  0.4614232E+02  0.7816164E-02  0.1320468E+00
        -11   -1    0    0    0    0  0.00000000000E+00  0.00000000000E+00  0.45593999997E+02  0.45594000000E+02  0.51100000000E-03 0.  1.
         11   -1    0    0    0    0 -0.00000000000E+00 -0.00000000000E+00 -0.45593999997E+02  0.45594000000E+02  0.51100000000E-03 0. -1.
    9900012    2    1    2    0    0 -0.13371751365E+02 -0.20557517824E+02 -0.37784893266E+02  0.46142318378E+02  0.10000005625E+02 0.  0.
        -12    1    1    2    0    0  0.13371751365E+02  0.20557517824E+02  0.37784893266E+02  0.45045681622E+02  0.00000000000E+00 0.  1.
         11    1    3    3    0    0 -0.71481141763E+01 -0.15903455916E+02 -0.20410601216E+02  0.26844144401E+02  0.51100000000E-03 0. -1.
        -11    1    3    3    0    0 -0.35411814408E+01 -0.43895990253E+01 -0.10593542636E+02  0.12001320404E+02  0.51100000000E-03 0.  1.
        -12    1    3    3    0    0 -0.26824557481E+01 -0.26446288335E+00 -0.67807494135E+01  0.72968535730E+01  0.00000000000E+00 0.  1.
</event>
<event>
 7    1  0.3846293E-008  0.4614232E+02  0.7816164E-02  0.1320468E+00
        -11   -1    0    0    0    0  0.00000000000E+00  0.00000000000E+00  0.45593999997E+02  0.45594000000E+02  0.51100000000E-03 0.  1.
         11   -1    0    0    0    0 -0.00000000000E+00 -0.00000000000E+00 -0.45593999997E+02  0.45594000000E+02  0.51100000000E-03 0. -1.
    9900012    2    1    2    0    0 -0.71617009071E+00  0.16354758681E+02 -0.41965729365E+02  0.46142317940E+02  0.10000001629E+02 0.  0.
        -12    1    1    2    0    0  0.71617009071E+00 -0.16354758681E+02  0.41965729365E+02  0.45045682060E+02  0.00000000000E+00 0.  1.
         11    1    3    3    0    0 -0.16705790063E+01  0.27900853390E+01 -0.38995334586E+01  0.50775753929E+01  0.51100000000E-03 0. -1.
        -11    1    3    3    0    0  0.22451562546E+01  0.13159402440E+02 -0.29339263075E+02  0.32233568794E+02  0.51100000000E-03 0.  1.
        -12    1    3    3    0    0 -0.12907473390E+01  0.40527090236E+00 -0.87269328319E+01  0.88311737526E+01  0.00000000000E+00 0.  1.
</event>
<event>
 7    1  0.3846293E-008  0.4614232E+02  0.7816164E-02  0.1320468E+00
        -11   -1    0    0    0    0  0.00000000000E+00  0.00000000000E+00  0.45593999997E+02  0.45594000000E+02  0.51100000000E-03 0.  1.
         11   -1    0    0    0    0 -0.00000000000E+00 -0.00000000000E+00 -0.45593999997E+02  0.45594000000E+02  0.51100000000E-03 0. -1.
    9900012    2    1    2    0    0 -0.32819599306E+02  0.10920321392E+01 -0.30834962705E+02  0.46142316991E+02  0.99999929731E+01 0.  0.
        -12    1    1    2    0    0  0.32819599306E+02 -0.10920321392E+01  0.30834962705E+02  0.45045683009E+02  0.00000000000E+00 0.  1.
         11    1    3    3    0    0 -0.16821424534E+02  0.49833633255E+01 -0.14686470835E+02  0.22879830839E+02  0.51100000000E-03 0. -1.
        -11    1    3    3    0    0 -0.49040874673E+00  0.41639722036E+00 -0.50652717023E+00  0.81881464282E+00  0.51100000000E-03 0.  1.
         12    1    3    3    0    0 -0.15507766025E+02 -0.43077284067E+01 -0.15641964699E+02  0.22443671508E+02  0.00000000000E+00 0. -1.
</event>
<event>
 7    1  0.3846293E-008  0.4614232E+02  0.7816164E-02  0.1320468E+00
        -11   -1    0    0    0    0  0.00000000000E+00  0.00000000000E+00  0.45593999997E+02  0.45594000000E+02  0.51100000000E-03 0.  1.
         11   -1    0    0    0    0 -0.00000000000E+00 -0.00000000000E+00 -0.45593999997E+02  0.45594000000E+02  0.51100000000E-03 0. -1.
    9900012    2    1    2    0    0  0.99082639196E+01  0.20960327497E+02 -0.38621295909E+02  0.46142317406E+02  0.99999967578E+01 0.  0.
        -12    1    1    2    0    0 -0.99082639196E+01 -0.20960327497E+02  0.38621295909E+02  0.45045682594E+02  0.00000000000E+00 0.  1.
         11    1    3    3    0    0  0.35618696410E+01  0.45412962637E+01 -0.11777772663E+02  0.13115876496E+02  0.51100000000E-03 0.  1.
        -11    1    3    3    0    0  0.61703059171E+01  0.77788914371E+01 -0.18595248047E+02  0.21080016065E+02  0.51100000000E-03 0. -1.
         12    1    3    3    0    0  0.17608836141E+00  0.86401397959E+01 -0.82482751989E+01  0.11946424844E+02  0.00000000000E+00 0. -1.
</event>
<event>
 7    1  0.3846293E-008  0.4614232E+02  0.7816164E-02  0.1320468E+00
        -11   -1    0    0    0    0  0.00000000000E+00  0.00000000000E+00  0.45593999997E+02  0.45594000000E+02  0.51100000000E-03 0. -1.
         11   -1    0    0    0    0 -0.00000000000E+00 -0.00000000000E+00 -0.45593999997E+02  0.45594000000E+02  0.51100000000E-03 0.  1.
    9900012    2    1    2    0    0 -0.15202623279E+02  0.41138794426E+02 -0.10275861449E+02  0.46142317744E+02  0.99999998459E+01 0.  0.
        -12    1    1    2    0    0  0.15202623279E+02 -0.41138794426E+02  0.10275861449E+02  0.45045682256E+02  0.00000000000E+00 0.  1.
         11    1    3    3    0    0 -0.58987322573E+01  0.74281503071E+01 -0.19746498757E+01  0.96887409720E+01  0.51100000000E-03 0. -1.
        -11    1    3    3    0    0  0.94708975052E-01 -0.24511242421E+00 -0.43825454968E-01  0.26640349488E+00  0.51100000000E-03 0.  1.
         12    1    3    3    0    0 -0.93985999964E+01  0.33955756543E+02 -0.82573861184E+01  0.36187173277E+02  0.00000000000E+00 0. -1.
</event>
<event>
 7    1  0.3846293E-008  0.4614232E+02  0.7816164E-02  0.1320468E+00
        -11   -1    0    0    0    0  0.00000000000E+00  0.00000000000E+00  0.45593999997E+02  0.45594000000E+02  0.51100000000E-03 0.  1.
         11   -1    0    0    0    0 -0.00000000000E+00 -0.00000000000E+00 -0.45593999997E+02  0.45594000000E+02  0.51100000000E-03 0. -1.
    9900012    2    1    2    0    0  0.31390834771E+02  0.19840853955E+02 -0.25496461006E+02  0.46142317442E+02  0.99999970883E+01 0.  0.
        -12    1    1    2    0    0 -0.31390834771E+02 -0.19840853955E+02  0.25496461006E+02  0.45045682558E+02  0.00000000000E+00 0.  1.
         11    1    3    3    0    0  0.69012811658E+01  0.44668034228E+01 -0.28402782427E+01  0.86975396121E+01  0.51100000000E-03 0. -1.
        -11    1    3    3    0    0  0.49494797827E+01  0.55762629542E+01 -0.89304820180E+01  0.11633811413E+02  0.51100000000E-03 0.  1.
        -12    1    3    3    0    0  0.19540073823E+02  0.97977875780E+01 -0.13725700745E+02  0.25810966417E+02  0.00000000000E+00 0.  1.
</event>
<event>
 7    1  0.3846293E-008  0.4614232E+02  0.7816164E-02  0.1320468E+00
        -11   -1    0    0    0    0  0.00000000000E+00  0.00000000000E+00  0.45593999997E+02  0.45594000000E+02  0.51100000000E-03 0. -1.
         11   -1    0    0    0    0 -0.00000000000E+00 -0.00000000000E+00 -0.45593999997E+02  0.45594000000E+02  0.51100000000E-03 0.  1.
    9900012    2    1    2    0    0  0.30683405706E+02  0.22878227513E+00  0.32978625318E+02  0.46142318133E+02  0.10000003390E+02 0.  0.
        -12    1    1    2    0    0 -0.30683405706E+02 -0.22878227513E+00 -0.32978625318E+02  0.45045681867E+02  0.00000000000E+00 0.  1.
         11    1    3    3    0    0  0.91050129090E+01 -0.12847652860E+01  0.98277995325E+01  0.13458734184E+02  0.51100000000E-03 0. -1.
        -11    1    3    3    0    0  0.13221139557E+00  0.26444520934E+00  0.36751311106E+01  0.36870042125E+01  0.51100000000E-03 0.  1.
         12    1    3    3    0    0  0.21446181401E+02  0.12491023518E+01  0.19475694674E+02  0.28996579737E+02  0.00000000000E+00 0. -1.
</event>
<event>
 7    1  0.3846293E-008  0.4614232E+02  0.7816164E-02  0.1320468E+00
        -11   -1    0    0    0    0  0.00000000000E+00  0.00000000000E+00  0.45593999997E+02  0.45594000000E+02  0.51100000000E-03 0.  1.
         11   -1    0    0    0    0 -0.00000000000E+00 -0.00000000000E+00 -0.45593999997E+02  0.45594000000E+02  0.51100000000E-03 0. -1.
    9900012    2    1    2    0    0  0.16692613203E+02 -0.36198863131E+02 -0.20978860404E+02  0.46142316396E+02  0.99999875486E+01 0.  0.
        -12    1    1    2    0    0 -0.16692613203E+02  0.36198863131E+02  0.20978860404E+02  0.45045683604E+02  0.00000000000E+00 0.  1.
         11    1    3    3    0    0  0.12710322272E+02 -0.28286044003E+02 -0.17485603342E+02  0.35600546374E+02  0.51100000000E-03 0. -1.
        -11    1    3    3    0    0  0.45799009014E+01 -0.49743155465E+01 -0.14561730719E+01  0.69166283476E+01  0.51100000000E-03 0.  1.
        -12    1    3    3    0    0 -0.59760997083E+00 -0.29385035813E+01 -0.20370839900E+01  0.36251416740E+01  0.00000000000E+00 0.  1.
</event>
<event>
 7    1  0.3846293E-008  0.4614232E+02  0.7816164E-02  0.1320468E+00
        -11   -1    0    0    0    0  0.00000000000E+00  0.00000000000E+00  0.45593999997E+02  0.45594000000E+02  0.51100000000E-03 0.  1.
         11   -1    0    0    0    0 -0.00000000000E+00 -0.00000000000E+00 -0.45593999997E+02  0.45594000000E+02  0.51100000000E-03 0. -1.
    9900012    2    1    2    0    0  0.27169825445E+02 -0.32715651901E+02 -0.14852615829E+02  0.46142317732E+02  0.99999997356E+01 0.  0.
        -12    1    1    2    0    0 -0.27169825445E+02  0.32715651901E+02  0.14852615829E+02  0.45045682268E+02  0.00000000000E+00 0.  1.
         11    1    3    3    0    0  0.74975817419E+01 -0.13466882373E+02 -0.56038884755E+01  0.16400433505E+02  0.51100000000E-03 0. -1.
        -11    1    3    3    0    0  0.89311598527E+01 -0.12959965229E+02 -0.62808543004E+01  0.16946251682E+02  0.51100000000E-03 0.  1.
        -12    1    3    3    0    0  0.10741083850E+02 -0.62888042981E+01 -0.29678730533E+01  0.12795632546E+02  0.00000000000E+00 0.  1.
</event>
<event>
 7    1  0.3846293E-008  0.4614232E+02  0.7816164E-02  0.1320468E+00
        -11   -1    0    0    0    0  0.00000000000E+00  0.00000000000E+00  0.45593999997E+02  0.45594000000E+02  0.51100000000E-03 0.  1.
         11   -1    0    0    0    0 -0.00000000000E+00 -0.00000000000E+00 -0.45593999997E+02  0.45594000000E+02  0.51100000000E-03 0. -1.
    9900012    2    1    2    0    0 -0.22269421044E+02 -0.38780608920E+02 -0.54084061658E+01  0.46142316532E+02  0.99999887927E+01 0.  0.
        -12    1    1    2    0    0  0.22269421044E+02  0.38780608920E+02  0.54084061658E+01  0.45045683468E+02  0.00000000000E+00 0.  1.
         11    1    3    3    0    0 -0.10740932232E+02 -0.20441808871E+02 -0.39264910944E+01  0.23423332549E+02  0.51100000000E-03 0. -1.
        -11    1    3    3    0    0 -0.60001338822E+01 -0.14394176175E+02 -0.26784155546E+01  0.15823015657E+02  0.51100000000E-03 0.  1.
        -12    1    3    3    0    0 -0.55283549300E+01 -0.39446238743E+01  0.11965004832E+01  0.68959683256E+01  0.00000000000E+00 0.  1.
</event>
<event>
 7    1  0.3846293E-008  0.4614232E+02  0.7816164E-02  0.1320468E+00
        -11   -1    0    0    0    0  0.00000000000E+00  0.00000000000E+00  0.45593999997E+02  0.45594000000E+02  0.51100000000E-03 0.  1.
         11   -1    0    0    0    0 -0.00000000000E+00 -0.00000000000E+00 -0.45593999997E+02  0.45594000000E+02  0.51100000000E-03 0. -1.
    9900012    2    1    2    0    0 -0.36179445928E+02  0.88864996436E+01 -0.25321752608E+02  0.46142319422E+02  0.10000015147E+02 0.  0.
        -12    1    1    2    0    0  0.36179445928E+02 -0.88864996436E+01  0.25321752608E+02  0.45045680578E+02  0.00000000000E+00 0.  1.
         11    1    3    3    0    0 -0.13972217956E+02  0.29885645220E+01 -0.62164855332E+01  0.15582011589E+02  0.51100000000E-03 0. -1.
        -11    1    3    3    0    0 -0.59379589148E+01  0.37685667401E+01 -0.32651088672E+01  0.77538627486E+01  0.51100000000E-03 0.  1.
         12    1    3    3    0    0 -0.16269269057E+02  0.21293683815E+01 -0.15840158207E+02  0.22806445085E+02  0.00000000000E+00 0. -1.
</event>
<event>
 7    1  0.3846293E-008  0.4614232E+02  0.7816164E-02  0.1320468E+00
        -11   -1    0    0    0    0  0.00000000000E+00  0.00000000000E+00  0.45593999997E+02  0.45594000000E+02  0.51100000000E-03 0. -1.
         11   -1    0    0    0    0 -0.00000000000E+00 -0.00000000000E+00 -0.45593999997E+02  0.45594000000E+02  0.51100000000E-03 0.  1.
    9900012    2    1    2    0    0  0.36126241139E+02  0.21704570253E+02 -0.15903437035E+02  0.46142323424E+02  0.10000051640E+02 0.  0.
        -12    1    1    2    0    0 -0.36126241139E+02 -0.21704570253E+02  0.15903437035E+02  0.45045676576E+02  0.00000000000E+00 0.  1.
         11    1    3    3    0    0  0.12534317027E+02  0.52056419605E+01 -0.26794437504E+01  0.13834277380E+02  0.51100000000E-03 0. -1.
        -11    1    3    3    0    0  0.11600860659E+02  0.76685404392E+01 -0.98431688744E+01  0.17037442715E+02  0.51100000000E-03 0.  1.
         12    1    3    3    0    0  0.11991063452E+02  0.88303878531E+01 -0.33808244097E+01  0.15270603329E+02  0.00000000000E+00 0. -1.
</event>
<event>
 7    1  0.3846293E-008  0.4614232E+02  0.7816164E-02  0.1320468E+00
        -11   -1    0    0    0    0  0.00000000000E+00  0.00000000000E+00  0.45593999997E+02  0.45594000000E+02  0.51100000000E-03 0. -1.
         11   -1    0    0    0    0 -0.00000000000E+00 -0.00000000000E+00 -0.45593999997E+02  0.45594000000E+02  0.51100000000E-03 0.  1.
    9900012    2    1    2    0    0 -0.38945405655E+02  0.75100396863E+01  0.21353407231E+02  0.46142319651E+02  0.10000017232E+02 0.  0.
        -12    1    1    2    0    0  0.38945405655E+02 -0.75100396863E+01 -0.21353407231E+02  0.45045680349E+02  0.00000000000E+00 0.  1.
         11    1    3    3    0    0 -0.22148927886E+01  0.15200239468E+01  0.17817935298E+01  0.32235091605E+01  0.51100000000E-03 0. -1.
        -11    1    3    3    0    0 -0.35942239077E+01  0.20619885478E+01 -0.17151359396E+00  0.41472472128E+01  0.51100000000E-03 0.  1.
         12    1    3    3    0    0 -0.33136288959E+02  0.39280271917E+01  0.19743127295E+02  0.38771563278E+02  0.00000000000E+00 0. -1.
</event>
<event>
 7    1  0.3846293E-008  0.4614231E+02  0.7816164E-02  0.1320468E+00
        -11   -1    0    0    0    0  0.00000000000E+00  0.00000000000E+00  0.45593999997E+02  0.45594000000E+02  0.51100000000E-03 0.  1.
         11   -1    0    0    0    0 -0.00000000000E+00 -0.00000000000E+00 -0.45593999997E+02  0.45594000000E+02  0.51100000000E-03 0. -1.
    9900012    2    1    2    0    0  0.44982812888E+01 -0.17566352819E+01 -0.44786085724E+02  0.46142314562E+02  0.99999708296E+01 0.  0.
        -12    1    1    2    0    0 -0.44982812888E+01  0.17566352819E+01  0.44786085724E+02  0.45045685438E+02  0.00000000000E+00 0.  1.
         11    1    3    3    0    0  0.45947587143E-03  0.20101210435E+00  0.13638988904E+00  0.24291673504E+00  0.51100000000E-03 0. -1.
        -11    1    3    3    0    0  0.86868846178E+00 -0.46237623850E+01 -0.18094975392E+02  0.18696575433E+02  0.51100000000E-03 0.  1.
         12    1    3    3    0    0  0.36291333511E+01  0.26661149987E+01 -0.26827500221E+02  0.27202822394E+02  0.00000000000E+00 0. -1.
</event>
<event>
 7    1  0.3846293E-008  0.4614232E+02  0.7816164E-02  0.1320468E+00
        -11   -1    0    0    0    0  0.00000000000E+00  0.00000000000E+00  0.45593999997E+02  0.45594000000E+02  0.51100000000E-03 0. -1.
         11   -1    0    0    0    0 -0.00000000000E+00 -0.00000000000E+00 -0.45593999997E+02  0.45594000000E+02  0.51100000000E-03 0.  1.
    9900012    2    1    2    0    0  0.24195064562E+02  0.37501416618E+02  0.61119622647E+01  0.46142317851E+02  0.10000000823E+02 0.  0.
        -12    1    1    2    0    0 -0.24195064562E+02 -0.37501416618E+02 -0.61119622647E+01  0.45045682149E+02  0.00000000000E+00 0.  1.
         11    1    3    3    0    0  0.56871773935E+01  0.13601577382E+02  0.28507879079E+01  0.15015787890E+02  0.51100000000E-03 0. -1.
        -11    1    3    3    0    0  0.75634693789E+01  0.65377844430E+01  0.35264012486E+01  0.10601141471E+02  0.51100000000E-03 0.  1.
        -12    1    3    3    0    0  0.10944417789E+02  0.17362054793E+02 -0.26522689185E+00  0.20525388491E+02  0.00000000000E+00 0.  1.
</event>
<event>
 7    1  0.3846293E-008  0.4614232E+02  0.7816164E-02  0.1320468E+00
        -11   -1    0    0    0    0  0.00000000000E+00  0.00000000000E+00  0.45593999997E+02  0.45594000000E+02  0.51100000000E-03 0. -1.
         11   -1    0    0    0    0 -0.00000000000E+00 -0.00000000000E+00 -0.45593999997E+02  0.45594000000E+02  0.51100000000E-03 0.  1.
    9900012    2    1    2    0    0 -0.26856695474E+02 -0.14107211891E+02  0.33298917488E+02  0.46142318465E+02  0.10000006414E+02 0.  0.
        -12    1    1    2    0    0  0.26856695474E+02  0.14107211891E+02 -0.33298917488E+02  0.45045681535E+02  0.00000000000E+00 0.  1.
         11    1    3    3    0    0  0.41380322954E+00  0.45695171087E-01  0.23375264217E+00  0.47745336975E+00  0.51100000000E-03 0.  1.
        -11    1    3    3    0    0 -0.20062397893E+02 -0.75326402933E+01  0.19773654277E+02  0.29158838844E+02  0.51100000000E-03 0. -1.
         12    1    3    3    0    0 -0.72081008100E+01 -0.66202667689E+01  0.13291510569E+02  0.16506026251E+02  0.00000000000E+00 0. -1.
</event>
<event>
 7    1  0.3846293E-008  0.4614232E+02  0.7816164E-02  0.1320468E+00
        -11   -1    0    0    0    0  0.00000000000E+00  0.00000000000E+00  0.45593999997E+02  0.45594000000E+02  0.51100000000E-03 0.  1.
         11   -1    0    0    0    0 -0.00000000000E+00 -0.00000000000E+00 -0.45593999997E+02  0.45594000000E+02  0.51100000000E-03 0. -1.
    9900012    2    1    2    0    0  0.25786447618E+02  0.24374291096E+02 -0.27750072911E+02  0.46142317701E+02  0.99999994554E+01 0.  0.
        -12    1    1    2    0    0 -0.25786447618E+02 -0.24374291096E+02  0.27750072911E+02  0.45045682299E+02  0.00000000000E+00 0.  1.
         11    1    3    3    0    0  0.16047196455E+02  0.12263302405E+02 -0.16781135790E+02  0.26258477081E+02  0.51100000000E-03 0. -1.
        -11    1    3    3    0    0 -0.58038271679E-01 -0.54512029427E+00 -0.60382550260E+00  0.81555507166E+00  0.51100000000E-03 0.  1.
        -12    1    3    3    0    0  0.97972894347E+01  0.12656108985E+02 -0.10365111618E+02  0.19068285549E+02  0.00000000000E+00 0.  1.
</event>
<event>
 7    1  0.3846293E-008  0.4614232E+02  0.7816164E-02  0.1320468E+00
        -11   -1    0    0    0    0  0.00000000000E+00  0.00000000000E+00  0.45593999997E+02  0.45594000000E+02  0.51100000000E-03 0.  1.
         11   -1    0    0    0    0 -0.00000000000E+00 -0.00000000000E+00 -0.45593999997E+02  0.45594000000E+02  0.51100000000E-03 0. -1.
    9900012    2    1    2    0    0 -0.16124590676E+02  0.20727556705E+02 -0.36598899855E+02  0.46142317609E+02  0.99999986115E+01 0.  0.
        -12    1    1    2    0    0  0.16124590676E+02 -0.20727556705E+02  0.36598899855E+02  0.45045682391E+02  0.00000000000E+00 0.  1.
         11    1    3    3    0    0 -0.20162694232E+01 -0.20639718979E+00 -0.10023180052E+01  0.22611023488E+01  0.51100000000E-03 0.  1.
        -11    1    3    3    0    0 -0.89556448293E+01  0.92749788848E+01 -0.18773470932E+02  0.22774371972E+02  0.51100000000E-03 0. -1.
        -12    1    3    3    0    0 -0.51526764239E+01  0.11658975010E+02 -0.16823110918E+02  0.21106843288E+02  0.00000000000E+00 0.  1.
</event>
<event>
 7    1  0.3846293E-008  0.4614232E+02  0.7816164E-02  0.1320468E+00
        -11   -1    0    0    0    0  0.00000000000E+00  0.00000000000E+00  0.45593999997E+02  0.45594000000E+02  0.51100000000E-03 0. -1.
         11   -1    0    0    0    0 -0.00000000000E+00 -0.00000000000E+00 -0.45593999997E+02  0.45594000000E+02  0.51100000000E-03 0.  1.
    9900012    2    1    2    0    0 -0.23204754519E+02 -0.85000253150E+01  0.37661684688E+02  0.46142317008E+02  0.99999931349E+01 0.  0.
        -12    1    1    2    0    0  0.23204754519E+02  0.85000253150E+01 -0.37661684688E+02  0.45045682992E+02  0.00000000000E+00 0.  1.
         11    1    3    3    0    0 -0.88121098513E+01 -0.62847148175E+01  0.15625189274E+02  0.19007826296E+02  0.51100000000E-03 0. -1.
        -11    1    3    3    0    0 -0.12468113580E+02 -0.25000730279E+01  0.14206549788E+02  0.19066470007E+02  0.51100000000E-03 0.  1.
         12    1    3    3    0    0 -0.19245310884E+01  0.28476253046E+00  0.78299456255E+01  0.80680207057E+01  0.00000000000E+00 0. -1.
</event>
<event>
 7    1  0.3846293E-008  0.4614232E+02  0.7816164E-02  0.1320468E+00
        -11   -1    0    0    0    0  0.00000000000E+00  0.00000000000E+00  0.45593999997E+02  0.45594000000E+02  0.51100000000E-03 0. -1.
         11   -1    0    0    0    0 -0.00000000000E+00 -0.00000000000E+00 -0.45593999997E+02  0.45594000000E+02  0.51100000000E-03 0.  1.
    9900012    2    1    2    0    0  0.10859575508E+02 -0.18903389563E+02  0.39418840486E+02  0.46142317605E+02  0.99999985761E+01 0.  0.
        -12    1    1    2    0    0 -0.10859575508E+02  0.18903389563E+02 -0.39418840486E+02  0.45045682395E+02  0.00000000000E+00 0.  1.
         11    1    3    3    0    0  0.37893674364E+01 -0.15396079030E+01  0.34510113873E+01  0.53515584570E+01  0.51100000000E-03 0.  1.
        -11    1    3    3    0    0  0.22037433742E+01 -0.94338756306E+01  0.15070100215E+02  0.17915423942E+02  0.51100000000E-03 0. -1.
        -12    1    3    3    0    0  0.48664646970E+01 -0.79299060290E+01  0.20897728883E+02  0.22875335205E+02  0.00000000000E+00 0.  1.
</event>
<event>
 7    1  0.3846293E-008  0.4614232E+02  0.7816164E-02  0.1320468E+00
        -11   -1    0    0    0    0  0.00000000000E+00  0.00000000000E+00  0.45593999997E+02  0.45594000000E+02  0.51100000000E-03 0. -1.
         11   -1    0    0    0    0 -0.00000000000E+00 -0.00000000000E+00 -0.45593999997E+02  0.45594000000E+02  0.51100000000E-03 0.  1.
    9900012    2    1    2    0    0 -0.19842628496E+02 -0.35445541035E+02 -0.19467846179E+02  0.46142319633E+02  0.10000017066E+02 0.  0.
        -12    1    1    2    0    0  0.19842628496E+02  0.35445541035E+02  0.19467846179E+02  0.45045680367E+02  0.00000000000E+00 0.  1.
         11    1    3    3    0    0 -0.65559791880E+01 -0.92334995225E+01 -0.42026835416E+01  0.12078945556E+02  0.51100000000E-03 0. -1.
        -11    1    3    3    0    0 -0.12157838468E+02 -0.19117125080E+02 -0.85072035264E+01  0.24200207017E+02  0.51100000000E-03 0.  1.
        -12    1    3    3    0    0 -0.11288108401E+01 -0.70949164324E+01 -0.67579591111E+01  0.98631670595E+01  0.00000000000E+00 0.  1.
</event>
<event>
 7    1  0.3846293E-008  0.4614232E+02  0.7816164E-02  0.1320468E+00
        -11   -1    0    0    0    0  0.00000000000E+00  0.00000000000E+00  0.45593999997E+02  0.45594000000E+02  0.51100000000E-03 0. -1.
         11   -1    0    0    0    0 -0.00000000000E+00 -0.00000000000E+00 -0.45593999997E+02  0.45594000000E+02  0.51100000000E-03 0.  1.
    9900012    2    1    2    0    0 -0.15131359643E+02  0.20753530139E+02  0.37006032935E+02  0.46142317283E+02  0.99999956400E+01 0.  0.
        -12    1    1    2    0    0  0.15131359643E+02 -0.20753530139E+02 -0.37006032935E+02  0.45045682717E+02  0.00000000000E+00 0.  1.
         11    1    3    3    0    0 -0.52491724483E+01  0.12764538740E+02  0.23027289087E+02  0.26846662802E+02  0.51100000000E-03 0. -1.
        -11    1    3    3    0    0 -0.20378410270E+01  0.30145022229E+01  0.20481286889E+01  0.41755060880E+01  0.51100000000E-03 0.  1.
        -12    1    3    3    0    0 -0.78443461678E+01  0.49744891755E+01  0.11930615159E+02  0.15120148393E+02  0.00000000000E+00 0.  1.
</event>
<event>
 7    1  0.3846293E-008  0.4614232E+02  0.7816164E-02  0.1320468E+00
        -11   -1    0    0    0    0  0.00000000000E+00  0.00000000000E+00  0.45593999997E+02  0.45594000000E+02  0.51100000000E-03 0. -1.
         11   -1    0    0    0    0 -0.00000000000E+00 -0.00000000000E+00 -0.45593999997E+02  0.45594000000E+02  0.51100000000E-03 0.  1.
    9900012    2    1    2    0    0 -0.15499620962E+02  0.41030198310E+02 -0.10266359496E+02  0.46142316959E+02  0.99999926841E+01 0.  0.
        -12    1    1    2    0    0  0.15499620962E+02 -0.41030198310E+02  0.10266359496E+02  0.45045683041E+02  0.00000000000E+00 0.  1.
         11    1    3    3    0    0 -0.17895445605E+01  0.60764121714E+00  0.64749527642E+00  0.19977357125E+01  0.51100000000E-03 0.  1.
        -11    1    3    3    0    0 -0.67581840957E+00  0.20292649334E+01 -0.11969883234E+01  0.24510055080E+01  0.51100000000E-03 0. -1.
        -12    1    3    3    0    0 -0.13034257992E+02  0.38393292160E+02 -0.97168664488E+01  0.41693575738E+02  0.00000000000E+00 0.  1.
</event>
<event>
 7    1  0.3846293E-008  0.4614232E+02  0.7816164E-02  0.1320468E+00
        -11   -1    0    0    0    0  0.00000000000E+00  0.00000000000E+00  0.45593999997E+02  0.45594000000E+02  0.51100000000E-03 0.  1.
         11   -1    0    0    0    0 -0.00000000000E+00 -0.00000000000E+00 -0.45593999997E+02  0.45594000000E+02  0.51100000000E-03 0. -1.
    9900012    2    1    2    0    0 -0.23354796238E+02  0.92566869735E+01 -0.37389580553E+02  0.46142317688E+02  0.99999993299E+01 0.  0.
        -12    1    1    2    0    0  0.23354796238E+02 -0.92566869735E+01  0.37389580553E+02  0.45045682312E+02  0.00000000000E+00 0.  1.
         11    1    3    3    0    0 -0.17012593343E+02  0.41719142899E+01 -0.27301289478E+02  0.32437533946E+02  0.51100000000E-03 0. -1.
        -11    1    3    3    0    0  0.87177452133E-01 -0.42992108218E+00  0.10534505053E+00  0.45114286635E+00  0.51100000000E-03 0.  1.
         12    1    3    3    0    0 -0.64293803466E+01  0.55146937658E+01 -0.10193636126E+02  0.13253640875E+02  0.00000000000E+00 0. -1.
</event>
<event>
 7    1  0.3846293E-008  0.4614232E+02  0.7816164E-02  0.1320468E+00
        -11   -1    0    0    0    0  0.00000000000E+00  0.00000000000E+00  0.45593999997E+02  0.45594000000E+02  0.51100000000E-03 0. -1.
         11   -1    0    0    0    0 -0.00000000000E+00 -0.00000000000E+00 -0.45593999997E+02  0.45594000000E+02  0.51100000000E-03 0.  1.
    9900012    2    1    2    0    0  0.30115246820E+02  0.31071022200E+02  0.12521062025E+02  0.46142317567E+02  0.99999982296E+01 0.  0.
        -12    1    1    2    0    0 -0.30115246820E+02 -0.31071022200E+02 -0.12521062025E+02  0.45045682433E+02  0.00000000000E+00 0.  1.
         11    1    3    3    0    0  0.69476958443E+01  0.12380237498E+02  0.42066112344E+01  0.14806631501E+02  0.51100000000E-03 0. -1.
        -11    1    3    3    0    0  0.53815717044E+01  0.54106897577E+01 -0.39301235863E-02  0.76313100691E+01  0.51100000000E-03 0.  1.
         12    1    3    3    0    0  0.17785979272E+02  0.13280094944E+02  0.83183809143E+01  0.23704375997E+02  0.00000000000E+00 0. -1.
</event>
<event>
 7    1  0.3846293E-008  0.4614232E+02  0.7816164E-02  0.1320468E+00
        -11   -1    0    0    0    0  0.00000000000E+00  0.00000000000E+00  0.45593999997E+02  0.45594000000E+02  0.51100000000E-03 0. -1.
         11   -1    0    0    0    0 -0.00000000000E+00 -0.00000000000E+00 -0.45593999997E+02  0.45594000000E+02  0.51100000000E-03 0.  1.
    9900012    2    1    2    0    0  0.44677932465E+02 -0.45680268585E+01  0.34826629427E+01  0.46142318077E+02  0.10000002884E+02 0.  0.
        -12    1    1    2    0    0 -0.44677932465E+02  0.45680268585E+01 -0.34826629427E+01  0.45045681923E+02  0.00000000000E+00 0.  1.
         11    1    3    3    0    0  0.29295292429E+02 -0.62567753218E+01 -0.87498376599E+00  0.29968766955E+02  0.51100000000E-03 0. -1.
        -11    1    3    3    0    0  0.33602279398E+01  0.10734678402E+01  0.74912036500E+00  0.36061955845E+01  0.51100000000E-03 0.  1.
         12    1    3    3    0    0  0.12022412096E+02  0.61528062310E+00  0.36085263437E+01  0.12567355538E+02  0.00000000000E+00 0. -1.
</event>
<event>
 7    1  0.3846293E-008  0.4614232E+02  0.7816164E-02  0.1320468E+00
        -11   -1    0    0    0    0  0.00000000000E+00  0.00000000000E+00  0.45593999997E+02  0.45594000000E+02  0.51100000000E-03 0.  1.
         11   -1    0    0    0    0 -0.00000000000E+00 -0.00000000000E+00 -0.45593999997E+02  0.45594000000E+02  0.51100000000E-03 0. -1.
    9900012    2    1    2    0    0  0.16245157449E+02  0.30308173351E+02 -0.29096787731E+02  0.46142316869E+02  0.99999918686E+01 0.  0.
        -12    1    1    2    0    0 -0.16245157449E+02 -0.30308173351E+02  0.29096787731E+02  0.45045683131E+02  0.00000000000E+00 0.  1.
         11    1    3    3    0    0  0.47994059335E+01  0.13241843401E+02 -0.10043882588E+02  0.17299141357E+02  0.51100000000E-03 0. -1.
        -11    1    3    3    0    0  0.80757226874E-01 -0.60298483415E+00 -0.28329031141E+00  0.67109321377E+00  0.51100000000E-03 0.  1.
        -12    1    3    3    0    0  0.11364994288E+02  0.17669314784E+02 -0.18769614832E+02  0.28172082299E+02  0.00000000000E+00 0.  1.
</event>
<event>
 7    1  0.3846293E-008  0.4614232E+02  0.7816164E-02  0.1320468E+00
        -11   -1    0    0    0    0  0.00000000000E+00  0.00000000000E+00  0.45593999997E+02  0.45594000000E+02  0.51100000000E-03 0. -1.
         11   -1    0    0    0    0 -0.00000000000E+00 -0.00000000000E+00 -0.45593999997E+02  0.45594000000E+02  0.51100000000E-03 0.  1.
    9900012    2    1    2    0    0  0.11946978465E+02 -0.42987720743E+02  0.61999059700E+01  0.46142320261E+02  0.10000022797E+02 0.  0.
        -12    1    1    2    0    0 -0.11946978465E+02  0.42987720743E+02 -0.61999059700E+01  0.45045679739E+02  0.00000000000E+00 0.  1.
         11    1    3    3    0    0  0.50792347309E+00 -0.12618851812E+02 -0.46141529681E+00  0.12637496257E+02  0.51100000000E-03 0. -1.
        -11    1    3    3    0    0  0.95979107935E+01 -0.26804486815E+02  0.41502482475E+01  0.28771947550E+02  0.51100000000E-03 0.  1.
         12    1    3    3    0    0  0.18411441982E+01 -0.35643821154E+01  0.25110730193E+01  0.47328764543E+01  0.00000000000E+00 0. -1.
</event>
<event>
 7    1  0.3846293E-008  0.4614232E+02  0.7816164E-02  0.1320468E+00
        -11   -1    0    0    0    0  0.00000000000E+00  0.00000000000E+00  0.45593999997E+02  0.45594000000E+02  0.51100000000E-03 0.  1.
         11   -1    0    0    0    0 -0.00000000000E+00 -0.00000000000E+00 -0.45593999997E+02  0.45594000000E+02  0.51100000000E-03 0. -1.
    9900012    2    1    2    0    0  0.31410503504E+02 -0.28721364221E+02 -0.14750489553E+02  0.46142318352E+02  0.10000005387E+02 0.  0.
        -12    1    1    2    0    0 -0.31410503504E+02  0.28721364221E+02  0.14750489553E+02  0.45045681648E+02  0.00000000000E+00 0.  1.
         11    1    3    3    0    0  0.47580250595E+01 -0.24696837372E+01 -0.42571077699E+00  0.53776733032E+01  0.51100000000E-03 0. -1.
        -11    1    3    3    0    0  0.52669037761E+01 -0.15931841625E+01 -0.25595180778E+01  0.60687432154E+01  0.51100000000E-03 0.  1.
         12    1    3    3    0    0  0.21385574669E+02 -0.24658496321E+02 -0.11765260698E+02  0.34695901833E+02  0.00000000000E+00 0. -1.
</event>
<event>
 7    1  0.3846293E-008  0.4614232E+02  0.7816164E-02  0.1320468E+00
        -11   -1    0    0    0    0  0.00000000000E+00  0.00000000000E+00  0.45593999997E+02  0.45594000000E+02  0.51100000000E-03 0. -1.
         11   -1    0    0    0    0 -0.00000000000E+00 -0.00000000000E+00 -0.45593999997E+02  0.45594000000E+02  0.51100000000E-03 0.  1.
    9900012    2    1    2    0    0 -0.21307352944E+01  0.49051694785E+01  0.44727092157E+02  0.46142317706E+02  0.99999994941E+01 0.  0.
        -12    1    1    2    0    0  0.21307352944E+01 -0.49051694785E+01 -0.44727092157E+02  0.45045682294E+02  0.00000000000E+00 0.  1.
         11    1    3    3    0    0 -0.16801186563E+01  0.21154630855E+00  0.24566241444E+02  0.24624535925E+02  0.51100000000E-03 0. -1.
        -11    1    3    3    0    0  0.16212934304E+01  0.45806006392E+01  0.17390062917E+02  0.18056156378E+02  0.51100000000E-03 0.  1.
         12    1    3    3    0    0 -0.20719100685E+01  0.11302253069E+00  0.27707877957E+01  0.34616254033E+01  0.00000000000E+00 0. -1.
</event>
<event>
 7    1  0.3846293E-008  0.4614232E+02  0.7816164E-02  0.1320468E+00
        -11   -1    0    0    0    0  0.00000000000E+00  0.00000000000E+00  0.45593999997E+02  0.45594000000E+02  0.51100000000E-03 0.  1.
         11   -1    0    0    0    0 -0.00000000000E+00 -0.00000000000E+00 -0.45593999997E+02  0.45594000000E+02  0.51100000000E-03 0. -1.
    9900012    2    1    2    0    0 -0.25233085926E+02 -0.16792128786E+02 -0.33323105286E+02  0.46142316961E+02  0.99999927073E+01 0.  0.
        -12    1    1    2    0    0  0.25233085926E+02  0.16792128786E+02  0.33323105286E+02  0.45045683039E+02  0.00000000000E+00 0.  1.
         11    1    3    3    0    0 -0.12775589988E+02 -0.79306120007E+01 -0.11676183878E+02  0.19037950952E+02  0.51100000000E-03 0. -1.
        -11    1    3    3    0    0 -0.45965795255E+01 -0.23840520131E+00 -0.70023558633E+01  0.83796401040E+01  0.51100000000E-03 0.  1.
         12    1    3    3    0    0 -0.78609164125E+01 -0.86231115840E+01 -0.14644565545E+02  0.18724725905E+02  0.00000000000E+00 0. -1.
</event>
<event>
 7    1  0.3846293E-008  0.4614232E+02  0.7816164E-02  0.1320468E+00
        -11   -1    0    0    0    0  0.00000000000E+00  0.00000000000E+00  0.45593999997E+02  0.45594000000E+02  0.51100000000E-03 0.  1.
         11   -1    0    0    0    0 -0.00000000000E+00 -0.00000000000E+00 -0.45593999997E+02  0.45594000000E+02  0.51100000000E-03 0. -1.
    9900012    2    1    2    0    0 -0.18000990726E+02  0.24885073694E+02 -0.32951644470E+02  0.46142318374E+02  0.10000005592E+02 0.  0.
        -12    1    1    2    0    0  0.18000990726E+02 -0.24885073694E+02  0.32951644470E+02  0.45045681626E+02  0.00000000000E+00 0.  1.
         11    1    3    3    0    0 -0.41856102368E+01  0.62796671027E+01 -0.71769445828E+01  0.10414513228E+02  0.51100000000E-03 0. -1.
        -11    1    3    3    0    0 -0.78534064065E+01  0.67954901619E+01 -0.16767412109E+02  0.19723102895E+02  0.51100000000E-03 0.  1.
        -12    1    3    3    0    0 -0.59619740824E+01  0.11809916429E+02 -0.90072877781E+01  0.16004702251E+02  0.00000000000E+00 0.  1.
</event>
<event>
 7    1  0.3846293E-008  0.4614232E+02  0.7816164E-02  0.1320468E+00
        -11   -1    0    0    0    0  0.00000000000E+00  0.00000000000E+00  0.45593999997E+02  0.45594000000E+02  0.51100000000E-03 0. -1.
         11   -1    0    0    0    0 -0.00000000000E+00 -0.00000000000E+00 -0.45593999997E+02  0.45594000000E+02  0.51100000000E-03 0.  1.
    9900012    2    1    2    0    0 -0.16738069821E+02  0.41400000185E+02 -0.59152877751E+01  0.46142316232E+02  0.99999860594E+01 0.  0.
        -12    1    1    2    0    0  0.16738069821E+02 -0.41400000185E+02  0.59152877751E+01  0.45045683768E+02  0.00000000000E+00 0.  1.
         11    1    3    3    0    0 -0.60103679524E+01  0.21929910387E+02 -0.26761779874E+01  0.22895576459E+02  0.51100000000E-03 0.  1.
        -11    1    3    3    0    0 -0.34987759808E+01  0.88655756100E+01  0.13305452526E+01  0.96234201399E+01  0.51100000000E-03 0. -1.
         12    1    3    3    0    0 -0.72289258874E+01  0.10604514188E+02 -0.45696550404E+01  0.13623319634E+02  0.00000000000E+00 0. -1.
</event>
<event>
 7    1  0.3846293E-008  0.4614232E+02  0.7816164E-02  0.1320468E+00
        -11   -1    0    0    0    0  0.00000000000E+00  0.00000000000E+00  0.45593999997E+02  0.45594000000E+02  0.51100000000E-03 0.  1.
         11   -1    0    0    0    0 -0.00000000000E+00 -0.00000000000E+00 -0.45593999997E+02  0.45594000000E+02  0.51100000000E-03 0. -1.
    9900012    2    1    2    0    0 -0.34025084705E+02 -0.20014392406E+02 -0.21698645794E+02  0.46142317389E+02  0.99999966077E+01 0.  0.
        -12    1    1    2    0    0  0.34025084705E+02  0.20014392406E+02  0.21698645794E+02  0.45045682611E+02  0.00000000000E+00 0.  1.
         11    1    3    3    0    0 -0.15753663014E+02 -0.88490671202E+01 -0.14229861872E+02  0.22999409915E+02  0.51100000000E-03 0. -1.
        -11    1    3    3    0    0 -0.35547951584E+01 -0.25323764230E+01  0.34244773262E+00  0.43779869433E+01  0.51100000000E-03 0.  1.
         12    1    3    3    0    0 -0.14716626533E+02 -0.86329488628E+01 -0.78112316541E+01  0.18764920531E+02  0.00000000000E+00 0. -1.
</event>
<event>
 7    1  0.3846293E-008  0.4614232E+02  0.7816164E-02  0.1320468E+00
        -11   -1    0    0    0    0  0.00000000000E+00  0.00000000000E+00  0.45593999997E+02  0.45594000000E+02  0.51100000000E-03 0.  1.
         11   -1    0    0    0    0 -0.00000000000E+00 -0.00000000000E+00 -0.45593999997E+02  0.45594000000E+02  0.51100000000E-03 0. -1.
    9900012    2    1    2    0    0  0.37306340401E+02 -0.17111652980E+02 -0.18561837192E+02  0.46142317612E+02  0.99999986429E+01 0.  0.
        -12    1    1    2    0    0 -0.37306340401E+02  0.17111652980E+02  0.18561837192E+02  0.45045682388E+02  0.00000000000E+00 0.  1.
         11    1    3    3    0    0  0.24674113294E+02 -0.80114283859E+01 -0.12295073559E+02  0.28708251178E+02  0.51100000000E-03 0. -1.
        -11    1    3    3    0    0  0.51736810546E+01 -0.44123525187E+01 -0.52003126854E+01  0.85603202447E+01  0.51100000000E-03 0.  1.
        -12    1    3    3    0    0  0.74585460526E+01 -0.46878720756E+01 -0.10664509480E+01  0.88737461898E+01  0.00000000000E+00 0.  1.
</event>
<event>
 7    1  0.3846293E-008  0.4614232E+02  0.7816164E-02  0.1320468E+00
        -11   -1    0    0    0    0  0.00000000000E+00  0.00000000000E+00  0.45593999997E+02  0.45594000000E+02  0.51100000000E-03 0.  1.
         11   -1    0    0    0    0 -0.00000000000E+00 -0.00000000000E+00 -0.45593999997E+02  0.45594000000E+02  0.51100000000E-03 0. -1.
    9900012    2    1    2    0    0  0.39760636673E+02 -0.64960636508E+01 -0.20149601723E+02  0.46142317397E+02  0.99999966772E+01 0.  0.
        -12    1    1    2    0    0 -0.39760636673E+02  0.64960636508E+01  0.20149601723E+02  0.45045682603E+02  0.00000000000E+00 0.  1.
         11    1    3    3    0    0  0.20704188222E+02 -0.75974272007E+01 -0.10450744562E+02  0.24404966137E+02  0.51100000000E-03 0. -1.
        -11    1    3    3    0    0  0.10563427220E+02  0.21372553545E+00 -0.33077720490E+01  0.11071270453E+02  0.51100000000E-03 0.  1.
         12    1    3    3    0    0  0.84930212305E+01  0.88763801437E+00 -0.63910851122E+01  0.10666080807E+02  0.00000000000E+00 0. -1.
</event>
<event>
 7    1  0.3846293E-008  0.4614232E+02  0.7816164E-02  0.1320468E+00
        -11   -1    0    0    0    0  0.00000000000E+00  0.00000000000E+00  0.45593999997E+02  0.45594000000E+02  0.51100000000E-03 0.  1.
         11   -1    0    0    0    0 -0.00000000000E+00 -0.00000000000E+00 -0.45593999997E+02  0.45594000000E+02  0.51100000000E-03 0. -1.
    9900012    2    1    2    0    0  0.27827080221E+02  0.13563333945E+02 -0.32723121630E+02  0.46142321955E+02  0.10000038244E+02 0.  0.
        -12    1    1    2    0    0 -0.27827080221E+02 -0.13563333945E+02  0.32723121630E+02  0.45045678045E+02  0.00000000000E+00 0.  1.
         11    1    3    3    0    0  0.17962875867E+02  0.45085469706E+01 -0.20467849453E+02  0.27602984743E+02  0.51100000000E-03 0. -1.
        -11    1    3    3    0    0  0.52433437082E+01  0.53058032083E+01 -0.92193922799E+01  0.11859232488E+02  0.51100000000E-03 0.  1.
         12    1    3    3    0    0  0.46208606454E+01  0.37489837661E+01 -0.30358798964E+01  0.66801047244E+01  0.00000000000E+00 0. -1.
</event>
<event>
 7    1  0.3846293E-008  0.4614232E+02  0.7816164E-02  0.1320468E+00
        -11   -1    0    0    0    0  0.00000000000E+00  0.00000000000E+00  0.45593999997E+02  0.45594000000E+02  0.51100000000E-03 0.  1.
         11   -1    0    0    0    0 -0.00000000000E+00 -0.00000000000E+00 -0.45593999997E+02  0.45594000000E+02  0.51100000000E-03 0. -1.
    9900012    2    1    2    0    0  0.15939049459E+02 -0.37899891448E+02 -0.18402673270E+02  0.46142318154E+02  0.10000003586E+02 0.  0.
        -12    1    1    2    0    0 -0.15939049459E+02  0.37899891448E+02  0.18402673270E+02  0.45045681846E+02  0.00000000000E+00 0.  1.
         11    1    3    3    0    0  0.64268243391E+01 -0.15802602134E+02 -0.80821944803E+01  0.18877186580E+02  0.51100000000E-03 0. -1.
        -11    1    3    3    0    0  0.38681219458E+01 -0.15526511984E+02 -0.93910932397E+01  0.18553370968E+02  0.51100000000E-03 0.  1.
        -12    1    3    3    0    0  0.56441031745E+01 -0.65707773306E+01 -0.92938555041E+00  0.87117606070E+01  0.00000000000E+00 0.  1.
</event>
<event>
 7    1  0.3846293E-008  0.4614232E+02  0.7816164E-02  0.1320468E+00
        -11   -1    0    0    0    0  0.00000000000E+00  0.00000000000E+00  0.45593999997E+02  0.45594000000E+02  0.51100000000E-03 0.  1.
         11   -1    0    0    0    0 -0.00000000000E+00 -0.00000000000E+00 -0.45593999997E+02  0.45594000000E+02  0.51100000000E-03 0. -1.
    9900012    2    1    2    0    0  0.33501404872E+02 -0.18795023602E+02 -0.23526931358E+02  0.46142317191E+02  0.99999948030E+01 0.  0.
        -12    1    1    2    0    0 -0.33501404872E+02  0.18795023602E+02  0.23526931358E+02  0.45045682809E+02  0.00000000000E+00 0.  1.
         11    1    3    3    0    0  0.58786241772E+00  0.15217398500E+00 -0.17612204456E+01  0.18629645361E+01  0.51100000000E-03 0. -1.
        -11    1    3    3    0    0  0.35059136381E+01 -0.45734214543E+01 -0.42058138725E+01  0.71341772355E+01  0.51100000000E-03 0.  1.
         12    1    3    3    0    0  0.29407628816E+02 -0.14373776132E+02 -0.17559897040E+02  0.37145175420E+02  0.00000000000E+00 0. -1.
</event>
<event>
 7    1  0.3846293E-008  0.4614232E+02  0.7816164E-02  0.1320468E+00
        -11   -1    0    0    0    0  0.00000000000E+00  0.00000000000E+00  0.45593999997E+02  0.45594000000E+02  0.51100000000E-03 0. -1.
         11   -1    0    0    0    0 -0.00000000000E+00 -0.00000000000E+00 -0.45593999997E+02  0.45594000000E+02  0.51100000000E-03 0.  1.
    9900012    2    1    2    0    0 -0.33244870656E+02 -0.20885161646E+02  0.22083976211E+02  0.46142318662E+02  0.10000008216E+02 0.  0.
        -12    1    1    2    0    0  0.33244870656E+02  0.20885161646E+02 -0.22083976211E+02  0.45045681338E+02  0.00000000000E+00 0.  1.
         11    1    3    3    0    0 -0.21589899680E+02 -0.13004284235E+02  0.89745349158E+01  0.26754017528E+02  0.51100000000E-03 0. -1.
        -11    1    3    3    0    0 -0.43451903696E+01 -0.23118613423E+01  0.60562537890E+01  0.78040753733E+01  0.51100000000E-03 0.  1.
         12    1    3    3    0    0 -0.73097806057E+01 -0.55690160692E+01  0.70531875065E+01  0.11584225761E+02  0.00000000000E+00 0. -1.
</event>
<event>
 7    1  0.3846293E-008  0.4614232E+02  0.7816164E-02  0.1320468E+00
        -11   -1    0    0    0    0  0.00000000000E+00  0.00000000000E+00  0.45593999997E+02  0.45594000000E+02  0.51100000000E-03 0.  1.
         11   -1    0    0    0    0 -0.00000000000E+00 -0.00000000000E+00 -0.45593999997E+02  0.45594000000E+02  0.51100000000E-03 0. -1.
    9900012    2    1    2    0    0 -0.18972721456E+02 -0.55410079862E+01 -0.40477727250E+02  0.46142319493E+02  0.10000015797E+02 0.  0.
        -12    1    1    2    0    0  0.18972721456E+02  0.55410079862E+01  0.40477727250E+02  0.45045680507E+02  0.00000000000E+00 0.  1.
         11    1    3    3    0    0 -0.49302646881E+01 -0.47559872774E+01 -0.16813172264E+02  0.18155155927E+02  0.51100000000E-03 0. -1.
        -11    1    3    3    0    0 -0.12503923692E+02 -0.67009344772E+00 -0.23220686348E+02  0.26381762785E+02  0.51100000000E-03 0.  1.
        -12    1    3    3    0    0 -0.15385330757E+01 -0.11492726106E+00 -0.44386863785E+00  0.16054007811E+01  0.00000000000E+00 0.  1.
</event>
<event>
 7    1  0.3846293E-008  0.4614232E+02  0.7816164E-02  0.1320468E+00
        -11   -1    0    0    0    0  0.00000000000E+00  0.00000000000E+00  0.45593999997E+02  0.45594000000E+02  0.51100000000E-03 0.  1.
         11   -1    0    0    0    0 -0.00000000000E+00 -0.00000000000E+00 -0.45593999997E+02  0.45594000000E+02  0.51100000000E-03 0. -1.
    9900012    2    1    2    0    0 -0.13563315214E+02  0.35616421093E+02 -0.24012923923E+02  0.46142317783E+02  0.10000000203E+02 0.  0.
        -12    1    1    2    0    0  0.13563315214E+02 -0.35616421093E+02  0.24012923923E+02  0.45045682217E+02  0.00000000000E+00 0.  1.
         11    1    3    3    0    0 -0.10387759865E+02  0.21423078544E+02 -0.16466690804E+02  0.28948329064E+02  0.51100000000E-03 0. -1.
        -11    1    3    3    0    0 -0.42513882852E+01  0.10797498372E+02 -0.43026454603E+01  0.12376309291E+02  0.51100000000E-03 0.  1.
        -12    1    3    3    0    0  0.10758329355E+01  0.33958441767E+01 -0.32435876584E+01  0.48176794284E+01  0.00000000000E+00 0.  1.
</event>
<event>
 7    1  0.3846293E-008  0.4614232E+02  0.7816164E-02  0.1320468E+00
        -11   -1    0    0    0    0  0.00000000000E+00  0.00000000000E+00  0.45593999997E+02  0.45594000000E+02  0.51100000000E-03 0.  1.
         11   -1    0    0    0    0 -0.00000000000E+00 -0.00000000000E+00 -0.45593999997E+02  0.45594000000E+02  0.51100000000E-03 0. -1.
    9900012    2    1    2    0    0 -0.47636927013E+01  0.22172495305E+02 -0.38920446435E+02  0.46142317999E+02  0.10000002169E+02 0.  0.
        -12    1    1    2    0    0  0.47636927013E+01 -0.22172495305E+02  0.38920446435E+02  0.45045682001E+02  0.00000000000E+00 0.  1.
         11    1    3    3    0    0 -0.21807727620E+01  0.10635140527E+02 -0.27229728491E+02  0.29314162070E+02  0.51100000000E-03 0. -1.
        -11    1    3    3    0    0 -0.51039590194E-01  0.17016903287E+01 -0.63893217642E+00  0.18184030361E+01  0.51100000000E-03 0.  1.
        -12    1    3    3    0    0 -0.25318803491E+01  0.98356644491E+01 -0.11051785768E+02  0.15009752893E+02  0.00000000000E+00 0.  1.
</event>
<event>
 7    1  0.3846293E-008  0.4614231E+02  0.7816164E-02  0.1320468E+00
        -11   -1    0    0    0    0  0.00000000000E+00  0.00000000000E+00  0.45593999997E+02  0.45594000000E+02  0.51100000000E-03 0.  1.
         11   -1    0    0    0    0 -0.00000000000E+00 -0.00000000000E+00 -0.45593999997E+02  0.45594000000E+02  0.51100000000E-03 0. -1.
    9900012    2    1    2    0    0  0.52434118105E+01  0.37351577354E+02 -0.24626819466E+02  0.46142312801E+02  0.99999547692E+01 0.  0.
        -12    1    1    2    0    0 -0.52434118105E+01 -0.37351577354E+02  0.24626819466E+02  0.45045687199E+02  0.00000000000E+00 0.  1.
         11    1    3    3    0    0 -0.67667288192E+00  0.11633106658E+01  0.36046653633E+00  0.13932387733E+01  0.51100000000E-03 0.  1.
        -11    1    3    3    0    0 -0.11129534093E+01  0.56248169856E+01 -0.32586410123E+01  0.65951476800E+01  0.51100000000E-03 0. -1.
        -12    1    3    3    0    0  0.70330381017E+01  0.30563449702E+02 -0.21728644990E+02  0.38153926348E+02  0.00000000000E+00 0.  1.
</event>
<event>
 7    1  0.3846293E-008  0.4614232E+02  0.7816164E-02  0.1320468E+00
        -11   -1    0    0    0    0  0.00000000000E+00  0.00000000000E+00  0.45593999997E+02  0.45594000000E+02  0.51100000000E-03 0.  1.
         11   -1    0    0    0    0 -0.00000000000E+00 -0.00000000000E+00 -0.45593999997E+02  0.45594000000E+02  0.51100000000E-03 0. -1.
    9900012    2    1    2    0    0 -0.32984852008E+02 -0.14872119238E+02  0.26831564587E+02  0.46142320398E+02  0.10000024048E+02 0.  0.
        -12    1    1    2    0    0  0.32984852008E+02  0.14872119238E+02 -0.26831564587E+02  0.45045679602E+02  0.00000000000E+00 0.  1.
         11    1    3    3    0    0 -0.20286507588E+02 -0.11156155618E+02  0.14600595152E+02  0.27371144977E+02  0.51100000000E-03 0. -1.
        -11    1    3    3    0    0 -0.57296770777E+01 -0.14210018828E+01  0.21065505512E+01  0.62678545972E+01  0.51100000000E-03 0.  1.
        -12    1    3    3    0    0 -0.69686673419E+01 -0.22949617375E+01  0.10124418884E+02  0.12503320824E+02  0.00000000000E+00 0.  1.
</event>
<event>
 7    1  0.3846293E-008  0.4614232E+02  0.7816164E-02  0.1320468E+00
        -11   -1    0    0    0    0  0.00000000000E+00  0.00000000000E+00  0.45593999997E+02  0.45594000000E+02  0.51100000000E-03 0. -1.
         11   -1    0    0    0    0 -0.00000000000E+00 -0.00000000000E+00 -0.45593999997E+02  0.45594000000E+02  0.51100000000E-03 0.  1.
    9900012    2    1    2    0    0 -0.25007129053E+02 -0.28375787840E+02  0.24465725700E+02  0.46142316821E+02  0.99999914248E+01 0.  0.
        -12    1    1    2    0    0  0.25007129053E+02  0.28375787840E+02 -0.24465725700E+02  0.45045683179E+02  0.00000000000E+00 0.  1.
         11    1    3    3    0    0 -0.79974654351E+01 -0.12481785671E+02  0.91360956885E+01  0.17413290086E+02  0.51100000000E-03 0.  1.
        -11    1    3    3    0    0 -0.46551920006E+01 -0.22744000490E+01  0.65526679260E+01  0.83535121569E+01  0.51100000000E-03 0. -1.
         12    1    3    3    0    0 -0.12354471618E+02 -0.13619602120E+02  0.87769620859E+01  0.20375514578E+02  0.00000000000E+00 0. -1.
</event>
<event>
 7    1  0.3846293E-008  0.4614232E+02  0.7816164E-02  0.1320468E+00
        -11   -1    0    0    0    0  0.00000000000E+00  0.00000000000E+00  0.45593999997E+02  0.45594000000E+02  0.51100000000E-03 0.  1.
         11   -1    0    0    0    0 -0.00000000000E+00 -0.00000000000E+00 -0.45593999997E+02  0.45594000000E+02  0.51100000000E-03 0. -1.
    9900012    2    1    2    0    0 -0.41082122268E+02 -0.15057407349E+02 -0.10707341836E+02  0.46142318128E+02  0.10000003348E+02 0.  0.
        -12    1    1    2    0    0  0.41082122268E+02  0.15057407349E+02  0.10707341836E+02  0.45045681872E+02  0.00000000000E+00 0.  1.
         11    1    3    3    0    0 -0.11782702082E+01 -0.51764763701E+00 -0.10762689429E+01  0.16776873542E+01  0.51100000000E-03 0. -1.
        -11    1    3    3    0    0 -0.35010514990E+02 -0.11144786317E+02 -0.11001457202E+02  0.38353285163E+02  0.51100000000E-03 0.  1.
        -12    1    3    3    0    0 -0.48933370689E+01 -0.33949733955E+01  0.13703843090E+01  0.61113456113E+01  0.00000000000E+00 0.  1.
</event>
<event>
 7    1  0.3846293E-008  0.4614232E+02  0.7816164E-02  0.1320468E+00
        -11   -1    0    0    0    0  0.00000000000E+00  0.00000000000E+00  0.45593999997E+02  0.45594000000E+02  0.51100000000E-03 0.  1.
         11   -1    0    0    0    0 -0.00000000000E+00 -0.00000000000E+00 -0.45593999997E+02  0.45594000000E+02  0.51100000000E-03 0. -1.
    9900012    2    1    2    0    0 -0.11443712333E+01  0.20575181150E+02 -0.40055783856E+02  0.46142317796E+02  0.10000000321E+02 0.  0.
        -12    1    1    2    0    0  0.11443712333E+01 -0.20575181150E+02  0.40055783856E+02  0.45045682204E+02  0.00000000000E+00 0.  1.
         11    1    3    3    0    0  0.26436794613E+01  0.10625477263E+02 -0.19001425574E+02  0.21930435068E+02  0.51100000000E-03 0. -1.
        -11    1    3    3    0    0  0.16779551870E+00  0.29367781892E+00  0.29501534976E+00  0.44881657182E+00  0.51100000000E-03 0.  1.
         12    1    3    3    0    0 -0.39558462133E+01  0.96560260683E+01 -0.21349373632E+02  0.23763066157E+02  0.00000000000E+00 0. -1.
</event>
<event>
 7    1  0.3846293E-008  0.4614232E+02  0.7816164E-02  0.1320468E+00
        -11   -1    0    0    0    0  0.00000000000E+00  0.00000000000E+00  0.45593999997E+02  0.45594000000E+02  0.51100000000E-03 0. -1.
         11   -1    0    0    0    0 -0.00000000000E+00 -0.00000000000E+00 -0.45593999997E+02  0.45594000000E+02  0.51100000000E-03 0.  1.
    9900012    2    1    2    0    0  0.30604000610E+02 -0.90681484696E+01  0.31784856898E+02  0.46142319874E+02  0.10000019266E+02 0.  0.
        -12    1    1    2    0    0 -0.30604000610E+02  0.90681484696E+01 -0.31784856898E+02  0.45045680126E+02  0.00000000000E+00 0.  1.
         11    1    3    3    0    0  0.27671621897E+01  0.95549281947E+00  0.50239032367E+01  0.58146158175E+01  0.51100000000E-03 0. -1.
        -11    1    3    3    0    0  0.21807724121E+02 -0.56162229465E+01  0.18101630121E+02  0.28892694662E+02  0.51100000000E-03 0.  1.
         12    1    3    3    0    0  0.60291142994E+01 -0.44074183425E+01  0.86593235402E+01  0.11435009395E+02  0.00000000000E+00 0. -1.
</event>
<event>
 7    1  0.3846293E-008  0.4614232E+02  0.7816164E-02  0.1320468E+00
        -11   -1    0    0    0    0  0.00000000000E+00  0.00000000000E+00  0.45593999997E+02  0.45594000000E+02  0.51100000000E-03 0.  1.
         11   -1    0    0    0    0 -0.00000000000E+00 -0.00000000000E+00 -0.45593999997E+02  0.45594000000E+02  0.51100000000E-03 0. -1.
    9900012    2    1    2    0    0  0.32021177693E+02  0.21250965955E+02  0.23497960054E+02  0.46142317615E+02  0.99999986698E+01 0.  0.
        -12    1    1    2    0    0 -0.32021177693E+02 -0.21250965955E+02 -0.23497960054E+02  0.45045682385E+02  0.00000000000E+00 0.  1.
         11    1    3    3    0    0  0.25184168582E+02  0.17443974028E+02  0.14310263717E+02  0.33812988997E+02  0.51100000000E-03 0. -1.
        -11    1    3    3    0    0  0.19701648097E+00 -0.22558662955E+00  0.99457665045E+00  0.10386952373E+01  0.51100000000E-03 0.  1.
         12    1    3    3    0    0  0.66399926300E+01  0.40325785564E+01  0.81931196864E+01  0.11290633381E+02  0.00000000000E+00 0. -1.
</event>
<event>
 7    1  0.3846293E-008  0.4614232E+02  0.7816164E-02  0.1320468E+00
        -11   -1    0    0    0    0  0.00000000000E+00  0.00000000000E+00  0.45593999997E+02  0.45594000000E+02  0.51100000000E-03 0.  1.
         11   -1    0    0    0    0 -0.00000000000E+00 -0.00000000000E+00 -0.45593999997E+02  0.45594000000E+02  0.51100000000E-03 0. -1.
    9900012    2    1    2    0    0  0.96474971870E+01 -0.91608786054E+01 -0.43036236963E+02  0.46142316625E+02  0.99999896411E+01 0.  0.
        -12    1    1    2    0    0 -0.96474971870E+01  0.91608786054E+01  0.43036236963E+02  0.45045683375E+02  0.00000000000E+00 0.  1.
         11    1    3    3    0    0  0.44055155061E+01  0.62113756234E+00 -0.11307598005E+02  0.12151384763E+02  0.51100000000E-03 0. -1.
        -11    1    3    3    0    0 -0.51730834896E+00 -0.10156083518E+01 -0.98221599866E+00  0.15045985449E+01  0.51100000000E-03 0.  1.
         12    1    3    3    0    0  0.57592900299E+01 -0.87664078160E+01 -0.30746422959E+02  0.32486333318E+02  0.00000000000E+00 0. -1.
</event>
<event>
 7    1  0.3846293E-008  0.4614232E+02  0.7816164E-02  0.1320468E+00
        -11   -1    0    0    0    0  0.00000000000E+00  0.00000000000E+00  0.45593999997E+02  0.45594000000E+02  0.51100000000E-03 0. -1.
         11   -1    0    0    0    0 -0.00000000000E+00 -0.00000000000E+00 -0.45593999997E+02  0.45594000000E+02  0.51100000000E-03 0.  1.
    9900012    2    1    2    0    0 -0.27666356999E+02 -0.41533174172E+01  0.35304903752E+02  0.46142316698E+02  0.99999903058E+01 0.  0.
        -12    1    1    2    0    0  0.27666356999E+02  0.41533174172E+01 -0.35304903752E+02  0.45045683302E+02  0.00000000000E+00 0.  1.
         11    1    3    3    0    0 -0.11631875767E+02 -0.34349007823E+01  0.18365356955E+02  0.22008757657E+02  0.51100000000E-03 0. -1.
        -11    1    3    3    0    0 -0.62824165393E+01 -0.32642828345E-01  0.11076261654E+02  0.12733946585E+02  0.51100000000E-03 0.  1.
         12    1    3    3    0    0 -0.97520646933E+01 -0.68577380654E+00  0.58632851430E+01  0.11399612457E+02  0.00000000000E+00 0. -1.
</event>
<event>
 7    1  0.3846293E-008  0.4614232E+02  0.7816164E-02  0.1320468E+00
        -11   -1    0    0    0    0  0.00000000000E+00  0.00000000000E+00  0.45593999997E+02  0.45594000000E+02  0.51100000000E-03 0.  1.
         11   -1    0    0    0    0 -0.00000000000E+00 -0.00000000000E+00 -0.45593999997E+02  0.45594000000E+02  0.51100000000E-03 0. -1.
    9900012    2    1    2    0    0 -0.29761865550E+02  0.23685056307E+02 -0.24132198243E+02  0.46142317351E+02  0.99999962567E+01 0.  0.
        -12    1    1    2    0    0  0.29761865550E+02 -0.23685056307E+02  0.24132198243E+02  0.45045682649E+02  0.00000000000E+00 0.  1.
         11    1    3    3    0    0 -0.61785738115E+01  0.67040787120E+01 -0.63974093872E+01  0.11137607142E+02  0.51100000000E-03 0. -1.
        -11    1    3    3    0    0 -0.20512426564E+01  0.42605054635E+01 -0.78523360782E+00  0.47933386402E+01  0.51100000000E-03 0.  1.
         12    1    3    3    0    0 -0.21532049082E+02  0.12720472132E+02 -0.16949555248E+02  0.30211371568E+02  0.00000000000E+00 0. -1.
</event>
<event>
 7    1  0.3846293E-008  0.4614232E+02  0.7816164E-02  0.1320468E+00
        -11   -1    0    0    0    0  0.00000000000E+00  0.00000000000E+00  0.45593999997E+02  0.45594000000E+02  0.51100000000E-03 0. -1.
         11   -1    0    0    0    0 -0.00000000000E+00 -0.00000000000E+00 -0.45593999997E+02  0.45594000000E+02  0.51100000000E-03 0.  1.
    9900012    2    1    2    0    0  0.34542403866E+02  0.16901244353E+02  0.23458126465E+02  0.46142318490E+02  0.10000006645E+02 0.  0.
        -12    1    1    2    0    0 -0.34542403866E+02 -0.16901244353E+02 -0.23458126465E+02  0.45045681510E+02  0.00000000000E+00 0.  1.
         11    1    3    3    0    0  0.34278331063E+02  0.16597087594E+02  0.21104943683E+02  0.43541772417E+02  0.51100000000E-03 0. -1.
        -11    1    3    3    0    0 -0.31561493636E+00  0.34877496998E+00  0.66109453563E+00  0.81135874550E+00  0.51100000000E-03 0.  1.
        -12    1    3    3    0    0  0.57968773889E+00 -0.44618211445E-01  0.16920882466E+01  0.17891873277E+01  0.00000000000E+00 0.  1.
</event>
<event>
 7    1  0.3846293E-008  0.4614232E+02  0.7816164E-02  0.1320468E+00
        -11   -1    0    0    0    0  0.00000000000E+00  0.00000000000E+00  0.45593999997E+02  0.45594000000E+02  0.51100000000E-03 0. -1.
         11   -1    0    0    0    0 -0.00000000000E+00 -0.00000000000E+00 -0.45593999997E+02  0.45594000000E+02  0.51100000000E-03 0.  1.
    9900012    2    1    2    0    0 -0.27361133837E+02  0.11591214967E+02  0.33854477650E+02  0.46142316897E+02  0.99999921172E+01 0.  0.
        -12    1    1    2    0    0  0.27361133837E+02 -0.11591214967E+02 -0.33854477650E+02  0.45045683103E+02  0.00000000000E+00 0.  1.
         11    1    3    3    0    0 -0.11968891134E+02  0.56123028236E+01  0.10480634992E+02  0.16869973564E+02  0.51100000000E-03 0. -1.
        -11    1    3    3    0    0 -0.15295950737E+02  0.57874110480E+01  0.23751928486E+02  0.28837724297E+02  0.51100000000E-03 0.  1.
        -12    1    3    3    0    0 -0.96291966864E-01  0.19150109535E+00 -0.37808582802E+00  0.43461903519E+00  0.00000000000E+00 0.  1.
</event>
<event>
 7    1  0.3846293E-008  0.4614232E+02  0.7816164E-02  0.1320468E+00
        -11   -1    0    0    0    0  0.00000000000E+00  0.00000000000E+00  0.45593999997E+02  0.45594000000E+02  0.51100000000E-03 0.  1.
         11   -1    0    0    0    0 -0.00000000000E+00 -0.00000000000E+00 -0.45593999997E+02  0.45594000000E+02  0.51100000000E-03 0. -1.
    9900012    2    1    2    0    0 -0.27497427584E+02 -0.47409525943E-01 -0.35679165076E+02  0.46142316612E+02  0.99999895201E+01 0.  0.
        -12    1    1    2    0    0  0.27497427584E+02  0.47409525943E-01  0.35679165076E+02  0.45045683388E+02  0.00000000000E+00 0.  1.
         11    1    3    3    0    0 -0.17271924711E+02  0.41204618250E+01 -0.21574380536E+02  0.27941930582E+02  0.51100000000E-03 0. -1.
        -11    1    3    3    0    0 -0.87809059060E+01 -0.25183732029E+01 -0.12504949491E+02  0.15486131672E+02  0.51100000000E-03 0.  1.
        -12    1    3    3    0    0 -0.14445969667E+01 -0.16494981481E+01 -0.15998350488E+01  0.27142543580E+01  0.00000000000E+00 0.  1.
</event>
<event>
 7    1  0.3846293E-008  0.4614231E+02  0.7816164E-02  0.1320468E+00
        -11   -1    0    0    0    0  0.00000000000E+00  0.00000000000E+00  0.45593999997E+02  0.45594000000E+02  0.51100000000E-03 0.  1.
         11   -1    0    0    0    0 -0.00000000000E+00 -0.00000000000E+00 -0.45593999997E+02  0.45594000000E+02  0.51100000000E-03 0. -1.
    9900012    2    1    2    0    0  0.20860557539E+02  0.30629467655E+02 -0.25608336804E+02  0.46142311377E+02  0.99999417839E+01 0.  0.
        -12    1    1    2    0    0 -0.20860557539E+02 -0.30629467655E+02  0.25608336804E+02  0.45045688623E+02  0.00000000000E+00 0.  1.
         11    1    3    3    0    0  0.58041500800E+01  0.57992834995E+01 -0.67529035034E+01  0.10626455347E+02  0.51100000000E-03 0. -1.
        -11    1    3    3    0    0 -0.64775548805E-01 -0.36982898079E+00  0.26069320529E+00  0.45708922013E+00  0.51100000000E-03 0.  1.
        -12    1    3    3    0    0  0.15121183007E+02  0.25200013137E+02 -0.19116126506E+02  0.35058766810E+02  0.00000000000E+00 0.  1.
</event>
<event>
 7    1  0.3846293E-008  0.4614232E+02  0.7816164E-02  0.1320468E+00
        -11   -1    0    0    0    0  0.00000000000E+00  0.00000000000E+00  0.45593999997E+02  0.45594000000E+02  0.51100000000E-03 0. -1.
         11   -1    0    0    0    0 -0.00000000000E+00 -0.00000000000E+00 -0.45593999997E+02  0.45594000000E+02  0.51100000000E-03 0.  1.
    9900012    2    1    2    0    0  0.20103973754E+02  0.40070899637E+02  0.43893768004E+01  0.46142318885E+02  0.10000010247E+02 0.  0.
        -12    1    1    2    0    0 -0.20103973754E+02 -0.40070899637E+02 -0.43893768004E+01  0.45045681115E+02  0.00000000000E+00 0.  1.
         11    1    3    3    0    0  0.23288030940E+01  0.11871863474E+02 -0.11010573354E+01  0.12148118938E+02  0.51100000000E-03 0.  1.
        -11    1    3    3    0    0  0.15344155226E+01  0.48396090487E+01  0.12595296100E+01  0.52309331710E+01  0.51100000000E-03 0. -1.
        -12    1    3    3    0    0  0.16240755138E+02  0.23359427114E+02  0.42309045259E+01  0.28763266776E+02  0.00000000000E+00 0.  1.
</event>
<event>
 7    1  0.3846293E-008  0.4614232E+02  0.7816164E-02  0.1320468E+00
        -11   -1    0    0    0    0  0.00000000000E+00  0.00000000000E+00  0.45593999997E+02  0.45594000000E+02  0.51100000000E-03 0.  1.
         11   -1    0    0    0    0 -0.00000000000E+00 -0.00000000000E+00 -0.45593999997E+02  0.45594000000E+02  0.51100000000E-03 0. -1.
    9900012    2    1    2    0    0 -0.30734884905E+02 -0.19971136805E+02 -0.26184614130E+02  0.46142317937E+02  0.10000001605E+02 0.  0.
        -12    1    1    2    0    0  0.30734884905E+02  0.19971136805E+02  0.26184614130E+02  0.45045682063E+02  0.00000000000E+00 0.  1.
         11    1    3    3    0    0 -0.11804452122E+02 -0.11625024520E+02 -0.97708999537E+01  0.19234260348E+02  0.51100000000E-03 0. -1.
        -11    1    3    3    0    0 -0.53813772599E+01 -0.71982508482E-01 -0.32692485672E+01  0.62970143045E+01  0.51100000000E-03 0.  1.
        -12    1    3    3    0    0 -0.13549055523E+02 -0.82741297763E+01 -0.13144465609E+02  0.20611043284E+02  0.00000000000E+00 0.  1.
</event>
<event>
 7    1  0.3846293E-008  0.4614232E+02  0.7816164E-02  0.1320468E+00
        -11   -1    0    0    0    0  0.00000000000E+00  0.00000000000E+00  0.45593999997E+02  0.45594000000E+02  0.51100000000E-03 0.  1.
         11   -1    0    0    0    0 -0.00000000000E+00 -0.00000000000E+00 -0.45593999997E+02  0.45594000000E+02  0.51100000000E-03 0. -1.
    9900012    2    1    2    0    0 -0.30440204787E+02  0.19793737335E+02 -0.26659244959E+02  0.46142318221E+02  0.10000004192E+02 0.  0.
        -12    1    1    2    0    0  0.30440204787E+02 -0.19793737335E+02  0.26659244959E+02  0.45045681779E+02  0.00000000000E+00 0.  1.
         11    1    3    3    0    0 -0.64290879867E+01  0.92767639678E+01 -0.80798095077E+01  0.13880736436E+02  0.51100000000E-03 0. -1.
        -11    1    3    3    0    0 -0.98093619967E+01  0.32394506185E+01 -0.60406180584E+01  0.11966899761E+02  0.51100000000E-03 0.  1.
         12    1    3    3    0    0 -0.14201754804E+02  0.72775227486E+01 -0.12538817393E+02  0.20294682024E+02  0.00000000000E+00 0. -1.
</event>
<event>
 7    1  0.3846293E-008  0.4614233E+02  0.7816164E-02  0.1320468E+00
        -11   -1    0    0    0    0  0.00000000000E+00  0.00000000000E+00  0.45593999997E+02  0.45594000000E+02  0.51100000000E-03 0.  1.
         11   -1    0    0    0    0 -0.00000000000E+00 -0.00000000000E+00 -0.45593999997E+02  0.45594000000E+02  0.51100000000E-03 0. -1.
    9900012    2    1    2    0    0 -0.24299681332E+02 -0.11531216507E+02 -0.36134038278E+02  0.46142332181E+02  0.10000131491E+02 0.  0.
        -12    1    1    2    0    0  0.24299681332E+02  0.11531216507E+02  0.36134038278E+02  0.45045667819E+02  0.00000000000E+00 0.  1.
         11    1    3    3    0    0 -0.57039656683E+01 -0.34356269457E+01 -0.72942555091E+01  0.98764832075E+01  0.51100000000E-03 0. -1.
        -11    1    3    3    0    0 -0.41202598420E+01 -0.49057269447E+01 -0.13454225143E+02  0.14901639926E+02  0.51100000000E-03 0.  1.
        -12    1    3    3    0    0 -0.14475455822E+02 -0.31898626171E+01 -0.15385557625E+02  0.21364209047E+02  0.00000000000E+00 0.  1.
</event>
<event>
 7    1  0.3846293E-008  0.4614232E+02  0.7816164E-02  0.1320468E+00
        -11   -1    0    0    0    0  0.00000000000E+00  0.00000000000E+00  0.45593999997E+02  0.45594000000E+02  0.51100000000E-03 0. -1.
         11   -1    0    0    0    0 -0.00000000000E+00 -0.00000000000E+00 -0.45593999997E+02  0.45594000000E+02  0.51100000000E-03 0.  1.
    9900012    2    1    2    0    0  0.41266364120E+02 -0.14015390071E+02  0.11391642405E+02  0.46142317818E+02  0.10000000522E+02 0.  0.
        -12    1    1    2    0    0 -0.41266364120E+02  0.14015390071E+02 -0.11391642405E+02  0.45045682182E+02  0.00000000000E+00 0.  1.
         11    1    3    3    0    0  0.26106613154E+02 -0.10882489485E+02  0.66015441692E+01  0.29044176928E+02  0.51100000000E-03 0. -1.
        -11    1    3    3    0    0  0.19005623945E+01  0.29269925571E+00 -0.10720855414E+01  0.22016307454E+01  0.51100000000E-03 0.  1.
        -12    1    3    3    0    0  0.13259188572E+02 -0.34255998414E+01  0.58621837773E+01  0.14896510145E+02  0.00000000000E+00 0.  1.
</event>
<event>
 7    1  0.3846293E-008  0.4614232E+02  0.7816164E-02  0.1320468E+00
        -11   -1    0    0    0    0  0.00000000000E+00  0.00000000000E+00  0.45593999997E+02  0.45594000000E+02  0.51100000000E-03 0.  1.
         11   -1    0    0    0    0 -0.00000000000E+00 -0.00000000000E+00 -0.45593999997E+02  0.45594000000E+02  0.51100000000E-03 0. -1.
    9900012    2    1    2    0    0  0.26546755811E+02  0.13464849364E+02 -0.33809474979E+02  0.46142323061E+02  0.10000048330E+02 0.  0.
        -12    1    1    2    0    0 -0.26546755811E+02 -0.13464849364E+02  0.33809474979E+02  0.45045676939E+02  0.00000000000E+00 0.  1.
         11    1    3    3    0    0  0.85644123167E+01  0.74504412546E+01 -0.15236742762E+02  0.19000435876E+02  0.51100000000E-03 0. -1.
        -11    1    3    3    0    0  0.56953860656E+01  0.41656410117E+01 -0.45009268127E+01  0.83694880315E+01  0.51100000000E-03 0.  1.
         12    1    3    3    0    0  0.12286957429E+02  0.18487670978E+01 -0.14071805405E+02  0.18772399154E+02  0.00000000000E+00 0. -1.
</event>
<event>
 7    1  0.3846293E-008  0.4614232E+02  0.7816164E-02  0.1320468E+00
        -11   -1    0    0    0    0  0.00000000000E+00  0.00000000000E+00  0.45593999997E+02  0.45594000000E+02  0.51100000000E-03 0.  1.
         11   -1    0    0    0    0 -0.00000000000E+00 -0.00000000000E+00 -0.45593999997E+02  0.45594000000E+02  0.51100000000E-03 0. -1.
    9900012    2    1    2    0    0 -0.44811282995E+01 -0.93574880404E+01 -0.43834574232E+02  0.46142323277E+02  0.10000050302E+02 0.  0.
        -12    1    1    2    0    0  0.44811282995E+01  0.93574880404E+01  0.43834574232E+02  0.45045676723E+02  0.00000000000E+00 0.  1.
         11    1    3    3    0    0  0.13067225831E+01 -0.62150871918E-01 -0.83509350761E+01  0.84527808174E+01  0.51100000000E-03 0. -1.
        -11    1    3    3    0    0 -0.39170115882E+01 -0.50036627759E+01 -0.10516474884E+02  0.12287223657E+02  0.51100000000E-03 0.  1.
         12    1    3    3    0    0 -0.18708392944E+01 -0.42916743925E+01 -0.24967164273E+02  0.25402318803E+02  0.00000000000E+00 0. -1.
</event>
<event>
 7    1  0.3846293E-008  0.4614232E+02  0.7816164E-02  0.1320468E+00
        -11   -1    0    0    0    0  0.00000000000E+00  0.00000000000E+00  0.45593999997E+02  0.45594000000E+02  0.51100000000E-03 0.  1.
         11   -1    0    0    0    0 -0.00000000000E+00 -0.00000000000E+00 -0.45593999997E+02  0.45594000000E+02  0.51100000000E-03 0. -1.
    9900012    2    1    2    0    0  0.12399421396E+02 -0.80879392597E+01 -0.42543543008E+02  0.46142318030E+02  0.10000002455E+02 0.  0.
        -12    1    1    2    0    0 -0.12399421396E+02  0.80879392597E+01  0.42543543008E+02  0.45045681970E+02  0.00000000000E+00 0.  1.
         11    1    3    3    0    0  0.98432835274E+01 -0.42783178513E+01 -0.18974300755E+02  0.21799502830E+02  0.51100000000E-03 0. -1.
        -11    1    3    3    0    0 -0.37097369610E+00 -0.28727025925E+01 -0.90649876619E+01  0.95165142378E+01  0.51100000000E-03 0.  1.
         12    1    3    3    0    0  0.29271115647E+01 -0.93691881590E+00 -0.14504254591E+02  0.14826300962E+02  0.00000000000E+00 0. -1.
</event>
<event>
 7    1  0.3846293E-008  0.4614232E+02  0.7816164E-02  0.1320468E+00
        -11   -1    0    0    0    0  0.00000000000E+00  0.00000000000E+00  0.45593999997E+02  0.45594000000E+02  0.51100000000E-03 0.  1.
         11   -1    0    0    0    0 -0.00000000000E+00 -0.00000000000E+00 -0.45593999997E+02  0.45594000000E+02  0.51100000000E-03 0. -1.
    9900012    2    1    2    0    0  0.81360172894E+01 -0.12465331944E+02 -0.42515105688E+02  0.46142317749E+02  0.99999998917E+01 0.  0.
        -12    1    1    2    0    0 -0.81360172894E+01  0.12465331944E+02  0.42515105688E+02  0.45045682251E+02  0.00000000000E+00 0.  1.
         11    1    3    3    0    0  0.45217602887E+01 -0.11241457819E+02 -0.34226337390E+02  0.36307834712E+02  0.51100000000E-03 0. -1.
        -11    1    3    3    0    0 -0.36020825013E+00  0.67864426343E+00 -0.21095111138E+01  0.22450713620E+01  0.51100000000E-03 0.  1.
         12    1    3    3    0    0  0.39744652508E+01 -0.19025183878E+01 -0.61792571834E+01  0.75894116758E+01  0.00000000000E+00 0. -1.
</event>
<event>
 7    1  0.3846293E-008  0.4614232E+02  0.7816164E-02  0.1320468E+00
        -11   -1    0    0    0    0  0.00000000000E+00  0.00000000000E+00  0.45593999997E+02  0.45594000000E+02  0.51100000000E-03 0.  1.
         11   -1    0    0    0    0 -0.00000000000E+00 -0.00000000000E+00 -0.45593999997E+02  0.45594000000E+02  0.51100000000E-03 0. -1.
    9900012    2    1    2    0    0  0.14702587781E+02 -0.37162002157E+02 -0.20783001407E+02  0.46142316086E+02  0.99999847251E+01 0.  0.
        -12    1    1    2    0    0 -0.14702587781E+02  0.37162002157E+02  0.20783001407E+02  0.45045683914E+02  0.00000000000E+00 0.  1.
         11    1    3    3    0    0  0.11709446803E+02 -0.27090710942E+02 -0.18918727392E+02  0.35056183622E+02  0.51100000000E-03 0. -1.
        -11    1    3    3    0    0  0.25775763673E+00 -0.60743436342E+01 -0.12059703288E+01  0.61982621985E+01  0.51100000000E-03 0.  1.
         12    1    3    3    0    0  0.27353833407E+01 -0.39969475813E+01 -0.65830368706E+00  0.48878702655E+01  0.00000000000E+00 0. -1.
</event>
<event>
 7    1  0.3846293E-008  0.4614232E+02  0.7816164E-02  0.1320468E+00
        -11   -1    0    0    0    0  0.00000000000E+00  0.00000000000E+00  0.45593999997E+02  0.45594000000E+02  0.51100000000E-03 0.  1.
         11   -1    0    0    0    0 -0.00000000000E+00 -0.00000000000E+00 -0.45593999997E+02  0.45594000000E+02  0.51100000000E-03 0. -1.
    9900012    2    1    2    0    0 -0.34851483521E+02 -0.28489001792E+02 -0.16924470203E+01  0.46142317592E+02  0.99999984578E+01 0.  0.
        -12    1    1    2    0    0  0.34851483521E+02  0.28489001792E+02  0.16924470203E+01  0.45045682408E+02  0.00000000000E+00 0.  1.
         11    1    3    3    0    0 -0.11560354751E+02 -0.77271909155E+01 -0.20896317288E+01  0.14061217673E+02  0.51100000000E-03 0. -1.
        -11    1    3    3    0    0 -0.19202103488E+02 -0.20054091857E+02 -0.75220815964E+00  0.27775046281E+02  0.51100000000E-03 0.  1.
        -12    1    3    3    0    0 -0.40890252820E+01 -0.70771901929E+00  0.11493928682E+01  0.43060536379E+01  0.00000000000E+00 0.  1.
</event>
<event>
 7    1  0.3846293E-008  0.4614232E+02  0.7816164E-02  0.1320468E+00
        -11   -1    0    0    0    0  0.00000000000E+00  0.00000000000E+00  0.45593999997E+02  0.45594000000E+02  0.51100000000E-03 0.  1.
         11   -1    0    0    0    0 -0.00000000000E+00 -0.00000000000E+00 -0.45593999997E+02  0.45594000000E+02  0.51100000000E-03 0. -1.
    9900012    2    1    2    0    0  0.14331076439E+02 -0.97038882566E+01 -0.41588080205E+02  0.46142316363E+02  0.99999872516E+01 0.  0.
        -12    1    1    2    0    0 -0.14331076439E+02  0.97038882566E+01  0.41588080205E+02  0.45045683637E+02  0.00000000000E+00 0.  1.
         11    1    3    3    0    0  0.27578559807E+01 -0.48429670985E+01 -0.61450302198E+01  0.82958722622E+01  0.51100000000E-03 0. -1.
        -11    1    3    3    0    0  0.84895236857E+01 -0.36802730999E+01 -0.19754044225E+02  0.21813727009E+02  0.51100000000E-03 0.  1.
        -12    1    3    3    0    0  0.30836967722E+01 -0.11806480582E+01 -0.15689005760E+02  0.16032717092E+02  0.00000000000E+00 0.  1.
</event>
<event>
 7    1  0.3846293E-008  0.4614232E+02  0.7816164E-02  0.1320468E+00
        -11   -1    0    0    0    0  0.00000000000E+00  0.00000000000E+00  0.45593999997E+02  0.45594000000E+02  0.51100000000E-03 0. -1.
         11   -1    0    0    0    0 -0.00000000000E+00 -0.00000000000E+00 -0.45593999997E+02  0.45594000000E+02  0.51100000000E-03 0.  1.
    9900012    2    1    2    0    0  0.41901871389E+02 -0.61518178306E+01 -0.15346067542E+02  0.46142317881E+02  0.10000001093E+02 0.  0.
        -12    1    1    2    0    0 -0.41901871389E+02  0.61518178306E+01  0.15346067542E+02  0.45045682119E+02  0.00000000000E+00 0.  1.
         11    1    3    3    0    0  0.16119200721E+02 -0.44950846876E+01 -0.53014806520E+01  0.17553920235E+02  0.51100000000E-03 0. -1.
        -11    1    3    3    0    0  0.75676469775E+01  0.10572180115E+01 -0.63402328126E-01  0.76414011030E+01  0.51100000000E-03 0.  1.
         12    1    3    3    0    0  0.18215023691E+02 -0.27139511545E+01 -0.99811845622E+01  0.20946996543E+02  0.00000000000E+00 0. -1.
</event>
<event>
 7    1  0.3846293E-008  0.4614232E+02  0.7816164E-02  0.1320468E+00
        -11   -1    0    0    0    0  0.00000000000E+00  0.00000000000E+00  0.45593999997E+02  0.45594000000E+02  0.51100000000E-03 0.  1.
         11   -1    0    0    0    0 -0.00000000000E+00 -0.00000000000E+00 -0.45593999997E+02  0.45594000000E+02  0.51100000000E-03 0. -1.
    9900012    2    1    2    0    0 -0.37543267879E+02  0.24484311750E+02  0.44872221297E+01  0.46142315997E+02  0.99999839110E+01 0.  0.
        -12    1    1    2    0    0  0.37543267879E+02 -0.24484311750E+02 -0.44872221297E+01  0.45045684003E+02  0.00000000000E+00 0.  1.
         11    1    3    3    0    0 -0.18873754872E+00  0.45306389718E+00 -0.47176133233E+00  0.68076998541E+00  0.51100000000E-03 0. -1.
        -11    1    3    3    0    0 -0.22662425664E+01  0.11298726347E+01 -0.16790777034E+01  0.30383827500E+01  0.51100000000E-03 0.  1.
         12    1    3    3    0    0 -0.35088287764E+02  0.22901375218E+02  0.66380611654E+01  0.42423163261E+02  0.00000000000E+00 0. -1.
</event>
<event>
 7    1  0.3846293E-008  0.4614232E+02  0.7816164E-02  0.1320468E+00
        -11   -1    0    0    0    0  0.00000000000E+00  0.00000000000E+00  0.45593999997E+02  0.45594000000E+02  0.51100000000E-03 0.  1.
         11   -1    0    0    0    0 -0.00000000000E+00 -0.00000000000E+00 -0.45593999997E+02  0.45594000000E+02  0.51100000000E-03 0. -1.
    9900012    2    1    2    0    0 -0.11441543825E+02  0.21367714783E+02 -0.37968739291E+02  0.46142319591E+02  0.10000016689E+02 0.  0.
        -12    1    1    2    0    0  0.11441543825E+02 -0.21367714783E+02  0.37968739291E+02  0.45045680409E+02  0.00000000000E+00 0.  1.
         11    1    3    3    0    0 -0.58262260647E+01  0.53921546604E+01 -0.15534259290E+02  0.17445155602E+02  0.51100000000E-03 0. -1.
        -11    1    3    3    0    0 -0.43283030840E+01  0.41505785489E+01 -0.72676307728E+01  0.94223121996E+01  0.51100000000E-03 0.  1.
         12    1    3    3    0    0 -0.12870146766E+01  0.11824981574E+02 -0.15166849228E+02  0.19274851790E+02  0.00000000000E+00 0. -1.
</event>
<event>
 7    1  0.3846293E-008  0.4614232E+02  0.7816164E-02  0.1320468E+00
        -11   -1    0    0    0    0  0.00000000000E+00  0.00000000000E+00  0.45593999997E+02  0.45594000000E+02  0.51100000000E-03 0.  1.
         11   -1    0    0    0    0 -0.00000000000E+00 -0.00000000000E+00 -0.45593999997E+02  0.45594000000E+02  0.51100000000E-03 0. -1.
    9900012    2    1    2    0    0 -0.36474622592E+02 -0.20014389833E+02 -0.17266720418E+02  0.46142317326E+02  0.99999960289E+01 0.  0.
        -12    1    1    2    0    0  0.36474622592E+02  0.20014389833E+02  0.17266720418E+02  0.45045682674E+02  0.00000000000E+00 0.  1.
         11    1    3    3    0    0 -0.24799562237E+02 -0.12277275930E+02 -0.13357187875E+02  0.30727255972E+02  0.51100000000E-03 0.  1.
        -11    1    3    3    0    0 -0.89497739317E+01 -0.30213682146E+01 -0.28476635372E+01  0.98659164399E+01  0.51100000000E-03 0. -1.
        -12    1    3    3    0    0 -0.27252864233E+01 -0.47157456882E+01 -0.10618690063E+01  0.55491449136E+01  0.00000000000E+00 0.  1.
</event>
<event>
 7    1  0.3846293E-008  0.4614232E+02  0.7816164E-02  0.1320468E+00
        -11   -1    0    0    0    0  0.00000000000E+00  0.00000000000E+00  0.45593999997E+02  0.45594000000E+02  0.51100000000E-03 0. -1.
         11   -1    0    0    0    0 -0.00000000000E+00 -0.00000000000E+00 -0.45593999997E+02  0.45594000000E+02  0.51100000000E-03 0.  1.
    9900012    2    1    2    0    0 -0.21643523646E+02  0.38354731049E+02 -0.94649893681E+01  0.46142317261E+02  0.99999954406E+01 0.  0.
        -12    1    1    2    0    0  0.21643523646E+02 -0.38354731049E+02  0.94649893681E+01  0.45045682739E+02  0.00000000000E+00 0.  1.
         11    1    3    3    0    0 -0.31737651102E+01  0.41297637772E+01 -0.21025609640E+01  0.56168048478E+01  0.51100000000E-03 0.  1.
        -11    1    3    3    0    0 -0.89339317571E+01  0.18543373666E+02 -0.81917161261E+01  0.22153466025E+02  0.51100000000E-03 0. -1.
        -12    1    3    3    0    0 -0.95358267785E+01  0.15681593606E+02  0.82928772193E+00  0.18372046389E+02  0.00000000000E+00 0.  1.
</event>
<event>
 7    1  0.3846293E-008  0.4614232E+02  0.7816164E-02  0.1320468E+00
        -11   -1    0    0    0    0  0.00000000000E+00  0.00000000000E+00  0.45593999997E+02  0.45594000000E+02  0.51100000000E-03 0. -1.
         11   -1    0    0    0    0 -0.00000000000E+00 -0.00000000000E+00 -0.45593999997E+02  0.45594000000E+02  0.51100000000E-03 0.  1.
    9900012    2    1    2    0    0 -0.15790957306E+02  0.27290740195E+02  0.32171022150E+02  0.46142317641E+02  0.99999989054E+01 0.  0.
        -12    1    1    2    0    0  0.15790957306E+02 -0.27290740195E+02 -0.32171022150E+02  0.45045682359E+02  0.00000000000E+00 0.  1.
         11    1    3    3    0    0 -0.80364781220E+01  0.22298639774E+02  0.24847137023E+02  0.34339402075E+02  0.51100000000E-03 0. -1.
        -11    1    3    3    0    0 -0.31201786409E+00  0.10561926194E+00  0.12123201071E+00  0.35101002485E+00  0.51100000000E-03 0.  1.
         12    1    3    3    0    0 -0.74424613199E+01  0.48864811594E+01  0.72026531160E+01  0.11451905541E+02  0.00000000000E+00 0. -1.
</event>
<event>
 7    1  0.3846293E-008  0.4614232E+02  0.7816164E-02  0.1320468E+00
        -11   -1    0    0    0    0  0.00000000000E+00  0.00000000000E+00  0.45593999997E+02  0.45594000000E+02  0.51100000000E-03 0.  1.
         11   -1    0    0    0    0 -0.00000000000E+00 -0.00000000000E+00 -0.45593999997E+02  0.45594000000E+02  0.51100000000E-03 0. -1.
    9900012    2    1    2    0    0 -0.17339509351E+02  0.58992174295E+01 -0.41154030299E+02  0.46142316959E+02  0.99999926822E+01 0.  0.
        -12    1    1    2    0    0  0.17339509351E+02 -0.58992174295E+01  0.41154030299E+02  0.45045683041E+02  0.00000000000E+00 0.  1.
         11    1    3    3    0    0 -0.43745091116E+01 -0.14471643313E+00 -0.17467313760E+02  0.18007340810E+02  0.51100000000E-03 0. -1.
        -11    1    3    3    0    0  0.24798813443E+00  0.91846198253E+00 -0.21803393443E+01  0.23788548601E+01  0.51100000000E-03 0.  1.
        -12    1    3    3    0    0 -0.13212988374E+02  0.51254718801E+01 -0.21506377195E+02  0.25756121288E+02  0.00000000000E+00 0.  1.
</event>
<event>
 7    1  0.3846293E-008  0.4614232E+02  0.7816164E-02  0.1320468E+00
        -11   -1    0    0    0    0  0.00000000000E+00  0.00000000000E+00  0.45593999997E+02  0.45594000000E+02  0.51100000000E-03 0.  1.
         11   -1    0    0    0    0 -0.00000000000E+00 -0.00000000000E+00 -0.45593999997E+02  0.45594000000E+02  0.51100000000E-03 0. -1.
    9900012    2    1    2    0    0 -0.45832971274E+01  0.35031671235E+02 -0.27944386345E+02  0.46142319516E+02  0.10000016001E+02 0.  0.
        -12    1    1    2    0    0  0.45832971274E+01 -0.35031671235E+02  0.27944386345E+02  0.45045680484E+02  0.00000000000E+00 0.  1.
         11    1    3    3    0    0 -0.25593682652E+01  0.16520532432E+02 -0.11360161581E+02  0.20212165375E+02  0.51100000000E-03 0. -1.
        -11    1    3    3    0    0 -0.35659540830E+01  0.17890087066E+02 -0.15566476235E+02  0.23980959663E+02  0.51100000000E-03 0.  1.
        -12    1    3    3    0    0  0.15420252208E+01  0.62105173790E+00 -0.10177485290E+01  0.19491944775E+01  0.00000000000E+00 0.  1.
</event>
<event>
 7    1  0.3846293E-008  0.4614232E+02  0.7816164E-02  0.1320468E+00
        -11   -1    0    0    0    0  0.00000000000E+00  0.00000000000E+00  0.45593999997E+02  0.45594000000E+02  0.51100000000E-03 0.  1.
         11   -1    0    0    0    0 -0.00000000000E+00 -0.00000000000E+00 -0.45593999997E+02  0.45594000000E+02  0.51100000000E-03 0. -1.
    9900012    2    1    2    0    0 -0.22021565458E+02  0.28382181747E+02 -0.27177488846E+02  0.46142317788E+02  0.10000000248E+02 0.  0.
        -12    1    1    2    0    0  0.22021565458E+02 -0.28382181747E+02  0.27177488846E+02  0.45045682212E+02  0.00000000000E+00 0.  1.
         11    1    3    3    0    0 -0.13803955120E+02  0.14516036259E+02 -0.16559763503E+02  0.25990195327E+02  0.51100000000E-03 0. -1.
        -11    1    3    3    0    0  0.16347182799E-01  0.20788109759E+01 -0.35891631018E+01  0.41477481042E+01  0.51100000000E-03 0.  1.
        -12    1    3    3    0    0 -0.82339575209E+01  0.11787334513E+02 -0.70285622406E+01  0.16004374357E+02  0.00000000000E+00 0.  1.
</event>
<event>
 7    1  0.3846293E-008  0.4614232E+02  0.7816164E-02  0.1320468E+00
        -11   -1    0    0    0    0  0.00000000000E+00  0.00000000000E+00  0.45593999997E+02  0.45594000000E+02  0.51100000000E-03 0.  1.
         11   -1    0    0    0    0 -0.00000000000E+00 -0.00000000000E+00 -0.45593999997E+02  0.45594000000E+02  0.51100000000E-03 0. -1.
    9900012    2    1    2    0    0 -0.29272613578E+01  0.29176394935E+02 -0.34194775331E+02  0.46142317184E+02  0.99999947391E+01 0.  0.
        -12    1    1    2    0    0  0.29272613578E+01 -0.29176394935E+02  0.34194775331E+02  0.45045682816E+02  0.00000000000E+00 0.  1.
         11    1    3    3    0    0 -0.54362325250E+00  0.10029186882E+02 -0.13412573594E+02  0.16756409115E+02  0.51100000000E-03 0. -1.
        -11    1    3    3    0    0  0.28122935975E+01  0.78182021230E+01 -0.85740773947E+01  0.11939350198E+02  0.51100000000E-03 0.  1.
        -12    1    3    3    0    0 -0.51959317028E+01  0.11329005929E+02 -0.12208124342E+02  0.17446557871E+02  0.00000000000E+00 0.  1.
</event>
<event>
 7    1  0.3846293E-008  0.4614231E+02  0.7816164E-02  0.1320468E+00
        -11   -1    0    0    0    0  0.00000000000E+00  0.00000000000E+00  0.45593999997E+02  0.45594000000E+02  0.51100000000E-03 0. -1.
         11   -1    0    0    0    0 -0.00000000000E+00 -0.00000000000E+00 -0.45593999997E+02  0.45594000000E+02  0.51100000000E-03 0.  1.
    9900012    2    1    2    0    0  0.39422925723E+02 -0.10289597020E+02  0.19211217771E+02  0.46142314661E+02  0.99999717286E+01 0.  0.
        -12    1    1    2    0    0 -0.39422925723E+02  0.10289597020E+02 -0.19211217771E+02  0.45045685339E+02  0.00000000000E+00 0.  1.
         11    1    3    3    0    0  0.14588080216E+02 -0.46340712140E+01  0.86661329144E+01  0.17589444572E+02  0.51100000000E-03 0. -1.
        -11    1    3    3    0    0  0.14524696942E+01  0.14824686990E+01  0.10521352585E+01  0.23268799967E+01  0.51100000000E-03 0.  1.
         12    1    3    3    0    0  0.23382375813E+02 -0.71379945053E+01  0.94929495982E+01  0.26225990092E+02  0.00000000000E+00 0. -1.
</event>
<event>
 7    1  0.3846293E-008  0.4614232E+02  0.7816164E-02  0.1320468E+00
        -11   -1    0    0    0    0  0.00000000000E+00  0.00000000000E+00  0.45593999997E+02  0.45594000000E+02  0.51100000000E-03 0. -1.
         11   -1    0    0    0    0 -0.00000000000E+00 -0.00000000000E+00 -0.45593999997E+02  0.45594000000E+02  0.51100000000E-03 0.  1.
    9900012    2    1    2    0    0 -0.89575253090E+01 -0.33890115141E+02  0.28290214861E+02  0.46142318511E+02  0.10000006839E+02 0.  0.
        -12    1    1    2    0    0  0.89575253090E+01  0.33890115141E+02 -0.28290214861E+02  0.45045681489E+02  0.00000000000E+00 0.  1.
         11    1    3    3    0    0 -0.18937004871E+01 -0.16930916856E+02  0.18587377068E+02  0.25213738986E+02  0.51100000000E-03 0. -1.
        -11    1    3    3    0    0 -0.48310703187E+01 -0.10495003212E+02  0.73637233749E+01  0.13700684474E+02  0.51100000000E-03 0.  1.
         12    1    3    3    0    0 -0.22327545033E+01 -0.64641950736E+01  0.23391144178E+01  0.72278950519E+01  0.00000000000E+00 0. -1.
</event>
<event>
 7    1  0.3846293E-008  0.4614232E+02  0.7816164E-02  0.1320468E+00
        -11   -1    0    0    0    0  0.00000000000E+00  0.00000000000E+00  0.45593999997E+02  0.45594000000E+02  0.51100000000E-03 0. -1.
         11   -1    0    0    0    0 -0.00000000000E+00 -0.00000000000E+00 -0.45593999997E+02  0.45594000000E+02  0.51100000000E-03 0.  1.
    9900012    2    1    2    0    0  0.14502295664E+02 -0.23612503503E+02 -0.35514034223E+02  0.46142317321E+02  0.99999959873E+01 0.  0.
        -12    1    1    2    0    0 -0.14502295664E+02  0.23612503503E+02  0.35514034223E+02  0.45045682679E+02  0.00000000000E+00 0.  1.
         11    1    3    3    0    0  0.13790591370E+01 -0.32059693385E+01 -0.68620108708E+01  0.76985217383E+01  0.51100000000E-03 0. -1.
        -11    1    3    3    0    0  0.13267438092E+02 -0.20803201889E+02 -0.28862968455E+02  0.37971951104E+02  0.51100000000E-03 0.  1.
        -12    1    3    3    0    0 -0.14420156427E+00  0.39666772515E+00  0.21094510287E+00  0.47184447834E+00  0.00000000000E+00 0.  1.
</event>
<event>
 7    1  0.3846293E-008  0.4614232E+02  0.7816164E-02  0.1320468E+00
        -11   -1    0    0    0    0  0.00000000000E+00  0.00000000000E+00  0.45593999997E+02  0.45594000000E+02  0.51100000000E-03 0.  1.
         11   -1    0    0    0    0 -0.00000000000E+00 -0.00000000000E+00 -0.45593999997E+02  0.45594000000E+02  0.51100000000E-03 0. -1.
    9900012    2    1    2    0    0  0.39730070133E+02  0.97385353790E+01 -0.18862553675E+02  0.46142317907E+02  0.10000001333E+02 0.  0.
        -12    1    1    2    0    0 -0.39730070133E+02 -0.97385353790E+01  0.18862553675E+02  0.45045682093E+02  0.00000000000E+00 0.  1.
         11    1    3    3    0    0  0.20173443864E+02  0.36247753636E+01 -0.60185471090E+01  0.21361875932E+02  0.51100000000E-03 0. -1.
        -11    1    3    3    0    0  0.43921112069E+01 -0.87330642554E+00 -0.23147779674E+01  0.50409822720E+01  0.51100000000E-03 0.  1.
         12    1    3    3    0    0  0.15164515062E+02  0.69870664410E+01 -0.10529228598E+02  0.19739459704E+02  0.00000000000E+00 0. -1.
</event>
<event>
 7    1  0.3846293E-008  0.4614232E+02  0.7816164E-02  0.1320468E+00
        -11   -1    0    0    0    0  0.00000000000E+00  0.00000000000E+00  0.45593999997E+02  0.45594000000E+02  0.51100000000E-03 0. -1.
         11   -1    0    0    0    0 -0.00000000000E+00 -0.00000000000E+00 -0.45593999997E+02  0.45594000000E+02  0.51100000000E-03 0.  1.
    9900012    2    1    2    0    0  0.12441711104E+02  0.43177674389E+02  0.31631863432E+01  0.46142317758E+02  0.99999999711E+01 0.  0.
        -12    1    1    2    0    0 -0.12441711104E+02 -0.43177674389E+02 -0.31631863432E+01  0.45045682242E+02  0.00000000000E+00 0.  1.
         11    1    3    3    0    0  0.45516636219E+01  0.87359983774E+01  0.70409763808E+00  0.98757816461E+01  0.51100000000E-03 0. -1.
        -11    1    3    3    0    0  0.20528921747E+01  0.41301677150E+01  0.28011514953E+01  0.53962117820E+01  0.51100000000E-03 0.  1.
        -12    1    3    3    0    0  0.58371553072E+01  0.30311508296E+02 -0.34206279018E+00  0.30870324330E+02  0.00000000000E+00 0.  1.
</event>
<event>
 7    1  0.3846293E-008  0.4614232E+02  0.7816164E-02  0.1320468E+00
        -11   -1    0    0    0    0  0.00000000000E+00  0.00000000000E+00  0.45593999997E+02  0.45594000000E+02  0.51100000000E-03 0. -1.
         11   -1    0    0    0    0 -0.00000000000E+00 -0.00000000000E+00 -0.45593999997E+02  0.45594000000E+02  0.51100000000E-03 0.  1.
    9900012    2    1    2    0    0  0.19091637144E+02  0.32387434355E+02 -0.24812838415E+02  0.46142318041E+02  0.10000002552E+02 0.  0.
        -12    1    1    2    0    0 -0.19091637144E+02 -0.32387434355E+02  0.24812838415E+02  0.45045681959E+02  0.00000000000E+00 0.  1.
         11    1    3    3    0    0  0.12314970924E+02  0.12803230726E+02 -0.85893133182E+01  0.19732144572E+02  0.51100000000E-03 0. -1.
        -11    1    3    3    0    0  0.57118198951E+01  0.13463197140E+02 -0.11215417787E+02  0.18430088446E+02  0.51100000000E-03 0.  1.
         12    1    3    3    0    0  0.10648463250E+01  0.61210064897E+01 -0.50081073099E+01  0.79800850228E+01  0.00000000000E+00 0. -1.
</event>
<event>
 7    1  0.3846293E-008  0.4614232E+02  0.7816164E-02  0.1320468E+00
        -11   -1    0    0    0    0  0.00000000000E+00  0.00000000000E+00  0.45593999997E+02  0.45594000000E+02  0.51100000000E-03 0. -1.
         11   -1    0    0    0    0 -0.00000000000E+00 -0.00000000000E+00 -0.45593999997E+02  0.45594000000E+02  0.51100000000E-03 0.  1.
    9900012    2    1    2    0    0  0.21672133802E+02 -0.23139016061E+01  0.39421790917E+02  0.46142321814E+02  0.10000036954E+02 0.  0.
        -12    1    1    2    0    0 -0.21672133802E+02  0.23139016061E+01 -0.39421790917E+02  0.45045678186E+02  0.00000000000E+00 0.  1.
         11    1    3    3    0    0  0.50912362021E+01 -0.53882610424E+00  0.56422536869E+01  0.76187956112E+01  0.51100000000E-03 0. -1.
        -11    1    3    3    0    0  0.70963101931E+01 -0.46564991509E+01  0.13415155259E+02  0.15874728142E+02  0.51100000000E-03 0.  1.
        -12    1    3    3    0    0  0.94845874067E+01  0.28814236491E+01  0.20364381971E+02  0.22648798060E+02  0.00000000000E+00 0.  1.
</event>
<event>
 7    1  0.3846293E-008  0.4614232E+02  0.7816164E-02  0.1320468E+00
        -11   -1    0    0    0    0  0.00000000000E+00  0.00000000000E+00  0.45593999997E+02  0.45594000000E+02  0.51100000000E-03 0.  1.
         11   -1    0    0    0    0 -0.00000000000E+00 -0.00000000000E+00 -0.45593999997E+02  0.45594000000E+02  0.51100000000E-03 0. -1.
    9900012    2    1    2    0    0  0.20367017283E+02 -0.15446176942E+02 -0.37090615236E+02  0.46142317480E+02  0.99999974346E+01 0.  0.
        -12    1    1    2    0    0 -0.20367017283E+02  0.15446176942E+02  0.37090615236E+02  0.45045682520E+02  0.00000000000E+00 0.  1.
         11    1    3    3    0    0  0.89863776606E+01 -0.27507182843E+01 -0.14837253582E+02  0.17563186746E+02  0.51100000000E-03 0. -1.
        -11    1    3    3    0    0  0.17536727532E+01 -0.31763742581E+01 -0.86813922817E+01  0.94091069589E+01  0.51100000000E-03 0.  1.
        -12    1    3    3    0    0  0.96269668688E+01 -0.95190843999E+01 -0.13571969372E+02  0.19170023775E+02  0.00000000000E+00 0.  1.
</event>
<event>
 7    1  0.3846293E-008  0.4614232E+02  0.7816164E-02  0.1320468E+00
        -11   -1    0    0    0    0  0.00000000000E+00  0.00000000000E+00  0.45593999997E+02  0.45594000000E+02  0.51100000000E-03 0. -1.
         11   -1    0    0    0    0 -0.00000000000E+00 -0.00000000000E+00 -0.45593999997E+02  0.45594000000E+02  0.51100000000E-03 0.  1.
    9900012    2    1    2    0    0 -0.28126108112E+02 -0.23185831428E+02  0.26466065341E+02  0.46142319284E+02  0.10000013884E+02 0.  0.
        -12    1    1    2    0    0  0.28126108112E+02  0.23185831428E+02 -0.26466065341E+02  0.45045680716E+02  0.00000000000E+00 0.  1.
         11    1    3    3    0    0 -0.64074323688E+01 -0.79331554033E+01  0.63302240664E+01  0.12002578107E+02  0.51100000000E-03 0. -1.
        -11    1    3    3    0    0 -0.17246194867E+01 -0.63411724340E+00 -0.49690753526E+00  0.19035058214E+01  0.51100000000E-03 0.  1.
         12    1    3    3    0    0 -0.19994056257E+02 -0.14618558781E+02  0.20632748810E+02  0.32236235356E+02  0.00000000000E+00 0. -1.
</event>
<event>
 7    1  0.3846293E-008  0.4614232E+02  0.7816164E-02  0.1320468E+00
        -11   -1    0    0    0    0  0.00000000000E+00  0.00000000000E+00  0.45593999997E+02  0.45594000000E+02  0.51100000000E-03 0.  1.
         11   -1    0    0    0    0 -0.00000000000E+00 -0.00000000000E+00 -0.45593999997E+02  0.45594000000E+02  0.51100000000E-03 0. -1.
    9900012    2    1    2    0    0  0.19760736728E+02  0.30616429582E+02 -0.26481334300E+02  0.46142317158E+02  0.99999945033E+01 0.  0.
        -12    1    1    2    0    0 -0.19760736728E+02 -0.30616429582E+02  0.26481334300E+02  0.45045682842E+02  0.00000000000E+00 0.  1.
         11    1    3    3    0    0  0.12303369623E+02  0.17865440864E+02 -0.13003300387E+02  0.25290960886E+02  0.51100000000E-03 0. -1.
        -11    1    3    3    0    0  0.78629535062E+01  0.12958376314E+02 -0.13616396240E+02  0.20375274265E+02  0.51100000000E-03 0.  1.
        -12    1    3    3    0    0 -0.40558640100E+00 -0.20738759606E+00  0.13836232768E+00  0.47608200700E+00  0.00000000000E+00 0.  1.
</event>
<event>
 7    1  0.3846293E-008  0.4614232E+02  0.7816164E-02  0.1320468E+00
        -11   -1    0    0    0    0  0.00000000000E+00  0.00000000000E+00  0.45593999997E+02  0.45594000000E+02  0.51100000000E-03 0.  1.
         11   -1    0    0    0    0 -0.00000000000E+00 -0.00000000000E+00 -0.45593999997E+02  0.45594000000E+02  0.51100000000E-03 0. -1.
    9900012    2    1    2    0    0 -0.20000247082E+02 -0.91797139325E+01 -0.39304405064E+02  0.46142319978E+02  0.10000020215E+02 0.  0.
        -12    1    1    2    0    0  0.20000247082E+02  0.91797139325E+01  0.39304405064E+02  0.45045680022E+02  0.00000000000E+00 0.  1.
         11    1    3    3    0    0 -0.27120042188E+00 -0.27979685399E+01 -0.51521775876E+01  0.58691661907E+01  0.51100000000E-03 0. -1.
        -11    1    3    3    0    0 -0.29750608538E+01  0.22139087663E+00 -0.26664652282E+01  0.40012545631E+01  0.51100000000E-03 0.  1.
         12    1    3    3    0    0 -0.16753985806E+02 -0.66031362692E+01 -0.31485762248E+02  0.36271899224E+02  0.00000000000E+00 0. -1.
</event>
<event>
 7    1  0.3846293E-008  0.4614232E+02  0.7816164E-02  0.1320468E+00
        -11   -1    0    0    0    0  0.00000000000E+00  0.00000000000E+00  0.45593999997E+02  0.45594000000E+02  0.51100000000E-03 0.  1.
         11   -1    0    0    0    0 -0.00000000000E+00 -0.00000000000E+00 -0.45593999997E+02  0.45594000000E+02  0.51100000000E-03 0. -1.
    9900012    2    1    2    0    0  0.33373547778E+02  0.22833120668E+02 -0.19848638034E+02  0.46142317382E+02  0.99999965418E+01 0.  0.
        -12    1    1    2    0    0 -0.33373547778E+02 -0.22833120668E+02  0.19848638034E+02  0.45045682618E+02  0.00000000000E+00 0.  1.
         11    1    3    3    0    0  0.93778902199E+01  0.66142927236E+01 -0.74712380398E+01  0.13693541957E+02  0.51100000000E-03 0. -1.
        -11    1    3    3    0    0  0.14327061065E+02  0.13294004323E+02 -0.10457916724E+02  0.22166714961E+02  0.51100000000E-03 0.  1.
        -12    1    3    3    0    0  0.96685964929E+01  0.29248236214E+01 -0.19194832701E+01  0.10282060464E+02  0.00000000000E+00 0.  1.
</event>
<event>
 7    1  0.3846293E-008  0.4614232E+02  0.7816164E-02  0.1320468E+00
        -11   -1    0    0    0    0  0.00000000000E+00  0.00000000000E+00  0.45593999997E+02  0.45594000000E+02  0.51100000000E-03 0. -1.
         11   -1    0    0    0    0 -0.00000000000E+00 -0.00000000000E+00 -0.45593999997E+02  0.45594000000E+02  0.51100000000E-03 0.  1.
    9900012    2    1    2    0    0 -0.37617766052E+02  0.16480104130E+02 -0.18504685001E+02  0.46142317389E+02  0.99999966107E+01 0.  0.
        -12    1    1    2    0    0  0.37617766052E+02 -0.16480104130E+02  0.18504685001E+02  0.45045682611E+02  0.00000000000E+00 0.  1.
         11    1    3    3    0    0 -0.12178541894E+01  0.25102993991E+01 -0.20978435710E+01  0.34908050374E+01  0.51100000000E-03 0. -1.
        -11    1    3    3    0    0 -0.11117891672E+02  0.31173826610E+01 -0.73446928000E+01  0.13684666692E+02  0.51100000000E-03 0.  1.
         12    1    3    3    0    0 -0.25282020190E+02  0.10852422070E+02 -0.90621486297E+01  0.28966845660E+02  0.00000000000E+00 0. -1.
</event>
<event>
 7    1  0.3846293E-008  0.4614232E+02  0.7816164E-02  0.1320468E+00
        -11   -1    0    0    0    0  0.00000000000E+00  0.00000000000E+00  0.45593999997E+02  0.45594000000E+02  0.51100000000E-03 0.  1.
         11   -1    0    0    0    0 -0.00000000000E+00 -0.00000000000E+00 -0.45593999997E+02  0.45594000000E+02  0.51100000000E-03 0. -1.
    9900012    2    1    2    0    0 -0.39165338205E+00 -0.21538039085E+02 -0.39561003850E+02  0.46142317125E+02  0.99999941999E+01 0.  0.
        -12    1    1    2    0    0  0.39165338205E+00  0.21538039085E+02  0.39561003850E+02  0.45045682875E+02  0.00000000000E+00 0.  1.
         11    1    3    3    0    0 -0.12401634660E+01 -0.16903499718E+02 -0.24477108832E+02  0.29772389309E+02  0.51100000000E-03 0. -1.
        -11    1    3    3    0    0 -0.20848137140E+00 -0.47250573943E+01 -0.14268360355E+02  0.15031824218E+02  0.51100000000E-03 0.  1.
         12    1    3    3    0    0  0.10569914553E+01  0.90518026792E-01 -0.81553466338E+00  0.13381035972E+01  0.00000000000E+00 0. -1.
</event>
<event>
 7    1  0.3846293E-008  0.4614232E+02  0.7816164E-02  0.1320468E+00
        -11   -1    0    0    0    0  0.00000000000E+00  0.00000000000E+00  0.45593999997E+02  0.45594000000E+02  0.51100000000E-03 0.  1.
         11   -1    0    0    0    0 -0.00000000000E+00 -0.00000000000E+00 -0.45593999997E+02  0.45594000000E+02  0.51100000000E-03 0. -1.
    9900012    2    1    2    0    0 -0.15348120538E+02  0.40768126946E+02 -0.11467711592E+02  0.46142318876E+02  0.10000010167E+02 0.  0.
        -12    1    1    2    0    0  0.15348120538E+02 -0.40768126946E+02  0.11467711592E+02  0.45045681124E+02  0.00000000000E+00 0.  1.
         11    1    3    3    0    0 -0.18627951329E+01  0.36225263813E+00 -0.35001457068E+00  0.19297002726E+01  0.51100000000E-03 0. -1.
        -11    1    3    3    0    0 -0.50983779756E+01  0.15801255199E+02 -0.22941681986E+01  0.16761155445E+02  0.51100000000E-03 0.  1.
        -12    1    3    3    0    0 -0.83869474296E+01  0.24604619109E+02 -0.88235288231E+01  0.27451463159E+02  0.00000000000E+00 0.  1.
</event>
<event>
 7    1  0.3846293E-008  0.4614232E+02  0.7816164E-02  0.1320468E+00
        -11   -1    0    0    0    0  0.00000000000E+00  0.00000000000E+00  0.45593999997E+02  0.45594000000E+02  0.51100000000E-03 0. -1.
         11   -1    0    0    0    0 -0.00000000000E+00 -0.00000000000E+00 -0.45593999997E+02  0.45594000000E+02  0.51100000000E-03 0.  1.
    9900012    2    1    2    0    0 -0.18397143297E+02 -0.37824807488E+02  0.16122734335E+02  0.46142317571E+02  0.99999982694E+01 0.  0.
        -12    1    1    2    0    0  0.18397143297E+02  0.37824807488E+02 -0.16122734335E+02  0.45045682429E+02  0.00000000000E+00 0.  1.
         11    1    3    3    0    0 -0.79276773716E+00 -0.59270922430E+01  0.52873959304E+01  0.79821963850E+01  0.51100000000E-03 0. -1.
        -11    1    3    3    0    0 -0.15303810305E+01 -0.42368668566E+01  0.46274845092E+00  0.45284923814E+01  0.51100000000E-03 0.  1.
         12    1    3    3    0    0 -0.16073994530E+02 -0.27660848389E+02  0.10372589954E+02  0.33631628805E+02  0.00000000000E+00 0. -1.
</event>
<event>
 7    1  0.3846293E-008  0.4614232E+02  0.7816164E-02  0.1320468E+00
        -11   -1    0    0    0    0  0.00000000000E+00  0.00000000000E+00  0.45593999997E+02  0.45594000000E+02  0.51100000000E-03 0.  1.
         11   -1    0    0    0    0 -0.00000000000E+00 -0.00000000000E+00 -0.45593999997E+02  0.45594000000E+02  0.51100000000E-03 0. -1.
    9900012    2    1    2    0    0  0.54950996800E+01 -0.42082756111E+02 -0.15098308589E+02  0.46142318691E+02  0.10000008477E+02 0.  0.
        -12    1    1    2    0    0 -0.54950996800E+01  0.42082756111E+02  0.15098308589E+02  0.45045681309E+02  0.00000000000E+00 0.  1.
         11    1    3    3    0    0 -0.55838055709E+00 -0.22515211491E+02 -0.71965943003E+01  0.23643974013E+02  0.51100000000E-03 0. -1.
        -11    1    3    3    0    0  0.47456180134E+01 -0.71722040762E+01 -0.31256173062E+01  0.91504582096E+01  0.51100000000E-03 0.  1.
        -12    1    3    3    0    0  0.13078622237E+01 -0.12395340543E+02 -0.47760969826E+01  0.13347886468E+02  0.00000000000E+00 0.  1.
</event>
<event>
 7    1  0.3846293E-008  0.4614232E+02  0.7816164E-02  0.1320468E+00
        -11   -1    0    0    0    0  0.00000000000E+00  0.00000000000E+00  0.45593999997E+02  0.45594000000E+02  0.51100000000E-03 0. -1.
         11   -1    0    0    0    0 -0.00000000000E+00 -0.00000000000E+00 -0.45593999997E+02  0.45594000000E+02  0.51100000000E-03 0.  1.
    9900012    2    1    2    0    0 -0.11811951379E+02 -0.10224847963E+02  0.42249778291E+02  0.46142317889E+02  0.10000001166E+02 0.  0.
        -12    1    1    2    0    0  0.11811951379E+02  0.10224847963E+02 -0.42249778291E+02  0.45045682111E+02  0.00000000000E+00 0.  1.
         11    1    3    3    0    0 -0.42876617472E+01 -0.25895199246E+01  0.92691213908E+01  0.10535951230E+02  0.51100000000E-03 0. -1.
        -11    1    3    3    0    0  0.11989668155E+01 -0.33718459755E+01  0.11243815582E+02  0.11799587104E+02  0.51100000000E-03 0.  1.
        -12    1    3    3    0    0 -0.87232564472E+01 -0.42634820625E+01  0.21736841317E+02  0.23806779555E+02  0.00000000000E+00 0.  1.
</event>
<event>
 7    1  0.3846293E-008  0.4614232E+02  0.7816164E-02  0.1320468E+00
        -11   -1    0    0    0    0  0.00000000000E+00  0.00000000000E+00  0.45593999997E+02  0.45594000000E+02  0.51100000000E-03 0. -1.
         11   -1    0    0    0    0 -0.00000000000E+00 -0.00000000000E+00 -0.45593999997E+02  0.45594000000E+02  0.51100000000E-03 0.  1.
    9900012    2    1    2    0    0 -0.12972728013E+02 -0.10301837364E+02  0.41889067276E+02  0.46142317828E+02  0.10000000607E+02 0.  0.
        -12    1    1    2    0    0  0.12972728013E+02  0.10301837364E+02 -0.41889067276E+02  0.45045682172E+02  0.00000000000E+00 0.  1.
         11    1    3    3    0    0 -0.88942928908E+01 -0.27819296329E+01  0.27623880313E+02  0.29153496228E+02  0.51100000000E-03 0. -1.
        -11    1    3    3    0    0 -0.39881674763E+01 -0.50289195385E+01  0.80713426890E+01  0.10312229856E+02  0.51100000000E-03 0.  1.
        -12    1    3    3    0    0 -0.90267645462E-01 -0.24909881924E+01  0.61938442738E+01  0.66765917436E+01  0.00000000000E+00 0.  1.
</event>
<event>
 7    1  0.3846293E-008  0.4614232E+02  0.7816164E-02  0.1320468E+00
        -11   -1    0    0    0    0  0.00000000000E+00  0.00000000000E+00  0.45593999997E+02  0.45594000000E+02  0.51100000000E-03 0.  1.
         11   -1    0    0    0    0 -0.00000000000E+00 -0.00000000000E+00 -0.45593999997E+02  0.45594000000E+02  0.51100000000E-03 0. -1.
    9900012    2    1    2    0    0  0.26818012377E+00  0.32625712739E+01 -0.44926577172E+02  0.46142316208E+02  0.99999858409E+01 0.  0.
        -12    1    1    2    0    0 -0.26818012377E+00 -0.32625712739E+01  0.44926577172E+02  0.45045683792E+02  0.00000000000E+00 0.  1.
         11    1    3    3    0    0 -0.25276457860E+00  0.26603767732E+01 -0.20067754201E+02  0.20244906852E+02  0.51100000000E-03 0. -1.
        -11    1    3    3    0    0 -0.20729781809E+01  0.24860188655E+01 -0.18446787947E+02  0.18728628197E+02  0.51100000000E-03 0.  1.
        -12    1    3    3    0    0  0.25939228833E+01 -0.18838243648E+01 -0.64120350241E+01  0.71687811595E+01  0.00000000000E+00 0.  1.
</event>
<event>
 7    1  0.3846293E-008  0.4614232E+02  0.7816164E-02  0.1320468E+00
        -11   -1    0    0    0    0  0.00000000000E+00  0.00000000000E+00  0.45593999997E+02  0.45594000000E+02  0.51100000000E-03 0. -1.
         11   -1    0    0    0    0 -0.00000000000E+00 -0.00000000000E+00 -0.45593999997E+02  0.45594000000E+02  0.51100000000E-03 0.  1.
    9900012    2    1    2    0    0 -0.38744084765E+02  0.10354849947E+02  0.20513083598E+02  0.46142316296E+02  0.99999866357E+01 0.  0.
        -12    1    1    2    0    0  0.38744084765E+02 -0.10354849947E+02 -0.20513083598E+02  0.45045683704E+02  0.00000000000E+00 0.  1.
         11    1    3    3    0    0 -0.12678631461E+02  0.17433239575E+01  0.47631046926E+01  0.13655549814E+02  0.51100000000E-03 0. -1.
        -11    1    3    3    0    0 -0.53146478909E+01  0.10847065115E+00  0.44065041760E+00  0.53339873582E+01  0.51100000000E-03 0.  1.
         12    1    3    3    0    0 -0.20750805413E+02  0.85030553385E+01  0.15309328487E+02  0.27152779123E+02  0.00000000000E+00 0. -1.
</event>
<event>
 7    1  0.3846293E-008  0.4614232E+02  0.7816164E-02  0.1320468E+00
        -11   -1    0    0    0    0  0.00000000000E+00  0.00000000000E+00  0.45593999997E+02  0.45594000000E+02  0.51100000000E-03 0.  1.
         11   -1    0    0    0    0 -0.00000000000E+00 -0.00000000000E+00 -0.45593999997E+02  0.45594000000E+02  0.51100000000E-03 0. -1.
    9900012    2    1    2    0    0 -0.39097006872E+02  0.51267866483E+00 -0.22366820706E+02  0.46142318140E+02  0.10000003456E+02 0.  0.
        -12    1    1    2    0    0  0.39097006872E+02 -0.51267866483E+00  0.22366820706E+02  0.45045681860E+02  0.00000000000E+00 0.  1.
         11    1    3    3    0    0 -0.16956127825E+02  0.34124943316E+00 -0.68611362277E+01  0.18294860278E+02  0.51100000000E-03 0. -1.
        -11    1    3    3    0    0 -0.13213965432E+02  0.33644814254E+01 -0.86530240704E+01  0.16149410006E+02  0.51100000000E-03 0.  1.
        -12    1    3    3    0    0 -0.89269136145E+01 -0.31930521937E+01 -0.68526604075E+01  0.11698047857E+02  0.00000000000E+00 0.  1.
</event>
<event>
 7    1  0.3846293E-008  0.4614232E+02  0.7816164E-02  0.1320468E+00
        -11   -1    0    0    0    0  0.00000000000E+00  0.00000000000E+00  0.45593999997E+02  0.45594000000E+02  0.51100000000E-03 0.  1.
         11   -1    0    0    0    0 -0.00000000000E+00 -0.00000000000E+00 -0.45593999997E+02  0.45594000000E+02  0.51100000000E-03 0. -1.
    9900012    2    1    2    0    0  0.34106183609E+02  0.26994272420E+02 -0.11712854060E+02  0.46142318142E+02  0.10000003469E+02 0.  0.
        -12    1    1    2    0    0 -0.34106183609E+02 -0.26994272420E+02  0.11712854060E+02  0.45045681858E+02  0.00000000000E+00 0.  1.
         11    1    3    3    0    0  0.91288113442E+01  0.25635298184E+01 -0.25023603080E+01  0.98065635704E+01  0.51100000000E-03 0. -1.
        -11    1    3    3    0    0  0.49269314697E+01  0.60995553542E+01 -0.34413052627E+01  0.85628156233E+01  0.51100000000E-03 0.  1.
         12    1    3    3    0    0  0.20050440795E+02  0.18331187247E+02 -0.57691884897E+01  0.27772938948E+02  0.00000000000E+00 0. -1.
</event>
<event>
 7    1  0.3846293E-008  0.4614232E+02  0.7816164E-02  0.1320468E+00
        -11   -1    0    0    0    0  0.00000000000E+00  0.00000000000E+00  0.45593999997E+02  0.45594000000E+02  0.51100000000E-03 0.  1.
         11   -1    0    0    0    0 -0.00000000000E+00 -0.00000000000E+00 -0.45593999997E+02  0.45594000000E+02  0.51100000000E-03 0. -1.
    9900012    2    1    2    0    0  0.21771844295E+02 -0.15336109676E+01 -0.39404927722E+02  0.46142317683E+02  0.99999992914E+01 0.  0.
        -12    1    1    2    0    0 -0.21771844295E+02  0.15336109676E+01  0.39404927722E+02  0.45045682317E+02  0.00000000000E+00 0.  1.
         11    1    3    3    0    0  0.77000875310E+01 -0.24290866195E+00 -0.10354457270E+02  0.12906011709E+02  0.51100000000E-03 0. -1.
        -11    1    3    3    0    0  0.45631544824E+01 -0.21529356718E+01 -0.17695653646E+02  0.18400914898E+02  0.51100000000E-03 0.  1.
        -12    1    3    3    0    0  0.95086022818E+01  0.86223336614E+00 -0.11354816805E+02  0.14835391077E+02  0.00000000000E+00 0.  1.
</event>
<event>
 7    1  0.3846293E-008  0.4614232E+02  0.7816164E-02  0.1320468E+00
        -11   -1    0    0    0    0  0.00000000000E+00  0.00000000000E+00  0.45593999997E+02  0.45594000000E+02  0.51100000000E-03 0.  1.
         11   -1    0    0    0    0 -0.00000000000E+00 -0.00000000000E+00 -0.45593999997E+02  0.45594000000E+02  0.51100000000E-03 0. -1.
    9900012    2    1    2    0    0  0.29932908087E+02 -0.33094662478E+02  0.61544991722E+01  0.46142317286E+02  0.99999956717E+01 0.  0.
        -12    1    1    2    0    0 -0.29932908087E+02  0.33094662478E+02 -0.61544991722E+01  0.45045682714E+02  0.00000000000E+00 0.  1.
         11    1    3    3    0    0  0.13733079669E+01 -0.67386559172E+00  0.11796675183E+01  0.19317570558E+01  0.51100000000E-03 0. -1.
        -11    1    3    3    0    0  0.10413320894E+02 -0.10364944745E+02  0.53796043072E+01  0.15646388541E+02  0.51100000000E-03 0.  1.
         12    1    3    3    0    0  0.18146279226E+02 -0.22055852141E+02 -0.40477265342E+00  0.28564171690E+02  0.00000000000E+00 0. -1.
</event>
<event>
 7    1  0.3846293E-008  0.4614232E+02  0.7816164E-02  0.1320468E+00
        -11   -1    0    0    0    0  0.00000000000E+00  0.00000000000E+00  0.45593999997E+02  0.45594000000E+02  0.51100000000E-03 0. -1.
         11   -1    0    0    0    0 -0.00000000000E+00 -0.00000000000E+00 -0.45593999997E+02  0.45594000000E+02  0.51100000000E-03 0.  1.
    9900012    2    1    2    0    0  0.18931355564E+02  0.19497230289E+02  0.35924577943E+02  0.46142317490E+02  0.99999975288E+01 0.  0.
        -12    1    1    2    0    0 -0.18931355564E+02 -0.19497230289E+02 -0.35924577943E+02  0.45045682510E+02  0.00000000000E+00 0.  1.
         11    1    3    3    0    0  0.95419181025E+01  0.66680227234E+01  0.18913769982E+02  0.22209039225E+02  0.51100000000E-03 0. -1.
        -11    1    3    3    0    0  0.64737568623E+00  0.12901039358E+01  0.47426714719E+01  0.49574586631E+01  0.51100000000E-03 0.  1.
        -12    1    3    3    0    0  0.87420617754E+01  0.11539103629E+02  0.12268136489E+02  0.18975819602E+02  0.00000000000E+00 0.  1.
</event>
<event>
 7    1  0.3846293E-008  0.4614232E+02  0.7816164E-02  0.1320468E+00
        -11   -1    0    0    0    0  0.00000000000E+00  0.00000000000E+00  0.45593999997E+02  0.45594000000E+02  0.51100000000E-03 0.  1.
         11   -1    0    0    0    0 -0.00000000000E+00 -0.00000000000E+00 -0.45593999997E+02  0.45594000000E+02  0.51100000000E-03 0. -1.
    9900012    2    1    2    0    0  0.15274721428E+02  0.15478468048E+02 -0.39448869403E+02  0.46142318909E+02  0.10000010463E+02 0.  0.
        -12    1    1    2    0    0 -0.15274721428E+02 -0.15478468048E+02  0.39448869403E+02  0.45045681092E+02  0.00000000000E+00 0.  1.
         11    1    3    3    0    0  0.27387362153E+01  0.53884916288E+00 -0.29166157871E+01  0.40370388143E+01  0.51100000000E-03 0. -1.
        -11    1    3    3    0    0  0.84715058611E+00 -0.56808786704E+00 -0.42079006418E+00  0.11033822907E+01  0.51100000000E-03 0.  1.
         12    1    3    3    0    0  0.11688834627E+02  0.15507706752E+02 -0.36111463552E+02  0.41001897804E+02  0.00000000000E+00 0. -1.
</event>
<event>
 7    1  0.3846293E-008  0.4614232E+02  0.7816164E-02  0.1320468E+00
        -11   -1    0    0    0    0  0.00000000000E+00  0.00000000000E+00  0.45593999997E+02  0.45594000000E+02  0.51100000000E-03 0.  1.
         11   -1    0    0    0    0 -0.00000000000E+00 -0.00000000000E+00 -0.45593999997E+02  0.45594000000E+02  0.51100000000E-03 0. -1.
    9900012    2    1    2    0    0  0.38456607659E+02 -0.18983818690E+02 -0.13777425017E+02  0.46142317801E+02  0.10000000366E+02 0.  0.
        -12    1    1    2    0    0 -0.38456607659E+02  0.18983818690E+02  0.13777425017E+02  0.45045682199E+02  0.00000000000E+00 0.  1.
         11    1    3    3    0    0  0.46869145469E+01 -0.17394596438E+01 -0.20937938422E+01  0.54200425032E+01  0.51100000000E-03 0. -1.
        -11    1    3    3    0    0  0.67416964167E+01 -0.24438377013E-01 -0.42651615705E+00  0.67552190270E+01  0.51100000000E-03 0.  1.
         12    1    3    3    0    0  0.27027996695E+02 -0.17219920669E+02 -0.11257115018E+02  0.33967056271E+02  0.00000000000E+00 0. -1.
</event>
<event>
 7    1  0.3846293E-008  0.4614232E+02  0.7816164E-02  0.1320468E+00
        -11   -1    0    0    0    0  0.00000000000E+00  0.00000000000E+00  0.45593999997E+02  0.45594000000E+02  0.51100000000E-03 0. -1.
         11   -1    0    0    0    0 -0.00000000000E+00 -0.00000000000E+00 -0.45593999997E+02  0.45594000000E+02  0.51100000000E-03 0.  1.
    9900012    2    1    2    0    0  0.44376077879E+02  0.77337735714E+01 -0.25683235786E+00  0.46142317583E+02  0.99999983735E+01 0.  0.
        -12    1    1    2    0    0 -0.44376077879E+02 -0.77337735714E+01  0.25683235786E+00  0.45045682417E+02  0.00000000000E+00 0.  1.
         11    1    3    3    0    0  0.17944719546E+02  0.50731915072E+01  0.36832389011E+01  0.19008326615E+02  0.51100000000E-03 0. -1.
        -11    1    3    3    0    0  0.19082582038E+01 -0.52917735753E+00  0.41624250767E+00  0.20235454367E+01  0.51100000000E-03 0.  1.
         12    1    3    3    0    0  0.24523100129E+02  0.31897594217E+01 -0.43563137666E+01  0.25110445531E+02  0.00000000000E+00 0. -1.
</event>
<event>
 7    1  0.3846293E-008  0.4614232E+02  0.7816164E-02  0.1320468E+00
        -11   -1    0    0    0    0  0.00000000000E+00  0.00000000000E+00  0.45593999997E+02  0.45594000000E+02  0.51100000000E-03 0.  1.
         11   -1    0    0    0    0 -0.00000000000E+00 -0.00000000000E+00 -0.45593999997E+02  0.45594000000E+02  0.51100000000E-03 0. -1.
    9900012    2    1    2    0    0  0.27397664219E+02  0.30340410138E+02 -0.18919328439E+02  0.46142317848E+02  0.10000000790E+02 0.  0.
        -12    1    1    2    0    0 -0.27397664219E+02 -0.30340410138E+02  0.18919328439E+02  0.45045682152E+02  0.00000000000E+00 0.  1.
         11    1    3    3    0    0  0.68387420395E+01  0.33313285772E+01 -0.47620065166E+01  0.89745667916E+01  0.51100000000E-03 0. -1.
        -11    1    3    3    0    0  0.12614386257E+02  0.12146080514E+02 -0.70463019605E+01  0.18875920747E+02  0.51100000000E-03 0.  1.
        -12    1    3    3    0    0  0.79445359224E+01  0.14863001047E+02 -0.71110199616E+01  0.18291830309E+02  0.00000000000E+00 0.  1.
</event>
<event>
 7    1  0.3846293E-008  0.4614232E+02  0.7816164E-02  0.1320468E+00
        -11   -1    0    0    0    0  0.00000000000E+00  0.00000000000E+00  0.45593999997E+02  0.45594000000E+02  0.51100000000E-03 0.  1.
         11   -1    0    0    0    0 -0.00000000000E+00 -0.00000000000E+00 -0.45593999997E+02  0.45594000000E+02  0.51100000000E-03 0. -1.
    9900012    2    1    2    0    0  0.20804422899E+02  0.11965269060E+02 -0.38119835282E+02  0.46142317435E+02  0.99999970244E+01 0.  0.
        -12    1    1    2    0    0 -0.20804422899E+02 -0.11965269060E+02  0.38119835282E+02  0.45045682565E+02  0.00000000000E+00 0.  1.
         11    1    3    3    0    0  0.74620708637E+01  0.55957444587E+01 -0.13580610127E+02  0.16475066898E+02  0.51100000000E-03 0. -1.
        -11    1    3    3    0    0  0.75597235913E+01  0.70963696945E+01 -0.18901046192E+02  0.21558233486E+02  0.51100000000E-03 0.  1.
        -12    1    3    3    0    0  0.57826284437E+01 -0.72684509297E+00 -0.56381789631E+01  0.81090170506E+01  0.00000000000E+00 0.  1.
</event>
<event>
 7    1  0.3846293E-008  0.4614232E+02  0.7816164E-02  0.1320468E+00
        -11   -1    0    0    0    0  0.00000000000E+00  0.00000000000E+00  0.45593999997E+02  0.45594000000E+02  0.51100000000E-03 0. -1.
         11   -1    0    0    0    0 -0.00000000000E+00 -0.00000000000E+00 -0.45593999997E+02  0.45594000000E+02  0.51100000000E-03 0.  1.
    9900012    2    1    2    0    0 -0.40990223042E+02  0.14036378805E+00  0.18678742247E+02  0.46142317644E+02  0.99999989311E+01 0.  0.
        -12    1    1    2    0    0  0.40990223042E+02 -0.14036378805E+00 -0.18678742247E+02  0.45045682356E+02  0.00000000000E+00 0.  1.
         11    1    3    3    0    0 -0.69510633965E+01 -0.12788205324E+01  0.45426725147E+01  0.84016985267E+01  0.51100000000E-03 0. -1.
        -11    1    3    3    0    0 -0.14321999486E+02  0.24710351016E+01  0.22855775243E+01  0.14712224462E+02  0.51100000000E-03 0.  1.
        -12    1    3    3    0    0 -0.19717160159E+02 -0.10518507812E+01  0.11850492208E+02  0.23028394655E+02  0.00000000000E+00 0.  1.
</event>
<event>
 7    1  0.3846293E-008  0.4614232E+02  0.7816164E-02  0.1320468E+00
        -11   -1    0    0    0    0  0.00000000000E+00  0.00000000000E+00  0.45593999997E+02  0.45594000000E+02  0.51100000000E-03 0.  1.
         11   -1    0    0    0    0 -0.00000000000E+00 -0.00000000000E+00 -0.45593999997E+02  0.45594000000E+02  0.51100000000E-03 0. -1.
    9900012    2    1    2    0    0  0.61958115602E+01 -0.34332440696E+02 -0.28495769764E+02  0.46142318082E+02  0.10000002928E+02 0.  0.
        -12    1    1    2    0    0 -0.61958115602E+01  0.34332440696E+02  0.28495769764E+02  0.45045681918E+02  0.00000000000E+00 0.  1.
         11    1    3    3    0    0 -0.79782947305E+00 -0.88563249883E+01 -0.70138562313E+01  0.11325422891E+02  0.51100000000E-03 0. -1.
        -11    1    3    3    0    0  0.20726139851E+01 -0.11999181827E+01 -0.73214546713E+00  0.25043102089E+01  0.51100000000E-03 0.  1.
         12    1    3    3    0    0  0.49210270482E+01 -0.24276197525E+02 -0.20749768065E+02  0.32312584982E+02  0.00000000000E+00 0. -1.
</event>
<event>
 7    1  0.3846293E-008  0.4614232E+02  0.7816164E-02  0.1320468E+00
        -11   -1    0    0    0    0  0.00000000000E+00  0.00000000000E+00  0.45593999997E+02  0.45594000000E+02  0.51100000000E-03 0.  1.
         11   -1    0    0    0    0 -0.00000000000E+00 -0.00000000000E+00 -0.45593999997E+02  0.45594000000E+02  0.51100000000E-03 0. -1.
    9900012    2    1    2    0    0 -0.75211858748E+01 -0.33726514438E+02 -0.28897534266E+02  0.46142317634E+02  0.99999988425E+01 0.  0.
        -12    1    1    2    0    0  0.75211858748E+01  0.33726514438E+02  0.28897534266E+02  0.45045682366E+02  0.00000000000E+00 0.  1.
         11    1    3    3    0    0  0.35318962413E+00 -0.71328400892E+01 -0.40949333966E+01  0.82322919307E+01  0.51100000000E-03 0. -1.
        -11    1    3    3    0    0 -0.27696147253E+01 -0.10677498972E+02 -0.53410458091E+01  0.12255876983E+02  0.51100000000E-03 0.  1.
         12    1    3    3    0    0 -0.51047607736E+01 -0.15916175377E+02 -0.19461555061E+02  0.25654148720E+02  0.00000000000E+00 0. -1.
</event>
<event>
 7    1  0.3846293E-008  0.4614232E+02  0.7816164E-02  0.1320468E+00
        -11   -1    0    0    0    0  0.00000000000E+00  0.00000000000E+00  0.45593999997E+02  0.45594000000E+02  0.51100000000E-03 0. -1.
         11   -1    0    0    0    0 -0.00000000000E+00 -0.00000000000E+00 -0.45593999997E+02  0.45594000000E+02  0.51100000000E-03 0.  1.
    9900012    2    1    2    0    0 -0.18015620688E+02  0.37524666128E+02  0.17217733002E+02  0.46142317782E+02  0.10000000186E+02 0.  0.
        -12    1    1    2    0    0  0.18015620688E+02 -0.37524666128E+02 -0.17217733002E+02  0.45045682218E+02  0.00000000000E+00 0.  1.
         11    1    3    3    0    0 -0.14711776758E+01  0.49094792129E+01 -0.24522633704E+00  0.51310316812E+01  0.51100000000E-03 0.  1.
        -11    1    3    3    0    0 -0.12450480982E+02  0.18008089927E+02  0.93237947784E+01  0.23795775440E+02  0.51100000000E-03 0. -1.
        -12    1    3    3    0    0 -0.40939620307E+01  0.14607096988E+02  0.81391645605E+01  0.17215510660E+02  0.00000000000E+00 0.  1.
</event>
<event>
 7    1  0.3846293E-008  0.4614232E+02  0.7816164E-02  0.1320468E+00
        -11   -1    0    0    0    0  0.00000000000E+00  0.00000000000E+00  0.45593999997E+02  0.45594000000E+02  0.51100000000E-03 0.  1.
         11   -1    0    0    0    0 -0.00000000000E+00 -0.00000000000E+00 -0.45593999997E+02  0.45594000000E+02  0.51100000000E-03 0. -1.
    9900012    2    1    2    0    0 -0.33443357757E+02 -0.59315128115E+01 -0.29588384724E+02  0.46142317267E+02  0.99999954971E+01 0.  0.
        -12    1    1    2    0    0  0.33443357757E+02  0.59315128115E+01  0.29588384724E+02  0.45045682733E+02  0.00000000000E+00 0.  1.
         11    1    3    3    0    0 -0.19252618161E+02  0.12545780145E+01 -0.16247288711E+02  0.25223236564E+02  0.51100000000E-03 0. -1.
        -11    1    3    3    0    0 -0.56258155695E+01 -0.41565486805E+01 -0.51423238438E+01  0.86816008046E+01  0.51100000000E-03 0.  1.
         12    1    3    3    0    0 -0.85649240265E+01 -0.30295421455E+01 -0.81987721689E+01  0.12237479899E+02  0.00000000000E+00 0. -1.
</event>
<event>
 7    1  0.3846293E-008  0.4614232E+02  0.7816164E-02  0.1320468E+00
        -11   -1    0    0    0    0  0.00000000000E+00  0.00000000000E+00  0.45593999997E+02  0.45594000000E+02  0.51100000000E-03 0.  1.
         11   -1    0    0    0    0 -0.00000000000E+00 -0.00000000000E+00 -0.45593999997E+02  0.45594000000E+02  0.51100000000E-03 0. -1.
    9900012    2    1    2    0    0 -0.18906760965E+02 -0.10139125061E+02 -0.39608659107E+02  0.46142319369E+02  0.10000014665E+02 0.  0.
        -12    1    1    2    0    0  0.18906760965E+02  0.10139125061E+02  0.39608659107E+02  0.45045680631E+02  0.00000000000E+00 0.  1.
         11    1    3    3    0    0 -0.36071032763E+01 -0.57342085198E+01 -0.12609568230E+02  0.14314103276E+02  0.51100000000E-03 0. -1.
        -11    1    3    3    0    0 -0.92096015667E+01 -0.11010242911E+01 -0.19644272942E+02  0.21723868789E+02  0.51100000000E-03 0.  1.
         12    1    3    3    0    0 -0.60900561219E+01 -0.33038922499E+01 -0.73548179357E+01  0.10104347304E+02  0.00000000000E+00 0. -1.
</event>
<event>
 7    1  0.3846293E-008  0.4614232E+02  0.7816164E-02  0.1320468E+00
        -11   -1    0    0    0    0  0.00000000000E+00  0.00000000000E+00  0.45593999997E+02  0.45594000000E+02  0.51100000000E-03 0.  1.
         11   -1    0    0    0    0 -0.00000000000E+00 -0.00000000000E+00 -0.45593999997E+02  0.45594000000E+02  0.51100000000E-03 0. -1.
    9900012    2    1    2    0    0 -0.23656575207E+02  0.28338175020E+02 -0.25815259185E+02  0.46142319622E+02  0.10000016969E+02 0.  0.
        -12    1    1    2    0    0  0.23656575207E+02 -0.28338175020E+02  0.25815259185E+02  0.45045680378E+02  0.00000000000E+00 0.  1.
         11    1    3    3    0    0 -0.11755909711E+02  0.16737322864E+02 -0.11649262801E+02  0.23538154427E+02  0.51100000000E-03 0. -1.
        -11    1    3    3    0    0 -0.12968762077E+01  0.26442135415E+01 -0.26044244969E+00  0.29566169319E+01  0.51100000000E-03 0.  1.
         12    1    3    3    0    0 -0.10603789288E+02  0.89566386145E+01 -0.13905553934E+02  0.19647548263E+02  0.00000000000E+00 0. -1.
</event>
<event>
 7    1  0.3846293E-008  0.4614232E+02  0.7816164E-02  0.1320468E+00
        -11   -1    0    0    0    0  0.00000000000E+00  0.00000000000E+00  0.45593999997E+02  0.45594000000E+02  0.51100000000E-03 0. -1.
         11   -1    0    0    0    0 -0.00000000000E+00 -0.00000000000E+00 -0.45593999997E+02  0.45594000000E+02  0.51100000000E-03 0.  1.
    9900012    2    1    2    0    0 -0.30850289489E+02  0.28321010736E+02  0.16591963543E+02  0.46142320242E+02  0.10000022619E+02 0.  0.
        -12    1    1    2    0    0  0.30850289489E+02 -0.28321010736E+02 -0.16591963543E+02  0.45045679758E+02  0.00000000000E+00 0.  1.
         11    1    3    3    0    0 -0.11336673920E+02  0.78055041169E+01  0.22196475639E+01  0.13941768383E+02  0.51100000000E-03 0.  1.
        -11    1    3    3    0    0 -0.17826828758E+02  0.19984376013E+02  0.14451157018E+02  0.30430363908E+02  0.51100000000E-03 0. -1.
         12    1    3    3    0    0 -0.16867868115E+01  0.53113060682E+00 -0.78841038934E-01  0.17701879500E+01  0.00000000000E+00 0. -1.
</event>
<event>
 7    1  0.3846293E-008  0.4614232E+02  0.7816164E-02  0.1320468E+00
        -11   -1    0    0    0    0  0.00000000000E+00  0.00000000000E+00  0.45593999997E+02  0.45594000000E+02  0.51100000000E-03 0.  1.
         11   -1    0    0    0    0 -0.00000000000E+00 -0.00000000000E+00 -0.45593999997E+02  0.45594000000E+02  0.51100000000E-03 0. -1.
    9900012    2    1    2    0    0 -0.10279841927E+02 -0.32211425325E+02 -0.29763432423E+02  0.46142323391E+02  0.10000051337E+02 0.  0.
        -12    1    1    2    0    0  0.10279841927E+02  0.32211425325E+02  0.29763432423E+02  0.45045676609E+02  0.00000000000E+00 0.  1.
         11    1    3    3    0    0 -0.12560526911E+01 -0.29437999697E+01 -0.14405836670E+01  0.35098302220E+01  0.51100000000E-03 0. -1.
        -11    1    3    3    0    0 -0.10029410312E+01 -0.68856176938E+01 -0.21726473025E+01  0.72895828618E+01  0.51100000000E-03 0.  1.
         12    1    3    3    0    0 -0.80208482052E+01 -0.22382007662E+02 -0.26150201454E+02  0.35342910307E+02  0.00000000000E+00 0. -1.
</event>
<event>
 7    1  0.3846293E-008  0.4614232E+02  0.7816164E-02  0.1320468E+00
        -11   -1    0    0    0    0  0.00000000000E+00  0.00000000000E+00  0.45593999997E+02  0.45594000000E+02  0.51100000000E-03 0.  1.
         11   -1    0    0    0    0 -0.00000000000E+00 -0.00000000000E+00 -0.45593999997E+02  0.45594000000E+02  0.51100000000E-03 0. -1.
    9900012    2    1    2    0    0  0.16641121211E+02 -0.38431653736E+02 -0.16588987147E+02  0.46142318535E+02  0.10000007058E+02 0.  0.
        -12    1    1    2    0    0 -0.16641121211E+02  0.38431653736E+02  0.16588987147E+02  0.45045681465E+02  0.00000000000E+00 0.  1.
         11    1    3    3    0    0  0.64150063462E+01 -0.17926745809E+02 -0.57522945346E+01  0.19889932489E+02  0.51100000000E-03 0. -1.
        -11    1    3    3    0    0  0.25175952309E+01 -0.10922304618E+02 -0.27742467445E+01  0.11546924663E+02  0.51100000000E-03 0.  1.
        -12    1    3    3    0    0  0.77085196341E+01 -0.95826033093E+01 -0.80624458677E+01  0.14705461384E+02  0.00000000000E+00 0.  1.
</event>
<event>
 7    1  0.3846293E-008  0.4614232E+02  0.7816164E-02  0.1320468E+00
        -11   -1    0    0    0    0  0.00000000000E+00  0.00000000000E+00  0.45593999997E+02  0.45594000000E+02  0.51100000000E-03 0.  1.
         11   -1    0    0    0    0 -0.00000000000E+00 -0.00000000000E+00 -0.45593999997E+02  0.45594000000E+02  0.51100000000E-03 0. -1.
    9900012    2    1    2    0    0 -0.95894361603E+01 -0.40472069267E+02 -0.17296467512E+02  0.46142318020E+02  0.10000002364E+02 0.  0.
        -12    1    1    2    0    0  0.95894361603E+01  0.40472069267E+02  0.17296467512E+02  0.45045681980E+02  0.00000000000E+00 0.  1.
         11    1    3    3    0    0 -0.39964466401E+01 -0.13018070630E+02 -0.29313167218E+01  0.13929621914E+02  0.51100000000E-03 0. -1.
        -11    1    3    3    0    0 -0.78325406583E+00 -0.18072977301E+02 -0.72212347297E+01  0.19477993396E+02  0.51100000000E-03 0.  1.
         12    1    3    3    0    0 -0.48097354543E+01 -0.93810213359E+01 -0.71439160606E+01  0.12734702711E+02  0.00000000000E+00 0. -1.
</event>
<event>
 7    1  0.3846293E-008  0.4614232E+02  0.7816164E-02  0.1320468E+00
        -11   -1    0    0    0    0  0.00000000000E+00  0.00000000000E+00  0.45593999997E+02  0.45594000000E+02  0.51100000000E-03 0.  1.
         11   -1    0    0    0    0 -0.00000000000E+00 -0.00000000000E+00 -0.45593999997E+02  0.45594000000E+02  0.51100000000E-03 0. -1.
    9900012    2    1    2    0    0 -0.66315041935E+01  0.30106987878E+01 -0.44453035791E+02  0.46142317121E+02  0.99999941589E+01 0.  0.
        -12    1    1    2    0    0  0.66315041935E+01 -0.30106987878E+01  0.44453035791E+02  0.45045682879E+02  0.00000000000E+00 0.  1.
         11    1    3    3    0    0 -0.61300257236E+01  0.33087427505E+01 -0.35665396936E+02  0.36339311122E+02  0.51100000000E-03 0. -1.
        -11    1    3    3    0    0 -0.11720541165E+01 -0.14800401334E+01 -0.80262224348E+01  0.82452699460E+01  0.51100000000E-03 0.  1.
        -12    1    3    3    0    0  0.67057564659E+00  0.11819961707E+01 -0.76141642036E+00  0.15577360529E+01  0.00000000000E+00 0.  1.
</event>
<event>
 7    1  0.3846293E-008  0.4614232E+02  0.7816164E-02  0.1320468E+00
        -11   -1    0    0    0    0  0.00000000000E+00  0.00000000000E+00  0.45593999997E+02  0.45594000000E+02  0.51100000000E-03 0. -1.
         11   -1    0    0    0    0 -0.00000000000E+00 -0.00000000000E+00 -0.45593999997E+02  0.45594000000E+02  0.51100000000E-03 0.  1.
    9900012    2    1    2    0    0  0.13219723397E+02  0.42660972642E+02  0.58646307069E+01  0.46142316891E+02  0.99999920637E+01 0.  0.
        -12    1    1    2    0    0 -0.13219723397E+02 -0.42660972642E+02 -0.58646307069E+01  0.45045683109E+02  0.00000000000E+00 0.  1.
         11    1    3    3    0    0  0.78206554324E+00  0.28073513918E+01 -0.95322084433E+00  0.30661830653E+01  0.51100000000E-03 0. -1.
        -11    1    3    3    0    0 -0.49556672443E+00  0.21148554797E+01 -0.10526601659E+01  0.24137716885E+01  0.51100000000E-03 0.  1.
         12    1    3    3    0    0  0.12933224579E+02  0.37738765770E+02  0.78705117171E+01  0.40662362137E+02  0.00000000000E+00 0. -1.
</event>
<event>
 7    1  0.3846293E-008  0.4614232E+02  0.7816164E-02  0.1320468E+00
        -11   -1    0    0    0    0  0.00000000000E+00  0.00000000000E+00  0.45593999997E+02  0.45594000000E+02  0.51100000000E-03 0.  1.
         11   -1    0    0    0    0 -0.00000000000E+00 -0.00000000000E+00 -0.45593999997E+02  0.45594000000E+02  0.51100000000E-03 0. -1.
    9900012    2    1    2    0    0  0.33907000844E+02 -0.10964442927E+02 -0.27553757364E+02  0.46142320298E+02  0.10000023130E+02 0.  0.
        -12    1    1    2    0    0 -0.33907000844E+02  0.10964442927E+02  0.27553757364E+02  0.45045679702E+02  0.00000000000E+00 0.  1.
         11    1    3    3    0    0  0.92658913380E+01 -0.51302777921E+01 -0.10015838898E+02  0.14577157528E+02  0.51100000000E-03 0. -1.
        -11    1    3    3    0    0  0.61138327033E+01 -0.45290175291E+01 -0.41225441926E+01  0.86536882879E+01  0.51100000000E-03 0.  1.
         12    1    3    3    0    0  0.18527276803E+02 -0.13051476057E+01 -0.13415374274E+02  0.22911474481E+02  0.00000000000E+00 0. -1.
</event>
<event>
 7    1  0.3846293E-008  0.4614232E+02  0.7816164E-02  0.1320468E+00
        -11   -1    0    0    0    0  0.00000000000E+00  0.00000000000E+00  0.45593999997E+02  0.45594000000E+02  0.51100000000E-03 0.  1.
         11   -1    0    0    0    0 -0.00000000000E+00 -0.00000000000E+00 -0.45593999997E+02  0.45594000000E+02  0.51100000000E-03 0. -1.
    9900012    2    1    2    0    0  0.26085850788E+02  0.27665451768E+02 -0.24150873413E+02  0.46142317416E+02  0.99999968541E+01 0.  0.
        -12    1    1    2    0    0 -0.26085850788E+02 -0.27665451768E+02  0.24150873413E+02  0.45045682584E+02  0.00000000000E+00 0.  1.
         11    1    3    3    0    0  0.13378408985E+02  0.96730207742E+01 -0.13701974256E+02  0.21454446081E+02  0.51100000000E-03 0. -1.
        -11    1    3    3    0    0  0.77426180463E+01  0.81460635311E+01 -0.64497185888E+01  0.12957829888E+02  0.51100000000E-03 0.  1.
        -12    1    3    3    0    0  0.49648237572E+01  0.98463674625E+01 -0.39991805674E+01  0.11730041447E+02  0.00000000000E+00 0.  1.
</event>
<event>
 7    1  0.3846293E-008  0.4614232E+02  0.7816164E-02  0.1320468E+00
        -11   -1    0    0    0    0  0.00000000000E+00  0.00000000000E+00  0.45593999997E+02  0.45594000000E+02  0.51100000000E-03 0.  1.
         11   -1    0    0    0    0 -0.00000000000E+00 -0.00000000000E+00 -0.45593999997E+02  0.45594000000E+02  0.51100000000E-03 0. -1.
    9900012    2    1    2    0    0  0.10080254668E+02 -0.37043733131E+02 -0.23564039385E+02  0.46142315961E+02  0.99999835818E+01 0.  0.
        -12    1    1    2    0    0 -0.10080254668E+02  0.37043733131E+02  0.23564039385E+02  0.45045684039E+02  0.00000000000E+00 0.  1.
         11    1    3    3    0    0  0.81681139524E+00 -0.12621895287E+02 -0.52412853825E+01  0.13691256123E+02  0.51100000000E-03 0. -1.
        -11    1    3    3    0    0  0.95695545013E+01 -0.23514073905E+02 -0.16181563096E+02  0.30105332243E+02  0.51100000000E-03 0.  1.
         12    1    3    3    0    0 -0.30611122870E+00 -0.90776393903E+00 -0.21411909066E+01  0.23457275954E+01  0.00000000000E+00 0. -1.
</event>
<event>
 7    1  0.3846293E-008  0.4614232E+02  0.7816164E-02  0.1320468E+00
        -11   -1    0    0    0    0  0.00000000000E+00  0.00000000000E+00  0.45593999997E+02  0.45594000000E+02  0.51100000000E-03 0.  1.
         11   -1    0    0    0    0 -0.00000000000E+00 -0.00000000000E+00 -0.45593999997E+02  0.45594000000E+02  0.51100000000E-03 0. -1.
    9900012    2    1    2    0    0  0.27905356719E+02 -0.80386722392E+01 -0.34435215716E+02  0.46142320225E+02  0.10000022470E+02 0.  0.
        -12    1    1    2    0    0 -0.27905356719E+02  0.80386722392E+01  0.34435215716E+02  0.45045679775E+02  0.00000000000E+00 0.  1.
         11    1    3    3    0    0  0.97590137703E+01 -0.18836586531E+01 -0.14793252813E+02  0.17822088787E+02  0.51100000000E-03 0. -1.
        -11    1    3    3    0    0  0.13482128889E+02 -0.38608067644E+01 -0.18102349749E+02  0.22899098125E+02  0.51100000000E-03 0.  1.
        -12    1    3    3    0    0  0.46642140594E+01 -0.22942068217E+01 -0.15396131540E+01  0.54211333129E+01  0.00000000000E+00 0.  1.
</event>
<event>
 7    1  0.3846293E-008  0.4614232E+02  0.7816164E-02  0.1320468E+00
        -11   -1    0    0    0    0  0.00000000000E+00  0.00000000000E+00  0.45593999997E+02  0.45594000000E+02  0.51100000000E-03 0.  1.
         11   -1    0    0    0    0 -0.00000000000E+00 -0.00000000000E+00 -0.45593999997E+02  0.45594000000E+02  0.51100000000E-03 0. -1.
    9900012    2    1    2    0    0  0.44901947112E+02  0.35717525688E+01  0.41384545457E+00  0.46142317200E+02  0.99999948794E+01 0.  0.
        -12    1    1    2    0    0 -0.44901947112E+02 -0.35717525688E+01 -0.41384545457E+00  0.45045682800E+02  0.00000000000E+00 0.  1.
         11    1    3    3    0    0  0.27963745360E+02  0.51111432008E+01  0.12037050277E+01  0.28452482237E+02  0.51100000000E-03 0. -1.
        -11    1    3    3    0    0  0.84517519644E+01 -0.30963713390E+01  0.21331232728E+00  0.90036175589E+01  0.51100000000E-03 0.  1.
        -12    1    3    3    0    0  0.84864497880E+01  0.15569807070E+01 -0.10031719004E+01  0.86862174039E+01  0.00000000000E+00 0.  1.
</event>
<event>
 7    1  0.3846293E-008  0.4614232E+02  0.7816164E-02  0.1320468E+00
        -11   -1    0    0    0    0  0.00000000000E+00  0.00000000000E+00  0.45593999997E+02  0.45594000000E+02  0.51100000000E-03 0.  1.
         11   -1    0    0    0    0 -0.00000000000E+00 -0.00000000000E+00 -0.45593999997E+02  0.45594000000E+02  0.51100000000E-03 0. -1.
    9900012    2    1    2    0    0  0.12141311971E+02 -0.37923183114E+02 -0.21060251491E+02  0.46142318001E+02  0.10000002184E+02 0.  0.
        -12    1    1    2    0    0 -0.12141311971E+02  0.37923183114E+02  0.21060251491E+02  0.45045681999E+02  0.00000000000E+00 0.  1.
         11    1    3    3    0    0  0.58139276522E+01 -0.12293953750E+02 -0.79513643097E+01  0.15753324989E+02  0.51100000000E-03 0. -1.
        -11    1    3    3    0    0 -0.36869838917E+00  0.38431664997E+00 -0.43501943813E+00  0.68766268060E+00  0.51100000000E-03 0.  1.
        -12    1    3    3    0    0  0.66960827076E+01 -0.26013546014E+02 -0.12673867744E+02  0.29701330331E+02  0.00000000000E+00 0.  1.
</event>
<event>
 7    1  0.3846293E-008  0.4614232E+02  0.7816164E-02  0.1320468E+00
        -11   -1    0    0    0    0  0.00000000000E+00  0.00000000000E+00  0.45593999997E+02  0.45594000000E+02  0.51100000000E-03 0. -1.
         11   -1    0    0    0    0 -0.00000000000E+00 -0.00000000000E+00 -0.45593999997E+02  0.45594000000E+02  0.51100000000E-03 0.  1.
    9900012    2    1    2    0    0 -0.68530870665E+01 -0.39907325282E+02  0.19737124401E+02  0.46142317709E+02  0.99999995207E+01 0.  0.
        -12    1    1    2    0    0  0.68530870665E+01  0.39907325282E+02 -0.19737124401E+02  0.45045682291E+02  0.00000000000E+00 0.  1.
         11    1    3    3    0    0 -0.40019955813E+01 -0.15197549802E+02  0.10104251748E+02  0.18683612934E+02  0.51100000000E-03 0. -1.
        -11    1    3    3    0    0  0.13707635992E+01 -0.15291341803E+02  0.50110351268E+01  0.16149755425E+02  0.51100000000E-03 0.  1.
        -12    1    3    3    0    0 -0.42218550844E+01 -0.94184336769E+01  0.46218375262E+01  0.11308949350E+02  0.00000000000E+00 0.  1.
</event>
<event>
 7    1  0.3846293E-008  0.4614232E+02  0.7816164E-02  0.1320468E+00
        -11   -1    0    0    0    0  0.00000000000E+00  0.00000000000E+00  0.45593999997E+02  0.45594000000E+02  0.51100000000E-03 0. -1.
         11   -1    0    0    0    0 -0.00000000000E+00 -0.00000000000E+00 -0.45593999997E+02  0.45594000000E+02  0.51100000000E-03 0.  1.
    9900012    2    1    2    0    0  0.27603948991E+01 -0.22350262787E+02  0.39012298278E+02  0.46142318258E+02  0.10000004528E+02 0.  0.
        -12    1    1    2    0    0 -0.27603948991E+01  0.22350262787E+02 -0.39012298278E+02  0.45045681742E+02  0.00000000000E+00 0.  1.
         11    1    3    3    0    0  0.11788110447E+01 -0.98981875309E+01  0.11384015794E+02  0.15131408650E+02  0.51100000000E-03 0.  1.
        -11    1    3    3    0    0  0.17553967971E+01 -0.12430935955E+02  0.21624476748E+02  0.25004551216E+02  0.51100000000E-03 0. -1.
        -12    1    3    3    0    0 -0.17381294264E+00 -0.21139301712E-01  0.60038057361E+01  0.60063583914E+01  0.00000000000E+00 0.  1.
</event>
<event>
 7    1  0.3846293E-008  0.4614232E+02  0.7816164E-02  0.1320468E+00
        -11   -1    0    0    0    0  0.00000000000E+00  0.00000000000E+00  0.45593999997E+02  0.45594000000E+02  0.51100000000E-03 0.  1.
         11   -1    0    0    0    0 -0.00000000000E+00 -0.00000000000E+00 -0.45593999997E+02  0.45594000000E+02  0.51100000000E-03 0. -1.
    9900012    2    1    2    0    0  0.24824794535E+02 -0.37501440949E+02  0.25465861706E+01  0.46142316543E+02  0.99999888947E+01 0.  0.
        -12    1    1    2    0    0 -0.24824794535E+02  0.37501440949E+02 -0.25465861706E+01  0.45045683457E+02  0.00000000000E+00 0.  1.
         11    1    3    3    0    0  0.60100611864E+00 -0.57790387042E+01 -0.92382398467E+00  0.58831919665E+01  0.51100000000E-03 0. -1.
        -11    1    3    3    0    0  0.40575400303E+01 -0.75189259259E+01  0.16581819069E+01  0.87033008494E+01  0.51100000000E-03 0.  1.
         12    1    3    3    0    0  0.20166248386E+02 -0.24203476319E+02  0.18122282483E+01  0.31555823727E+02  0.00000000000E+00 0. -1.
</event>
<event>
 7    1  0.3846293E-008  0.4614232E+02  0.7816164E-02  0.1320468E+00
        -11   -1    0    0    0    0  0.00000000000E+00  0.00000000000E+00  0.45593999997E+02  0.45594000000E+02  0.51100000000E-03 0. -1.
         11   -1    0    0    0    0 -0.00000000000E+00 -0.00000000000E+00 -0.45593999997E+02  0.45594000000E+02  0.51100000000E-03 0.  1.
    9900012    2    1    2    0    0 -0.16751329084E+01  0.43063630757E+02  0.13108437956E+02  0.46142317522E+02  0.99999978178E+01 0.  0.
        -12    1    1    2    0    0  0.16751329084E+01 -0.43063630757E+02 -0.13108437956E+02  0.45045682478E+02  0.00000000000E+00 0.  1.
         11    1    3    3    0    0  0.69473349621E+00  0.26936335273E+02  0.11969170748E+02  0.29484061139E+02  0.51100000000E-03 0. -1.
        -11    1    3    3    0    0 -0.77484719026E+00  0.45705542049E+01  0.18007333700E+01  0.49732278089E+01  0.51100000000E-03 0.  1.
        -12    1    3    3    0    0 -0.15950192143E+01  0.11556741280E+02 -0.66146616197E+00  0.11685028574E+02  0.00000000000E+00 0.  1.
</event>
<event>
 7    1  0.3846293E-008  0.4614232E+02  0.7816164E-02  0.1320468E+00
        -11   -1    0    0    0    0  0.00000000000E+00  0.00000000000E+00  0.45593999997E+02  0.45594000000E+02  0.51100000000E-03 0.  1.
         11   -1    0    0    0    0 -0.00000000000E+00 -0.00000000000E+00 -0.45593999997E+02  0.45594000000E+02  0.51100000000E-03 0. -1.
    9900012    2    1    2    0    0  0.77537329889E+00  0.27231494990E+02 -0.35874198623E+02  0.46142315967E+02  0.99999836427E+01 0.  0.
        -12    1    1    2    0    0 -0.77537329889E+00 -0.27231494990E+02  0.35874198623E+02  0.45045684033E+02  0.00000000000E+00 0.  1.
         11    1    3    3    0    0 -0.69104870923E+00  0.12086485635E+02 -0.17874780934E+02  0.21588619156E+02  0.51100000000E-03 0. -1.
        -11    1    3    3    0    0  0.19305890779E+01  0.87740351686E+01 -0.15027848876E+02  0.17508486782E+02  0.51100000000E-03 0.  1.
        -12    1    3    3    0    0 -0.46416706976E+00  0.63709741857E+01 -0.29715688131E+01  0.70452100292E+01  0.00000000000E+00 0.  1.
</event>
<event>
 7    1  0.3846293E-008  0.4614232E+02  0.7816164E-02  0.1320468E+00
        -11   -1    0    0    0    0  0.00000000000E+00  0.00000000000E+00  0.45593999997E+02  0.45594000000E+02  0.51100000000E-03 0.  1.
         11   -1    0    0    0    0 -0.00000000000E+00 -0.00000000000E+00 -0.45593999997E+02  0.45594000000E+02  0.51100000000E-03 0. -1.
    9900012    2    1    2    0    0 -0.31276786163E+02 -0.21757890175E+02 -0.24030613015E+02  0.46142317638E+02  0.99999988811E+01 0.  0.
        -12    1    1    2    0    0  0.31276786163E+02  0.21757890175E+02  0.24030613015E+02  0.45045682362E+02  0.00000000000E+00 0.  1.
         11    1    3    3    0    0 -0.11061480558E+02 -0.87437459164E+01 -0.57626804945E+01  0.15232134832E+02  0.51100000000E-03 0. -1.
        -11    1    3    3    0    0  0.36368448702E+00 -0.51021546809E-01 -0.10461014953E+01  0.11086921141E+01  0.51100000000E-03 0.  1.
         12    1    3    3    0    0 -0.20578990092E+02 -0.12963122711E+02 -0.17221831025E+02  0.29801490692E+02  0.00000000000E+00 0. -1.
</event>
<event>
 7    1  0.3846293E-008  0.4614231E+02  0.7816164E-02  0.1320468E+00
        -11   -1    0    0    0    0  0.00000000000E+00  0.00000000000E+00  0.45593999997E+02  0.45594000000E+02  0.51100000000E-03 0.  1.
         11   -1    0    0    0    0 -0.00000000000E+00 -0.00000000000E+00 -0.45593999997E+02  0.45594000000E+02  0.51100000000E-03 0. -1.
    9900012    2    1    2    0    0  0.11555650204E+02  0.19483751687E+02 -0.38935383749E+02  0.46142314978E+02  0.99999746233E+01 0.  0.
        -12    1    1    2    0    0 -0.11555650204E+02 -0.19483751687E+02  0.38935383749E+02  0.45045685022E+02  0.00000000000E+00 0.  1.
         11    1    3    3    0    0  0.43806783030E+01  0.83423935432E+01 -0.23519932685E+02  0.25337188206E+02  0.51100000000E-03 0. -1.
        -11    1    3    3    0    0  0.64926577049E+01  0.11491095520E+02 -0.14414222712E+02  0.19544045051E+02  0.51100000000E-03 0.  1.
        -12    1    3    3    0    0  0.68231419591E+00 -0.34973737616E+00 -0.10012283521E+01  0.12610817211E+01  0.00000000000E+00 0.  1.
</event>
<event>
 7    1  0.3846293E-008  0.4614232E+02  0.7816164E-02  0.1320468E+00
        -11   -1    0    0    0    0  0.00000000000E+00  0.00000000000E+00  0.45593999997E+02  0.45594000000E+02  0.51100000000E-03 0.  1.
         11   -1    0    0    0    0 -0.00000000000E+00 -0.00000000000E+00 -0.45593999997E+02  0.45594000000E+02  0.51100000000E-03 0. -1.
    9900012    2    1    2    0    0  0.23465836274E+02  0.34148020351E+02 -0.17674287527E+02  0.46142320901E+02  0.10000028630E+02 0.  0.
        -12    1    1    2    0    0 -0.23465836274E+02 -0.34148020351E+02  0.17674287527E+02  0.45045679099E+02  0.00000000000E+00 0.  1.
         11    1    3    3    0    0  0.11480516712E+02  0.16062554317E+02 -0.13173738315E+02  0.23735106838E+02  0.51100000000E-03 0. -1.
        -11    1    3    3    0    0  0.76426920232E+01  0.10647933062E+02 -0.42937370304E+01  0.13792222367E+02  0.51100000000E-03 0.  1.
        -12    1    3    3    0    0  0.43426275390E+01  0.74375329712E+01 -0.20681218114E+00  0.86149916958E+01  0.00000000000E+00 0.  1.
</event>
<event>
 7    1  0.3846293E-008  0.4614232E+02  0.7816164E-02  0.1320468E+00
        -11   -1    0    0    0    0  0.00000000000E+00  0.00000000000E+00  0.45593999997E+02  0.45594000000E+02  0.51100000000E-03 0. -1.
         11   -1    0    0    0    0 -0.00000000000E+00 -0.00000000000E+00 -0.45593999997E+02  0.45594000000E+02  0.51100000000E-03 0.  1.
    9900012    2    1    2    0    0  0.29474019598E+02  0.30912994248E+02 -0.14310218781E+02  0.46142318673E+02  0.10000008317E+02 0.  0.
        -12    1    1    2    0    0 -0.29474019598E+02 -0.30912994248E+02  0.14310218781E+02  0.45045681327E+02  0.00000000000E+00 0.  1.
         11    1    3    3    0    0  0.15864981861E+02  0.20318071296E+02 -0.88292336744E+01  0.27248431848E+02  0.51100000000E-03 0. -1.
        -11    1    3    3    0    0  0.12758277490E+02  0.10896695121E+02 -0.60397133193E+01  0.17832266998E+02  0.51100000000E-03 0.  1.
        -12    1    3    3    0    0  0.85076024779E+00 -0.30177216920E+00  0.55872821270E+00  0.10616198270E+01  0.00000000000E+00 0.  1.
</event>
<event>
 7    1  0.3846293E-008  0.4614232E+02  0.7816164E-02  0.1320468E+00
        -11   -1    0    0    0    0  0.00000000000E+00  0.00000000000E+00  0.45593999997E+02  0.45594000000E+02  0.51100000000E-03 0.  1.
         11   -1    0    0    0    0 -0.00000000000E+00 -0.00000000000E+00 -0.45593999997E+02  0.45594000000E+02  0.51100000000E-03 0. -1.
    9900012    2    1    2    0    0 -0.35881498449E+02  0.98907122767E+01 -0.25373322815E+02  0.46142316179E+02  0.99999855712E+01 0.  0.
        -12    1    1    2    0    0  0.35881498449E+02 -0.98907122767E+01  0.25373322815E+02  0.45045683821E+02  0.00000000000E+00 0.  1.
         11    1    3    3    0    0 -0.24632829347E+01  0.17690260433E+01 -0.14376595798E+00  0.30360969797E+01  0.51100000000E-03 0. -1.
        -11    1    3    3    0    0 -0.97719001569E+01  0.43976973223E+00 -0.97909317603E+01  0.13840006326E+02  0.51100000000E-03 0.  1.
         12    1    3    3    0    0 -0.23646315357E+02  0.76819165012E+01 -0.15438625096E+02  0.29266212874E+02  0.00000000000E+00 0. -1.
</event>
<event>
 7    1  0.3846293E-008  0.4614232E+02  0.7816164E-02  0.1320468E+00
        -11   -1    0    0    0    0  0.00000000000E+00  0.00000000000E+00  0.45593999997E+02  0.45594000000E+02  0.51100000000E-03 0.  1.
         11   -1    0    0    0    0 -0.00000000000E+00 -0.00000000000E+00 -0.45593999997E+02  0.45594000000E+02  0.51100000000E-03 0. -1.
    9900012    2    1    2    0    0 -0.19801044335E+02 -0.29298326962E+02 -0.27904124179E+02  0.46142318013E+02  0.10000002295E+02 0.  0.
        -12    1    1    2    0    0  0.19801044335E+02  0.29298326962E+02  0.27904124179E+02  0.45045681987E+02  0.00000000000E+00 0.  1.
         11    1    3    3    0    0 -0.19350795376E+02 -0.28488804058E+02 -0.27672406782E+02  0.44179489989E+02  0.51100000000E-03 0. -1.
        -11    1    3    3    0    0 -0.96227571847E+00 -0.36309937914E+00  0.33128252624E+00  0.10805387965E+01  0.51100000000E-03 0.  1.
         12    1    3    3    0    0  0.51202676014E+00 -0.44642352457E+00 -0.56299992311E+00  0.88228922685E+00  0.00000000000E+00 0. -1.
</event>
<event>
 7    1  0.3846293E-008  0.4614231E+02  0.7816164E-02  0.1320468E+00
        -11   -1    0    0    0    0  0.00000000000E+00  0.00000000000E+00  0.45593999997E+02  0.45594000000E+02  0.51100000000E-03 0. -1.
         11   -1    0    0    0    0 -0.00000000000E+00 -0.00000000000E+00 -0.45593999997E+02  0.45594000000E+02  0.51100000000E-03 0.  1.
    9900012    2    1    2    0    0  0.25562792355E+02 -0.35931038628E+02  0.91988005973E+01  0.46142314054E+02  0.99999661975E+01 0.  0.
        -12    1    1    2    0    0 -0.25562792355E+02  0.35931038628E+02 -0.91988005973E+01  0.45045685946E+02  0.00000000000E+00 0.  1.
         11    1    3    3    0    0  0.67527327067E+01 -0.66884767512E+01  0.46043705391E+01  0.10561029712E+02  0.51100000000E-03 0. -1.
        -11    1    3    3    0    0  0.57799301798E+01 -0.12924266187E+02  0.39096865352E+01  0.14687746540E+02  0.51100000000E-03 0.  1.
         12    1    3    3    0    0  0.13030129469E+02 -0.16318295690E+02  0.68474352298E+00  0.20893537802E+02  0.00000000000E+00 0. -1.
</event>
<event>
 7    1  0.3846293E-008  0.4614232E+02  0.7816164E-02  0.1320468E+00
        -11   -1    0    0    0    0  0.00000000000E+00  0.00000000000E+00  0.45593999997E+02  0.45594000000E+02  0.51100000000E-03 0.  1.
         11   -1    0    0    0    0 -0.00000000000E+00 -0.00000000000E+00 -0.45593999997E+02  0.45594000000E+02  0.51100000000E-03 0. -1.
    9900012    2    1    2    0    0  0.86135524769E+01  0.69196609807E+01 -0.43669651475E+02  0.46142318139E+02  0.10000003446E+02 0.  0.
        -12    1    1    2    0    0 -0.86135524769E+01 -0.69196609807E+01  0.43669651475E+02  0.45045681861E+02  0.00000000000E+00 0.  1.
         11    1    3    3    0    0 -0.10853672576E+01 -0.98733771810E+00 -0.98630082186E+01  0.99715489887E+01  0.51100000000E-03 0. -1.
        -11    1    3    3    0    0  0.65422163978E+00  0.17373154398E+01 -0.62123582765E+01  0.64838003137E+01  0.51100000000E-03 0.  1.
         12    1    3    3    0    0  0.90446980948E+01  0.61696832590E+01 -0.27594284980E+02  0.29686968837E+02  0.00000000000E+00 0. -1.
</event>
<event>
 7    1  0.3846293E-008  0.4614232E+02  0.7816164E-02  0.1320468E+00
        -11   -1    0    0    0    0  0.00000000000E+00  0.00000000000E+00  0.45593999997E+02  0.45594000000E+02  0.51100000000E-03 0.  1.
         11   -1    0    0    0    0 -0.00000000000E+00 -0.00000000000E+00 -0.45593999997E+02  0.45594000000E+02  0.51100000000E-03 0. -1.
    9900012    2    1    2    0    0  0.22545963856E+02  0.32817806388E+02 -0.21066193514E+02  0.46142318615E+02  0.10000007782E+02 0.  0.
        -12    1    1    2    0    0 -0.22545963856E+02 -0.32817806388E+02  0.21066193514E+02  0.45045681385E+02  0.00000000000E+00 0.  1.
         11    1    3    3    0    0  0.16094612412E+02  0.27080593393E+02 -0.15606978740E+02  0.35156405858E+02  0.51100000000E-03 0. -1.
        -11    1    3    3    0    0  0.49682872437E+01  0.31058128006E+01 -0.15782366808E+01  0.60680130660E+01  0.51100000000E-03 0.  1.
         12    1    3    3    0    0  0.14830642007E+01  0.26314001943E+01 -0.38809780930E+01  0.49178996903E+01  0.00000000000E+00 0. -1.
</event>
<event>
 7    1  0.3846293E-008  0.4614232E+02  0.7816164E-02  0.1320468E+00
        -11   -1    0    0    0    0  0.00000000000E+00  0.00000000000E+00  0.45593999997E+02  0.45594000000E+02  0.51100000000E-03 0.  1.
         11   -1    0    0    0    0 -0.00000000000E+00 -0.00000000000E+00 -0.45593999997E+02  0.45594000000E+02  0.51100000000E-03 0. -1.
    9900012    2    1    2    0    0 -0.12570684422E+02 -0.24538718159E+02 -0.35622221481E+02  0.46142318088E+02  0.10000002978E+02 0.  0.
        -12    1    1    2    0    0  0.12570684422E+02  0.24538718159E+02  0.35622221481E+02  0.45045681912E+02  0.00000000000E+00 0.  1.
         11    1    3    3    0    0 -0.59856506630E+01 -0.10860123645E+02 -0.18062680843E+02  0.21909603806E+02  0.51100000000E-03 0. -1.
        -11    1    3    3    0    0 -0.69230971330E+01 -0.14027991229E+02 -0.17794285559E+02  0.23692834585E+02  0.51100000000E-03 0.  1.
        -12    1    3    3    0    0  0.33806337372E+00  0.34939671478E+00  0.23474492156E+00  0.53987969692E+00  0.00000000000E+00 0.  1.
</event>
<event>
 7    1  0.3846293E-008  0.4614232E+02  0.7816164E-02  0.1320468E+00
        -11   -1    0    0    0    0  0.00000000000E+00  0.00000000000E+00  0.45593999997E+02  0.45594000000E+02  0.51100000000E-03 0. -1.
         11   -1    0    0    0    0 -0.00000000000E+00 -0.00000000000E+00 -0.45593999997E+02  0.45594000000E+02  0.51100000000E-03 0.  1.
    9900012    2    1    2    0    0  0.43699529405E+02 -0.87976087954E+01 -0.64858859330E+01  0.46142317553E+02  0.99999981029E+01 0.  0.
        -12    1    1    2    0    0 -0.43699529405E+02  0.87976087954E+01  0.64858859330E+01  0.45045682447E+02  0.00000000000E+00 0.  1.
         11    1    3    3    0    0  0.25043343344E+02 -0.56180473906E+01 -0.51422594842E+01  0.26175834947E+02  0.51100000000E-03 0. -1.
        -11    1    3    3    0    0  0.17289923159E+02 -0.10873085487E+01 -0.18309628441E+01  0.17420565660E+02  0.51100000000E-03 0.  1.
        -12    1    3    3    0    0  0.13662629030E+01 -0.20922528560E+01  0.48733639538E+00  0.25459169460E+01  0.00000000000E+00 0.  1.
</event>
<event>
 7    1  0.3846293E-008  0.4614232E+02  0.7816164E-02  0.1320468E+00
        -11   -1    0    0    0    0  0.00000000000E+00  0.00000000000E+00  0.45593999997E+02  0.45594000000E+02  0.51100000000E-03 0.  1.
         11   -1    0    0    0    0 -0.00000000000E+00 -0.00000000000E+00 -0.45593999997E+02  0.45594000000E+02  0.51100000000E-03 0. -1.
    9900012    2    1    2    0    0  0.86818078897E+00  0.38555752306E+02 -0.23276893023E+02  0.46142317381E+02  0.99999965377E+01 0.  0.
        -12    1    1    2    0    0 -0.86818078897E+00 -0.38555752306E+02  0.23276893023E+02  0.45045682619E+02  0.00000000000E+00 0.  1.
         11    1    3    3    0    0  0.14141553785E+01  0.47923522760E+01 -0.59059280983E+01  0.77360495562E+01  0.51100000000E-03 0. -1.
        -11    1    3    3    0    0  0.25704841552E+01  0.15601056900E+02 -0.85727659368E+01  0.17985902292E+02  0.51100000000E-03 0.  1.
         12    1    3    3    0    0 -0.31164587448E+01  0.18162343130E+02 -0.87981989883E+01  0.20420365533E+02  0.00000000000E+00 0. -1.
</event>
<event>
 7    1  0.3846293E-008  0.4614231E+02  0.7816164E-02  0.1320468E+00
        -11   -1    0    0    0    0  0.00000000000E+00  0.00000000000E+00  0.45593999997E+02  0.45594000000E+02  0.51100000000E-03 0.  1.
         11   -1    0    0    0    0 -0.00000000000E+00 -0.00000000000E+00 -0.45593999997E+02  0.45594000000E+02  0.51100000000E-03 0. -1.
    9900012    2    1    2    0    0  0.51744719591E+01 -0.42928776516E+02 -0.12627702374E+02  0.46142313408E+02  0.99999603093E+01 0.  0.
        -12    1    1    2    0    0 -0.51744719591E+01  0.42928776516E+02  0.12627702374E+02  0.45045686592E+02  0.00000000000E+00 0.  1.
         11    1    3    3    0    0  0.32977572580E+01 -0.24843846153E+02 -0.46382614943E+01  0.25487356955E+02  0.51100000000E-03 0. -1.
        -11    1    3    3    0    0  0.28211270560E+00 -0.84870056869E+01 -0.74437580137E+00  0.85242564897E+01  0.51100000000E-03 0.  1.
        -12    1    3    3    0    0  0.15946019955E+01 -0.95979246769E+01 -0.72450650783E+01  0.12130699964E+02  0.00000000000E+00 0.  1.
</event>
<event>
 7    1  0.3846293E-008  0.4614232E+02  0.7816164E-02  0.1320468E+00
        -11   -1    0    0    0    0  0.00000000000E+00  0.00000000000E+00  0.45593999997E+02  0.45594000000E+02  0.51100000000E-03 0.  1.
         11   -1    0    0    0    0 -0.00000000000E+00 -0.00000000000E+00 -0.45593999997E+02  0.45594000000E+02  0.51100000000E-03 0. -1.
    9900012    2    1    2    0    0 -0.16535014672E+02  0.35408157444E+02 -0.22404667541E+02  0.46142318171E+02  0.10000003739E+02 0.  0.
        -12    1    1    2    0    0  0.16535014672E+02 -0.35408157444E+02  0.22404667541E+02  0.45045681829E+02  0.00000000000E+00 0.  1.
         11    1    3    3    0    0 -0.10963376424E+02  0.18171332719E+02 -0.13022528740E+02  0.24899381728E+02  0.51100000000E-03 0. -1.
        -11    1    3    3    0    0 -0.16341456609E+01  0.12364589890E+02 -0.80322052927E+01  0.14834751003E+02  0.51100000000E-03 0.  1.
        -12    1    3    3    0    0 -0.39374925863E+01  0.48722348350E+01 -0.13499335092E+01  0.64081854401E+01  0.00000000000E+00 0.  1.
</event>
<event>
 7    1  0.3846293E-008  0.4614232E+02  0.7816164E-02  0.1320468E+00
        -11   -1    0    0    0    0  0.00000000000E+00  0.00000000000E+00  0.45593999997E+02  0.45594000000E+02  0.51100000000E-03 0.  1.
         11   -1    0    0    0    0 -0.00000000000E+00 -0.00000000000E+00 -0.45593999997E+02  0.45594000000E+02  0.51100000000E-03 0. -1.
    9900012    2    1    2    0    0 -0.28522372709E+02 -0.14745455869E+01 -0.34834085342E+02  0.46142317285E+02  0.99999956544E+01 0.  0.
        -12    1    1    2    0    0  0.28522372709E+02  0.14745455869E+01  0.34834085342E+02  0.45045682715E+02  0.00000000000E+00 0.  1.
         11    1    3    3    0    0 -0.18605089084E+02 -0.30093019910E+01 -0.18551640706E+02  0.26445578296E+02  0.51100000000E-03 0. -1.
        -11    1    3    3    0    0 -0.14147920507E+01 -0.11799201947E+01 -0.12911267133E+01  0.22496347845E+01  0.51100000000E-03 0.  1.
         12    1    3    3    0    0 -0.85024915745E+01  0.27146765987E+01 -0.14991317923E+02  0.17447104204E+02  0.00000000000E+00 0. -1.
</event>
<event>
 7    1  0.3846293E-008  0.4614232E+02  0.7816164E-02  0.1320468E+00
        -11   -1    0    0    0    0  0.00000000000E+00  0.00000000000E+00  0.45593999997E+02  0.45594000000E+02  0.51100000000E-03 0.  1.
         11   -1    0    0    0    0 -0.00000000000E+00 -0.00000000000E+00 -0.45593999997E+02  0.45594000000E+02  0.51100000000E-03 0. -1.
    9900012    2    1    2    0    0  0.82373277710E+01  0.21604143725E+02 -0.38659033873E+02  0.46142317689E+02  0.99999993385E+01 0.  0.
        -12    1    1    2    0    0 -0.82373277710E+01 -0.21604143725E+02  0.38659033873E+02  0.45045682311E+02  0.00000000000E+00 0.  1.
         11    1    3    3    0    0  0.75739217286E+01  0.17453730935E+02 -0.31642774621E+02  0.36922380745E+02  0.51100000000E-03 0. -1.
        -11    1    3    3    0    0  0.47752532746E+00  0.42450647593E+01 -0.30517207728E+01  0.52499147789E+01  0.51100000000E-03 0.  1.
         12    1    3    3    0    0  0.18588071502E+00 -0.94651968900E-01 -0.39645384795E+01  0.39700221650E+01  0.00000000000E+00 0. -1.
</event>
<event>
 7    1  0.3846293E-008  0.4614232E+02  0.7816164E-02  0.1320468E+00
        -11   -1    0    0    0    0  0.00000000000E+00  0.00000000000E+00  0.45593999997E+02  0.45594000000E+02  0.51100000000E-03 0.  1.
         11   -1    0    0    0    0 -0.00000000000E+00 -0.00000000000E+00 -0.45593999997E+02  0.45594000000E+02  0.51100000000E-03 0. -1.
    9900012    2    1    2    0    0 -0.14916238384E-01 -0.21212166491E+02 -0.39738611531E+02  0.46142317896E+02  0.10000001234E+02 0.  0.
        -12    1    1    2    0    0  0.14916238384E-01  0.21212166491E+02  0.39738611531E+02  0.45045682104E+02  0.00000000000E+00 0.  1.
         11    1    3    3    0    0  0.26293913911E+01 -0.64864036825E+01 -0.12957718275E+02  0.14727171995E+02  0.51100000000E-03 0. -1.
        -11    1    3    3    0    0  0.14536642765E+01 -0.32390111084E+01 -0.28383776008E+01  0.45454065226E+01  0.51100000000E-03 0.  1.
        -12    1    3    3    0    0 -0.40979719060E+01 -0.11486751700E+02 -0.23942515656E+02  0.26869739379E+02  0.00000000000E+00 0.  1.
</event>
<event>
 7    1  0.3846293E-008  0.4614232E+02  0.7816164E-02  0.1320468E+00
        -11   -1    0    0    0    0  0.00000000000E+00  0.00000000000E+00  0.45593999997E+02  0.45594000000E+02  0.51100000000E-03 0.  1.
         11   -1    0    0    0    0 -0.00000000000E+00 -0.00000000000E+00 -0.45593999997E+02  0.45594000000E+02  0.51100000000E-03 0. -1.
    9900012    2    1    2    0    0 -0.35879893998E+02  0.20226925739E+02 -0.18237820895E+02  0.46142318419E+02  0.10000005997E+02 0.  0.
        -12    1    1    2    0    0  0.35879893998E+02 -0.20226925739E+02  0.18237820895E+02  0.45045681581E+02  0.00000000000E+00 0.  1.
         11    1    3    3    0    0 -0.13333736811E+02  0.56016348623E+01 -0.56399926203E+01  0.15523413526E+02  0.51100000000E-03 0. -1.
        -11    1    3    3    0    0 -0.18758458056E+01 -0.61232378479E-01 -0.29345693283E+01  0.34834242197E+01  0.51100000000E-03 0.  1.
        -12    1    3    3    0    0 -0.20670311381E+02  0.14686523255E+02 -0.96632589459E+01  0.27135480673E+02  0.00000000000E+00 0.  1.
</event>
<event>
 7    1  0.3846293E-008  0.4614232E+02  0.7816164E-02  0.1320468E+00
        -11   -1    0    0    0    0  0.00000000000E+00  0.00000000000E+00  0.45593999997E+02  0.45594000000E+02  0.51100000000E-03 0.  1.
         11   -1    0    0    0    0 -0.00000000000E+00 -0.00000000000E+00 -0.45593999997E+02  0.45594000000E+02  0.51100000000E-03 0. -1.
    9900012    2    1    2    0    0 -0.15310363517E+01  0.36440021005E+02 -0.26436609703E+02  0.46142317235E+02  0.99999951999E+01 0.  0.
        -12    1    1    2    0    0  0.15310363517E+01 -0.36440021005E+02  0.26436609703E+02  0.45045682765E+02  0.00000000000E+00 0.  1.
         11    1    3    3    0    0  0.81992950947E+00  0.90291307406E+01 -0.46786838119E+01  0.10202331538E+02  0.51100000000E-03 0. -1.
        -11    1    3    3    0    0 -0.30989996219E+01  0.24347541038E+02 -0.15773234115E+02  0.29175357204E+02  0.51100000000E-03 0.  1.
         12    1    3    3    0    0  0.74803376067E+00  0.30633492267E+01 -0.59846917768E+01  0.67646284935E+01  0.00000000000E+00 0. -1.
</event>
<event>
 7    1  0.3846293E-008  0.4614232E+02  0.7816164E-02  0.1320468E+00
        -11   -1    0    0    0    0  0.00000000000E+00  0.00000000000E+00  0.45593999997E+02  0.45594000000E+02  0.51100000000E-03 0.  1.
         11   -1    0    0    0    0 -0.00000000000E+00 -0.00000000000E+00 -0.45593999997E+02  0.45594000000E+02  0.51100000000E-03 0. -1.
    9900012    2    1    2    0    0  0.45276952457E+01 -0.16894431593E+02 -0.41511342796E+02  0.46142318478E+02  0.10000006537E+02 0.  0.
        -12    1    1    2    0    0 -0.45276952457E+01  0.16894431593E+02  0.41511342796E+02  0.45045681522E+02  0.00000000000E+00 0.  1.
         11    1    3    3    0    0  0.21363113475E+01 -0.12558363193E+02 -0.22940376434E+02  0.26239992063E+02  0.51100000000E-03 0. -1.
        -11    1    3    3    0    0  0.26990096062E+01 -0.14893735998E+01 -0.39859618157E+01  0.50389263173E+01  0.51100000000E-03 0.  1.
        -12    1    3    3    0    0 -0.30762570791E+00 -0.28466947994E+01 -0.14585004546E+02  0.14863400098E+02  0.00000000000E+00 0.  1.
</event>
<event>
 7    1  0.3846293E-008  0.4614232E+02  0.7816164E-02  0.1320468E+00
        -11   -1    0    0    0    0  0.00000000000E+00  0.00000000000E+00  0.45593999997E+02  0.45594000000E+02  0.51100000000E-03 0.  1.
         11   -1    0    0    0    0 -0.00000000000E+00 -0.00000000000E+00 -0.45593999997E+02  0.45594000000E+02  0.51100000000E-03 0. -1.
    9900012    2    1    2    0    0 -0.29548568516E+02 -0.17046900976E+02 -0.29417662419E+02  0.46142316562E+02  0.99999890613E+01 0.  0.
        -12    1    1    2    0    0  0.29548568516E+02  0.17046900976E+02  0.29417662419E+02  0.45045683438E+02  0.00000000000E+00 0.  1.
         11    1    3    3    0    0 -0.15448962958E+01  0.26828284554E+00 -0.16180165136E+01  0.22531440144E+01  0.51100000000E-03 0.  1.
        -11    1    3    3    0    0 -0.26856066953E+02 -0.16014044881E+02 -0.23088452380E+02  0.38868684043E+02  0.51100000000E-03 0. -1.
        -12    1    3    3    0    0 -0.11476052677E+01 -0.13011389402E+01 -0.47111935253E+01  0.50204885046E+01  0.00000000000E+00 0.  1.
</event>
<event>
 7    1  0.3846293E-008  0.4614232E+02  0.7816164E-02  0.1320468E+00
        -11   -1    0    0    0    0  0.00000000000E+00  0.00000000000E+00  0.45593999997E+02  0.45594000000E+02  0.51100000000E-03 0.  1.
         11   -1    0    0    0    0 -0.00000000000E+00 -0.00000000000E+00 -0.45593999997E+02  0.45594000000E+02  0.51100000000E-03 0. -1.
    9900012    2    1    2    0    0  0.24636267425E+02 -0.14688468364E+02 -0.34733509356E+02  0.46142318212E+02  0.10000004115E+02 0.  0.
        -12    1    1    2    0    0 -0.24636267425E+02  0.14688468364E+02  0.34733509356E+02  0.45045681788E+02  0.00000000000E+00 0.  1.
         11    1    3    3    0    0  0.71553874967E+01 -0.73790197247E+01 -0.93747476442E+01  0.13911699967E+02  0.51100000000E-03 0. -1.
        -11    1    3    3    0    0  0.15691227006E+02 -0.83349684474E+01 -0.21869886127E+02  0.28177619194E+02  0.51100000000E-03 0.  1.
        -12    1    3    3    0    0  0.17896529224E+01  0.10255198083E+01 -0.34888755854E+01  0.40529990514E+01  0.00000000000E+00 0.  1.
</event>
<event>
 7    1  0.3846293E-008  0.4614232E+02  0.7816164E-02  0.1320468E+00
        -11   -1    0    0    0    0  0.00000000000E+00  0.00000000000E+00  0.45593999997E+02  0.45594000000E+02  0.51100000000E-03 0.  1.
         11   -1    0    0    0    0 -0.00000000000E+00 -0.00000000000E+00 -0.45593999997E+02  0.45594000000E+02  0.51100000000E-03 0. -1.
    9900012    2    1    2    0    0  0.12898220414E+02  0.31187224438E+02 -0.29834654792E+02  0.46142315583E+02  0.99999801421E+01 0.  0.
        -12    1    1    2    0    0 -0.12898220414E+02 -0.31187224438E+02  0.29834654792E+02  0.45045684417E+02  0.00000000000E+00 0.  1.
         11    1    3    3    0    0  0.30836228333E-01  0.17796530874E+01 -0.10810423591E+01  0.20824910151E+01  0.51100000000E-03 0.  1.
        -11    1    3    3    0    0  0.95362342382E+01  0.10966177260E+02 -0.10785205193E+02  0.18097443423E+02  0.51100000000E-03 0. -1.
         12    1    3    3    0    0  0.33311499471E+01  0.18441394090E+02 -0.17968407240E+02  0.25962381145E+02  0.00000000000E+00 0. -1.
</event>
<event>
 7    1  0.3846293E-008  0.4614232E+02  0.7816164E-02  0.1320468E+00
        -11   -1    0    0    0    0  0.00000000000E+00  0.00000000000E+00  0.45593999997E+02  0.45594000000E+02  0.51100000000E-03 0.  1.
         11   -1    0    0    0    0 -0.00000000000E+00 -0.00000000000E+00 -0.45593999997E+02  0.45594000000E+02  0.51100000000E-03 0. -1.
    9900012    2    1    2    0    0 -0.29809166250E+02  0.17530625057E+02 -0.28865276836E+02  0.46142318584E+02  0.10000007506E+02 0.  0.
        -12    1    1    2    0    0  0.29809166250E+02 -0.17530625057E+02  0.28865276836E+02  0.45045681416E+02  0.00000000000E+00 0.  1.
         11    1    3    3    0    0 -0.23989579125E+02  0.13976106184E+02 -0.22942053224E+02  0.36016236020E+02  0.51100000000E-03 0. -1.
        -11    1    3    3    0    0 -0.15589313724E+01 -0.10798647144E+01 -0.16870104678E+01  0.25381842732E+01  0.51100000000E-03 0.  1.
        -12    1    3    3    0    0 -0.42606557523E+01  0.46343835865E+01 -0.42362131443E+01  0.75878982907E+01  0.00000000000E+00 0.  1.
</event>
<event>
 7    1  0.3846293E-008  0.4614232E+02  0.7816164E-02  0.1320468E+00
        -11   -1    0    0    0    0  0.00000000000E+00  0.00000000000E+00  0.45593999997E+02  0.45594000000E+02  0.51100000000E-03 0.  1.
         11   -1    0    0    0    0 -0.00000000000E+00 -0.00000000000E+00 -0.45593999997E+02  0.45594000000E+02  0.51100000000E-03 0. -1.
    9900012    2    1    2    0    0  0.17680297984E+02  0.23416591918E+02 -0.34178699638E+02  0.46142320709E+02  0.10000026880E+02 0.  0.
        -12    1    1    2    0    0 -0.17680297984E+02 -0.23416591918E+02  0.34178699638E+02  0.45045679291E+02  0.00000000000E+00 0.  1.
         11    1    3    3    0    0  0.30746948063E+01  0.83567484930E-01 -0.57303290139E+01  0.65036453274E+01  0.51100000000E-03 0. -1.
        -11    1    3    3    0    0  0.71064546399E+01  0.10059228432E+02 -0.13788990966E+02  0.18488538242E+02  0.51100000000E-03 0.  1.
         12    1    3    3    0    0  0.74991485374E+01  0.13273796000E+02 -0.14659379659E+02  0.21150137140E+02  0.00000000000E+00 0. -1.
</event>
<event>
 7    1  0.3846293E-008  0.4614232E+02  0.7816164E-02  0.1320468E+00
        -11   -1    0    0    0    0  0.00000000000E+00  0.00000000000E+00  0.45593999997E+02  0.45594000000E+02  0.51100000000E-03 0.  1.
         11   -1    0    0    0    0 -0.00000000000E+00 -0.00000000000E+00 -0.45593999997E+02  0.45594000000E+02  0.51100000000E-03 0. -1.
    9900012    2    1    2    0    0 -0.26996902446E+02  0.14375600893E+02 -0.33069969116E+02  0.46142317632E+02  0.99999988212E+01 0.  0.
        -12    1    1    2    0    0  0.26996902446E+02 -0.14375600893E+02  0.33069969116E+02  0.45045682368E+02  0.00000000000E+00 0.  1.
         11    1    3    3    0    0 -0.12694696031E+02  0.59105750672E+01 -0.13066887562E+02  0.19152904630E+02  0.51100000000E-03 0. -1.
        -11    1    3    3    0    0 -0.16937504384E+01  0.18001160526E+01 -0.79218767311E+01  0.82985142980E+01  0.51100000000E-03 0.  1.
         12    1    3    3    0    0 -0.12608455977E+02  0.66649097735E+01 -0.12081204823E+02  0.18690898704E+02  0.00000000000E+00 0. -1.
</event>
<event>
 7    1  0.3846293E-008  0.4614232E+02  0.7816164E-02  0.1320468E+00
        -11   -1    0    0    0    0  0.00000000000E+00  0.00000000000E+00  0.45593999997E+02  0.45594000000E+02  0.51100000000E-03 0.  1.
         11   -1    0    0    0    0 -0.00000000000E+00 -0.00000000000E+00 -0.45593999997E+02  0.45594000000E+02  0.51100000000E-03 0. -1.
    9900012    2    1    2    0    0 -0.10167384589E+02  0.61846014184E+01 -0.43445236560E+02  0.46142316701E+02  0.99999903338E+01 0.  0.
        -12    1    1    2    0    0  0.10167384589E+02 -0.61846014184E+01  0.43445236560E+02  0.45045683299E+02  0.00000000000E+00 0.  1.
         11    1    3    3    0    0 -0.43802282666E+00  0.47064404394E+00 -0.68488218231E+00  0.93937941086E+00  0.51100000000E-03 0.  1.
        -11    1    3    3    0    0 -0.85332262678E+01  0.76642401488E+01 -0.27870966567E+02  0.30138800660E+02  0.51100000000E-03 0. -1.
         12    1    3    3    0    0 -0.11961354946E+01 -0.19502827744E+01 -0.14889387811E+02  0.15064136630E+02  0.00000000000E+00 0. -1.
</event>
<event>
 7    1  0.3846293E-008  0.4614232E+02  0.7816164E-02  0.1320468E+00
        -11   -1    0    0    0    0  0.00000000000E+00  0.00000000000E+00  0.45593999997E+02  0.45594000000E+02  0.51100000000E-03 0.  1.
         11   -1    0    0    0    0 -0.00000000000E+00 -0.00000000000E+00 -0.45593999997E+02  0.45594000000E+02  0.51100000000E-03 0. -1.
    9900012    2    1    2    0    0 -0.38799273575E+02  0.15531625969E+02 -0.16807694022E+02  0.46142316372E+02  0.99999873311E+01 0.  0.
        -12    1    1    2    0    0  0.38799273575E+02 -0.15531625969E+02  0.16807694022E+02  0.45045683628E+02  0.00000000000E+00 0.  1.
         11    1    3    3    0    0 -0.17924520542E+02  0.86914213286E+01 -0.12213854981E+02  0.23366803272E+02  0.51100000000E-03 0. -1.
        -11    1    3    3    0    0 -0.23408002618E+01  0.42770234292E+00 -0.17604396487E+01  0.29599701312E+01  0.51100000000E-03 0.  1.
        -12    1    3    3    0    0 -0.18533952771E+02  0.64125022978E+01 -0.28333993920E+01  0.19815542969E+02  0.00000000000E+00 0.  1.
</event>
<event>
 7    1  0.3846293E-008  0.4614232E+02  0.7816164E-02  0.1320468E+00
        -11   -1    0    0    0    0  0.00000000000E+00  0.00000000000E+00  0.45593999997E+02  0.45594000000E+02  0.51100000000E-03 0.  1.
         11   -1    0    0    0    0 -0.00000000000E+00 -0.00000000000E+00 -0.45593999997E+02  0.45594000000E+02  0.51100000000E-03 0. -1.
    9900012    2    1    2    0    0  0.40561960962E+02  0.17828844036E+02  0.81223890829E+01  0.46142316953E+02  0.99999926293E+01 0.  0.
        -12    1    1    2    0    0 -0.40561960962E+02 -0.17828844036E+02 -0.81223890829E+01  0.45045683047E+02  0.00000000000E+00 0.  1.
         11    1    3    3    0    0  0.21957050582E+02  0.10946142916E+02  0.59976531380E+01  0.25256721054E+02  0.51100000000E-03 0. -1.
        -11    1    3    3    0    0  0.88196091833E+01  0.52968713806E+01 -0.13610569517E+01  0.10377611905E+02  0.51100000000E-03 0.  1.
        -12    1    3    3    0    0  0.97853011973E+01  0.15858297392E+01  0.34857928967E+01  0.10507983993E+02  0.00000000000E+00 0.  1.
</event>
<event>
 7    1  0.3846293E-008  0.4614231E+02  0.7816164E-02  0.1320468E+00
        -11   -1    0    0    0    0  0.00000000000E+00  0.00000000000E+00  0.45593999997E+02  0.45594000000E+02  0.51100000000E-03 0. -1.
         11   -1    0    0    0    0 -0.00000000000E+00 -0.00000000000E+00 -0.45593999997E+02  0.45594000000E+02  0.51100000000E-03 0.  1.
    9900012    2    1    2    0    0 -0.18891160025E+02  0.27286975274E+02  0.30457495533E+02  0.46142312295E+02  0.99999501528E+01 0.  0.
        -12    1    1    2    0    0  0.18891160025E+02 -0.27286975274E+02 -0.30457495533E+02  0.45045687705E+02  0.00000000000E+00 0.  1.
         11    1    3    3    0    0 -0.13101977674E+02  0.19653294501E+02  0.17647180038E+02  0.29484517417E+02  0.51100000000E-03 0. -1.
        -11    1    3    3    0    0 -0.31860727785E+01  0.49652297811E+01  0.11069632284E+02  0.12543577069E+02  0.51100000000E-03 0.  1.
        -12    1    3    3    0    0 -0.26031095718E+01  0.26684509915E+01  0.17406832115E+01  0.41142178090E+01  0.00000000000E+00 0.  1.
</event>
<event>
 7    1  0.3846293E-008  0.4614232E+02  0.7816164E-02  0.1320468E+00
        -11   -1    0    0    0    0  0.00000000000E+00  0.00000000000E+00  0.45593999997E+02  0.45594000000E+02  0.51100000000E-03 0. -1.
         11   -1    0    0    0    0 -0.00000000000E+00 -0.00000000000E+00 -0.45593999997E+02  0.45594000000E+02  0.51100000000E-03 0.  1.
    9900012    2    1    2    0    0  0.17203774300E+02  0.39003742175E+02 -0.14555129480E+02  0.46142317099E+02  0.99999939643E+01 0.  0.
        -12    1    1    2    0    0 -0.17203774300E+02 -0.39003742175E+02  0.14555129480E+02  0.45045682901E+02  0.00000000000E+00 0.  1.
         11    1    3    3    0    0  0.66646583482E+00  0.21518865863E+01  0.24218185120E+00  0.22657106831E+01  0.51100000000E-03 0. -1.
        -11    1    3    3    0    0  0.45234994056E+01  0.80408319460E+01  0.23775667119E+00  0.92289519314E+01  0.51100000000E-03 0.  1.
         12    1    3    3    0    0  0.12013809060E+02  0.28811023643E+02 -0.15035068002E+02  0.34647654485E+02  0.00000000000E+00 0. -1.
</event>
<event>
 7    1  0.3846293E-008  0.4614232E+02  0.7816164E-02  0.1320468E+00
        -11   -1    0    0    0    0  0.00000000000E+00  0.00000000000E+00  0.45593999997E+02  0.45594000000E+02  0.51100000000E-03 0.  1.
         11   -1    0    0    0    0 -0.00000000000E+00 -0.00000000000E+00 -0.45593999997E+02  0.45594000000E+02  0.51100000000E-03 0. -1.
    9900012    2    1    2    0    0 -0.15970125384E+02  0.36418891541E+01 -0.41961943861E+02  0.46142323248E+02  0.10000050035E+02 0.  0.
        -12    1    1    2    0    0  0.15970125384E+02 -0.36418891541E+01  0.41961943861E+02  0.45045676752E+02  0.00000000000E+00 0.  1.
         11    1    3    3    0    0 -0.44770398972E+01  0.10259273748E+01 -0.22297820867E+02  0.22765966461E+02  0.51100000000E-03 0. -1.
        -11    1    3    3    0    0 -0.97025669280E+01  0.32442229419E+01 -0.18527528163E+02  0.21164453397E+02  0.51100000000E-03 0.  1.
        -12    1    3    3    0    0 -0.17905185593E+01 -0.62826116253E+00 -0.11365948317E+01  0.22119033909E+01  0.00000000000E+00 0.  1.
</event>
<event>
 7    1  0.3846293E-008  0.4614232E+02  0.7816164E-02  0.1320468E+00
        -11   -1    0    0    0    0  0.00000000000E+00  0.00000000000E+00  0.45593999997E+02  0.45594000000E+02  0.51100000000E-03 0.  1.
         11   -1    0    0    0    0 -0.00000000000E+00 -0.00000000000E+00 -0.45593999997E+02  0.45594000000E+02  0.51100000000E-03 0. -1.
    9900012    2    1    2    0    0  0.12544010452E+02  0.43017526724E+02 -0.46101876531E+01  0.46142316146E+02  0.99999852714E+01 0.  0.
        -12    1    1    2    0    0 -0.12544010452E+02 -0.43017526724E+02  0.46101876531E+01  0.45045683854E+02  0.00000000000E+00 0.  1.
         11    1    3    3    0    0  0.42444320541E+01  0.48905874517E+01 -0.12927857602E+01  0.66033585672E+01  0.51100000000E-03 0. -1.
        -11    1    3    3    0    0  0.42053895930E+01  0.16537507104E+02 -0.41049329548E+01  0.17550638668E+02  0.51100000000E-03 0.  1.
         12    1    3    3    0    0  0.40941888048E+01  0.21589432168E+02  0.78753106192E+00  0.21988318910E+02  0.00000000000E+00 0. -1.
</event>
<event>
 7    1  0.3846293E-008  0.4614232E+02  0.7816164E-02  0.1320468E+00
        -11   -1    0    0    0    0  0.00000000000E+00  0.00000000000E+00  0.45593999997E+02  0.45594000000E+02  0.51100000000E-03 0. -1.
         11   -1    0    0    0    0 -0.00000000000E+00 -0.00000000000E+00 -0.45593999997E+02  0.45594000000E+02  0.51100000000E-03 0.  1.
    9900012    2    1    2    0    0  0.32495206027E+02 -0.79576608655E+01  0.30163732733E+02  0.46142317037E+02  0.99999934015E+01 0.  0.
        -12    1    1    2    0    0 -0.32495206027E+02  0.79576608655E+01 -0.30163732733E+02  0.45045682963E+02  0.00000000000E+00 0.  1.
         11    1    3    3    0    0  0.13254711695E+02 -0.11730665023E+01  0.15166204096E+02  0.20176154591E+02  0.51100000000E-03 0. -1.
        -11    1    3    3    0    0  0.99235900924E+01 -0.62027161053E+01  0.99092481329E+01  0.15334422918E+02  0.51100000000E-03 0.  1.
         12    1    3    3    0    0  0.93169042395E+01 -0.58187825785E+00  0.50882805037E+01  0.10631739528E+02  0.00000000000E+00 0. -1.
</event>
<event>
 7    1  0.3846293E-008  0.4614232E+02  0.7816164E-02  0.1320468E+00
        -11   -1    0    0    0    0  0.00000000000E+00  0.00000000000E+00  0.45593999997E+02  0.45594000000E+02  0.51100000000E-03 0.  1.
         11   -1    0    0    0    0 -0.00000000000E+00 -0.00000000000E+00 -0.45593999997E+02  0.45594000000E+02  0.51100000000E-03 0. -1.
    9900012    2    1    2    0    0 -0.31079927759E+02 -0.13483987367E+02 -0.29687264732E+02  0.46142317498E+02  0.99999975987E+01 0.  0.
        -12    1    1    2    0    0  0.31079927759E+02  0.13483987367E+02  0.29687264732E+02  0.45045682502E+02  0.00000000000E+00 0.  1.
         11    1    3    3    0    0 -0.10184247611E+02 -0.69658889568E+01 -0.10379686611E+02  0.16123907801E+02  0.51100000000E-03 0. -1.
        -11    1    3    3    0    0  0.42921243826E+00 -0.38671565134E+00  0.39964373382E-01  0.57911115030E+00  0.51100000000E-03 0.  1.
        -12    1    3    3    0    0 -0.21324892587E+02 -0.61313827590E+01 -0.19347542494E+02  0.29439298547E+02  0.00000000000E+00 0.  1.
</event>
<event>
 7    1  0.3846293E-008  0.4614231E+02  0.7816164E-02  0.1320468E+00
        -11   -1    0    0    0    0  0.00000000000E+00  0.00000000000E+00  0.45593999997E+02  0.45594000000E+02  0.51100000000E-03 0.  1.
         11   -1    0    0    0    0 -0.00000000000E+00 -0.00000000000E+00 -0.45593999997E+02  0.45594000000E+02  0.51100000000E-03 0. -1.
    9900012    2    1    2    0    0  0.33982409469E+02 -0.29284314610E+02 -0.40912906867E+01  0.46142313248E+02  0.99999588423E+01 0.  0.
        -12    1    1    2    0    0 -0.33982409469E+02  0.29284314610E+02  0.40912906867E+01  0.45045686752E+02  0.00000000000E+00 0.  1.
         11    1    3    3    0    0  0.12624791199E+02 -0.84257221937E+01 -0.26200460363E+01  0.15402687713E+02  0.51100000000E-03 0. -1.
        -11    1    3    3    0    0  0.18845219367E+02 -0.16580189176E+02  0.11523372805E+01  0.25127133692E+02  0.51100000000E-03 0.  1.
        -12    1    3    3    0    0  0.25123989042E+01 -0.42784032403E+01 -0.26235819308E+01  0.56124918431E+01  0.00000000000E+00 0.  1.
</event>
<event>
 7    1  0.3846293E-008  0.4614232E+02  0.7816164E-02  0.1320468E+00
        -11   -1    0    0    0    0  0.00000000000E+00  0.00000000000E+00  0.45593999997E+02  0.45594000000E+02  0.51100000000E-03 0.  1.
         11   -1    0    0    0    0 -0.00000000000E+00 -0.00000000000E+00 -0.45593999997E+02  0.45594000000E+02  0.51100000000E-03 0. -1.
    9900012    2    1    2    0    0  0.33218565713E+02 -0.87508194670E+01 -0.29138684104E+02  0.46142324728E+02  0.10000063526E+02 0.  0.
        -12    1    1    2    0    0 -0.33218565713E+02  0.87508194670E+01  0.29138684104E+02  0.45045675272E+02  0.00000000000E+00 0.  1.
         11    1    3    3    0    0  0.33454769064E+01 -0.31412865397E+01 -0.23632100309E+01  0.51618464494E+01  0.51100000000E-03 0. -1.
        -11    1    3    3    0    0  0.43059671010E+01  0.10032672393E+01 -0.23448394175E+01  0.50046148687E+01  0.51100000000E-03 0.  1.
        -12    1    3    3    0    0  0.25567121706E+02 -0.66128001666E+01 -0.24430634656E+02  0.35975863410E+02  0.00000000000E+00 0.  1.
</event>
<event>
 7    1  0.3846293E-008  0.4614232E+02  0.7816164E-02  0.1320468E+00
        -11   -1    0    0    0    0  0.00000000000E+00  0.00000000000E+00  0.45593999997E+02  0.45594000000E+02  0.51100000000E-03 0. -1.
         11   -1    0    0    0    0 -0.00000000000E+00 -0.00000000000E+00 -0.45593999997E+02  0.45594000000E+02  0.51100000000E-03 0.  1.
    9900012    2    1    2    0    0 -0.13441593747E+02 -0.29462683786E+02  0.31311132974E+02  0.46142320669E+02  0.10000026515E+02 0.  0.
        -12    1    1    2    0    0  0.13441593747E+02  0.29462683786E+02 -0.31311132974E+02  0.45045679331E+02  0.00000000000E+00 0.  1.
         11    1    3    3    0    0 -0.21197411314E+01 -0.27752155215E+01  0.13420359639E+01  0.37411474770E+01  0.51100000000E-03 0.  1.
        -11    1    3    3    0    0  0.11159733824E+01 -0.36076659667E+01  0.36583592261E+01  0.52577792656E+01  0.51100000000E-03 0. -1.
         12    1    3    3    0    0 -0.12437825998E+02 -0.23079802297E+02  0.26310737784E+02  0.37143393926E+02  0.00000000000E+00 0. -1.
</event>
<event>
 7    1  0.3846293E-008  0.4614232E+02  0.7816164E-02  0.1320468E+00
        -11   -1    0    0    0    0  0.00000000000E+00  0.00000000000E+00  0.45593999997E+02  0.45594000000E+02  0.51100000000E-03 0.  1.
         11   -1    0    0    0    0 -0.00000000000E+00 -0.00000000000E+00 -0.45593999997E+02  0.45594000000E+02  0.51100000000E-03 0. -1.
    9900012    2    1    2    0    0  0.30673624493E+02  0.28963769353E+02  0.15790579384E+02  0.46142316833E+02  0.99999915364E+01 0.  0.
        -12    1    1    2    0    0 -0.30673624493E+02 -0.28963769353E+02 -0.15790579384E+02  0.45045683167E+02  0.00000000000E+00 0.  1.
         11    1    3    3    0    0  0.18865974603E+02  0.13890194574E+02  0.78279009149E+01  0.24700982491E+02  0.51100000000E-03 0. -1.
        -11    1    3    3    0    0  0.71875269730E+01  0.53143167690E+01  0.22147344075E+01  0.92091017730E+01  0.51100000000E-03 0.  1.
        -12    1    3    3    0    0  0.46201229168E+01  0.97592580103E+01  0.57479440619E+01  0.12232232569E+02  0.00000000000E+00 0.  1.
</event>
<event>
 7    1  0.3846293E-008  0.4614232E+02  0.7816164E-02  0.1320468E+00
        -11   -1    0    0    0    0  0.00000000000E+00  0.00000000000E+00  0.45593999997E+02  0.45594000000E+02  0.51100000000E-03 0.  1.
         11   -1    0    0    0    0 -0.00000000000E+00 -0.00000000000E+00 -0.45593999997E+02  0.45594000000E+02  0.51100000000E-03 0. -1.
    9900012    2    1    2    0    0  0.13064275186E+02 -0.40463157881E+02 -0.14871819857E+02  0.46142318101E+02  0.10000003102E+02 0.  0.
        -12    1    1    2    0    0 -0.13064275186E+02  0.40463157881E+02  0.14871819857E+02  0.45045681899E+02  0.00000000000E+00 0.  1.
         11    1    3    3    0    0  0.86354421985E+01 -0.23028434588E+02 -0.61177489218E+01  0.25343766762E+02  0.51100000000E-03 0. -1.
        -11    1    3    3    0    0 -0.48537844885E+00 -0.90165589064E+01 -0.32010742807E+01  0.95802298283E+01  0.51100000000E-03 0.  1.
        -12    1    3    3    0    0  0.49142114362E+01 -0.84181643865E+01 -0.55529966544E+01  0.11218321511E+02  0.00000000000E+00 0.  1.
</event>
<event>
 7    1  0.3846293E-008  0.4614232E+02  0.7816164E-02  0.1320468E+00
        -11   -1    0    0    0    0  0.00000000000E+00  0.00000000000E+00  0.45593999997E+02  0.45594000000E+02  0.51100000000E-03 0. -1.
         11   -1    0    0    0    0 -0.00000000000E+00 -0.00000000000E+00 -0.45593999997E+02  0.45594000000E+02  0.51100000000E-03 0.  1.
    9900012    2    1    2    0    0 -0.10198526000E+01 -0.44680000574E+02  0.56365718507E+01  0.46142317711E+02  0.99999995461E+01 0.  0.
        -12    1    1    2    0    0  0.10198526000E+01  0.44680000574E+02 -0.56365718507E+01  0.45045682289E+02  0.00000000000E+00 0.  1.
         11    1    3    3    0    0 -0.11695269635E+01 -0.13635083832E+01  0.18005398865E+00  0.18053720196E+01  0.51100000000E-03 0.  1.
        -11    1    3    3    0    0 -0.23610853934E+01 -0.29742672833E+02  0.63481544196E+01  0.30504104253E+02  0.51100000000E-03 0. -1.
         12    1    3    3    0    0  0.25107597568E+01 -0.13573819358E+02 -0.89163655750E+00  0.13832841439E+02  0.00000000000E+00 0. -1.
</event>
<event>
 7    1  0.3846293E-008  0.4614232E+02  0.7816164E-02  0.1320468E+00
        -11   -1    0    0    0    0  0.00000000000E+00  0.00000000000E+00  0.45593999997E+02  0.45594000000E+02  0.51100000000E-03 0.  1.
         11   -1    0    0    0    0 -0.00000000000E+00 -0.00000000000E+00 -0.45593999997E+02  0.45594000000E+02  0.51100000000E-03 0. -1.
    9900012    2    1    2    0    0 -0.52852558747E+01  0.27281832971E+02 -0.35452519552E+02  0.46142317826E+02  0.10000000595E+02 0.  0.
        -12    1    1    2    0    0  0.52852558747E+01 -0.27281832971E+02  0.35452519552E+02  0.45045682174E+02  0.00000000000E+00 0.  1.
         11    1    3    3    0    0 -0.16154403248E+01  0.46224822479E+01 -0.11887380944E+02  0.12856392012E+02  0.51100000000E-03 0. -1.
        -11    1    3    3    0    0 -0.74806294060E+00  0.16567458175E+00 -0.39787201818E+00  0.86333575977E+00  0.51100000000E-03 0.  1.
         12    1    3    3    0    0 -0.29217526093E+01  0.22493676141E+02 -0.23167266589E+02  0.32422590055E+02  0.00000000000E+00 0. -1.
</event>
<event>
 7    1  0.3846293E-008  0.4614233E+02  0.7816164E-02  0.1320468E+00
        -11   -1    0    0    0    0  0.00000000000E+00  0.00000000000E+00  0.45593999997E+02  0.45594000000E+02  0.51100000000E-03 0.  1.
         11   -1    0    0    0    0 -0.00000000000E+00 -0.00000000000E+00 -0.45593999997E+02  0.45594000000E+02  0.51100000000E-03 0. -1.
    9900012    2    1    2    0    0 -0.11559540067E+02  0.19744257780E+02 -0.38802759587E+02  0.46142325031E+02  0.10000066288E+02 0.  0.
        -12    1    1    2    0    0  0.11559540067E+02 -0.19744257780E+02  0.38802759587E+02  0.45045674969E+02  0.00000000000E+00 0.  1.
         11    1    3    3    0    0 -0.26174672753E+00  0.15507987432E+01 -0.10092523644E+01  0.18687104343E+01  0.51100000000E-03 0. -1.
        -11    1    3    3    0    0  0.56805373304E+00  0.32457193595E+00  0.16416893565E+00  0.67452478515E+00  0.51100000000E-03 0.  1.
         12    1    3    3    0    0 -0.11865847073E+02  0.17868887101E+02 -0.37957676159E+02  0.43599089811E+02  0.00000000000E+00 0. -1.
</event>
<event>
 7    1  0.3846293E-008  0.4614232E+02  0.7816164E-02  0.1320468E+00
        -11   -1    0    0    0    0  0.00000000000E+00  0.00000000000E+00  0.45593999997E+02  0.45594000000E+02  0.51100000000E-03 0.  1.
         11   -1    0    0    0    0 -0.00000000000E+00 -0.00000000000E+00 -0.45593999997E+02  0.45594000000E+02  0.51100000000E-03 0. -1.
    9900012    2    1    2    0    0 -0.26250035778E+02 -0.23388142955E+02 -0.28161034174E+02  0.46142318132E+02  0.10000003384E+02 0.  0.
        -12    1    1    2    0    0  0.26250035778E+02  0.23388142955E+02  0.28161034174E+02  0.45045681868E+02  0.00000000000E+00 0.  1.
         11    1    3    3    0    0 -0.72531877601E+01 -0.14455048069E+01 -0.69221767055E+01  0.10129893752E+02  0.51100000000E-03 0.  1.
        -11    1    3    3    0    0 -0.10799608786E+02 -0.11064926905E+02 -0.11396020146E+02  0.19207639959E+02  0.51100000000E-03 0. -1.
        -12    1    3    3    0    0 -0.81972392317E+01 -0.10877711243E+02 -0.98428373216E+01  0.16804784421E+02  0.00000000000E+00 0.  1.
</event>
<event>
 7    1  0.3846293E-008  0.4614232E+02  0.7816164E-02  0.1320468E+00
        -11   -1    0    0    0    0  0.00000000000E+00  0.00000000000E+00  0.45593999997E+02  0.45594000000E+02  0.51100000000E-03 0. -1.
         11   -1    0    0    0    0 -0.00000000000E+00 -0.00000000000E+00 -0.45593999997E+02  0.45594000000E+02  0.51100000000E-03 0.  1.
    9900012    2    1    2    0    0  0.32463019052E+02 -0.29430512087E+02  0.10445611568E+02  0.46142318201E+02  0.10000004013E+02 0.  0.
        -12    1    1    2    0    0 -0.32463019052E+02  0.29430512087E+02 -0.10445611568E+02  0.45045681799E+02  0.00000000000E+00 0.  1.
         11    1    3    3    0    0  0.21294246278E+02 -0.22144015678E+02  0.95752758435E+01  0.32179003444E+02  0.51100000000E-03 0. -1.
        -11    1    3    3    0    0  0.33807438949E+01 -0.26376482348E+01  0.21613486799E+01  0.48018794102E+01  0.51100000000E-03 0.  1.
        -12    1    3    3    0    0  0.77880288789E+01 -0.46488481742E+01 -0.12910129551E+01  0.91614353469E+01  0.00000000000E+00 0.  1.
</event>
<event>
 7    1  0.3846293E-008  0.4614232E+02  0.7816164E-02  0.1320468E+00
        -11   -1    0    0    0    0  0.00000000000E+00  0.00000000000E+00  0.45593999997E+02  0.45594000000E+02  0.51100000000E-03 0. -1.
         11   -1    0    0    0    0 -0.00000000000E+00 -0.00000000000E+00 -0.45593999997E+02  0.45594000000E+02  0.51100000000E-03 0.  1.
    9900012    2    1    2    0    0  0.28431593222E+02  0.15877827826E+01  0.34903251045E+02  0.46142317845E+02  0.10000000765E+02 0.  0.
        -12    1    1    2    0    0 -0.28431593222E+02 -0.15877827826E+01 -0.34903251045E+02  0.45045682155E+02  0.00000000000E+00 0.  1.
         11    1    3    3    0    0  0.12438508598E+02 -0.47245402768E+00  0.14306525599E+02  0.18963554095E+02  0.51100000000E-03 0. -1.
        -11    1    3    3    0    0  0.63783516878E+01 -0.70369471339E+00  0.33457683869E+01  0.72369000866E+01  0.51100000000E-03 0.  1.
         12    1    3    3    0    0  0.96147329358E+01  0.27639315236E+01  0.17250957060E+02  0.19941863663E+02  0.00000000000E+00 0. -1.
</event>
<event>
 7    1  0.3846293E-008  0.4614231E+02  0.7816164E-02  0.1320468E+00
        -11   -1    0    0    0    0  0.00000000000E+00  0.00000000000E+00  0.45593999997E+02  0.45594000000E+02  0.51100000000E-03 0. -1.
         11   -1    0    0    0    0 -0.00000000000E+00 -0.00000000000E+00 -0.45593999997E+02  0.45594000000E+02  0.51100000000E-03 0.  1.
    9900012    2    1    2    0    0  0.25813489447E+02 -0.22837999111E+02  0.29003506584E+02  0.46142313914E+02  0.99999649156E+01 0.  0.
        -12    1    1    2    0    0 -0.25813489447E+02  0.22837999111E+02 -0.29003506584E+02  0.45045686086E+02  0.00000000000E+00 0.  1.
         11    1    3    3    0    0 -0.63993803980E+00 -0.81437913465E+00  0.61669539397E+00  0.12054242157E+01  0.51100000000E-03 0. -1.
        -11    1    3    3    0    0  0.30022041177E+00 -0.77260908548E+00 -0.67970101596E-01  0.83167138368E+00  0.51100000000E-03 0.  1.
        -12    1    3    3    0    0  0.26153207075E+02 -0.21251010890E+02  0.28454781292E+02  0.44105218314E+02  0.00000000000E+00 0.  1.
</event>
<event>
 7    1  0.3846293E-008  0.4614232E+02  0.7816164E-02  0.1320468E+00
        -11   -1    0    0    0    0  0.00000000000E+00  0.00000000000E+00  0.45593999997E+02  0.45594000000E+02  0.51100000000E-03 0.  1.
         11   -1    0    0    0    0 -0.00000000000E+00 -0.00000000000E+00 -0.45593999997E+02  0.45594000000E+02  0.51100000000E-03 0. -1.
    9900012    2    1    2    0    0 -0.29033802460E+02 -0.34158170851E+02  0.44012663404E+01  0.46142318003E+02  0.10000002204E+02 0.  0.
        -12    1    1    2    0    0  0.29033802460E+02  0.34158170851E+02 -0.44012663404E+01  0.45045681997E+02  0.00000000000E+00 0.  1.
         11    1    3    3    0    0 -0.12441099214E+01 -0.89218746411E+00 -0.65660636510E+00  0.16658151601E+01  0.51100000000E-03 0. -1.
        -11    1    3    3    0    0 -0.28097929205E+02 -0.33079530159E+02  0.56652232329E+01  0.43770351789E+02  0.51100000000E-03 0.  1.
        -12    1    3    3    0    0  0.30823666579E+00 -0.18645322752E+00 -0.60735052735E+00  0.70615105414E+00  0.00000000000E+00 0.  1.
</event>
<event>
 7    1  0.3846293E-008  0.4614232E+02  0.7816164E-02  0.1320468E+00
        -11   -1    0    0    0    0  0.00000000000E+00  0.00000000000E+00  0.45593999997E+02  0.45594000000E+02  0.51100000000E-03 0. -1.
         11   -1    0    0    0    0 -0.00000000000E+00 -0.00000000000E+00 -0.45593999997E+02  0.45594000000E+02  0.51100000000E-03 0.  1.
    9900012    2    1    2    0    0  0.12885629022E+02 -0.43135517256E+02 -0.15495585584E+01  0.46142318565E+02  0.10000007330E+02 0.  0.
        -12    1    1    2    0    0 -0.12885629022E+02  0.43135517256E+02  0.15495585584E+01  0.45045681435E+02  0.00000000000E+00 0.  1.
         11    1    3    3    0    0  0.87821200985E+01 -0.27169090134E+02  0.55072830581E+00  0.28558508260E+02  0.51100000000E-03 0. -1.
        -11    1    3    3    0    0  0.42352514007E+01 -0.15031556259E+02 -0.33948482555E+01  0.15981552895E+02  0.51100000000E-03 0.  1.
        -12    1    3    3    0    0 -0.13174247715E+00 -0.93487086281E+00  0.12945613913E+01  0.16022574095E+01  0.00000000000E+00 0.  1.
</event>
<event>
 7    1  0.3846293E-008  0.4614232E+02  0.7816164E-02  0.1320468E+00
        -11   -1    0    0    0    0  0.00000000000E+00  0.00000000000E+00  0.45593999997E+02  0.45594000000E+02  0.51100000000E-03 0.  1.
         11   -1    0    0    0    0 -0.00000000000E+00 -0.00000000000E+00 -0.45593999997E+02  0.45594000000E+02  0.51100000000E-03 0. -1.
    9900012    2    1    2    0    0  0.39401494772E+02  0.29496075747E+01 -0.21631818146E+02  0.46142317283E+02  0.99999956391E+01 0.  0.
        -12    1    1    2    0    0 -0.39401494772E+02 -0.29496075747E+01  0.21631818146E+02  0.45045682717E+02  0.00000000000E+00 0.  1.
         11    1    3    3    0    0 -0.47047526786E-01  0.71247011043E+00 -0.54077350813E+00  0.89569156312E+00  0.51100000000E-03 0.  1.
        -11    1    3    3    0    0  0.13170284384E+02  0.34451296727E+01 -0.56152934537E+01  0.14726059556E+02  0.51100000000E-03 0. -1.
        -12    1    3    3    0    0  0.26278257915E+02 -0.12079922084E+01 -0.15475751185E+02  0.30520566164E+02  0.00000000000E+00 0.  1.
</event>
<event>
 7    1  0.3846293E-008  0.4614232E+02  0.7816164E-02  0.1320468E+00
        -11   -1    0    0    0    0  0.00000000000E+00  0.00000000000E+00  0.45593999997E+02  0.45594000000E+02  0.51100000000E-03 0.  1.
         11   -1    0    0    0    0 -0.00000000000E+00 -0.00000000000E+00 -0.45593999997E+02  0.45594000000E+02  0.51100000000E-03 0. -1.
    9900012    2    1    2    0    0 -0.43853994569E+02  0.10142498950E+02  0.17522456210E+01  0.46142317751E+02  0.99999999033E+01 0.  0.
        -12    1    1    2    0    0  0.43853994569E+02 -0.10142498950E+02 -0.17522456210E+01  0.45045682249E+02  0.00000000000E+00 0.  1.
         11    1    3    3    0    0 -0.64696963935E+01  0.10659476694E+01  0.25212483332E+01  0.70249490587E+01  0.51100000000E-03 0. -1.
        -11    1    3    3    0    0 -0.29413888683E+01  0.28615225684E+01  0.14593184540E+00  0.41062606163E+01  0.51100000000E-03 0.  1.
         12    1    3    3    0    0 -0.34442909307E+02  0.62150287118E+01 -0.91493455762E+00  0.35011108076E+02  0.00000000000E+00 0. -1.
</event>
<event>
 7    1  0.3846293E-008  0.4614233E+02  0.7816164E-02  0.1320468E+00
        -11   -1    0    0    0    0  0.00000000000E+00  0.00000000000E+00  0.45593999997E+02  0.45594000000E+02  0.51100000000E-03 0.  1.
         11   -1    0    0    0    0 -0.00000000000E+00 -0.00000000000E+00 -0.45593999997E+02  0.45594000000E+02  0.51100000000E-03 0. -1.
    9900012    2    1    2    0    0  0.18374697742E+02 -0.46742270980E+01 -0.40861166130E+02  0.46142325251E+02  0.10000068300E+02 0.  0.
        -12    1    1    2    0    0 -0.18374697742E+02  0.46742270980E+01  0.40861166130E+02  0.45045674749E+02  0.00000000000E+00 0.  1.
         11    1    3    3    0    0  0.52837917843E+01 -0.39356621914E+01 -0.21529290636E+02  0.22514845059E+02  0.51100000000E-03 0. -1.
        -11    1    3    3    0    0  0.50401736361E+01 -0.37474434606E-01 -0.10556046722E+02  0.11697644090E+02  0.51100000000E-03 0.  1.
        -12    1    3    3    0    0  0.80507323214E+01 -0.70109047198E+00 -0.87758287730E+01  0.11929836102E+02  0.00000000000E+00 0.  1.
</event>
<event>
 7    1  0.3846293E-008  0.4614232E+02  0.7816164E-02  0.1320468E+00
        -11   -1    0    0    0    0  0.00000000000E+00  0.00000000000E+00  0.45593999997E+02  0.45594000000E+02  0.51100000000E-03 0. -1.
         11   -1    0    0    0    0 -0.00000000000E+00 -0.00000000000E+00 -0.45593999997E+02  0.45594000000E+02  0.51100000000E-03 0.  1.
    9900012    2    1    2    0    0  0.19743120321E+01 -0.36022904022E+02  0.26973430750E+02  0.46142317759E+02  0.99999999808E+01 0.  0.
        -12    1    1    2    0    0 -0.19743120321E+01  0.36022904022E+02 -0.26973430750E+02  0.45045682241E+02  0.00000000000E+00 0.  1.
         11    1    3    3    0    0 -0.16742755454E+01 -0.26510944720E+02  0.19376151343E+02  0.32879608113E+02  0.51100000000E-03 0. -1.
        -11    1    3    3    0    0  0.14260591592E+01 -0.78946117280E+01  0.64091835333E+01  0.10268211767E+02  0.51100000000E-03 0.  1.
        -12    1    3    3    0    0  0.22225284182E+01 -0.16173475735E+01  0.11880958736E+01  0.29944978791E+01  0.00000000000E+00 0.  1.
</event>
<event>
 7    1  0.3846293E-008  0.4614232E+02  0.7816164E-02  0.1320468E+00
        -11   -1    0    0    0    0  0.00000000000E+00  0.00000000000E+00  0.45593999997E+02  0.45594000000E+02  0.51100000000E-03 0.  1.
         11   -1    0    0    0    0 -0.00000000000E+00 -0.00000000000E+00 -0.45593999997E+02  0.45594000000E+02  0.51100000000E-03 0. -1.
    9900012    2    1    2    0    0 -0.16077134919E+02 -0.93915988855E+01 -0.41017522005E+02  0.46142317540E+02  0.99999979820E+01 0.  0.
        -12    1    1    2    0    0  0.16077134919E+02  0.93915988855E+01  0.41017522005E+02  0.45045682460E+02  0.00000000000E+00 0.  1.
         11    1    3    3    0    0 -0.10130904200E+02 -0.78440117062E+01 -0.27856131397E+02  0.30661503489E+02  0.51100000000E-03 0. -1.
        -11    1    3    3    0    0  0.42312930282E+00 -0.14545475349E+01 -0.12137687725E+01  0.19411290097E+01  0.51100000000E-03 0.  1.
         12    1    3    3    0    0 -0.63693600227E+01 -0.93039644367E-01 -0.11947621836E+02  0.13539685041E+02  0.00000000000E+00 0. -1.
</event>
<event>
 7    1  0.3846293E-008  0.4614232E+02  0.7816164E-02  0.1320468E+00
        -11   -1    0    0    0    0  0.00000000000E+00  0.00000000000E+00  0.45593999997E+02  0.45594000000E+02  0.51100000000E-03 0. -1.
         11   -1    0    0    0    0 -0.00000000000E+00 -0.00000000000E+00 -0.45593999997E+02  0.45594000000E+02  0.51100000000E-03 0.  1.
    9900012    2    1    2    0    0  0.33617442115E+02 -0.11057724132E+02  0.27869478652E+02  0.46142317436E+02  0.99999970357E+01 0.  0.
        -12    1    1    2    0    0 -0.33617442115E+02  0.11057724132E+02 -0.27869478652E+02  0.45045682564E+02  0.00000000000E+00 0.  1.
         11    1    3    3    0    0  0.22348618277E+02 -0.98072586553E+01  0.16382845271E+02  0.29394568897E+02  0.51100000000E-03 0. -1.
        -11    1    3    3    0    0  0.93386909810E+00  0.19894942720E+00 -0.30387397428E+00  0.10020139821E+01  0.51100000000E-03 0.  1.
        -12    1    3    3    0    0  0.10334954740E+02 -0.14494149036E+01  0.11790507355E+02  0.15745734557E+02  0.00000000000E+00 0.  1.
</event>
<event>
 7    1  0.3846293E-008  0.4614231E+02  0.7816164E-02  0.1320468E+00
        -11   -1    0    0    0    0  0.00000000000E+00  0.00000000000E+00  0.45593999997E+02  0.45594000000E+02  0.51100000000E-03 0.  1.
         11   -1    0    0    0    0 -0.00000000000E+00 -0.00000000000E+00 -0.45593999997E+02  0.45594000000E+02  0.51100000000E-03 0. -1.
    9900012    2    1    2    0    0  0.16721319472E+02 -0.17075839894E+02 -0.38182816224E+02  0.46142308888E+02  0.99999190843E+01 0.  0.
        -12    1    1    2    0    0 -0.16721319472E+02  0.17075839894E+02  0.38182816224E+02  0.45045691112E+02  0.00000000000E+00 0.  1.
         11    1    3    3    0    0  0.90093600677E+00 -0.29213545855E+01 -0.96327870619E+01  0.10106264648E+02  0.51100000000E-03 0. -1.
        -11    1    3    3    0    0  0.96511394551E+00 -0.19808958497E+01 -0.92315345700E+00  0.23890596187E+01  0.51100000000E-03 0.  1.
         12    1    3    3    0    0  0.14855269520E+02 -0.12173589459E+02 -0.27626875705E+02  0.33646984621E+02  0.00000000000E+00 0. -1.
</event>
<event>
 7    1  0.3846293E-008  0.4614232E+02  0.7816164E-02  0.1320468E+00
        -11   -1    0    0    0    0  0.00000000000E+00  0.00000000000E+00  0.45593999997E+02  0.45594000000E+02  0.51100000000E-03 0.  1.
         11   -1    0    0    0    0 -0.00000000000E+00 -0.00000000000E+00 -0.45593999997E+02  0.45594000000E+02  0.51100000000E-03 0. -1.
    9900012    2    1    2    0    0  0.79413496931E+01  0.24453225211E+02 -0.36987678082E+02  0.46142316655E+02  0.99999899122E+01 0.  0.
        -12    1    1    2    0    0 -0.79413496931E+01 -0.24453225211E+02  0.36987678082E+02  0.45045683345E+02  0.00000000000E+00 0.  1.
         11    1    3    3    0    0  0.18517520486E+01  0.11626680214E+01 -0.10340735400E+01  0.24186961208E+01  0.51100000000E-03 0. -1.
        -11    1    3    3    0    0  0.62562622772E+01  0.13494796882E+02 -0.18839989068E+02  0.24004073590E+02  0.51100000000E-03 0.  1.
         12    1    3    3    0    0 -0.16666463271E+00  0.97957603076E+01 -0.17113615474E+02  0.19719546944E+02  0.00000000000E+00 0. -1.
</event>
<event>
 7    1  0.3846293E-008  0.4614232E+02  0.7816164E-02  0.1320468E+00
        -11   -1    0    0    0    0  0.00000000000E+00  0.00000000000E+00  0.45593999997E+02  0.45594000000E+02  0.51100000000E-03 0.  1.
         11   -1    0    0    0    0 -0.00000000000E+00 -0.00000000000E+00 -0.45593999997E+02  0.45594000000E+02  0.51100000000E-03 0. -1.
    9900012    2    1    2    0    0 -0.23994154370E+02 -0.29195380513E+02 -0.24515786130E+02  0.46142318111E+02  0.10000003193E+02 0.  0.
        -12    1    1    2    0    0  0.23994154370E+02  0.29195380513E+02  0.24515786130E+02  0.45045681889E+02  0.00000000000E+00 0.  1.
         11    1    3    3    0    0 -0.30449826104E+01 -0.46961379396E+01 -0.60260375916E+01  0.82242786895E+01  0.51100000000E-03 0. -1.
        -11    1    3    3    0    0 -0.13527534179E+00  0.53263122874E+00 -0.29130528607E+00  0.62197626541E+00  0.51100000000E-03 0.  1.
         12    1    3    3    0    0 -0.20813896418E+02 -0.25031873802E+02 -0.18198443252E+02  0.37296063156E+02  0.00000000000E+00 0. -1.
</event>
<event>
 7    1  0.3846293E-008  0.4614232E+02  0.7816164E-02  0.1320468E+00
        -11   -1    0    0    0    0  0.00000000000E+00  0.00000000000E+00  0.45593999997E+02  0.45594000000E+02  0.51100000000E-03 0.  1.
         11   -1    0    0    0    0 -0.00000000000E+00 -0.00000000000E+00 -0.45593999997E+02  0.45594000000E+02  0.51100000000E-03 0. -1.
    9900012    2    1    2    0    0  0.37245794331E+00 -0.15680292111E+02 -0.42226806622E+02  0.46142317820E+02  0.10000000534E+02 0.  0.
        -12    1    1    2    0    0 -0.37245794331E+00  0.15680292111E+02  0.42226806622E+02  0.45045682180E+02  0.00000000000E+00 0.  1.
         11    1    3    3    0    0  0.10194816809E+00 -0.34068376969E+01 -0.66412264026E+01  0.74647722614E+01  0.51100000000E-03 0. -1.
        -11    1    3    3    0    0 -0.23800858129E+01 -0.73946941875E+01 -0.29199960288E+02  0.30215624959E+02  0.51100000000E-03 0.  1.
        -12    1    3    3    0    0  0.26505955881E+01 -0.48787602261E+01 -0.63856199317E+01  0.84619205992E+01  0.00000000000E+00 0.  1.
</event>
<event>
 7    1  0.3846293E-008  0.4614231E+02  0.7816164E-02  0.1320468E+00
        -11   -1    0    0    0    0  0.00000000000E+00  0.00000000000E+00  0.45593999997E+02  0.45594000000E+02  0.51100000000E-03 0.  1.
         11   -1    0    0    0    0 -0.00000000000E+00 -0.00000000000E+00 -0.45593999997E+02  0.45594000000E+02  0.51100000000E-03 0. -1.
    9900012    2    1    2    0    0  0.37048572912E+02 -0.25615491806E+02  0.60337232505E+00  0.46142309491E+02  0.99999245865E+01 0.  0.
        -12    1    1    2    0    0 -0.37048572912E+02  0.25615491806E+02 -0.60337232505E+00  0.45045690509E+02  0.00000000000E+00 0.  1.
         11    1    3    3    0    0  0.94467798180E+01 -0.50903666797E+01 -0.64090918669E+00  0.10750081242E+02  0.51100000000E-03 0. -1.
        -11    1    3    3    0    0  0.12603919195E+02 -0.94407457613E+01 -0.35365143120E+01  0.16139807723E+02  0.51100000000E-03 0.  1.
        -12    1    3    3    0    0  0.14997873899E+02 -0.11084379365E+02  0.47807958237E+01  0.19252420526E+02  0.00000000000E+00 0.  1.
</event>
<event>
 7    1  0.3846293E-008  0.4614232E+02  0.7816164E-02  0.1320468E+00
        -11   -1    0    0    0    0  0.00000000000E+00  0.00000000000E+00  0.45593999997E+02  0.45594000000E+02  0.51100000000E-03 0.  1.
         11   -1    0    0    0    0 -0.00000000000E+00 -0.00000000000E+00 -0.45593999997E+02  0.45594000000E+02  0.51100000000E-03 0. -1.
    9900012    2    1    2    0    0 -0.89274651327E+01  0.35727992636E+02 -0.25940787170E+02  0.46142317294E+02  0.99999957361E+01 0.  0.
        -12    1    1    2    0    0  0.89274651327E+01 -0.35727992636E+02  0.25940787170E+02  0.45045682706E+02  0.00000000000E+00 0.  1.
         11    1    3    3    0    0 -0.56486880490E+01  0.18139652220E+02 -0.18755430564E+02  0.26696831933E+02  0.51100000000E-03 0. -1.
        -11    1    3    3    0    0 -0.75819925822E-01  0.56958621774E+01 -0.29962528645E+01  0.64363130824E+01  0.51100000000E-03 0.  1.
         12    1    3    3    0    0 -0.32029571579E+01  0.11892478239E+02 -0.41891037413E+01  0.13009172278E+02  0.00000000000E+00 0. -1.
</event>
<event>
 7    1  0.3846293E-008  0.4614232E+02  0.7816164E-02  0.1320468E+00
        -11   -1    0    0    0    0  0.00000000000E+00  0.00000000000E+00  0.45593999997E+02  0.45594000000E+02  0.51100000000E-03 0.  1.
         11   -1    0    0    0    0 -0.00000000000E+00 -0.00000000000E+00 -0.45593999997E+02  0.45594000000E+02  0.51100000000E-03 0. -1.
    9900012    2    1    2    0    0 -0.24214118293E+02 -0.28162486748E+02  0.25488511376E+02  0.46142318778E+02  0.10000009275E+02 0.  0.
        -12    1    1    2    0    0  0.24214118293E+02  0.28162486748E+02 -0.25488511376E+02  0.45045681222E+02  0.00000000000E+00 0.  1.
         11    1    3    3    0    0 -0.11868312934E+02 -0.13958178612E+02  0.10948454821E+02  0.21343764084E+02  0.51100000000E-03 0. -1.
        -11    1    3    3    0    0 -0.70061231967E+01 -0.10191719357E+02  0.54419807947E+01  0.13511922918E+02  0.51100000000E-03 0.  1.
        -12    1    3    3    0    0 -0.53396821628E+01 -0.40125887792E+01  0.90980757606E+01  0.11286631776E+02  0.00000000000E+00 0.  1.
</event>
<event>
 7    1  0.3846293E-008  0.4614232E+02  0.7816164E-02  0.1320468E+00
        -11   -1    0    0    0    0  0.00000000000E+00  0.00000000000E+00  0.45593999997E+02  0.45594000000E+02  0.51100000000E-03 0. -1.
         11   -1    0    0    0    0 -0.00000000000E+00 -0.00000000000E+00 -0.45593999997E+02  0.45594000000E+02  0.51100000000E-03 0.  1.
    9900012    2    1    2    0    0 -0.32896507894E+02  0.91010208715E+01  0.29395657589E+02  0.46142317658E+02  0.99999990643E+01 0.  0.
        -12    1    1    2    0    0  0.32896507894E+02 -0.91010208715E+01 -0.29395657589E+02  0.45045682342E+02  0.00000000000E+00 0.  1.
         11    1    3    3    0    0 -0.61635347225E+01  0.80038675952E-01  0.55765152890E+01  0.83122253034E+01  0.51100000000E-03 0.  1.
        -11    1    3    3    0    0 -0.26115252672E+02  0.10111535540E+02  0.21959368478E+02  0.35587405600E+02  0.51100000000E-03 0. -1.
         12    1    3    3    0    0 -0.61772049903E+00 -0.10905533446E+01  0.18597738220E+01  0.22426867551E+01  0.00000000000E+00 0. -1.
</event>
<event>
 7    1  0.3846293E-008  0.4614232E+02  0.7816164E-02  0.1320468E+00
        -11   -1    0    0    0    0  0.00000000000E+00  0.00000000000E+00  0.45593999997E+02  0.45594000000E+02  0.51100000000E-03 0. -1.
         11   -1    0    0    0    0 -0.00000000000E+00 -0.00000000000E+00 -0.45593999997E+02  0.45594000000E+02  0.51100000000E-03 0.  1.
    9900012    2    1    2    0    0  0.29433208168E+02  0.46848273872E+01  0.33776502914E+02  0.46142317634E+02  0.99999988432E+01 0.  0.
        -12    1    1    2    0    0 -0.29433208168E+02 -0.46848273872E+01 -0.33776502914E+02  0.45045682366E+02  0.00000000000E+00 0.  1.
         11    1    3    3    0    0  0.44816018885E+01  0.15663873691E+01  0.10407833064E+02  0.11439463022E+02  0.51100000000E-03 0. -1.
        -11    1    3    3    0    0  0.20543049543E+02  0.96864156199E+00  0.17119862238E+02  0.26759014076E+02  0.51100000000E-03 0.  1.
        -12    1    3    3    0    0  0.44085567362E+01  0.21497984561E+01  0.62488076117E+01  0.79438405363E+01  0.00000000000E+00 0.  1.
</event>
<event>
 7    1  0.3846293E-008  0.4614232E+02  0.7816164E-02  0.1320468E+00
        -11   -1    0    0    0    0  0.00000000000E+00  0.00000000000E+00  0.45593999997E+02  0.45594000000E+02  0.51100000000E-03 0. -1.
         11   -1    0    0    0    0 -0.00000000000E+00 -0.00000000000E+00 -0.45593999997E+02  0.45594000000E+02  0.51100000000E-03 0.  1.
    9900012    2    1    2    0    0 -0.15693904820E+00  0.33191995305E+02  0.30452920311E+02  0.46142317214E+02  0.99999950107E+01 0.  0.
        -12    1    1    2    0    0  0.15693904820E+00 -0.33191995305E+02 -0.30452920311E+02  0.45045682786E+02  0.00000000000E+00 0.  1.
         11    1    3    3    0    0  0.79695336023E+00  0.43667687418E+01  0.27359110046E+01  0.52143085053E+01  0.51100000000E-03 0. -1.
        -11    1    3    3    0    0 -0.48142898875E+01  0.15609803090E+02  0.14483358013E+02  0.21831422291E+02  0.51100000000E-03 0.  1.
        -12    1    3    3    0    0  0.38603974790E+01  0.13215423473E+02  0.13233651293E+02  0.19096586418E+02  0.00000000000E+00 0.  1.
</event>
<event>
 7    1  0.3846293E-008  0.4614232E+02  0.7816164E-02  0.1320468E+00
        -11   -1    0    0    0    0  0.00000000000E+00  0.00000000000E+00  0.45593999997E+02  0.45594000000E+02  0.51100000000E-03 0. -1.
         11   -1    0    0    0    0 -0.00000000000E+00 -0.00000000000E+00 -0.45593999997E+02  0.45594000000E+02  0.51100000000E-03 0.  1.
    9900012    2    1    2    0    0  0.25515281968E+02 -0.31257618438E+02  0.20026111709E+02  0.46142317915E+02  0.10000001402E+02 0.  0.
        -12    1    1    2    0    0 -0.25515281968E+02  0.31257618438E+02 -0.20026111709E+02  0.45045682085E+02  0.00000000000E+00 0.  1.
         11    1    3    3    0    0  0.18428601202E+01 -0.24879808730E+01  0.12756635217E+01  0.33486564364E+01  0.51100000000E-03 0. -1.
        -11    1    3    3    0    0  0.12246218345E+02 -0.91468622015E+01  0.42998538497E+01  0.15878403423E+02  0.51100000000E-03 0.  1.
         12    1    3    3    0    0  0.11426203503E+02 -0.19622775364E+02  0.14450594337E+02  0.26915258055E+02  0.00000000000E+00 0. -1.
</event>
<event>
 7    1  0.3846293E-008  0.4614232E+02  0.7816164E-02  0.1320468E+00
        -11   -1    0    0    0    0  0.00000000000E+00  0.00000000000E+00  0.45593999997E+02  0.45594000000E+02  0.51100000000E-03 0.  1.
         11   -1    0    0    0    0 -0.00000000000E+00 -0.00000000000E+00 -0.45593999997E+02  0.45594000000E+02  0.51100000000E-03 0. -1.
    9900012    2    1    2    0    0  0.15762664205E+01 -0.10083053742E+02 -0.43874376317E+02  0.46142317790E+02  0.10000000260E+02 0.  0.
        -12    1    1    2    0    0 -0.15762664205E+01  0.10083053742E+02  0.43874376317E+02  0.45045682210E+02  0.00000000000E+00 0.  1.
         11    1    3    3    0    0 -0.12175903029E+01 -0.89856101561E+01 -0.27543216181E+02  0.28997456335E+02  0.51100000000E-03 0. -1.
        -11    1    3    3    0    0  0.17083075866E+00 -0.22868690015E+01 -0.83814685194E+01  0.86895320807E+01  0.51100000000E-03 0.  1.
         12    1    3    3    0    0  0.26230259647E+01  0.11894254153E+01 -0.79496916161E+01  0.84553293739E+01  0.00000000000E+00 0. -1.
</event>
<event>
 7    1  0.3846293E-008  0.4614232E+02  0.7816164E-02  0.1320468E+00
        -11   -1    0    0    0    0  0.00000000000E+00  0.00000000000E+00  0.45593999997E+02  0.45594000000E+02  0.51100000000E-03 0.  1.
         11   -1    0    0    0    0 -0.00000000000E+00 -0.00000000000E+00 -0.45593999997E+02  0.45594000000E+02  0.51100000000E-03 0. -1.
    9900012    2    1    2    0    0  0.23073066356E+02  0.13096441855E+01 -0.38665642367E+02  0.46142318091E+02  0.10000003008E+02 0.  0.
        -12    1    1    2    0    0 -0.23073066356E+02 -0.13096441855E+01  0.38665642367E+02  0.45045681909E+02  0.00000000000E+00 0.  1.
         11    1    3    3    0    0  0.46592793864E+01 -0.33335180075E+01 -0.83845916333E+01  0.10154930026E+02  0.51100000000E-03 0. -1.
        -11    1    3    3    0    0  0.66318613905E+00 -0.46906453026E+00 -0.53570966841E+00  0.97304804533E+00  0.51100000000E-03 0.  1.
         12    1    3    3    0    0  0.17750600831E+02  0.51122267232E+01 -0.29745341066E+02  0.35014340020E+02  0.00000000000E+00 0. -1.
</event>
<event>
 7    1  0.3846293E-008  0.4614232E+02  0.7816164E-02  0.1320468E+00
        -11   -1    0    0    0    0  0.00000000000E+00  0.00000000000E+00  0.45593999997E+02  0.45594000000E+02  0.51100000000E-03 0.  1.
         11   -1    0    0    0    0 -0.00000000000E+00 -0.00000000000E+00 -0.45593999997E+02  0.45594000000E+02  0.51100000000E-03 0. -1.
    9900012    2    1    2    0    0 -0.30701549461E+02  0.27900155365E+02 -0.17553051842E+02  0.46142318324E+02  0.10000005130E+02 0.  0.
        -12    1    1    2    0    0  0.30701549461E+02 -0.27900155365E+02  0.17553051842E+02  0.45045681676E+02  0.00000000000E+00 0.  1.
         11    1    3    3    0    0 -0.15202848030E+02  0.13409718645E+02 -0.11785813338E+02  0.23448934702E+02  0.51100000000E-03 0. -1.
        -11    1    3    3    0    0 -0.14291555479E+02  0.14210485111E+02 -0.40196037573E+01  0.20551001429E+02  0.51100000000E-03 0.  1.
         12    1    3    3    0    0 -0.12071459512E+01  0.27995160987E+00 -0.17476347469E+01  0.21423821928E+01  0.00000000000E+00 0. -1.
</event>
<event>
 7    1  0.3846293E-008  0.4614232E+02  0.7816164E-02  0.1320468E+00
        -11   -1    0    0    0    0  0.00000000000E+00  0.00000000000E+00  0.45593999997E+02  0.45594000000E+02  0.51100000000E-03 0. -1.
         11   -1    0    0    0    0 -0.00000000000E+00 -0.00000000000E+00 -0.45593999997E+02  0.45594000000E+02  0.51100000000E-03 0.  1.
    9900012    2    1    2    0    0 -0.21432588452E+02 -0.38766807153E+02  0.81787665775E+01  0.46142318661E+02  0.10000008209E+02 0.  0.
        -12    1    1    2    0    0  0.21432588452E+02  0.38766807153E+02 -0.81787665775E+01  0.45045681339E+02  0.00000000000E+00 0.  1.
         11    1    3    3    0    0 -0.92857137747E+01 -0.11747124928E+02  0.28631821974E+01  0.15245236533E+02  0.51100000000E-03 0. -1.
        -11    1    3    3    0    0 -0.46896454128E+01 -0.41171605682E+01  0.42604146819E-01  0.62406410421E+01  0.51100000000E-03 0.  1.
        -12    1    3    3    0    0 -0.74572292641E+01 -0.22902521656E+02  0.52729802333E+01  0.24656441086E+02  0.00000000000E+00 0.  1.
</event>
<event>
 7    1  0.3846293E-008  0.4614231E+02  0.7816164E-02  0.1320468E+00
        -11   -1    0    0    0    0  0.00000000000E+00  0.00000000000E+00  0.45593999997E+02  0.45594000000E+02  0.51100000000E-03 0.  1.
         11   -1    0    0    0    0 -0.00000000000E+00 -0.00000000000E+00 -0.45593999997E+02  0.45594000000E+02  0.51100000000E-03 0. -1.
    9900012    2    1    2    0    0  0.99596065715E+01 -0.42333322059E+02 -0.11739246231E+02  0.46142314062E+02  0.99999662658E+01 0.  0.
        -12    1    1    2    0    0 -0.99596065715E+01  0.42333322059E+02  0.11739246231E+02  0.45045685938E+02  0.00000000000E+00 0.  1.
         11    1    3    3    0    0  0.72158205266E+01 -0.29413949273E+02 -0.88555875874E+01  0.31554237583E+02  0.51100000000E-03 0. -1.
        -11    1    3    3    0    0  0.27246118398E+01 -0.88327633825E+01  0.53661317562E+00  0.92590049471E+01  0.51100000000E-03 0.  1.
         12    1    3    3    0    0  0.19174205128E-01 -0.40866094032E+01 -0.34202718195E+01  0.53290715311E+01  0.00000000000E+00 0. -1.
</event>
<event>
 7    1  0.3846293E-008  0.4614232E+02  0.7816164E-02  0.1320468E+00
        -11   -1    0    0    0    0  0.00000000000E+00  0.00000000000E+00  0.45593999997E+02  0.45594000000E+02  0.51100000000E-03 0.  1.
         11   -1    0    0    0    0 -0.00000000000E+00 -0.00000000000E+00 -0.45593999997E+02  0.45594000000E+02  0.51100000000E-03 0. -1.
    9900012    2    1    2    0    0  0.18513851072E+02 -0.40827654434E+02 -0.44106065817E+01  0.46142317648E+02  0.99999989681E+01 0.  0.
        -12    1    1    2    0    0 -0.18513851072E+02  0.40827654434E+02  0.44106065817E+01  0.45045682352E+02  0.00000000000E+00 0.  1.
         11    1    3    3    0    0  0.10726705156E+02 -0.15860054465E+02 -0.31265576534E+01  0.19400486956E+02  0.51100000000E-03 0. -1.
        -11    1    3    3    0    0  0.15048465254E+01 -0.11323190931E+02  0.13122636477E+01  0.11497880329E+02  0.51100000000E-03 0.  1.
        -12    1    3    3    0    0  0.62822993912E+01 -0.13644409039E+02 -0.25963125761E+01  0.15243950362E+02  0.00000000000E+00 0.  1.
</event>
<event>
 7    1  0.3846293E-008  0.4614232E+02  0.7816164E-02  0.1320468E+00
        -11   -1    0    0    0    0  0.00000000000E+00  0.00000000000E+00  0.45593999997E+02  0.45594000000E+02  0.51100000000E-03 0.  1.
         11   -1    0    0    0    0 -0.00000000000E+00 -0.00000000000E+00 -0.45593999997E+02  0.45594000000E+02  0.51100000000E-03 0. -1.
    9900012    2    1    2    0    0 -0.23548946586E+02 -0.17077335546E+02 -0.34393680074E+02  0.46142317591E+02  0.99999984483E+01 0.  0.
        -12    1    1    2    0    0  0.23548946586E+02  0.17077335546E+02  0.34393680074E+02  0.45045682409E+02  0.00000000000E+00 0.  1.
         11    1    3    3    0    0 -0.12942496199E+02 -0.12965701190E+02 -0.22281610272E+02  0.28845931633E+02  0.51100000000E-03 0. -1.
        -11    1    3    3    0    0 -0.56112260552E+01 -0.10471861757E+01 -0.90093383099E+01  0.10665394216E+02  0.51100000000E-03 0.  1.
        -12    1    3    3    0    0 -0.49952243314E+01 -0.30644481804E+01 -0.31027314921E+01  0.66309917421E+01  0.00000000000E+00 0.  1.
</event>
<event>
 7    1  0.3846293E-008  0.4614232E+02  0.7816164E-02  0.1320468E+00
        -11   -1    0    0    0    0  0.00000000000E+00  0.00000000000E+00  0.45593999997E+02  0.45594000000E+02  0.51100000000E-03 0.  1.
         11   -1    0    0    0    0 -0.00000000000E+00 -0.00000000000E+00 -0.45593999997E+02  0.45594000000E+02  0.51100000000E-03 0. -1.
    9900012    2    1    2    0    0  0.40321914828E+01 -0.36589304023E+02 -0.25963011227E+02  0.46142315534E+02  0.99999796925E+01 0.  0.
        -12    1    1    2    0    0 -0.40321914828E+01  0.36589304023E+02  0.25963011227E+02  0.45045684466E+02  0.00000000000E+00 0.  1.
         11    1    3    3    0    0 -0.23095850470E+00 -0.44162690021E+01 -0.56345090497E+01  0.71627136074E+01  0.51100000000E-03 0. -1.
        -11    1    3    3    0    0  0.55705599327E+01 -0.14449691020E+02 -0.96330129613E+01  0.18237863019E+02  0.51100000000E-03 0.  1.
         12    1    3    3    0    0 -0.13074099452E+01 -0.17723344001E+02 -0.10695489216E+02  0.20741738907E+02  0.00000000000E+00 0. -1.
</event>
<event>
 7    1  0.3846293E-008  0.4614232E+02  0.7816164E-02  0.1320468E+00
        -11   -1    0    0    0    0  0.00000000000E+00  0.00000000000E+00  0.45593999997E+02  0.45594000000E+02  0.51100000000E-03 0.  1.
         11   -1    0    0    0    0 -0.00000000000E+00 -0.00000000000E+00 -0.45593999997E+02  0.45594000000E+02  0.51100000000E-03 0. -1.
    9900012    2    1    2    0    0  0.18580425942E+02 -0.40898600604E+02 -0.33444965791E+01  0.46142318554E+02  0.10000007233E+02 0.  0.
        -12    1    1    2    0    0 -0.18580425942E+02  0.40898600604E+02  0.33444965791E+01  0.45045681446E+02  0.00000000000E+00 0.  1.
         11    1    3    3    0    0  0.64974159631E+01 -0.10258962169E+02  0.10255162453E+01  0.12186648547E+02  0.51100000000E-03 0. -1.
        -11    1    3    3    0    0 -0.50331210799E+00 -0.40638344763E+01  0.58195907951E+00  0.41360307495E+01  0.51100000000E-03 0.  1.
        -12    1    3    3    0    0  0.12586322087E+02 -0.26575803958E+02 -0.49519719039E+01  0.29819639258E+02  0.00000000000E+00 0.  1.
</event>
<event>
 7    1  0.3846293E-008  0.4614232E+02  0.7816164E-02  0.1320468E+00
        -11   -1    0    0    0    0  0.00000000000E+00  0.00000000000E+00  0.45593999997E+02  0.45594000000E+02  0.51100000000E-03 0.  1.
         11   -1    0    0    0    0 -0.00000000000E+00 -0.00000000000E+00 -0.45593999997E+02  0.45594000000E+02  0.51100000000E-03 0. -1.
    9900012    2    1    2    0    0  0.17172934844E+02  0.15867208333E+02 -0.38502408648E+02  0.46142318041E+02  0.10000002556E+02 0.  0.
        -12    1    1    2    0    0 -0.17172934844E+02 -0.15867208333E+02  0.38502408648E+02  0.45045681959E+02  0.00000000000E+00 0.  1.
         11    1    3    3    0    0  0.97301345535E+01  0.81256371830E+01 -0.23874318521E+02  0.27031177983E+02  0.51100000000E-03 0. -1.
        -11    1    3    3    0    0  0.57080681598E+00 -0.32155598304E+00 -0.41819705630E+01  0.42329772882E+01  0.51100000000E-03 0.  1.
        -12    1    3    3    0    0  0.68719934741E+01  0.80631271326E+01 -0.10446119564E+02  0.14878162770E+02  0.00000000000E+00 0.  1.
</event>
<event>
 7    1  0.3846293E-008  0.4614232E+02  0.7816164E-02  0.1320468E+00
        -11   -1    0    0    0    0  0.00000000000E+00  0.00000000000E+00  0.45593999997E+02  0.45594000000E+02  0.51100000000E-03 0.  1.
         11   -1    0    0    0    0 -0.00000000000E+00 -0.00000000000E+00 -0.45593999997E+02  0.45594000000E+02  0.51100000000E-03 0. -1.
    9900012    2    1    2    0    0  0.27578456329E+02 -0.35570279246E+02  0.18158960872E+01  0.46142317657E+02  0.99999990552E+01 0.  0.
        -12    1    1    2    0    0 -0.27578456329E+02  0.35570279246E+02 -0.18158960872E+01  0.45045682343E+02  0.00000000000E+00 0.  1.
         11    1    3    3    0    0  0.74241760045E+01 -0.10519372762E+02  0.69881038004E+00  0.12894337085E+02  0.51100000000E-03 0.  1.
        -11    1    3    3    0    0  0.65288350062E+01 -0.13627205414E+02 -0.18433738202E+01  0.15222497864E+02  0.51100000000E-03 0. -1.
        -12    1    3    3    0    0  0.13625445318E+02 -0.11423701070E+02  0.29604595274E+01  0.18025482708E+02  0.00000000000E+00 0.  1.
</event>
<event>
 7    1  0.3846293E-008  0.4614232E+02  0.7816164E-02  0.1320468E+00
        -11   -1    0    0    0    0  0.00000000000E+00  0.00000000000E+00  0.45593999997E+02  0.45594000000E+02  0.51100000000E-03 0. -1.
         11   -1    0    0    0    0 -0.00000000000E+00 -0.00000000000E+00 -0.45593999997E+02  0.45594000000E+02  0.51100000000E-03 0.  1.
    9900012    2    1    2    0    0  0.44833694345E+02 -0.11746534615E+01  0.42040088860E+01  0.46142315966E+02  0.99999836290E+01 0.  0.
        -12    1    1    2    0    0 -0.44833694345E+02  0.11746534615E+01 -0.42040088860E+01  0.45045684034E+02  0.00000000000E+00 0.  1.
         11    1    3    3    0    0  0.27158277869E+02 -0.24430395430E+00  0.21271356728E+01  0.27242548479E+02  0.51100000000E-03 0. -1.
        -11    1    3    3    0    0  0.47600167262E+01  0.17345940493E+01 -0.14106309085E+01  0.52589405369E+01  0.51100000000E-03 0.  1.
         12    1    3    3    0    0  0.12915399750E+02 -0.26649435566E+01  0.34875041217E+01  0.13640826950E+02  0.00000000000E+00 0. -1.
</event>
<event>
 7    1  0.3846293E-008  0.4614232E+02  0.7816164E-02  0.1320468E+00
        -11   -1    0    0    0    0  0.00000000000E+00  0.00000000000E+00  0.45593999997E+02  0.45594000000E+02  0.51100000000E-03 0.  1.
         11   -1    0    0    0    0 -0.00000000000E+00 -0.00000000000E+00 -0.45593999997E+02  0.45594000000E+02  0.51100000000E-03 0. -1.
    9900012    2    1    2    0    0  0.17602508680E+02 -0.23322950351E+02 -0.34282724750E+02  0.46142317175E+02  0.99999946520E+01 0.  0.
        -12    1    1    2    0    0 -0.17602508680E+02  0.23322950351E+02  0.34282724750E+02  0.45045682825E+02  0.00000000000E+00 0.  1.
         11    1    3    3    0    0  0.68707332664E+01 -0.85031052971E+01 -0.16037724640E+02  0.19409234586E+02  0.51100000000E-03 0. -1.
        -11    1    3    3    0    0  0.20923407110E+01 -0.84591537259E+01 -0.95075969658E+01  0.12896882249E+02  0.51100000000E-03 0.  1.
         12    1    3    3    0    0  0.86394347025E+01 -0.63606913282E+01 -0.87374031443E+01  0.13836200340E+02  0.00000000000E+00 0. -1.
</event>
<event>
 7    1  0.3846293E-008  0.4614232E+02  0.7816164E-02  0.1320468E+00
        -11   -1    0    0    0    0  0.00000000000E+00  0.00000000000E+00  0.45593999997E+02  0.45594000000E+02  0.51100000000E-03 0.  1.
         11   -1    0    0    0    0 -0.00000000000E+00 -0.00000000000E+00 -0.45593999997E+02  0.45594000000E+02  0.51100000000E-03 0. -1.
    9900012    2    1    2    0    0 -0.18274261405E+02  0.23363102969E+02 -0.33901775358E+02  0.46142316714E+02  0.99999904534E+01 0.  0.
        -12    1    1    2    0    0  0.18274261405E+02 -0.23363102969E+02  0.33901775358E+02  0.45045683286E+02  0.00000000000E+00 0.  1.
         11    1    3    3    0    0 -0.10321275481E+01  0.30033665555E+01 -0.22681821435E+01  0.39025822784E+01  0.51100000000E-03 0. -1.
        -11    1    3    3    0    0 -0.66546789969E+01  0.22703610405E+01 -0.79544625103E+01  0.10616626861E+02  0.51100000000E-03 0.  1.
         12    1    3    3    0    0 -0.10587454860E+02  0.18089375373E+02 -0.23679130705E+02  0.31623107575E+02  0.00000000000E+00 0. -1.
</event>
<event>
 7    1  0.3846293E-008  0.4614232E+02  0.7816164E-02  0.1320468E+00
        -11   -1    0    0    0    0  0.00000000000E+00  0.00000000000E+00  0.45593999997E+02  0.45594000000E+02  0.51100000000E-03 0.  1.
         11   -1    0    0    0    0 -0.00000000000E+00 -0.00000000000E+00 -0.45593999997E+02  0.45594000000E+02  0.51100000000E-03 0. -1.
    9900012    2    1    2    0    0 -0.50793348073E+01  0.55145822107E+01 -0.44417373721E+02  0.46142319326E+02  0.10000014274E+02 0.  0.
        -12    1    1    2    0    0  0.50793348073E+01 -0.55145822107E+01  0.44417373721E+02  0.45045680674E+02  0.00000000000E+00 0.  1.
         11    1    3    3    0    0  0.16191559647E+01  0.73472857141E+00 -0.15366432830E+02  0.15468960867E+02  0.51100000000E-03 0. -1.
        -11    1    3    3    0    0 -0.12860130728E+01 -0.68614661147E+00 -0.10350231524E+02  0.10452364309E+02  0.51100000000E-03 0.  1.
         12    1    3    3    0    0 -0.54124776992E+01  0.54660002508E+01 -0.18700709367E+02  0.20220994150E+02  0.00000000000E+00 0. -1.
</event>
<event>
 7    1  0.3846293E-008  0.4614232E+02  0.7816164E-02  0.1320468E+00
        -11   -1    0    0    0    0  0.00000000000E+00  0.00000000000E+00  0.45593999997E+02  0.45594000000E+02  0.51100000000E-03 0.  1.
         11   -1    0    0    0    0 -0.00000000000E+00 -0.00000000000E+00 -0.45593999997E+02  0.45594000000E+02  0.51100000000E-03 0. -1.
    9900012    2    1    2    0    0  0.76121257273E+01  0.99553739238E+01 -0.43267302680E+02  0.46142318640E+02  0.10000008010E+02 0.  0.
        -12    1    1    2    0    0 -0.76121257273E+01 -0.99553739238E+01  0.43267302680E+02  0.45045681360E+02  0.00000000000E+00 0.  1.
         11    1    3    3    0    0  0.98555637959E+01  0.73443415093E+01 -0.30323265836E+02  0.32719595676E+02  0.51100000000E-03 0. -1.
        -11    1    3    3    0    0 -0.41684184780E+00  0.11170347403E+01 -0.44640606313E+01  0.46205369080E+01  0.51100000000E-03 0.  1.
         12    1    3    3    0    0 -0.18265962208E+01  0.14939976742E+01 -0.84799762122E+01  0.88021860560E+01  0.00000000000E+00 0. -1.
</event>
<event>
 7    1  0.3846293E-008  0.4614232E+02  0.7816164E-02  0.1320468E+00
        -11   -1    0    0    0    0  0.00000000000E+00  0.00000000000E+00  0.45593999997E+02  0.45594000000E+02  0.51100000000E-03 0.  1.
         11   -1    0    0    0    0 -0.00000000000E+00 -0.00000000000E+00 -0.45593999997E+02  0.45594000000E+02  0.51100000000E-03 0. -1.
    9900012    2    1    2    0    0 -0.90641128748E+01 -0.65553607424E+01 -0.43634648339E+02  0.46142318383E+02  0.10000005672E+02 0.  0.
        -12    1    1    2    0    0  0.90641128748E+01  0.65553607424E+01  0.43634648339E+02  0.45045681617E+02  0.00000000000E+00 0.  1.
         11    1    3    3    0    0  0.47750591276E+00  0.31008786485E-01 -0.58270756782E+01  0.58466900603E+01  0.51100000000E-03 0. -1.
        -11    1    3    3    0    0 -0.73922084202E+01 -0.58143761790E+00 -0.23205309041E+02  0.24361222937E+02  0.51100000000E-03 0.  1.
         12    1    3    3    0    0 -0.21494103674E+01 -0.60049319110E+01 -0.14602263619E+02  0.15934405386E+02  0.00000000000E+00 0. -1.
</event>
<event>
 7    1  0.3846293E-008  0.4614232E+02  0.7816164E-02  0.1320468E+00
        -11   -1    0    0    0    0  0.00000000000E+00  0.00000000000E+00  0.45593999997E+02  0.45594000000E+02  0.51100000000E-03 0.  1.
         11   -1    0    0    0    0 -0.00000000000E+00 -0.00000000000E+00 -0.45593999997E+02  0.45594000000E+02  0.51100000000E-03 0. -1.
    9900012    2    1    2    0    0 -0.12225752225E+02 -0.52264034330E+01 -0.43038693957E+02  0.46142317767E+02  0.10000000051E+02 0.  0.
        -12    1    1    2    0    0  0.12225752225E+02  0.52264034330E+01  0.43038693957E+02  0.45045682233E+02  0.00000000000E+00 0.  1.
         11    1    3    3    0    0 -0.99657941955E+01  0.26553904824E+00 -0.32062766835E+02  0.33576905490E+02  0.51100000000E-03 0. -1.
        -11    1    3    3    0    0 -0.19758268457E+01 -0.37239911282E+01 -0.87168216775E+01  0.96827156349E+01  0.51100000000E-03 0.  1.
         12    1    3    3    0    0 -0.28413118424E+00 -0.17679513531E+01 -0.22591054449E+01  0.28826966417E+01  0.00000000000E+00 0. -1.
</event>
<event>
 7    1  0.3846293E-008  0.4614232E+02  0.7816164E-02  0.1320468E+00
        -11   -1    0    0    0    0  0.00000000000E+00  0.00000000000E+00  0.45593999997E+02  0.45594000000E+02  0.51100000000E-03 0.  1.
         11   -1    0    0    0    0 -0.00000000000E+00 -0.00000000000E+00 -0.45593999997E+02  0.45594000000E+02  0.51100000000E-03 0. -1.
    9900012    2    1    2    0    0  0.66381922196E+01  0.58974235495E+01 -0.44161842104E+02  0.46142317649E+02  0.99999989791E+01 0.  0.
        -12    1    1    2    0    0 -0.66381922196E+01 -0.58974235495E+01  0.44161842104E+02  0.45045682351E+02  0.00000000000E+00 0.  1.
         11    1    3    3    0    0  0.28550212810E+01  0.60941544953E+01 -0.28725680479E+02  0.29503467334E+02  0.51100000000E-03 0. -1.
        -11    1    3    3    0    0  0.33246929594E+01  0.12836258591E+01 -0.14245512372E+02  0.14684546354E+02  0.51100000000E-03 0.  1.
        -12    1    3    3    0    0  0.45847797925E+00 -0.14803568049E+01 -0.11906492528E+01  0.19543039606E+01  0.00000000000E+00 0.  1.
</event>
<event>
 7    1  0.3846293E-008  0.4614232E+02  0.7816164E-02  0.1320468E+00
        -11   -1    0    0    0    0  0.00000000000E+00  0.00000000000E+00  0.45593999997E+02  0.45594000000E+02  0.51100000000E-03 0. -1.
         11   -1    0    0    0    0 -0.00000000000E+00 -0.00000000000E+00 -0.45593999997E+02  0.45594000000E+02  0.51100000000E-03 0.  1.
    9900012    2    1    2    0    0  0.44947826830E+02 -0.22465543827E+01 -0.19388622279E+01  0.46142319518E+02  0.10000016018E+02 0.  0.
        -12    1    1    2    0    0 -0.44947826830E+02  0.22465543827E+01  0.19388622279E+01  0.45045680482E+02  0.00000000000E+00 0.  1.
         11    1    3    3    0    0  0.96783272116E+01  0.16544661843E+01 -0.22104000652E+01  0.10064449547E+02  0.51100000000E-03 0. -1.
        -11    1    3    3    0    0  0.21724905265E+02 -0.55005764372E+01 -0.51666606633E+00  0.22416395652E+02  0.51100000000E-03 0.  1.
        -12    1    3    3    0    0  0.13544594354E+02  0.15995558702E+01  0.78820390361E+00  0.13661474319E+02  0.00000000000E+00 0.  1.
</event>
<event>
 7    1  0.3846293E-008  0.4614232E+02  0.7816164E-02  0.1320468E+00
        -11   -1    0    0    0    0  0.00000000000E+00  0.00000000000E+00  0.45593999997E+02  0.45594000000E+02  0.51100000000E-03 0. -1.
         11   -1    0    0    0    0 -0.00000000000E+00 -0.00000000000E+00 -0.45593999997E+02  0.45594000000E+02  0.51100000000E-03 0.  1.
    9900012    2    1    2    0    0 -0.23334865639E+02  0.36291519324E+02  0.12943076010E+02  0.46142317123E+02  0.99999941793E+01 0.  0.
        -12    1    1    2    0    0  0.23334865639E+02 -0.36291519324E+02 -0.12943076010E+02  0.45045682877E+02  0.00000000000E+00 0.  1.
         11    1    3    3    0    0 -0.20451885000E+02  0.34133599588E+02  0.97067508749E+01  0.40958555073E+02  0.51100000000E-03 0. -1.
        -11    1    3    3    0    0 -0.35133350762E+00 -0.23663536910E+00  0.88155030225E+00  0.97804024866E+00  0.51100000000E-03 0.  1.
        -12    1    3    3    0    0 -0.25316471318E+01  0.23945551057E+01  0.23547748330E+01  0.42057218012E+01  0.00000000000E+00 0.  1.
</event>
<event>
 7    1  0.3846293E-008  0.4614232E+02  0.7816164E-02  0.1320468E+00
        -11   -1    0    0    0    0  0.00000000000E+00  0.00000000000E+00  0.45593999997E+02  0.45594000000E+02  0.51100000000E-03 0.  1.
         11   -1    0    0    0    0 -0.00000000000E+00 -0.00000000000E+00 -0.45593999997E+02  0.45594000000E+02  0.51100000000E-03 0. -1.
    9900012    2    1    2    0    0 -0.33910405844E+01 -0.34058869687E+02 -0.29284939857E+02  0.46142318042E+02  0.10000002564E+02 0.  0.
        -12    1    1    2    0    0  0.33910405844E+01  0.34058869687E+02  0.29284939857E+02  0.45045681958E+02  0.00000000000E+00 0.  1.
         11    1    3    3    0    0 -0.91384108125E+00 -0.69519149137E+01 -0.11951376993E+02  0.13856393426E+02  0.51100000000E-03 0. -1.
        -11    1    3    3    0    0 -0.67645341486E+00 -0.11265147494E+02 -0.67739335031E+01  0.13162344496E+02  0.51100000000E-03 0.  1.
         12    1    3    3    0    0 -0.18007460883E+01 -0.15841807280E+02 -0.10559629361E+02  0.19123580120E+02  0.00000000000E+00 0. -1.
</event>
<event>
 7    1  0.3846293E-008  0.4614232E+02  0.7816164E-02  0.1320468E+00
        -11   -1    0    0    0    0  0.00000000000E+00  0.00000000000E+00  0.45593999997E+02  0.45594000000E+02  0.51100000000E-03 0. -1.
         11   -1    0    0    0    0 -0.00000000000E+00 -0.00000000000E+00 -0.45593999997E+02  0.45594000000E+02  0.51100000000E-03 0.  1.
    9900012    2    1    2    0    0  0.16217521041E+02  0.22211617499E+02  0.35675615586E+02  0.46142317764E+02  0.10000000031E+02 0.  0.
        -12    1    1    2    0    0 -0.16217521041E+02 -0.22211617499E+02 -0.35675615586E+02  0.45045682236E+02  0.00000000000E+00 0.  1.
         11    1    3    3    0    0  0.37852953620E+01  0.71323464387E+01  0.11073492319E+02  0.13704782344E+02  0.51100000000E-03 0. -1.
        -11    1    3    3    0    0  0.45634569056E+01  0.57426204891E+01  0.36640576233E+01  0.81992772571E+01  0.51100000000E-03 0.  1.
         12    1    3    3    0    0  0.78687687730E+01  0.93366505713E+01  0.20938065644E+02  0.24238258163E+02  0.00000000000E+00 0. -1.
</event>
<event>
 7    1  0.3846293E-008  0.4614232E+02  0.7816164E-02  0.1320468E+00
        -11   -1    0    0    0    0  0.00000000000E+00  0.00000000000E+00  0.45593999997E+02  0.45594000000E+02  0.51100000000E-03 0.  1.
         11   -1    0    0    0    0 -0.00000000000E+00 -0.00000000000E+00 -0.45593999997E+02  0.45594000000E+02  0.51100000000E-03 0. -1.
    9900012    2    1    2    0    0 -0.21269815443E+02 -0.69738124947E+01 -0.39090591086E+02  0.46142318508E+02  0.10000006810E+02 0.  0.
        -12    1    1    2    0    0  0.21269815443E+02  0.69738124947E+01  0.39090591086E+02  0.45045681492E+02  0.00000000000E+00 0.  1.
         11    1    3    3    0    0 -0.61243169795E+01  0.17177454037E+01 -0.11486329230E+02  0.13129876891E+02  0.51100000000E-03 0. -1.
        -11    1    3    3    0    0 -0.56504893569E+01 -0.50058231189E+01 -0.15125953420E+02  0.16905051381E+02  0.51100000000E-03 0.  1.
        -12    1    3    3    0    0 -0.94950091061E+01 -0.36857347795E+01 -0.12478308436E+02  0.16107390236E+02  0.00000000000E+00 0.  1.
</event>
<event>
 7    1  0.3846293E-008  0.4614232E+02  0.7816164E-02  0.1320468E+00
        -11   -1    0    0    0    0  0.00000000000E+00  0.00000000000E+00  0.45593999997E+02  0.45594000000E+02  0.51100000000E-03 0.  1.
         11   -1    0    0    0    0 -0.00000000000E+00 -0.00000000000E+00 -0.45593999997E+02  0.45594000000E+02  0.51100000000E-03 0. -1.
    9900012    2    1    2    0    0 -0.61862896437E+01  0.43141754313E+02 -0.11385617469E+02  0.46142318410E+02  0.10000005917E+02 0.  0.
        -12    1    1    2    0    0  0.61862896437E+01 -0.43141754313E+02  0.11385617469E+02  0.45045681590E+02  0.00000000000E+00 0.  1.
         11    1    3    3    0    0 -0.12816483673E+01  0.13257038079E+02 -0.72659250024E+01  0.15171860386E+02  0.51100000000E-03 0.  1.
        -11    1    3    3    0    0 -0.15349228345E+01  0.22045702374E+02 -0.38618742605E+01  0.22433970989E+02  0.51100000000E-03 0. -1.
        -12    1    3    3    0    0 -0.33697184419E+01  0.78390138600E+01 -0.25781820641E+00  0.85364870352E+01  0.00000000000E+00 0.  1.
</event>
<event>
 7    1  0.3846293E-008  0.4614232E+02  0.7816164E-02  0.1320468E+00
        -11   -1    0    0    0    0  0.00000000000E+00  0.00000000000E+00  0.45593999997E+02  0.45594000000E+02  0.51100000000E-03 0.  1.
         11   -1    0    0    0    0 -0.00000000000E+00 -0.00000000000E+00 -0.45593999997E+02  0.45594000000E+02  0.51100000000E-03 0. -1.
    9900012    2    1    2    0    0  0.23388864544E+02 -0.17807482407E+02 -0.34131627825E+02  0.46142318383E+02  0.10000005671E+02 0.  0.
        -12    1    1    2    0    0 -0.23388864544E+02  0.17807482407E+02  0.34131627825E+02  0.45045681617E+02  0.00000000000E+00 0.  1.
         11    1    3    3    0    0  0.48641966634E+01 -0.38425271438E+01 -0.65286667205E+01  0.90027170032E+01  0.51100000000E-03 0. -1.
        -11    1    3    3    0    0  0.15380875629E+02 -0.10630336543E+02 -0.26489644613E+02  0.32423396832E+02  0.51100000000E-03 0.  1.
        -12    1    3    3    0    0  0.31437922517E+01 -0.33346187196E+01 -0.11133164920E+01  0.47162045480E+01  0.00000000000E+00 0.  1.
</event>
<event>
 7    1  0.3846293E-008  0.4614231E+02  0.7816164E-02  0.1320468E+00
        -11   -1    0    0    0    0  0.00000000000E+00  0.00000000000E+00  0.45593999997E+02  0.45594000000E+02  0.51100000000E-03 0. -1.
         11   -1    0    0    0    0 -0.00000000000E+00 -0.00000000000E+00 -0.45593999997E+02  0.45594000000E+02  0.51100000000E-03 0.  1.
    9900012    2    1    2    0    0  0.30420627663E+02  0.33157399177E+02 -0.20703482176E+01  0.46142311534E+02  0.99999432202E+01 0.  0.
        -12    1    1    2    0    0 -0.30420627663E+02 -0.33157399177E+02  0.20703482176E+01  0.45045688466E+02  0.00000000000E+00 0.  1.
         11    1    3    3    0    0 -0.15043937094E+00  0.30847419630E+00 -0.25166298866E+00  0.42558530883E+00  0.51100000000E-03 0.  1.
        -11    1    3    3    0    0  0.65938035362E+01  0.12887771911E+02 -0.25441088863E+00  0.14478868570E+02  0.51100000000E-03 0. -1.
         12    1    3    3    0    0  0.23977263497E+02  0.19961153070E+02 -0.15642743403E+01  0.31237857656E+02  0.00000000000E+00 0. -1.
</event>
<event>
 7    1  0.3846293E-008  0.4614232E+02  0.7816164E-02  0.1320468E+00
        -11   -1    0    0    0    0  0.00000000000E+00  0.00000000000E+00  0.45593999997E+02  0.45594000000E+02  0.51100000000E-03 0.  1.
         11   -1    0    0    0    0 -0.00000000000E+00 -0.00000000000E+00 -0.45593999997E+02  0.45594000000E+02  0.51100000000E-03 0. -1.
    9900012    2    1    2    0    0 -0.11807279034E+02 -0.43077648618E+02 -0.58324879143E+01  0.46142316922E+02  0.99999923527E+01 0.  0.
        -12    1    1    2    0    0  0.11807279034E+02  0.43077648618E+02  0.58324879143E+01  0.45045683078E+02  0.00000000000E+00 0.  1.
         11    1    3    3    0    0 -0.10514049823E+00 -0.42924975867E+01 -0.10928948241E+00  0.42951757250E+01  0.51100000000E-03 0. -1.
        -11    1    3    3    0    0 -0.38979021337E+00 -0.15361141766E+02 -0.33461234278E+01  0.15726193278E+02  0.51100000000E-03 0.  1.
         12    1    3    3    0    0 -0.11312348322E+02 -0.23424009265E+02 -0.23770750041E+01  0.26120947919E+02  0.00000000000E+00 0. -1.
</event>
<event>
 7    1  0.4231361E-008  0.4614232E+02  0.7816164E-02  0.1320468E+00
        -11   -1    0    0    0    0  0.00000000000E+00  0.00000000000E+00  0.45593999997E+02  0.45594000000E+02  0.51100000000E-03 0.  1.
         11   -1    0    0    0    0 -0.00000000000E+00 -0.00000000000E+00 -0.45593999997E+02  0.45594000000E+02  0.51100000000E-03 0. -1.
    9900012    2    1    2    0    0  0.35801973513E+02  0.13091483409E+02 -0.23998860677E+02  0.46142316976E+02  0.99999928419E+01 0.  0.
        -12    1    1    2    0    0 -0.35801973513E+02 -0.13091483409E+02  0.23998860677E+02  0.45045683024E+02  0.00000000000E+00 0.  1.
         11    1    3    3    0    0  0.57623311940E+01 -0.15062736202E-01 -0.38188046597E+01  0.69128834046E+01  0.51100000000E-03 0. -1.
        -11    1    3    3    0    0 -0.45372235597E+00  0.12662550684E+00 -0.10569014189E+00  0.48277185347E+00  0.51100000000E-03 0.  1.
         12    1    3    3    0    0  0.30493364675E+02  0.12979920638E+02 -0.20074365876E+02  0.38746661718E+02  0.00000000000E+00 0. -1.
</event>
<event>
 7    1  0.3846293E-008  0.4614232E+02  0.7816164E-02  0.1320468E+00
        -11   -1    0    0    0    0  0.00000000000E+00  0.00000000000E+00  0.45593999997E+02  0.45594000000E+02  0.51100000000E-03 0.  1.
         11   -1    0    0    0    0 -0.00000000000E+00 -0.00000000000E+00 -0.45593999997E+02  0.45594000000E+02  0.51100000000E-03 0. -1.
    9900012    2    1    2    0    0 -0.23468537265E+02 -0.12036988633E+02 -0.36516464686E+02  0.46142317301E+02  0.99999958000E+01 0.  0.
        -12    1    1    2    0    0  0.23468537265E+02  0.12036988633E+02  0.36516464686E+02  0.45045682699E+02  0.00000000000E+00 0.  1.
         11    1    3    3    0    0 -0.59036700815E+01 -0.34855599762E+01 -0.12134193999E+02  0.13937041044E+02  0.51100000000E-03 0. -1.
        -11    1    3    3    0    0 -0.85782561378E+01 -0.10107239765E+01 -0.64646627387E+01  0.10788878807E+02  0.51100000000E-03 0.  1.
        -12    1    3    3    0    0 -0.89866110453E+01 -0.75407046807E+01 -0.17917607948E+02  0.21416397450E+02  0.00000000000E+00 0.  1.
</event>
<event>
 7    1  0.3846293E-008  0.4614232E+02  0.7816164E-02  0.1320468E+00
        -11   -1    0    0    0    0  0.00000000000E+00  0.00000000000E+00  0.45593999997E+02  0.45594000000E+02  0.51100000000E-03 0.  1.
         11   -1    0    0    0    0 -0.00000000000E+00 -0.00000000000E+00 -0.45593999997E+02  0.45594000000E+02  0.51100000000E-03 0. -1.
    9900012    2    1    2    0    0  0.30761347871E+02  0.10057446931E+01 -0.32891358007E+02  0.46142317890E+02  0.10000001173E+02 0.  0.
        -12    1    1    2    0    0 -0.30761347871E+02 -0.10057446931E+01  0.32891358007E+02  0.45045682110E+02  0.00000000000E+00 0.  1.
         11    1    3    3    0    0  0.15801165026E+02  0.79687567204E+00 -0.19795164870E+02  0.25340883558E+02  0.51100000000E-03 0. -1.
        -11    1    3    3    0    0  0.14080714687E+02 -0.10010454657E+01 -0.13167181729E+02  0.19303970915E+02  0.51100000000E-03 0.  1.
        -12    1    3    3    0    0  0.87946815788E+00  0.12099144868E+01  0.70988591515E-01  0.14974634173E+01  0.00000000000E+00 0.  1.
</event>
<event>
 7    1  0.3846293E-008  0.4614232E+02  0.7816164E-02  0.1320468E+00
        -11   -1    0    0    0    0  0.00000000000E+00  0.00000000000E+00  0.45593999997E+02  0.45594000000E+02  0.51100000000E-03 0.  1.
         11   -1    0    0    0    0 -0.00000000000E+00 -0.00000000000E+00 -0.45593999997E+02  0.45594000000E+02  0.51100000000E-03 0. -1.
    9900012    2    1    2    0    0  0.42856379571E+01 -0.27495809832E+01 -0.44756972120E+02  0.46142318280E+02  0.10000004734E+02 0.  0.
        -12    1    1    2    0    0 -0.42856379571E+01  0.27495809832E+01  0.44756972120E+02  0.45045681720E+02  0.00000000000E+00 0.  1.
         11    1    3    3    0    0  0.63956336761E+00 -0.17451844583E+00 -0.23120795593E+02  0.23130298033E+02  0.51100000000E-03 0. -1.
        -11    1    3    3    0    0  0.14582509077E+01  0.20896179102E+01 -0.93087764463E+01  0.96512340097E+01  0.51100000000E-03 0.  1.
        -12    1    3    3    0    0  0.21878236817E+01 -0.46646804476E+01 -0.12327400080E+02  0.13360786237E+02  0.00000000000E+00 0.  1.
</event>
<event>
 7    1  0.3846293E-008  0.4614232E+02  0.7816164E-02  0.1320468E+00
        -11   -1    0    0    0    0  0.00000000000E+00  0.00000000000E+00  0.45593999997E+02  0.45594000000E+02  0.51100000000E-03 0.  1.
         11   -1    0    0    0    0 -0.00000000000E+00 -0.00000000000E+00 -0.45593999997E+02  0.45594000000E+02  0.51100000000E-03 0. -1.
    9900012    2    1    2    0    0  0.18579825512E+01  0.44907174350E+02  0.30011712624E+01  0.46142318340E+02  0.10000005281E+02 0.  0.
        -12    1    1    2    0    0 -0.18579825512E+01 -0.44907174350E+02 -0.30011712624E+01  0.45045681660E+02  0.00000000000E+00 0.  1.
         11    1    3    3    0    0  0.22321168978E+01  0.14890164247E+02 -0.14274685206E+01  0.15124053814E+02  0.51100000000E-03 0. -1.
        -11    1    3    3    0    0  0.19404355087E+01  0.23729127558E+02  0.20032967445E+01  0.23892467071E+02  0.51100000000E-03 0.  1.
        -12    1    3    3    0    0 -0.23145698553E+01  0.62878825451E+01  0.24253430385E+01  0.71257974551E+01  0.00000000000E+00 0.  1.
</event>
<event>
 7    1  0.3846293E-008  0.4614231E+02  0.7816164E-02  0.1320468E+00
        -11   -1    0    0    0    0  0.00000000000E+00  0.00000000000E+00  0.45593999997E+02  0.45594000000E+02  0.51100000000E-03 0. -1.
         11   -1    0    0    0    0 -0.00000000000E+00 -0.00000000000E+00 -0.45593999997E+02  0.45594000000E+02  0.51100000000E-03 0.  1.
    9900012    2    1    2    0    0  0.30124792309E+02  0.16523298958E+02 -0.29130598737E+02  0.46142308720E+02  0.99999175595E+01 0.  0.
        -12    1    1    2    0    0 -0.30124792309E+02 -0.16523298958E+02  0.29130598737E+02  0.45045691280E+02  0.00000000000E+00 0.  1.
         11    1    3    3    0    0  0.33031053421E+01  0.34683164077E+01 -0.53211544393E+01  0.71592184233E+01  0.51100000000E-03 0. -1.
        -11    1    3    3    0    0  0.86027351816E+01  0.75766148705E+01 -0.11976687010E+02  0.16578696496E+02  0.51100000000E-03 0.  1.
        -12    1    3    3    0    0  0.18218951785E+02  0.54783676795E+01 -0.11832757287E+02  0.22404393801E+02  0.00000000000E+00 0.  1.
</event>
<event>
 7    1  0.3846293E-008  0.4614232E+02  0.7816164E-02  0.1320468E+00
        -11   -1    0    0    0    0  0.00000000000E+00  0.00000000000E+00  0.45593999997E+02  0.45594000000E+02  0.51100000000E-03 0.  1.
         11   -1    0    0    0    0 -0.00000000000E+00 -0.00000000000E+00 -0.45593999997E+02  0.45594000000E+02  0.51100000000E-03 0. -1.
    9900012    2    1    2    0    0  0.19924905536E+02  0.10321764523E+02 -0.39058581503E+02  0.46142317938E+02  0.10000001609E+02 0.  0.
        -12    1    1    2    0    0 -0.19924905536E+02 -0.10321764523E+02  0.39058581503E+02  0.45045682062E+02  0.00000000000E+00 0.  1.
         11    1    3    3    0    0  0.75328294435E+01  0.10911257957E+01 -0.98052354034E+01  0.12412764257E+02  0.51100000000E-03 0. -1.
        -11    1    3    3    0    0  0.21302804441E+01 -0.47823632036E+00 -0.73356400017E+01  0.76536539799E+01  0.51100000000E-03 0.  1.
         12    1    3    3    0    0  0.10261795648E+02  0.97088750476E+01 -0.21917706098E+02  0.26075899701E+02  0.00000000000E+00 0. -1.
</event>
<event>
 7    1  0.3846293E-008  0.4614232E+02  0.7816164E-02  0.1320468E+00
        -11   -1    0    0    0    0  0.00000000000E+00  0.00000000000E+00  0.45593999997E+02  0.45594000000E+02  0.51100000000E-03 0. -1.
         11   -1    0    0    0    0 -0.00000000000E+00 -0.00000000000E+00 -0.45593999997E+02  0.45594000000E+02  0.51100000000E-03 0.  1.
    9900012    2    1    2    0    0  0.74651863330E+01  0.41582471927E+02 -0.15629539293E+02  0.46142317887E+02  0.10000001145E+02 0.  0.
        -12    1    1    2    0    0 -0.74651863330E+01 -0.41582471927E+02  0.15629539293E+02  0.45045682113E+02  0.00000000000E+00 0.  1.
         11    1    3    3    0    0  0.60522447535E+01  0.23929999865E+02 -0.68074520558E+01  0.25604998806E+02  0.51100000000E-03 0. -1.
        -11    1    3    3    0    0  0.54212951972E+00 -0.23360418944E+00 -0.56836559388E+00  0.81946021435E+00  0.51100000000E-03 0.  1.
         12    1    3    3    0    0  0.87081205983E+00  0.17886076252E+02 -0.82537216431E+01  0.19717858867E+02  0.00000000000E+00 0. -1.
</event>
<event>
 7    1  0.3846293E-008  0.4614232E+02  0.7816164E-02  0.1320468E+00
        -11   -1    0    0    0    0  0.00000000000E+00  0.00000000000E+00  0.45593999997E+02  0.45594000000E+02  0.51100000000E-03 0.  1.
         11   -1    0    0    0    0 -0.00000000000E+00 -0.00000000000E+00 -0.45593999997E+02  0.45594000000E+02  0.51100000000E-03 0. -1.
    9900012    2    1    2    0    0 -0.66450162335E+00 -0.34090202638E+02 -0.29436883889E+02  0.46142316396E+02  0.99999875519E+01 0.  0.
        -12    1    1    2    0    0  0.66450162335E+00  0.34090202638E+02  0.29436883889E+02  0.45045683604E+02  0.00000000000E+00 0.  1.
         11    1    3    3    0    0 -0.98046311437E+00 -0.25179782213E+02 -0.15841058080E+02  0.29764439548E+02  0.51100000000E-03 0. -1.
        -11    1    3    3    0    0 -0.19900734817E+00 -0.26299983392E+01 -0.56607341544E+01  0.62450305537E+01  0.51100000000E-03 0.  1.
         12    1    3    3    0    0  0.51496883919E+00 -0.62804220851E+01 -0.79350916540E+01  0.10132846295E+02  0.00000000000E+00 0. -1.
</event>
<event>
 7    1  0.3846293E-008  0.4614232E+02  0.7816164E-02  0.1320468E+00
        -11   -1    0    0    0    0  0.00000000000E+00  0.00000000000E+00  0.45593999997E+02  0.45594000000E+02  0.51100000000E-03 0.  1.
         11   -1    0    0    0    0 -0.00000000000E+00 -0.00000000000E+00 -0.45593999997E+02  0.45594000000E+02  0.51100000000E-03 0. -1.
    9900012    2    1    2    0    0  0.26009084817E+02 -0.36776306285E+02 -0.37973246854E+00  0.46142318812E+02  0.10000009580E+02 0.  0.
        -12    1    1    2    0    0 -0.26009084817E+02  0.36776306285E+02  0.37973246854E+00  0.45045681188E+02  0.00000000000E+00 0.  1.
         11    1    3    3    0    0  0.74543598827E+01 -0.16397634579E+02  0.40392659399E-01  0.18012538213E+02  0.51100000000E-03 0. -1.
        -11    1    3    3    0    0  0.74971824073E+01 -0.10543884924E+02  0.21345687137E+01  0.13112499273E+02  0.51100000000E-03 0.  1.
         12    1    3    3    0    0  0.11057542527E+02 -0.98347867818E+01 -0.25546938416E+01  0.15017281326E+02  0.00000000000E+00 0. -1.
</event>
<event>
 7    1  0.3846293E-008  0.4614232E+02  0.7816164E-02  0.1320468E+00
        -11   -1    0    0    0    0  0.00000000000E+00  0.00000000000E+00  0.45593999997E+02  0.45594000000E+02  0.51100000000E-03 0. -1.
         11   -1    0    0    0    0 -0.00000000000E+00 -0.00000000000E+00 -0.45593999997E+02  0.45594000000E+02  0.51100000000E-03 0.  1.
    9900012    2    1    2    0    0  0.20826797491E+02  0.39326417652E+02  0.69850382965E+01  0.46142318974E+02  0.10000011064E+02 0.  0.
        -12    1    1    2    0    0 -0.20826797491E+02 -0.39326417652E+02 -0.69850382965E+01  0.45045681026E+02  0.00000000000E+00 0.  1.
         11    1    3    3    0    0  0.55268935467E+01  0.10743428636E+02 -0.20616107201E+01  0.12256347341E+02  0.51100000000E-03 0. -1.
        -11    1    3    3    0    0  0.65992018627E+01  0.15465332800E+02  0.33426659007E+01  0.17143494376E+02  0.51100000000E-03 0.  1.
        -12    1    3    3    0    0  0.87007020816E+01  0.13117656217E+02  0.57039831159E+01  0.16742477257E+02  0.00000000000E+00 0.  1.
</event>
<event>
 7    1  0.3846293E-008  0.4614232E+02  0.7816164E-02  0.1320468E+00
        -11   -1    0    0    0    0  0.00000000000E+00  0.00000000000E+00  0.45593999997E+02  0.45594000000E+02  0.51100000000E-03 0. -1.
         11   -1    0    0    0    0 -0.00000000000E+00 -0.00000000000E+00 -0.45593999997E+02  0.45594000000E+02  0.51100000000E-03 0.  1.
    9900012    2    1    2    0    0 -0.35185829853E+00  0.40728903619E+02  0.19239187000E+02  0.46142315294E+02  0.99999774995E+01 0.  0.
        -12    1    1    2    0    0  0.35185829853E+00 -0.40728903619E+02 -0.19239187000E+02  0.45045684706E+02  0.00000000000E+00 0.  1.
         11    1    3    3    0    0 -0.21603657868E+01  0.36063953181E+02  0.14968316188E+02  0.39106602884E+02  0.51100000000E-03 0. -1.
        -11    1    3    3    0    0  0.19319439154E+01  0.24025116080E+01  0.14203819607E+01  0.33944004617E+01  0.51100000000E-03 0.  1.
         12    1    3    3    0    0 -0.12343642711E+00  0.22624388296E+01  0.28504888512E+01  0.36413119477E+01  0.00000000000E+00 0. -1.
</event>
<event>
 7    1  0.3846293E-008  0.4614232E+02  0.7816164E-02  0.1320468E+00
        -11   -1    0    0    0    0  0.00000000000E+00  0.00000000000E+00  0.45593999997E+02  0.45594000000E+02  0.51100000000E-03 0.  1.
         11   -1    0    0    0    0 -0.00000000000E+00 -0.00000000000E+00 -0.45593999997E+02  0.45594000000E+02  0.51100000000E-03 0. -1.
    9900012    2    1    2    0    0 -0.10664846323E+02 -0.42031851573E+02 -0.12194181191E+02  0.46142317092E+02  0.99999938998E+01 0.  0.
        -12    1    1    2    0    0  0.10664846323E+02  0.42031851573E+02  0.12194181191E+02  0.45045682908E+02  0.00000000000E+00 0.  1.
         11    1    3    3    0    0 -0.42847950009E+01 -0.12010077960E+02 -0.67732039852E+00  0.12769502887E+02  0.51100000000E-03 0. -1.
        -11    1    3    3    0    0 -0.73293526045E+01 -0.22975085834E+02 -0.77763913233E+01  0.25338631395E+02  0.51100000000E-03 0.  1.
        -12    1    3    3    0    0  0.94930128271E+00 -0.70466877783E+01 -0.37404694696E+01  0.80341828099E+01  0.00000000000E+00 0.  1.
</event>
<event>
 7    1  0.3846293E-008  0.4614232E+02  0.7816164E-02  0.1320468E+00
        -11   -1    0    0    0    0  0.00000000000E+00  0.00000000000E+00  0.45593999997E+02  0.45594000000E+02  0.51100000000E-03 0.  1.
         11   -1    0    0    0    0 -0.00000000000E+00 -0.00000000000E+00 -0.45593999997E+02  0.45594000000E+02  0.51100000000E-03 0. -1.
    9900012    2    1    2    0    0 -0.20189063689E+02  0.35577402072E+02 -0.18861699980E+02  0.46142317000E+02  0.99999930557E+01 0.  0.
        -12    1    1    2    0    0  0.20189063689E+02 -0.35577402072E+02  0.18861699980E+02  0.45045683000E+02  0.00000000000E+00 0.  1.
         11    1    3    3    0    0 -0.52003902065E+01  0.10484195378E+02 -0.31464405687E+01  0.12118683903E+02  0.51100000000E-03 0. -1.
        -11    1    3    3    0    0 -0.76523919801E+01  0.16203923152E+02 -0.58447395145E+01  0.18849063870E+02  0.51100000000E-03 0.  1.
        -12    1    3    3    0    0 -0.73362815028E+01  0.88892835420E+01 -0.98705198965E+01  0.15174569226E+02  0.00000000000E+00 0.  1.
</event>
<event>
 7    1  0.3846293E-008  0.4614232E+02  0.7816164E-02  0.1320468E+00
        -11   -1    0    0    0    0  0.00000000000E+00  0.00000000000E+00  0.45593999997E+02  0.45594000000E+02  0.51100000000E-03 0.  1.
         11   -1    0    0    0    0 -0.00000000000E+00 -0.00000000000E+00 -0.45593999997E+02  0.45594000000E+02  0.51100000000E-03 0. -1.
    9900012    2    1    2    0    0 -0.10282469607E+02 -0.28905270669E+02 -0.32982867783E+02  0.46142318510E+02  0.10000006832E+02 0.  0.
        -12    1    1    2    0    0  0.10282469607E+02  0.28905270669E+02  0.32982867783E+02  0.45045681490E+02  0.00000000000E+00 0.  1.
         11    1    3    3    0    0  0.58569062264E+00 -0.58414929176E+01 -0.81870772818E+01  0.10074438331E+02  0.51100000000E-03 0. -1.
        -11    1    3    3    0    0 -0.70263050141E+01 -0.16355220030E+02 -0.20761448082E+02  0.27347758795E+02  0.51100000000E-03 0.  1.
        -12    1    3    3    0    0 -0.38418552160E+01 -0.67085577214E+01 -0.40343424196E+01  0.87201213845E+01  0.00000000000E+00 0.  1.
</event>
<event>
 7    1  0.3846293E-008  0.4614232E+02  0.7816164E-02  0.1320468E+00
        -11   -1    0    0    0    0  0.00000000000E+00  0.00000000000E+00  0.45593999997E+02  0.45594000000E+02  0.51100000000E-03 0.  1.
         11   -1    0    0    0    0 -0.00000000000E+00 -0.00000000000E+00 -0.45593999997E+02  0.45594000000E+02  0.51100000000E-03 0. -1.
    9900012    2    1    2    0    0 -0.59129215404E+01  0.28921921292E+02 -0.34024598693E+02  0.46142317758E+02  0.99999999759E+01 0.  0.
        -12    1    1    2    0    0  0.59129215404E+01 -0.28921921292E+02  0.34024598693E+02  0.45045682242E+02  0.00000000000E+00 0.  1.
         11    1    3    3    0    0 -0.32260734369E+01  0.15225885958E+02 -0.22320282545E+02  0.27210846480E+02  0.51100000000E-03 0. -1.
        -11    1    3    3    0    0 -0.40723028687E+01  0.77055397833E+01 -0.72898003606E+01  0.11362226171E+02  0.51100000000E-03 0.  1.
         12    1    3    3    0    0  0.13854547652E+01  0.59904955510E+01 -0.44145157881E+01  0.75692451074E+01  0.00000000000E+00 0. -1.
</event>
<event>
 7    1  0.3846293E-008  0.4614232E+02  0.7816164E-02  0.1320468E+00
        -11   -1    0    0    0    0  0.00000000000E+00  0.00000000000E+00  0.45593999997E+02  0.45594000000E+02  0.51100000000E-03 0. -1.
         11   -1    0    0    0    0 -0.00000000000E+00 -0.00000000000E+00 -0.45593999997E+02  0.45594000000E+02  0.51100000000E-03 0.  1.
    9900012    2    1    2    0    0 -0.43190029351E+01 -0.39854971409E+02  0.20543640308E+02  0.46142315528E+02  0.99999796412E+01 0.  0.
        -12    1    1    2    0    0  0.43190029351E+01  0.39854971409E+02 -0.20543640308E+02  0.45045684472E+02  0.00000000000E+00 0.  1.
         11    1    3    3    0    0  0.47564748418E+00 -0.10350837231E+02  0.53303896540E+01  0.11652430049E+02  0.51100000000E-03 0. -1.
        -11    1    3    3    0    0 -0.16238981616E+01 -0.11180850930E+02  0.10222034037E+02  0.15236090472E+02  0.51100000000E-03 0.  1.
        -12    1    3    3    0    0 -0.31707522577E+01 -0.18323283249E+02  0.49912166168E+01  0.19253795008E+02  0.00000000000E+00 0.  1.
</event>
<event>
 7    1  0.3846293E-008  0.4614232E+02  0.7816164E-02  0.1320468E+00
        -11   -1    0    0    0    0  0.00000000000E+00  0.00000000000E+00  0.45593999997E+02  0.45594000000E+02  0.51100000000E-03 0.  1.
         11   -1    0    0    0    0 -0.00000000000E+00 -0.00000000000E+00 -0.45593999997E+02  0.45594000000E+02  0.51100000000E-03 0. -1.
    9900012    2    1    2    0    0 -0.11564250021E+02  0.38459002209E+02 -0.20403110783E+02  0.46142315867E+02  0.99999827258E+01 0.  0.
        -12    1    1    2    0    0  0.11564250021E+02 -0.38459002209E+02  0.20403110783E+02  0.45045684133E+02  0.00000000000E+00 0.  1.
         11    1    3    3    0    0 -0.13298450915E+01  0.10131080496E+02 -0.61536077643E+01  0.11927873606E+02  0.51100000000E-03 0. -1.
        -11    1    3    3    0    0 -0.93313608502E-01 -0.40195004111E+00  0.23996552241E+00  0.47734157387E+00  0.51100000000E-03 0.  1.
         12    1    3    3    0    0 -0.10141091321E+02  0.28729871754E+02 -0.14489468541E+02  0.33737100687E+02  0.00000000000E+00 0. -1.
</event>
<event>
 7    1  0.3846293E-008  0.4614232E+02  0.7816164E-02  0.1320468E+00
        -11   -1    0    0    0    0  0.00000000000E+00  0.00000000000E+00  0.45593999997E+02  0.45594000000E+02  0.51100000000E-03 0. -1.
         11   -1    0    0    0    0 -0.00000000000E+00 -0.00000000000E+00 -0.45593999997E+02  0.45594000000E+02  0.51100000000E-03 0.  1.
    9900012    2    1    2    0    0 -0.13398890213E+02  0.34808623873E+02  0.25257531682E+02  0.46142318059E+02  0.10000002717E+02 0.  0.
        -12    1    1    2    0    0  0.13398890213E+02 -0.34808623873E+02 -0.25257531682E+02  0.45045681941E+02  0.00000000000E+00 0.  1.
         11    1    3    3    0    0 -0.11195903702E+02  0.21975733254E+02  0.16521477956E+02  0.29685692612E+02  0.51100000000E-03 0. -1.
        -11    1    3    3    0    0 -0.16327859780E+01  0.66186242285E+00  0.10756530117E+01  0.20642387409E+01  0.51100000000E-03 0.  1.
        -12    1    3    3    0    0 -0.57020053349E+00  0.12171028196E+02  0.76604007146E+01  0.14392386706E+02  0.00000000000E+00 0.  1.
</event>
<event>
 7    1  0.3846293E-008  0.4614232E+02  0.7816164E-02  0.1320468E+00
        -11   -1    0    0    0    0  0.00000000000E+00  0.00000000000E+00  0.45593999997E+02  0.45594000000E+02  0.51100000000E-03 0.  1.
         11   -1    0    0    0    0 -0.00000000000E+00 -0.00000000000E+00 -0.45593999997E+02  0.45594000000E+02  0.51100000000E-03 0. -1.
    9900012    2    1    2    0    0  0.41551566027E+02  0.12830436629E+02 -0.11745669150E+02  0.46142317775E+02  0.10000000124E+02 0.  0.
        -12    1    1    2    0    0 -0.41551566027E+02 -0.12830436629E+02  0.11745669150E+02  0.45045682225E+02  0.00000000000E+00 0.  1.
         11    1    3    3    0    0  0.13016671819E+02  0.41672878734E+01 -0.37941745948E+01  0.14184350340E+02  0.51100000000E-03 0. -1.
        -11    1    3    3    0    0  0.15864213869E+02  0.88280828500E+01 -0.60951812554E+01  0.19150967686E+02  0.51100000000E-03 0.  1.
        -12    1    3    3    0    0  0.12670680338E+02 -0.16493409458E+00 -0.18563132994E+01  0.12806999749E+02  0.00000000000E+00 0.  1.
</event>
<event>
 7    1  0.3846293E-008  0.4614232E+02  0.7816164E-02  0.1320468E+00
        -11   -1    0    0    0    0  0.00000000000E+00  0.00000000000E+00  0.45593999997E+02  0.45594000000E+02  0.51100000000E-03 0. -1.
         11   -1    0    0    0    0 -0.00000000000E+00 -0.00000000000E+00 -0.45593999997E+02  0.45594000000E+02  0.51100000000E-03 0.  1.
    9900012    2    1    2    0    0  0.12061555409E+02  0.33375447192E+02  0.27743682550E+02  0.46142317459E+02  0.99999972460E+01 0.  0.
        -12    1    1    2    0    0 -0.12061555409E+02 -0.33375447192E+02 -0.27743682550E+02  0.45045682541E+02  0.00000000000E+00 0.  1.
         11    1    3    3    0    0 -0.18788913431E+00  0.64182583658E+01  0.48381755400E+01  0.80397316867E+01  0.51100000000E-03 0. -1.
        -11    1    3    3    0    0  0.37536404545E+01  0.58633027580E+01  0.92496430258E+01  0.11576874892E+02  0.51100000000E-03 0.  1.
         12    1    3    3    0    0  0.84958040887E+01  0.21093886068E+02  0.13655863984E+02  0.26525710881E+02  0.00000000000E+00 0. -1.
</event>
<event>
 7    1  0.3846293E-008  0.4614232E+02  0.7816164E-02  0.1320468E+00
        -11   -1    0    0    0    0  0.00000000000E+00  0.00000000000E+00  0.45593999997E+02  0.45594000000E+02  0.51100000000E-03 0. -1.
         11   -1    0    0    0    0 -0.00000000000E+00 -0.00000000000E+00 -0.45593999997E+02  0.45594000000E+02  0.51100000000E-03 0.  1.
    9900012    2    1    2    0    0 -0.86180951161E+01 -0.26763046862E+02  0.35193483301E+02  0.46142317548E+02  0.99999980531E+01 0.  0.
        -12    1    1    2    0    0  0.86180951161E+01  0.26763046862E+02 -0.35193483301E+02  0.45045682452E+02  0.00000000000E+00 0.  1.
         11    1    3    3    0    0 -0.10616968224E+01 -0.11572458878E+02  0.16264594931E+02  0.19989648650E+02  0.51100000000E-03 0. -1.
        -11    1    3    3    0    0 -0.19411662356E+01 -0.27598330652E+00  0.32548237813E+01  0.37997593671E+01  0.51100000000E-03 0.  1.
         12    1    3    3    0    0 -0.56152320581E+01 -0.14914604677E+02  0.15674064588E+02  0.22352909530E+02  0.00000000000E+00 0. -1.
</event>
<event>
 7    1  0.3846293E-008  0.4614232E+02  0.7816164E-02  0.1320468E+00
        -11   -1    0    0    0    0  0.00000000000E+00  0.00000000000E+00  0.45593999997E+02  0.45594000000E+02  0.51100000000E-03 0. -1.
         11   -1    0    0    0    0 -0.00000000000E+00 -0.00000000000E+00 -0.45593999997E+02  0.45594000000E+02  0.51100000000E-03 0.  1.
    9900012    2    1    2    0    0  0.15615127628E+02 -0.39086084022E+02  0.16048653077E+02  0.46142318291E+02  0.10000004832E+02 0.  0.
        -12    1    1    2    0    0 -0.15615127628E+02  0.39086084022E+02 -0.16048653077E+02  0.45045681709E+02  0.00000000000E+00 0.  1.
         11    1    3    3    0    0  0.37374980392E+00 -0.58939267210E+01  0.91059748457E-01  0.59064670698E+01  0.51100000000E-03 0.  1.
        -11    1    3    3    0    0  0.74579972998E+01 -0.12255887679E+02  0.85605018052E+01  0.16706606416E+02  0.51100000000E-03 0. -1.
         12    1    3    3    0    0  0.77833805244E+01 -0.20936269623E+02  0.73970915234E+01  0.23529244805E+02  0.00000000000E+00 0. -1.
</event>
<event>
 7    1  0.3846293E-008  0.4614232E+02  0.7816164E-02  0.1320468E+00
        -11   -1    0    0    0    0  0.00000000000E+00  0.00000000000E+00  0.45593999997E+02  0.45594000000E+02  0.51100000000E-03 0.  1.
         11   -1    0    0    0    0 -0.00000000000E+00 -0.00000000000E+00 -0.45593999997E+02  0.45594000000E+02  0.51100000000E-03 0. -1.
    9900012    2    1    2    0    0  0.51269384066E+01  0.23023052484E+02 -0.38376647231E+02  0.46142317679E+02  0.99999992510E+01 0.  0.
        -12    1    1    2    0    0 -0.51269384066E+01 -0.23023052484E+02  0.38376647231E+02  0.45045682321E+02  0.00000000000E+00 0.  1.
         11    1    3    3    0    0  0.12253345196E+01  0.49929618250E+01 -0.36562116439E+01  0.63086445705E+01  0.51100000000E-03 0.  1.
        -11    1    3    3    0    0  0.43109750971E+01  0.63370246423E+01 -0.11310914447E+02  0.13663058717E+02  0.51100000000E-03 0. -1.
         12    1    3    3    0    0 -0.40937121013E+00  0.11693066017E+02 -0.23409521139E+02  0.26170614392E+02  0.00000000000E+00 0. -1.
</event>
<event>
 7    1  0.3846293E-008  0.4614232E+02  0.7816164E-02  0.1320468E+00
        -11   -1    0    0    0    0  0.00000000000E+00  0.00000000000E+00  0.45593999997E+02  0.45594000000E+02  0.51100000000E-03 0. -1.
         11   -1    0    0    0    0 -0.00000000000E+00 -0.00000000000E+00 -0.45593999997E+02  0.45594000000E+02  0.51100000000E-03 0.  1.
    9900012    2    1    2    0    0 -0.11018304629E+02  0.33860659042E+02  0.27589240340E+02  0.46142318185E+02  0.10000003867E+02 0.  0.
        -12    1    1    2    0    0  0.11018304629E+02 -0.33860659042E+02 -0.27589240340E+02  0.45045681815E+02  0.00000000000E+00 0.  1.
         11    1    3    3    0    0 -0.16213321255E+01  0.58000874206E+01  0.62090522085E+01  0.86499746553E+01  0.51100000000E-03 0. -1.
        -11    1    3    3    0    0 -0.68659369715E+00 -0.11637375811E+00 -0.42364811770E+00  0.81512682774E+00  0.51100000000E-03 0.  1.
         12    1    3    3    0    0 -0.87103788059E+01  0.28176945379E+02  0.21803836249E+02  0.36677216702E+02  0.00000000000E+00 0. -1.
</event>
<event>
 7    1  0.3846293E-008  0.4614232E+02  0.7816164E-02  0.1320468E+00
        -11   -1    0    0    0    0  0.00000000000E+00  0.00000000000E+00  0.45593999997E+02  0.45594000000E+02  0.51100000000E-03 0. -1.
         11   -1    0    0    0    0 -0.00000000000E+00 -0.00000000000E+00 -0.45593999997E+02  0.45594000000E+02  0.51100000000E-03 0.  1.
    9900012    2    1    2    0    0  0.67630587174E+01  0.51712324727E+01  0.44233841993E+02  0.46142318898E+02  0.10000010364E+02 0.  0.
        -12    1    1    2    0    0 -0.67630587174E+01 -0.51712324727E+01 -0.44233841993E+02  0.45045681102E+02  0.00000000000E+00 0.  1.
         11    1    3    3    0    0  0.37024634622E+01  0.63297670115E+00  0.93337608872E+01  0.10061212042E+02  0.51100000000E-03 0. -1.
        -11    1    3    3    0    0  0.42894956606E+01 -0.15332327848E+00  0.15400094841E+02  0.15987063596E+02  0.51100000000E-03 0.  1.
         12    1    3    3    0    0 -0.12289004055E+01  0.46915790500E+01  0.19499986265E+02  0.20094043260E+02  0.00000000000E+00 0. -1.
</event>
<event>
 7    1  0.3846293E-008  0.4614232E+02  0.7816164E-02  0.1320468E+00
        -11   -1    0    0    0    0  0.00000000000E+00  0.00000000000E+00  0.45593999997E+02  0.45594000000E+02  0.51100000000E-03 0.  1.
         11   -1    0    0    0    0 -0.00000000000E+00 -0.00000000000E+00 -0.45593999997E+02  0.45594000000E+02  0.51100000000E-03 0. -1.
    9900012    2    1    2    0    0 -0.16957056389E+02  0.40058453988E+02 -0.11700083137E+02  0.46142318268E+02  0.10000004626E+02 0.  0.
        -12    1    1    2    0    0  0.16957056389E+02 -0.40058453988E+02  0.11700083137E+02  0.45045681732E+02  0.00000000000E+00 0.  1.
         11    1    3    3    0    0 -0.43774531333E+01  0.14844928313E+02 -0.61554722244E+01  0.16656044882E+02  0.51100000000E-03 0. -1.
        -11    1    3    3    0    0 -0.13392786884E+02  0.23511152924E+02 -0.49417432710E+01  0.27505669946E+02  0.51100000000E-03 0.  1.
        -12    1    3    3    0    0  0.81318362845E+00  0.17023727507E+01 -0.60286764142E+00  0.19806034406E+01  0.00000000000E+00 0.  1.
</event>
<event>
 7    1  0.3846293E-008  0.4614232E+02  0.7816164E-02  0.1320468E+00
        -11   -1    0    0    0    0  0.00000000000E+00  0.00000000000E+00  0.45593999997E+02  0.45594000000E+02  0.51100000000E-03 0. -1.
         11   -1    0    0    0    0 -0.00000000000E+00 -0.00000000000E+00 -0.45593999997E+02  0.45594000000E+02  0.51100000000E-03 0.  1.
    9900012    2    1    2    0    0 -0.43585902485E+02  0.10865998885E+02 -0.33634519396E+01  0.46142316121E+02  0.99999850396E+01 0.  0.
        -12    1    1    2    0    0  0.43585902485E+02 -0.10865998885E+02  0.33634519396E+01  0.45045683879E+02  0.00000000000E+00 0.  1.
         11    1    3    3    0    0 -0.31503216195E+02  0.42534321324E+01 -0.19003859395E+01  0.31845812637E+02  0.51100000000E-03 0. -1.
        -11    1    3    3    0    0 -0.21287935325E+00  0.11154556984E+01 -0.15134901485E-01  0.11356884962E+01  0.51100000000E-03 0.  1.
         12    1    3    3    0    0 -0.11869806937E+02  0.54971110539E+01 -0.14479310986E+01  0.13160814988E+02  0.00000000000E+00 0. -1.
</event>
<event>
 7    1  0.3846293E-008  0.4614232E+02  0.7816164E-02  0.1320468E+00
        -11   -1    0    0    0    0  0.00000000000E+00  0.00000000000E+00  0.45593999997E+02  0.45594000000E+02  0.51100000000E-03 0.  1.
         11   -1    0    0    0    0 -0.00000000000E+00 -0.00000000000E+00 -0.45593999997E+02  0.45594000000E+02  0.51100000000E-03 0. -1.
    9900012    2    1    2    0    0 -0.20016915710E+01 -0.25968572803E+02 -0.36752413806E+02  0.46142318041E+02  0.10000002554E+02 0.  0.
        -12    1    1    2    0    0  0.20016915710E+01  0.25968572803E+02  0.36752413806E+02  0.45045681959E+02  0.00000000000E+00 0.  1.
         11    1    3    3    0    0  0.39236272075E+00 -0.41225676087E+01 -0.73607141756E+01  0.84456868063E+01  0.51100000000E-03 0. -1.
        -11    1    3    3    0    0  0.59015034103E+00 -0.17012370343E+02 -0.26011334904E+02  0.31086308335E+02  0.51100000000E-03 0.  1.
        -12    1    3    3    0    0 -0.29842046328E+01 -0.48336348509E+01 -0.33803647263E+01  0.66103229002E+01  0.00000000000E+00 0.  1.
</event>
<event>
 7    1  0.3846293E-008  0.4614232E+02  0.7816164E-02  0.1320468E+00
        -11   -1    0    0    0    0  0.00000000000E+00  0.00000000000E+00  0.45593999997E+02  0.45594000000E+02  0.51100000000E-03 0.  1.
         11   -1    0    0    0    0 -0.00000000000E+00 -0.00000000000E+00 -0.45593999997E+02  0.45594000000E+02  0.51100000000E-03 0. -1.
    9900012    2    1    2    0    0  0.27414801989E+02  0.25418144922E+02 -0.25128868591E+02  0.46142317676E+02  0.99999992230E+01 0.  0.
        -12    1    1    2    0    0 -0.27414801989E+02 -0.25418144922E+02  0.25128868591E+02  0.45045682324E+02  0.00000000000E+00 0.  1.
         11    1    3    3    0    0  0.37175807130E+01  0.33222560861E+01 -0.72419408432E+01  0.87922408575E+01  0.51100000000E-03 0. -1.
        -11    1    3    3    0    0  0.22118114708E+02  0.18902109179E+02 -0.14833493609E+02  0.32657820848E+02  0.51100000000E-03 0.  1.
        -12    1    3    3    0    0  0.15791065685E+01  0.31937796569E+01 -0.30534341383E+01  0.46922559701E+01  0.00000000000E+00 0.  1.
</event>
<event>
 7    1  0.3846293E-008  0.4614231E+02  0.7816164E-02  0.1320468E+00
        -11   -1    0    0    0    0  0.00000000000E+00  0.00000000000E+00  0.45593999997E+02  0.45594000000E+02  0.51100000000E-03 0.  1.
         11   -1    0    0    0    0 -0.00000000000E+00 -0.00000000000E+00 -0.45593999997E+02  0.45594000000E+02  0.51100000000E-03 0. -1.
    9900012    2    1    2    0    0 -0.18226635153E+02 -0.39389680315E+02 -0.12056408848E+02  0.46142310543E+02  0.99999341792E+01 0.  0.
        -12    1    1    2    0    0  0.18226635153E+02  0.39389680315E+02  0.12056408848E+02  0.45045689457E+02  0.00000000000E+00 0.  1.
         11    1    3    3    0    0 -0.93300128165E+01 -0.11156921522E+02 -0.46945487971E+01  0.15282827804E+02  0.51100000000E-03 0. -1.
        -11    1    3    3    0    0 -0.61101123547E+01 -0.22478397847E+02 -0.74779111572E+01  0.24464893180E+02  0.51100000000E-03 0.  1.
         12    1    3    3    0    0 -0.27865099820E+01 -0.57543609457E+01  0.11605110607E+00  0.63945895593E+01  0.00000000000E+00 0. -1.
</event>
<event>
 7    1  0.3846293E-008  0.4614232E+02  0.7816164E-02  0.1320468E+00
        -11   -1    0    0    0    0  0.00000000000E+00  0.00000000000E+00  0.45593999997E+02  0.45594000000E+02  0.51100000000E-03 0.  1.
         11   -1    0    0    0    0 -0.00000000000E+00 -0.00000000000E+00 -0.45593999997E+02  0.45594000000E+02  0.51100000000E-03 0. -1.
    9900012    2    1    2    0    0 -0.13962619298E+02  0.38299862163E+02 -0.19164533676E+02  0.46142317295E+02  0.99999957495E+01 0.  0.
        -12    1    1    2    0    0  0.13962619298E+02 -0.38299862163E+02  0.19164533676E+02  0.45045682705E+02  0.00000000000E+00 0.  1.
         11    1    3    3    0    0 -0.61456265059E+01  0.14654682591E+02 -0.11368857763E+02  0.19539175369E+02  0.51100000000E-03 0. -1.
        -11    1    3    3    0    0 -0.19840589114E+01  0.40163162095E+01 -0.34887689404E+01  0.56779216831E+01  0.51100000000E-03 0.  1.
         12    1    3    3    0    0 -0.58329338804E+01  0.19628863362E+02 -0.43069069719E+01  0.20925220243E+02  0.00000000000E+00 0. -1.
</event>
<event>
 7    1  0.3846293E-008  0.4614232E+02  0.7816164E-02  0.1320468E+00
        -11   -1    0    0    0    0  0.00000000000E+00  0.00000000000E+00  0.45593999997E+02  0.45594000000E+02  0.51100000000E-03 0.  1.
         11   -1    0    0    0    0 -0.00000000000E+00 -0.00000000000E+00 -0.45593999997E+02  0.45594000000E+02  0.51100000000E-03 0. -1.
    9900012    2    1    2    0    0 -0.13721351377E+02  0.45686249599E+01 -0.42661055435E+02  0.46142317982E+02  0.10000002011E+02 0.  0.
        -12    1    1    2    0    0  0.13721351377E+02 -0.45686249599E+01  0.42661055435E+02  0.45045682018E+02  0.00000000000E+00 0.  1.
         11    1    3    3    0    0 -0.13479408410E+01  0.26279251020E+00 -0.10220183425E+00  0.13771165130E+01  0.51100000000E-03 0. -1.
        -11    1    3    3    0    0 -0.29796135853E+01  0.12201439924E+01 -0.51665631346E+01  0.60877108477E+01  0.51100000000E-03 0.  1.
        -12    1    3    3    0    0 -0.93937969504E+01  0.30856884572E+01 -0.37392290467E+02  0.38677490621E+02  0.00000000000E+00 0.  1.
</event>
<event>
 7    1  0.3846293E-008  0.4614232E+02  0.7816164E-02  0.1320468E+00
        -11   -1    0    0    0    0  0.00000000000E+00  0.00000000000E+00  0.45593999997E+02  0.45594000000E+02  0.51100000000E-03 0.  1.
         11   -1    0    0    0    0 -0.00000000000E+00 -0.00000000000E+00 -0.45593999997E+02  0.45594000000E+02  0.51100000000E-03 0. -1.
    9900012    2    1    2    0    0  0.36950764682E+02  0.22722857231E+02 -0.12141919701E+02  0.46142318016E+02  0.10000002329E+02 0.  0.
        -12    1    1    2    0    0 -0.36950764682E+02 -0.22722857231E+02  0.12141919701E+02  0.45045681984E+02  0.00000000000E+00 0.  1.
         11    1    3    3    0    0  0.66562646961E+01  0.42062700674E+01 -0.90142109870E-01  0.78744328968E+01  0.51100000000E-03 0. -1.
        -11    1    3    3    0    0  0.13893940172E+02  0.93374458404E+01 -0.17397060973E+01  0.16830212295E+02  0.51100000000E-03 0.  1.
        -12    1    3    3    0    0  0.16400559814E+02  0.91791413234E+01 -0.10312071494E+02  0.21437672825E+02  0.00000000000E+00 0.  1.
</event>
<event>
 7    1  0.3846293E-008  0.4614232E+02  0.7816164E-02  0.1320468E+00
        -11   -1    0    0    0    0  0.00000000000E+00  0.00000000000E+00  0.45593999997E+02  0.45594000000E+02  0.51100000000E-03 0.  1.
         11   -1    0    0    0    0 -0.00000000000E+00 -0.00000000000E+00 -0.45593999997E+02  0.45594000000E+02  0.51100000000E-03 0. -1.
    9900012    2    1    2    0    0  0.19602538797E+02  0.25408755437E+01 -0.40477129160E+02  0.46142316956E+02  0.99999926620E+01 0.  0.
        -12    1    1    2    0    0 -0.19602538797E+02 -0.25408755437E+01  0.40477129160E+02  0.45045683044E+02  0.00000000000E+00 0.  1.
         11    1    3    3    0    0  0.89609581770E+01  0.12978687412E+01 -0.18816788387E+02  0.20881924245E+02  0.51100000000E-03 0. -1.
        -11    1    3    3    0    0  0.71048867563E+01 -0.27897035153E+01 -0.12734805924E+02  0.14847125773E+02  0.51100000000E-03 0.  1.
        -12    1    3    3    0    0  0.35366938641E+01  0.40327103178E+01 -0.89255348488E+01  0.10413266939E+02  0.00000000000E+00 0.  1.
</event>
<event>
 7    1  0.3846293E-008  0.4614232E+02  0.7816164E-02  0.1320468E+00
        -11   -1    0    0    0    0  0.00000000000E+00  0.00000000000E+00  0.45593999997E+02  0.45594000000E+02  0.51100000000E-03 0.  1.
         11   -1    0    0    0    0 -0.00000000000E+00 -0.00000000000E+00 -0.45593999997E+02  0.45594000000E+02  0.51100000000E-03 0. -1.
    9900012    2    1    2    0    0 -0.12543709422E+02  0.51476568289E+01 -0.42956610981E+02  0.46142318255E+02  0.10000004502E+02 0.  0.
        -12    1    1    2    0    0  0.12543709422E+02 -0.51476568289E+01  0.42956610981E+02  0.45045681745E+02  0.00000000000E+00 0.  1.
         11    1    3    3    0    0 -0.30669655783E+01  0.55163956147E+01 -0.11361888984E+02  0.12997285101E+02  0.51100000000E-03 0. -1.
        -11    1    3    3    0    0 -0.26281820921E+01 -0.38247428300E+00 -0.14283862853E+02  0.14528673922E+02  0.51100000000E-03 0.  1.
        -12    1    3    3    0    0 -0.68485617513E+01  0.13735497215E-01 -0.17310859144E+02  0.18616359232E+02  0.00000000000E+00 0.  1.
</event>
<event>
 7    1  0.3846293E-008  0.4614231E+02  0.7816164E-02  0.1320468E+00
        -11   -1    0    0    0    0  0.00000000000E+00  0.00000000000E+00  0.45593999997E+02  0.45594000000E+02  0.51100000000E-03 0. -1.
         11   -1    0    0    0    0 -0.00000000000E+00 -0.00000000000E+00 -0.45593999997E+02  0.45594000000E+02  0.51100000000E-03 0.  1.
    9900012    2    1    2    0    0 -0.19696060431E+02  0.48353940876E+01  0.40221869521E+02  0.46142305197E+02  0.99998854293E+01 0.  0.
        -12    1    1    2    0    0  0.19696060431E+02 -0.48353940876E+01 -0.40221869521E+02  0.45045694803E+02  0.00000000000E+00 0.  1.
         11    1    3    3    0    0 -0.10666481902E+02  0.41179208149E+00  0.29294941044E+02  0.31179111276E+02  0.51100000000E-03 0.  1.
        -11    1    3    3    0    0 -0.26795218159E+00  0.50833299314E+00  0.31403804235E+00  0.65484422323E+00  0.51100000000E-03 0. -1.
        -12    1    3    3    0    0 -0.87616263481E+01  0.39152690130E+01  0.10612890435E+02  0.14308349698E+02  0.00000000000E+00 0.  1.
</event>
<event>
 7    1  0.3846293E-008  0.4614232E+02  0.7816164E-02  0.1320468E+00
        -11   -1    0    0    0    0  0.00000000000E+00  0.00000000000E+00  0.45593999997E+02  0.45594000000E+02  0.51100000000E-03 0. -1.
         11   -1    0    0    0    0 -0.00000000000E+00 -0.00000000000E+00 -0.45593999997E+02  0.45594000000E+02  0.51100000000E-03 0.  1.
    9900012    2    1    2    0    0 -0.19354445486E+02  0.19568344859E+02  0.35659482599E+02  0.46142318966E+02  0.10000010985E+02 0.  0.
        -12    1    1    2    0    0  0.19354445486E+02 -0.19568344859E+02 -0.35659482599E+02  0.45045681034E+02  0.00000000000E+00 0.  1.
         11    1    3    3    0    0 -0.81773018720E+00  0.19388724329E+01  0.29831405642E-02  0.21042618968E+01  0.51100000000E-03 0. -1.
        -11    1    3    3    0    0 -0.10237805170E+02  0.71996759132E+01  0.17135880982E+02  0.21219952998E+02  0.51100000000E-03 0.  1.
         12    1    3    3    0    0 -0.82989101293E+01  0.10429796513E+02  0.18520618477E+02  0.22818104071E+02  0.00000000000E+00 0. -1.
</event>
<event>
 7    1  0.3846293E-008  0.4614232E+02  0.7816164E-02  0.1320468E+00
        -11   -1    0    0    0    0  0.00000000000E+00  0.00000000000E+00  0.45593999997E+02  0.45594000000E+02  0.51100000000E-03 0.  1.
         11   -1    0    0    0    0 -0.00000000000E+00 -0.00000000000E+00 -0.45593999997E+02  0.45594000000E+02  0.51100000000E-03 0. -1.
    9900012    2    1    2    0    0 -0.38434394908E+02  0.19989929649E+02 -0.12341539707E+02  0.46142316503E+02  0.99999885299E+01 0.  0.
        -12    1    1    2    0    0  0.38434394908E+02 -0.19989929649E+02  0.12341539707E+02  0.45045683497E+02  0.00000000000E+00 0.  1.
         11    1    3    3    0    0 -0.33318083943E+02  0.17025407465E+02 -0.79555703727E+01  0.38252455048E+02  0.51100000000E-03 0. -1.
        -11    1    3    3    0    0 -0.50939850777E+01  0.32166511874E+01 -0.45825579874E+01  0.75693703042E+01  0.51100000000E-03 0.  1.
        -12    1    3    3    0    0 -0.22325887263E-01 -0.25212900314E+00  0.19658865265E+00  0.32049115092E+00  0.00000000000E+00 0.  1.
</event>
<event>
 7    1  0.3846293E-008  0.4614232E+02  0.7816164E-02  0.1320468E+00
        -11   -1    0    0    0    0  0.00000000000E+00  0.00000000000E+00  0.45593999997E+02  0.45594000000E+02  0.51100000000E-03 0. -1.
         11   -1    0    0    0    0 -0.00000000000E+00 -0.00000000000E+00 -0.45593999997E+02  0.45594000000E+02  0.51100000000E-03 0.  1.
    9900012    2    1    2    0    0 -0.68822184591E+01 -0.40718515853E+02  0.17993081407E+02  0.46142318268E+02  0.10000004619E+02 0.  0.
        -12    1    1    2    0    0  0.68822184591E+01  0.40718515853E+02 -0.17993081407E+02  0.45045681732E+02  0.00000000000E+00 0.  1.
         11    1    3    3    0    0 -0.29149699111E+01 -0.16774103157E+02  0.46229714818E+01  0.17641979818E+02  0.51100000000E-03 0. -1.
        -11    1    3    3    0    0  0.13960259504E+00 -0.83301675787E+01  0.78235306320E+01  0.11428858761E+02  0.51100000000E-03 0.  1.
        -12    1    3    3    0    0 -0.41068511430E+01 -0.15614245118E+02  0.55465792932E+01  0.17071479689E+02  0.00000000000E+00 0.  1.
</event>
<event>
 7    1  0.3846293E-008  0.4614232E+02  0.7816164E-02  0.1320468E+00
        -11   -1    0    0    0    0  0.00000000000E+00  0.00000000000E+00  0.45593999997E+02  0.45594000000E+02  0.51100000000E-03 0.  1.
         11   -1    0    0    0    0 -0.00000000000E+00 -0.00000000000E+00 -0.45593999997E+02  0.45594000000E+02  0.51100000000E-03 0. -1.
    9900012    2    1    2    0    0  0.27810650242E+02  0.26942503410E+02 -0.23017014162E+02  0.46142315436E+02  0.99999788013E+01 0.  0.
        -12    1    1    2    0    0 -0.27810650242E+02 -0.26942503410E+02  0.23017014162E+02  0.45045684564E+02  0.00000000000E+00 0.  1.
         11    1    3    3    0    0  0.16052515486E+02  0.20874519689E+02 -0.16249141246E+02  0.30942905764E+02  0.51100000000E-03 0. -1.
        -11    1    3    3    0    0  0.68828373541E+01  0.51405810734E+01 -0.49468009383E+01  0.99131157362E+01  0.51100000000E-03 0.  1.
         12    1    3    3    0    0  0.48752974020E+01  0.92740264815E+00 -0.18210719781E+01  0.52862939361E+01  0.00000000000E+00 0. -1.
</event>
<event>
 7    1  0.3846293E-008  0.4614232E+02  0.7816164E-02  0.1320468E+00
        -11   -1    0    0    0    0  0.00000000000E+00  0.00000000000E+00  0.45593999997E+02  0.45594000000E+02  0.51100000000E-03 0.  1.
         11   -1    0    0    0    0 -0.00000000000E+00 -0.00000000000E+00 -0.45593999997E+02  0.45594000000E+02  0.51100000000E-03 0. -1.
    9900012    2    1    2    0    0  0.66666327565E+01 -0.16802449247E+02 -0.41259512081E+02  0.46142316187E+02  0.99999856449E+01 0.  0.
        -12    1    1    2    0    0 -0.66666327565E+01  0.16802449247E+02  0.41259512081E+02  0.45045683813E+02  0.00000000000E+00 0.  1.
         11    1    3    3    0    0 -0.18963190782E+00 -0.99208127673E+00 -0.23119371386E+01  0.25229425507E+01  0.51100000000E-03 0. -1.
        -11    1    3    3    0    0  0.27850970412E+01 -0.75425060536E+01 -0.80535230815E+01  0.11380043822E+02  0.51100000000E-03 0.  1.
         12    1    3    3    0    0  0.40711676232E+01 -0.82678619165E+01 -0.30894051861E+02  0.32239329814E+02  0.00000000000E+00 0. -1.
</event>
<event>
 7    1  0.3846293E-008  0.4614232E+02  0.7816164E-02  0.1320468E+00
        -11   -1    0    0    0    0  0.00000000000E+00  0.00000000000E+00  0.45593999997E+02  0.45594000000E+02  0.51100000000E-03 0.  1.
         11   -1    0    0    0    0 -0.00000000000E+00 -0.00000000000E+00 -0.45593999997E+02  0.45594000000E+02  0.51100000000E-03 0. -1.
    9900012    2    1    2    0    0  0.29540433167E+02  0.11088716556E+02 -0.32148353796E+02  0.46142317873E+02  0.10000001016E+02 0.  0.
        -12    1    1    2    0    0 -0.29540433167E+02 -0.11088716556E+02  0.32148353796E+02  0.45045682127E+02  0.00000000000E+00 0.  1.
         11    1    3    3    0    0  0.10116175976E+02  0.51045643037E+01 -0.59286524413E+01  0.12788374139E+02  0.51100000000E-03 0. -1.
        -11    1    3    3    0    0  0.10910255564E+01  0.38284936553E+00 -0.31708921727E+01  0.33751248619E+01  0.51100000000E-03 0.  1.
         12    1    3    3    0    0  0.18333231635E+02  0.56013028869E+01 -0.23048809182E+02  0.29978818871E+02  0.00000000000E+00 0. -1.
</event>
<event>
 7    1  0.3846293E-008  0.4614231E+02  0.7816164E-02  0.1320468E+00
        -11   -1    0    0    0    0  0.00000000000E+00  0.00000000000E+00  0.45593999997E+02  0.45594000000E+02  0.51100000000E-03 0.  1.
         11   -1    0    0    0    0 -0.00000000000E+00 -0.00000000000E+00 -0.45593999997E+02  0.45594000000E+02  0.51100000000E-03 0. -1.
    9900012    2    1    2    0    0  0.17962663597E+02  0.30070871463E+02 -0.28323120505E+02  0.46142314866E+02  0.99999736013E+01 0.  0.
        -12    1    1    2    0    0 -0.17962663597E+02 -0.30070871463E+02  0.28323120505E+02  0.45045685134E+02  0.00000000000E+00 0.  1.
         11    1    3    3    0    0  0.37570499295E+01  0.65317160060E+01 -0.97553358775E+01  0.12326610098E+02  0.51100000000E-03 0. -1.
        -11    1    3    3    0    0  0.76441385413E+01  0.71936069696E+01 -0.86530523869E+01  0.13603534509E+02  0.51100000000E-03 0.  1.
        -12    1    3    3    0    0  0.65614751260E+01  0.16345548488E+02 -0.99147322404E+01  0.20212170259E+02  0.00000000000E+00 0.  1.
</event>
<event>
 7    1  0.3846293E-008  0.4614232E+02  0.7816164E-02  0.1320468E+00
        -11   -1    0    0    0    0  0.00000000000E+00  0.00000000000E+00  0.45593999997E+02  0.45594000000E+02  0.51100000000E-03 0. -1.
         11   -1    0    0    0    0 -0.00000000000E+00 -0.00000000000E+00 -0.45593999997E+02  0.45594000000E+02  0.51100000000E-03 0.  1.
    9900012    2    1    2    0    0 -0.30890462075E+02  0.32785031110E+02  0.18614772536E+00  0.46142316932E+02  0.99999924374E+01 0.  0.
        -12    1    1    2    0    0  0.30890462075E+02 -0.32785031110E+02 -0.18614772536E+00  0.45045683068E+02  0.00000000000E+00 0.  1.
         11    1    3    3    0    0 -0.11130197999E+02  0.81498312108E+01 -0.55269128305E+00  0.13806032166E+02  0.51100000000E-03 0. -1.
        -11    1    3    3    0    0 -0.68057917919E+01  0.66756287924E+01 -0.27430521214E+01  0.99200381497E+01  0.51100000000E-03 0.  1.
         12    1    3    3    0    0 -0.12954472285E+02  0.17959571107E+02  0.34818911298E+01  0.22416246616E+02  0.00000000000E+00 0. -1.
</event>
<event>
 7    1  0.3846293E-008  0.4614232E+02  0.7816164E-02  0.1320468E+00
        -11   -1    0    0    0    0  0.00000000000E+00  0.00000000000E+00  0.45593999997E+02  0.45594000000E+02  0.51100000000E-03 0.  1.
         11   -1    0    0    0    0 -0.00000000000E+00 -0.00000000000E+00 -0.45593999997E+02  0.45594000000E+02  0.51100000000E-03 0. -1.
    9900012    2    1    2    0    0  0.14787561730E+02  0.19690335257E+02 -0.37719122485E+02  0.46142317793E+02  0.10000000294E+02 0.  0.
        -12    1    1    2    0    0 -0.14787561730E+02 -0.19690335257E+02  0.37719122485E+02  0.45045682207E+02  0.00000000000E+00 0.  1.
         11    1    3    3    0    0  0.11357866009E+02  0.10693021665E+02 -0.27300842519E+02  0.31443247846E+02  0.51100000000E-03 0. -1.
        -11    1    3    3    0    0  0.39572490353E+01  0.51971185500E+01 -0.64985583798E+01  0.92141805076E+01  0.51100000000E-03 0.  1.
         12    1    3    3    0    0 -0.52755331371E+00  0.38001950417E+01 -0.39197215860E+01  0.54848894397E+01  0.00000000000E+00 0. -1.
</event>
<event>
 7    1  0.3846293E-008  0.4614232E+02  0.7816164E-02  0.1320468E+00
        -11   -1    0    0    0    0  0.00000000000E+00  0.00000000000E+00  0.45593999997E+02  0.45594000000E+02  0.51100000000E-03 0.  1.
         11   -1    0    0    0    0 -0.00000000000E+00 -0.00000000000E+00 -0.45593999997E+02  0.45594000000E+02  0.51100000000E-03 0. -1.
    9900012    2    1    2    0    0 -0.25783882244E+02  0.36084957166E+02  0.78854789447E+01  0.46142317683E+02  0.99999992881E+01 0.  0.
        -12    1    1    2    0    0  0.25783882244E+02 -0.36084957166E+02 -0.78854789447E+01  0.45045682317E+02  0.00000000000E+00 0.  1.
         11    1    3    3    0    0 -0.15268687444E+02  0.21421464554E+02  0.92890263483E+01  0.27897992234E+02  0.51100000000E-03 0. -1.
        -11    1    3    3    0    0 -0.37492339605E+01  0.35428634892E+01 -0.72989907286E+00  0.52097399082E+01  0.51100000000E-03 0.  1.
         12    1    3    3    0    0 -0.67659608392E+01  0.11120629122E+02 -0.67364833082E+00  0.13034585541E+02  0.00000000000E+00 0. -1.
</event>
<event>
 7    1  0.3846293E-008  0.4614232E+02  0.7816164E-02  0.1320468E+00
        -11   -1    0    0    0    0  0.00000000000E+00  0.00000000000E+00  0.45593999997E+02  0.45594000000E+02  0.51100000000E-03 0. -1.
         11   -1    0    0    0    0 -0.00000000000E+00 -0.00000000000E+00 -0.45593999997E+02  0.45594000000E+02  0.51100000000E-03 0.  1.
    9900012    2    1    2    0    0 -0.92781045345E+01  0.16493450031E+02  0.40877823599E+02  0.46142316746E+02  0.99999907389E+01 0.  0.
        -12    1    1    2    0    0  0.92781045345E+01 -0.16493450031E+02 -0.40877823599E+02  0.45045683254E+02  0.00000000000E+00 0.  1.
         11    1    3    3    0    0  0.35906142403E+00  0.14156186412E+01  0.10591867790E+02  0.10692079535E+02  0.51100000000E-03 0.  1.
        -11    1    3    3    0    0 -0.25629655454E+01  0.65797341938E+01  0.15056405144E+02  0.16630003926E+02  0.51100000000E-03 0. -1.
        -12    1    3    3    0    0 -0.70742004131E+01  0.84980971954E+01  0.15229550665E+02  0.18820233285E+02  0.00000000000E+00 0.  1.
</event>
<event>
 7    1  0.3846293E-008  0.4614232E+02  0.7816164E-02  0.1320468E+00
        -11   -1    0    0    0    0  0.00000000000E+00  0.00000000000E+00  0.45593999997E+02  0.45594000000E+02  0.51100000000E-03 0. -1.
         11   -1    0    0    0    0 -0.00000000000E+00 -0.00000000000E+00 -0.45593999997E+02  0.45594000000E+02  0.51100000000E-03 0.  1.
    9900012    2    1    2    0    0  0.25236002474E+02 -0.33653822622E+02  0.16114524147E+02  0.46142317783E+02  0.10000000200E+02 0.  0.
        -12    1    1    2    0    0 -0.25236002474E+02  0.33653822622E+02 -0.16114524147E+02  0.45045682217E+02  0.00000000000E+00 0.  1.
         11    1    3    3    0    0  0.56686782154E+01 -0.81938000935E+01  0.61554141248E+00  0.99825429713E+01  0.51100000000E-03 0. -1.
        -11    1    3    3    0    0  0.51311725996E+01 -0.96350474065E+01  0.28445009228E+01  0.11280702839E+02  0.51100000000E-03 0.  1.
         12    1    3    3    0    0  0.14436151659E+02 -0.15824975122E+02  0.12654481812E+02  0.24879071973E+02  0.00000000000E+00 0. -1.
</event>
<event>
 7    1  0.3846293E-008  0.4614232E+02  0.7816164E-02  0.1320468E+00
        -11   -1    0    0    0    0  0.00000000000E+00  0.00000000000E+00  0.45593999997E+02  0.45594000000E+02  0.51100000000E-03 0.  1.
         11   -1    0    0    0    0 -0.00000000000E+00 -0.00000000000E+00 -0.45593999997E+02  0.45594000000E+02  0.51100000000E-03 0. -1.
    9900012    2    1    2    0    0 -0.33292512396E+02 -0.29187737635E+02 -0.82944550419E+01  0.46142318805E+02  0.10000009521E+02 0.  0.
        -12    1    1    2    0    0  0.33292512396E+02  0.29187737635E+02  0.82944550419E+01  0.45045681195E+02  0.00000000000E+00 0.  1.
         11    1    3    3    0    0 -0.65593007046E+01 -0.69928811855E+01  0.28202928380E+00  0.95918900007E+01  0.51100000000E-03 0. -1.
        -11    1    3    3    0    0 -0.13350091579E+02 -0.12880252673E+02 -0.10188880765E+01  0.18578589485E+02  0.51100000000E-03 0.  1.
         12    1    3    3    0    0 -0.13383120113E+02 -0.93146037763E+01 -0.75575962493E+01  0.17971839320E+02  0.00000000000E+00 0. -1.
</event>
<event>
 7    1  0.3846293E-008  0.4614232E+02  0.7816164E-02  0.1320468E+00
        -11   -1    0    0    0    0  0.00000000000E+00  0.00000000000E+00  0.45593999997E+02  0.45594000000E+02  0.51100000000E-03 0.  1.
         11   -1    0    0    0    0 -0.00000000000E+00 -0.00000000000E+00 -0.45593999997E+02  0.45594000000E+02  0.51100000000E-03 0. -1.
    9900012    2    1    2    0    0 -0.30639809271E+01  0.24486883366E+02 -0.37684456878E+02  0.46142315120E+02  0.99999759164E+01 0.  0.
        -12    1    1    2    0    0  0.30639809271E+01 -0.24486883366E+02  0.37684456878E+02  0.45045684880E+02  0.00000000000E+00 0.  1.
         11    1    3    3    0    0 -0.23557847492E+01  0.73723476754E+01 -0.10214724514E+02  0.12815686840E+02  0.51100000000E-03 0. -1.
        -11    1    3    3    0    0 -0.29278005011E+01  0.66665425145E+01 -0.16401612705E+02  0.17945130383E+02  0.51100000000E-03 0.  1.
        -12    1    3    3    0    0  0.22196043232E+01  0.10447993176E+02 -0.11068119659E+02  0.15381497897E+02  0.00000000000E+00 0.  1.
</event>
<event>
 7    1  0.3846293E-008  0.4614232E+02  0.7816164E-02  0.1320468E+00
        -11   -1    0    0    0    0  0.00000000000E+00  0.00000000000E+00  0.45593999997E+02  0.45594000000E+02  0.51100000000E-03 0.  1.
         11   -1    0    0    0    0 -0.00000000000E+00 -0.00000000000E+00 -0.45593999997E+02  0.45594000000E+02  0.51100000000E-03 0. -1.
    9900012    2    1    2    0    0  0.76228739959E+00  0.30554625156E+01 -0.44935470874E+02  0.46142317899E+02  0.10000001257E+02 0.  0.
        -12    1    1    2    0    0 -0.76228739959E+00 -0.30554625156E+01  0.44935470874E+02  0.45045682101E+02  0.00000000000E+00 0.  1.
         11    1    3    3    0    0  0.11671727807E+01  0.36260784897E+01 -0.29010091760E+02  0.29259121000E+02  0.51100000000E-03 0. -1.
        -11    1    3    3    0    0 -0.27569087015E+01  0.35615723401E+00 -0.11013942822E+02  0.11359327899E+02  0.51100000000E-03 0.  1.
        -12    1    3    3    0    0  0.23520233204E+01 -0.92677320806E+00 -0.49114362922E+01  0.55238690001E+01  0.00000000000E+00 0.  1.
</event>
<event>
 7    1  0.3846293E-008  0.4614232E+02  0.7816164E-02  0.1320468E+00
        -11   -1    0    0    0    0  0.00000000000E+00  0.00000000000E+00  0.45593999997E+02  0.45594000000E+02  0.51100000000E-03 0.  1.
         11   -1    0    0    0    0 -0.00000000000E+00 -0.00000000000E+00 -0.45593999997E+02  0.45594000000E+02  0.51100000000E-03 0. -1.
    9900012    2    1    2    0    0  0.43214373610E+02 -0.11175135672E+02 -0.60619916127E+01  0.46142317786E+02  0.10000000229E+02 0.  0.
        -12    1    1    2    0    0 -0.43214373610E+02  0.11175135672E+02  0.60619916127E+01  0.45045682214E+02  0.00000000000E+00 0.  1.
         11    1    3    3    0    0  0.18295076879E+02 -0.21428601177E+01 -0.12305856717E+01  0.18461203343E+02  0.51100000000E-03 0. -1.
        -11    1    3    3    0    0  0.70789067609E+01 -0.42406303326E+01 -0.40493436790E+01  0.91919013832E+01  0.51100000000E-03 0.  1.
        -12    1    3    3    0    0  0.17840389970E+02 -0.47916452212E+01 -0.78206226203E+00  0.18489213060E+02  0.00000000000E+00 0.  1.
</event>
<event>
 7    1  0.3846293E-008  0.4614232E+02  0.7816164E-02  0.1320468E+00
        -11   -1    0    0    0    0  0.00000000000E+00  0.00000000000E+00  0.45593999997E+02  0.45594000000E+02  0.51100000000E-03 0.  1.
         11   -1    0    0    0    0 -0.00000000000E+00 -0.00000000000E+00 -0.45593999997E+02  0.45594000000E+02  0.51100000000E-03 0. -1.
    9900012    2    1    2    0    0 -0.17544724416E+02  0.41464366326E+02 -0.14150545233E+01  0.46142318642E+02  0.10000008035E+02 0.  0.
        -12    1    1    2    0    0  0.17544724416E+02 -0.41464366326E+02  0.14150545233E+01  0.45045681358E+02  0.00000000000E+00 0.  1.
         11    1    3    3    0    0 -0.31137099209E+01  0.84447683741E+01  0.26553239663E+01  0.93840315425E+01  0.51100000000E-03 0. -1.
        -11    1    3    3    0    0 -0.66611242811E+01  0.14329144605E+02  0.11847013889E+01  0.15846087197E+02  0.51100000000E-03 0.  1.
        -12    1    3    3    0    0 -0.77698902141E+01  0.18690453347E+02 -0.52550798785E+01  0.20912199903E+02  0.00000000000E+00 0.  1.
</event>
<event>
 7    1  0.3846293E-008  0.4614232E+02  0.7816164E-02  0.1320468E+00
        -11   -1    0    0    0    0  0.00000000000E+00  0.00000000000E+00  0.45593999997E+02  0.45594000000E+02  0.51100000000E-03 0. -1.
         11   -1    0    0    0    0 -0.00000000000E+00 -0.00000000000E+00 -0.45593999997E+02  0.45594000000E+02  0.51100000000E-03 0.  1.
    9900012    2    1    2    0    0 -0.12001498695E+02  0.27877562402E+02  0.33285418706E+02  0.46142317023E+02  0.99999932671E+01 0.  0.
        -12    1    1    2    0    0  0.12001498695E+02 -0.27877562402E+02 -0.33285418706E+02  0.45045682977E+02  0.00000000000E+00 0.  1.
         11    1    3    3    0    0 -0.80167904543E+01  0.18903880846E+02  0.17668347884E+02  0.27088672124E+02  0.51100000000E-03 0. -1.
        -11    1    3    3    0    0 -0.45223444256E+01  0.48322703553E+01  0.81574227314E+01  0.10504569566E+02  0.51100000000E-03 0.  1.
        -12    1    3    3    0    0  0.53763618476E+00  0.41414112014E+01  0.74596480909E+01  0.85490753328E+01  0.00000000000E+00 0.  1.
</event>
<event>
 7    1  0.3846293E-008  0.4614232E+02  0.7816164E-02  0.1320468E+00
        -11   -1    0    0    0    0  0.00000000000E+00  0.00000000000E+00  0.45593999997E+02  0.45594000000E+02  0.51100000000E-03 0.  1.
         11   -1    0    0    0    0 -0.00000000000E+00 -0.00000000000E+00 -0.45593999997E+02  0.45594000000E+02  0.51100000000E-03 0. -1.
    9900012    2    1    2    0    0 -0.32120375966E+01  0.18099715282E+02 -0.41124160091E+02  0.46142318497E+02  0.10000006715E+02 0.  0.
        -12    1    1    2    0    0  0.32120375966E+01 -0.18099715282E+02  0.41124160091E+02  0.45045681503E+02  0.00000000000E+00 0.  1.
         11    1    3    3    0    0 -0.51955233003E+01  0.11586006027E+02 -0.31319139314E+02  0.33795228741E+02  0.51100000000E-03 0. -1.
        -11    1    3    3    0    0 -0.44698561421E+00  0.17147359611E+01 -0.10163419323E+01  0.20428085422E+01  0.51100000000E-03 0.  1.
        -12    1    3    3    0    0  0.24304713180E+01  0.47989732943E+01 -0.87886788445E+01  0.10304281214E+02  0.00000000000E+00 0.  1.
</event>
<event>
 7    1  0.3846293E-008  0.4614232E+02  0.7816164E-02  0.1320468E+00
        -11   -1    0    0    0    0  0.00000000000E+00  0.00000000000E+00  0.45593999997E+02  0.45594000000E+02  0.51100000000E-03 0.  1.
         11   -1    0    0    0    0 -0.00000000000E+00 -0.00000000000E+00 -0.45593999997E+02  0.45594000000E+02  0.51100000000E-03 0. -1.
    9900012    2    1    2    0    0  0.24881644310E+02 -0.33940546530E+02 -0.16064121935E+02  0.46142323894E+02  0.10000055923E+02 0.  0.
        -12    1    1    2    0    0 -0.24881644310E+02  0.33940546530E+02  0.16064121935E+02  0.45045676106E+02  0.00000000000E+00 0.  1.
         11    1    3    3    0    0  0.96935980612E+01 -0.12352879924E+02 -0.86697929641E+01  0.17936688549E+02  0.51100000000E-03 0. -1.
        -11    1    3    3    0    0  0.56528511547E+01 -0.87279095361E+01 -0.63020938273E+01  0.12159256471E+02  0.51100000000E-03 0.  1.
        -12    1    3    3    0    0  0.95351950936E+01 -0.12859757070E+02 -0.10922351436E+01  0.16046378875E+02  0.00000000000E+00 0.  1.
</event>
<event>
 7    1  0.3846293E-008  0.4614232E+02  0.7816164E-02  0.1320468E+00
        -11   -1    0    0    0    0  0.00000000000E+00  0.00000000000E+00  0.45593999997E+02  0.45594000000E+02  0.51100000000E-03 0.  1.
         11   -1    0    0    0    0 -0.00000000000E+00 -0.00000000000E+00 -0.45593999997E+02  0.45594000000E+02  0.51100000000E-03 0. -1.
    9900012    2    1    2    0    0 -0.35606285235E+01 -0.17687287872E+02 -0.41274631487E+02  0.46142318385E+02  0.10000005692E+02 0.  0.
        -12    1    1    2    0    0  0.35606285235E+01  0.17687287872E+02  0.41274631487E+02  0.45045681615E+02  0.00000000000E+00 0.  1.
         11    1    3    3    0    0 -0.53138234865E+00 -0.12613554030E+02 -0.20140030856E+02  0.23769832890E+02  0.51100000000E-03 0. -1.
        -11    1    3    3    0    0  0.20856694888E+00 -0.28954911181E+01 -0.13380636868E+02  0.13691925075E+02  0.51100000000E-03 0.  1.
        -12    1    3    3    0    0 -0.32378131237E+01 -0.21782427235E+01 -0.77539637627E+01  0.86805604208E+01  0.00000000000E+00 0.  1.
</event>
<event>
 7    1  0.3846293E-008  0.4614232E+02  0.7816164E-02  0.1320468E+00
        -11   -1    0    0    0    0  0.00000000000E+00  0.00000000000E+00  0.45593999997E+02  0.45594000000E+02  0.51100000000E-03 0. -1.
         11   -1    0    0    0    0 -0.00000000000E+00 -0.00000000000E+00 -0.45593999997E+02  0.45594000000E+02  0.51100000000E-03 0.  1.
    9900012    2    1    2    0    0 -0.43718146328E+02 -0.91660840986E+01  0.58154996681E+01  0.46142318160E+02  0.10000003639E+02 0.  0.
        -12    1    1    2    0    0  0.43718146328E+02  0.91660840986E+01 -0.58154996681E+01  0.45045681840E+02  0.00000000000E+00 0.  1.
         11    1    3    3    0    0 -0.17019308678E+02 -0.14696272384E+01  0.15808847873E+01  0.17155636656E+02  0.51100000000E-03 0. -1.
        -11    1    3    3    0    0 -0.56186738573E+01 -0.15080996461E+01 -0.19961621995E+01  0.61504897566E+01  0.51100000000E-03 0.  1.
        -12    1    3    3    0    0 -0.21080163793E+02 -0.61883572140E+01  0.62307770803E+01  0.22836191748E+02  0.00000000000E+00 0.  1.
</event>
<event>
 7    1  0.3846293E-008  0.4614232E+02  0.7816164E-02  0.1320468E+00
        -11   -1    0    0    0    0  0.00000000000E+00  0.00000000000E+00  0.45593999997E+02  0.45594000000E+02  0.51100000000E-03 0. -1.
         11   -1    0    0    0    0 -0.00000000000E+00 -0.00000000000E+00 -0.45593999997E+02  0.45594000000E+02  0.51100000000E-03 0.  1.
    9900012    2    1    2    0    0 -0.33509214710E+02  0.89648214525E+01  0.28738093592E+02  0.46142317438E+02  0.99999970528E+01 0.  0.
        -12    1    1    2    0    0  0.33509214710E+02 -0.89648214525E+01 -0.28738093592E+02  0.45045682562E+02  0.00000000000E+00 0.  1.
         11    1    3    3    0    0 -0.20172485436E+02  0.40287275274E+01  0.18572546023E+02  0.27714604096E+02  0.51100000000E-03 0. -1.
        -11    1    3    3    0    0 -0.23228975814E+01 -0.11971395363E+01  0.27879335602E+01  0.38212000785E+01  0.51100000000E-03 0.  1.
        -12    1    3    3    0    0 -0.11013831692E+02  0.61332334613E+01  0.73776140089E+01  0.14606513263E+02  0.00000000000E+00 0.  1.
</event>
<event>
 7    1  0.3846293E-008  0.4614232E+02  0.7816164E-02  0.1320468E+00
        -11   -1    0    0    0    0  0.00000000000E+00  0.00000000000E+00  0.45593999997E+02  0.45594000000E+02  0.51100000000E-03 0.  1.
         11   -1    0    0    0    0 -0.00000000000E+00 -0.00000000000E+00 -0.45593999997E+02  0.45594000000E+02  0.51100000000E-03 0. -1.
    9900012    2    1    2    0    0  0.13818434120E+02  0.12901956439E+02 -0.40886477904E+02  0.46142315669E+02  0.99999809195E+01 0.  0.
        -12    1    1    2    0    0 -0.13818434120E+02 -0.12901956439E+02  0.40886477904E+02  0.45045684331E+02  0.00000000000E+00 0.  1.
         11    1    3    3    0    0  0.13844358216E+01  0.77710204534E+00 -0.42388936845E+00  0.16432384461E+01  0.51100000000E-03 0. -1.
        -11    1    3    3    0    0  0.96626654224E+01  0.54949489705E+01 -0.21154209595E+02  0.23896906727E+02  0.51100000000E-03 0.  1.
         12    1    3    3    0    0  0.27713328761E+01  0.66299054229E+01 -0.19308378941E+02  0.20602170496E+02  0.00000000000E+00 0. -1.
</event>
<event>
 7    1  0.3846293E-008  0.4614232E+02  0.7816164E-02  0.1320468E+00
        -11   -1    0    0    0    0  0.00000000000E+00  0.00000000000E+00  0.45593999997E+02  0.45594000000E+02  0.51100000000E-03 0.  1.
         11   -1    0    0    0    0 -0.00000000000E+00 -0.00000000000E+00 -0.45593999997E+02  0.45594000000E+02  0.51100000000E-03 0. -1.
    9900012    2    1    2    0    0  0.44077514845E+02  0.69246725569E+01 -0.61915305988E+01  0.46142318119E+02  0.10000003264E+02 0.  0.
        -12    1    1    2    0    0 -0.44077514845E+02 -0.69246725569E+01  0.61915305988E+01  0.45045681881E+02  0.00000000000E+00 0.  1.
         11    1    3    3    0    0  0.26123423686E+02  0.51286245915E+01 -0.22445901170E+01  0.26716553677E+02  0.51100000000E-03 0. -1.
        -11    1    3    3    0    0  0.10134898249E+02  0.24884628646E+01 -0.48803084845E+01  0.11520677980E+02  0.51100000000E-03 0.  1.
        -12    1    3    3    0    0  0.78191929096E+01 -0.69241489917E+00  0.93336800269E+00  0.79050864624E+01  0.00000000000E+00 0.  1.
</event>
<event>
 7    1  0.3846293E-008  0.4614232E+02  0.7816164E-02  0.1320468E+00
        -11   -1    0    0    0    0  0.00000000000E+00  0.00000000000E+00  0.45593999997E+02  0.45594000000E+02  0.51100000000E-03 0. -1.
         11   -1    0    0    0    0 -0.00000000000E+00 -0.00000000000E+00 -0.45593999997E+02  0.45594000000E+02  0.51100000000E-03 0.  1.
    9900012    2    1    2    0    0 -0.42891450078E+02 -0.92732845735E+01  0.10170708938E+02  0.46142316334E+02  0.99999869889E+01 0.  0.
        -12    1    1    2    0    0  0.42891450078E+02  0.92732845735E+01 -0.10170708938E+02  0.45045683666E+02  0.00000000000E+00 0.  1.
         11    1    3    3    0    0 -0.22119917818E+01 -0.13567147555E+01  0.12629546095E+01  0.28859378332E+01  0.51100000000E-03 0. -1.
        -11    1    3    3    0    0 -0.87628981718E+01  0.13383048758E+01  0.49310312109E-01  0.88646419035E+01  0.51100000000E-03 0.  1.
         12    1    3    3    0    0 -0.31916560125E+02 -0.92548746938E+01  0.88584440161E+01  0.34391736597E+02  0.00000000000E+00 0. -1.
</event>
<event>
 7    1  0.3846293E-008  0.4614232E+02  0.7816164E-02  0.1320468E+00
        -11   -1    0    0    0    0  0.00000000000E+00  0.00000000000E+00  0.45593999997E+02  0.45594000000E+02  0.51100000000E-03 0. -1.
         11   -1    0    0    0    0 -0.00000000000E+00 -0.00000000000E+00 -0.45593999997E+02  0.45594000000E+02  0.51100000000E-03 0.  1.
    9900012    2    1    2    0    0  0.14651641397E+02 -0.22670057818E+02  0.36062603585E+02  0.46142317694E+02  0.99999993856E+01 0.  0.
        -12    1    1    2    0    0 -0.14651641397E+02  0.22670057818E+02 -0.36062603585E+02  0.45045682306E+02  0.00000000000E+00 0.  1.
         11    1    3    3    0    0  0.11965339417E+02 -0.19902705548E+02  0.29217605843E+02  0.37322319420E+02  0.51100000000E-03 0. -1.
        -11    1    3    3    0    0  0.35994501806E+01 -0.28100773596E+01  0.50691320743E+01  0.68226590577E+01  0.51100000000E-03 0.  1.
        -12    1    3    3    0    0 -0.91314820095E+00  0.42725089394E-01  0.17758656683E+01  0.19973392156E+01  0.00000000000E+00 0.  1.
</event>
<event>
 7    1  0.3846293E-008  0.4614232E+02  0.7816164E-02  0.1320468E+00
        -11   -1    0    0    0    0  0.00000000000E+00  0.00000000000E+00  0.45593999997E+02  0.45594000000E+02  0.51100000000E-03 0.  1.
         11   -1    0    0    0    0 -0.00000000000E+00 -0.00000000000E+00 -0.45593999997E+02  0.45594000000E+02  0.51100000000E-03 0. -1.
    9900012    2    1    2    0    0  0.16789419235E+02  0.21637338601E+02 -0.35763869347E+02  0.46142319068E+02  0.10000011914E+02 0.  0.
        -12    1    1    2    0    0 -0.16789419235E+02 -0.21637338601E+02  0.35763869347E+02  0.45045680932E+02  0.00000000000E+00 0.  1.
         11    1    3    3    0    0  0.13557799565E+02  0.13542934718E+02 -0.26329907833E+02  0.32565150953E+02  0.51100000000E-03 0. -1.
        -11    1    3    3    0    0  0.50728165932E-01  0.39366648306E+00  0.48271729746E+00  0.62495031570E+00  0.51100000000E-03 0.  1.
         12    1    3    3    0    0  0.31808915038E+01  0.77007373999E+01 -0.99166788112E+01  0.12952217799E+02  0.00000000000E+00 0. -1.
</event>
<event>
 7    1  0.3846293E-008  0.4614232E+02  0.7816164E-02  0.1320468E+00
        -11   -1    0    0    0    0  0.00000000000E+00  0.00000000000E+00  0.45593999997E+02  0.45594000000E+02  0.51100000000E-03 0.  1.
         11   -1    0    0    0    0 -0.00000000000E+00 -0.00000000000E+00 -0.45593999997E+02  0.45594000000E+02  0.51100000000E-03 0. -1.
    9900012    2    1    2    0    0  0.16634535030E+02 -0.21096659148E+02 -0.36157111657E+02  0.46142317563E+02  0.99999981912E+01 0.  0.
        -12    1    1    2    0    0 -0.16634535030E+02  0.21096659148E+02  0.36157111657E+02  0.45045682437E+02  0.00000000000E+00 0.  1.
         11    1    3    3    0    0 -0.74564741525E+00 -0.52452215949E+00 -0.26796947155E+01  0.28305260276E+01  0.51100000000E-03 0. -1.
        -11    1    3    3    0    0  0.60985731512E+01 -0.50909994037E+01 -0.13283035138E+02  0.15477399399E+02  0.51100000000E-03 0.  1.
        -12    1    3    3    0    0  0.11281609294E+02 -0.15481137585E+02 -0.20194381803E+02  0.27834392137E+02  0.00000000000E+00 0.  1.
</event>
<event>
 7    1  0.3846293E-008  0.4614232E+02  0.7816164E-02  0.1320468E+00
        -11   -1    0    0    0    0  0.00000000000E+00  0.00000000000E+00  0.45593999997E+02  0.45594000000E+02  0.51100000000E-03 0. -1.
         11   -1    0    0    0    0 -0.00000000000E+00 -0.00000000000E+00 -0.45593999997E+02  0.45594000000E+02  0.51100000000E-03 0.  1.
    9900012    2    1    2    0    0 -0.32404307761E+02  0.30007203271E+02  0.88680390218E+01  0.46142317346E+02  0.99999962172E+01 0.  0.
        -12    1    1    2    0    0  0.32404307761E+02 -0.30007203271E+02 -0.88680390218E+01  0.45045682654E+02  0.00000000000E+00 0.  1.
         11    1    3    3    0    0 -0.11956779530E+02  0.17391892994E+02  0.44777791836E+01  0.21575287375E+02  0.51100000000E-03 0. -1.
        -11    1    3    3    0    0 -0.63817048712E+01  0.51807393191E+01  0.81223396643E+00  0.82598995898E+01  0.51100000000E-03 0.  1.
         12    1    3    3    0    0 -0.14065823361E+02  0.74345709578E+01  0.35780258718E+01  0.16307130381E+02  0.00000000000E+00 0. -1.
</event>
<event>
 7    1  0.3846293E-008  0.4614232E+02  0.7816164E-02  0.1320468E+00
        -11   -1    0    0    0    0  0.00000000000E+00  0.00000000000E+00  0.45593999997E+02  0.45594000000E+02  0.51100000000E-03 0. -1.
         11   -1    0    0    0    0 -0.00000000000E+00 -0.00000000000E+00 -0.45593999997E+02  0.45594000000E+02  0.51100000000E-03 0.  1.
    9900012    2    1    2    0    0 -0.26268326091E+02  0.34025730483E+02  0.13466183533E+02  0.46142318859E+02  0.10000010009E+02 0.  0.
        -12    1    1    2    0    0  0.26268326091E+02 -0.34025730483E+02 -0.13466183533E+02  0.45045681141E+02  0.00000000000E+00 0.  1.
         11    1    3    3    0    0 -0.90459529265E+01  0.94542250269E+01  0.65316172790E+01  0.14624419980E+02  0.51100000000E-03 0.  1.
        -11    1    3    3    0    0 -0.14330530877E+02  0.15040430845E+02  0.42924610408E+01  0.21213295295E+02  0.51100000000E-03 0. -1.
         12    1    3    3    0    0 -0.28918422871E+01  0.95310746112E+01  0.26421052129E+01  0.10304603584E+02  0.00000000000E+00 0. -1.
</event>
<event>
 7    1  0.3846293E-008  0.4614232E+02  0.7816164E-02  0.1320468E+00
        -11   -1    0    0    0    0  0.00000000000E+00  0.00000000000E+00  0.45593999997E+02  0.45594000000E+02  0.51100000000E-03 0. -1.
         11   -1    0    0    0    0 -0.00000000000E+00 -0.00000000000E+00 -0.45593999997E+02  0.45594000000E+02  0.51100000000E-03 0.  1.
    9900012    2    1    2    0    0  0.29612018443E+02  0.26721853095E+02  0.20932858919E+02  0.46142315949E+02  0.99999834748E+01 0.  0.
        -12    1    1    2    0    0 -0.29612018443E+02 -0.26721853095E+02 -0.20932858919E+02  0.45045684051E+02  0.00000000000E+00 0.  1.
         11    1    3    3    0    0  0.47845979579E+01  0.40820389010E+01  0.53577441394E+01  0.82620119664E+01  0.51100000000E-03 0. -1.
        -11    1    3    3    0    0  0.73592306805E+01  0.86928929659E+01  0.91853770473E+01  0.14632013398E+02  0.51100000000E-03 0.  1.
        -12    1    3    3    0    0  0.17468189805E+02  0.13946921228E+02  0.63897377319E+01  0.23248290584E+02  0.00000000000E+00 0.  1.
</event>
<event>
 7    1  0.3846293E-008  0.4614232E+02  0.7816164E-02  0.1320468E+00
        -11   -1    0    0    0    0  0.00000000000E+00  0.00000000000E+00  0.45593999997E+02  0.45594000000E+02  0.51100000000E-03 0. -1.
         11   -1    0    0    0    0 -0.00000000000E+00 -0.00000000000E+00 -0.45593999997E+02  0.45594000000E+02  0.51100000000E-03 0.  1.
    9900012    2    1    2    0    0  0.30612508146E+02  0.14408229999E+02  0.29738708387E+02  0.46142317374E+02  0.99999964729E+01 0.  0.
        -12    1    1    2    0    0 -0.30612508146E+02 -0.14408229999E+02 -0.29738708387E+02  0.45045682626E+02  0.00000000000E+00 0.  1.
         11    1    3    3    0    0  0.34105538909E+01  0.30467844450E+01  0.36895349793E+01  0.58760056094E+01  0.51100000000E-03 0. -1.
        -11    1    3    3    0    0  0.41834445828E+01  0.49825612667E+01  0.80927220290E+01  0.10383606091E+02  0.51100000000E-03 0.  1.
         12    1    3    3    0    0  0.23018509672E+02  0.63788842871E+01  0.17956451379E+02  0.29882705674E+02  0.00000000000E+00 0. -1.
</event>
<event>
 7    1  0.3846293E-008  0.4614232E+02  0.7816164E-02  0.1320468E+00
        -11   -1    0    0    0    0  0.00000000000E+00  0.00000000000E+00  0.45593999997E+02  0.45594000000E+02  0.51100000000E-03 0.  1.
         11   -1    0    0    0    0 -0.00000000000E+00 -0.00000000000E+00 -0.45593999997E+02  0.45594000000E+02  0.51100000000E-03 0. -1.
    9900012    2    1    2    0    0  0.36163085105E+02 -0.13651142481E+02 -0.23129873727E+02  0.46142317921E+02  0.10000001456E+02 0.  0.
        -12    1    1    2    0    0 -0.36163085105E+02  0.13651142481E+02  0.23129873727E+02  0.45045682079E+02  0.00000000000E+00 0.  1.
         11    1    3    3    0    0  0.42804263503E+01  0.86031711720E+00 -0.72515788550E+00  0.44258388473E+01  0.51100000000E-03 0.  1.
        -11    1    3    3    0    0  0.19221593093E+01 -0.54231565986E-01 -0.11905790046E+01  0.22616622428E+01  0.51100000000E-03 0. -1.
         12    1    3    3    0    0  0.29960499445E+02 -0.14457228032E+02 -0.21214136837E+02  0.39454816831E+02  0.00000000000E+00 0. -1.
</event>
<event>
 7    1  0.3846293E-008  0.4614232E+02  0.7816164E-02  0.1320468E+00
        -11   -1    0    0    0    0  0.00000000000E+00  0.00000000000E+00  0.45593999997E+02  0.45594000000E+02  0.51100000000E-03 0.  1.
         11   -1    0    0    0    0 -0.00000000000E+00 -0.00000000000E+00 -0.45593999997E+02  0.45594000000E+02  0.51100000000E-03 0. -1.
    9900012    2    1    2    0    0 -0.35847448575E+02  0.19213184167E+01 -0.27209968334E+02  0.46142318625E+02  0.10000007879E+02 0.  0.
        -12    1    1    2    0    0  0.35847448575E+02 -0.19213184167E+01  0.27209968334E+02  0.45045681375E+02  0.00000000000E+00 0.  1.
         11    1    3    3    0    0 -0.17658333731E+02  0.11507199490E+01 -0.10717894681E+02  0.20688503406E+02  0.51100000000E-03 0. -1.
        -11    1    3    3    0    0 -0.57367624128E+01 -0.40005181634E+00 -0.15262564093E+01  0.59497851495E+01  0.51100000000E-03 0.  1.
         12    1    3    3    0    0 -0.12452352432E+02  0.11706502841E+01 -0.14965817244E+02  0.19504030069E+02  0.00000000000E+00 0. -1.
</event>
<event>
 7    1  0.3846293E-008  0.4614232E+02  0.7816164E-02  0.1320468E+00
        -11   -1    0    0    0    0  0.00000000000E+00  0.00000000000E+00  0.45593999997E+02  0.45594000000E+02  0.51100000000E-03 0.  1.
         11   -1    0    0    0    0 -0.00000000000E+00 -0.00000000000E+00 -0.45593999997E+02  0.45594000000E+02  0.51100000000E-03 0. -1.
    9900012    2    1    2    0    0  0.40260202469E+02 -0.25603059326E+01 -0.20041816633E+02  0.46142317818E+02  0.10000000514E+02 0.  0.
        -12    1    1    2    0    0 -0.40260202469E+02  0.25603059326E+01  0.20041816633E+02  0.45045682182E+02  0.00000000000E+00 0.  1.
         11    1    3    3    0    0  0.14928251626E+02 -0.77116069601E+00 -0.71910680571E+01  0.16587912632E+02  0.51100000000E-03 0. -1.
        -11    1    3    3    0    0  0.81217471951E+01  0.61293221999E-02 -0.20835670860E+00  0.81244216932E+01  0.51100000000E-03 0.  1.
         12    1    3    3    0    0  0.17210203649E+02 -0.17952745588E+01 -0.12642391867E+02  0.21429983493E+02  0.00000000000E+00 0. -1.
</event>
<event>
 7    1  0.3846293E-008  0.4614231E+02  0.7816164E-02  0.1320468E+00
        -11   -1    0    0    0    0  0.00000000000E+00  0.00000000000E+00  0.45593999997E+02  0.45594000000E+02  0.51100000000E-03 0.  1.
         11   -1    0    0    0    0 -0.00000000000E+00 -0.00000000000E+00 -0.45593999997E+02  0.45594000000E+02  0.51100000000E-03 0. -1.
    9900012    2    1    2    0    0 -0.23648771122E+02  0.16511812075E+02 -0.34600718087E+02  0.46142312018E+02  0.99999476330E+01 0.  0.
        -12    1    1    2    0    0  0.23648771122E+02 -0.16511812075E+02  0.34600718087E+02  0.45045687982E+02  0.00000000000E+00 0.  1.
         11    1    3    3    0    0 -0.90464989888E+01  0.42525683365E+01 -0.13762331276E+02  0.17009563305E+02  0.51100000000E-03 0. -1.
        -11    1    3    3    0    0 -0.79190297934E+01  0.21776968145E+01 -0.94401594681E+01  0.12512793746E+02  0.51100000000E-03 0.  1.
         12    1    3    3    0    0 -0.66832423396E+01  0.10081546924E+02 -0.11398227343E+02  0.16619954967E+02  0.00000000000E+00 0. -1.
</event>
<event>
 7    1  0.3846293E-008  0.4614232E+02  0.7816164E-02  0.1320468E+00
        -11   -1    0    0    0    0  0.00000000000E+00  0.00000000000E+00  0.45593999997E+02  0.45594000000E+02  0.51100000000E-03 0.  1.
         11   -1    0    0    0    0 -0.00000000000E+00 -0.00000000000E+00 -0.45593999997E+02  0.45594000000E+02  0.51100000000E-03 0. -1.
    9900012    2    1    2    0    0  0.18512761061E+02  0.40677698251E+02 -0.56317013055E+01  0.46142317447E+02  0.99999971354E+01 0.  0.
        -12    1    1    2    0    0 -0.18512761061E+02 -0.40677698251E+02  0.56317013055E+01  0.45045682553E+02  0.00000000000E+00 0.  1.
         11    1    3    3    0    0  0.29138802157E+01  0.48949827957E+01  0.28355236320E+00  0.57036792235E+01  0.51100000000E-03 0. -1.
        -11    1    3    3    0    0  0.11010308605E+02  0.20591083389E+02  0.41385867304E+00  0.23353605503E+02  0.51100000000E-03 0.  1.
         12    1    3    3    0    0  0.45885722399E+01  0.15191632066E+02 -0.63291123418E+01  0.17085032721E+02  0.00000000000E+00 0. -1.
</event>
<event>
 7    1  0.3846293E-008  0.4614232E+02  0.7816164E-02  0.1320468E+00
        -11   -1    0    0    0    0  0.00000000000E+00  0.00000000000E+00  0.45593999997E+02  0.45594000000E+02  0.51100000000E-03 0.  1.
         11   -1    0    0    0    0 -0.00000000000E+00 -0.00000000000E+00 -0.45593999997E+02  0.45594000000E+02  0.51100000000E-03 0. -1.
    9900012    2    1    2    0    0  0.11665168921E+02  0.37585919609E+02 -0.21916569895E+02  0.46142317024E+02  0.99999932769E+01 0.  0.
        -12    1    1    2    0    0 -0.11665168921E+02 -0.37585919609E+02  0.21916569895E+02  0.45045682976E+02  0.00000000000E+00 0.  1.
         11    1    3    3    0    0  0.29760488038E+01  0.58619203848E+01 -0.61784694840E+01  0.90217771258E+01  0.51100000000E-03 0. -1.
        -11    1    3    3    0    0  0.25449473293E+01  0.20826153184E+01 -0.22210846694E+01  0.39682818502E+01  0.51100000000E-03 0.  1.
         12    1    3    3    0    0  0.61441727878E+01  0.29641383906E+02 -0.13517015742E+02  0.33152258048E+02  0.00000000000E+00 0. -1.
</event>
<event>
 7    1  0.3846293E-008  0.4614232E+02  0.7816164E-02  0.1320468E+00
        -11   -1    0    0    0    0  0.00000000000E+00  0.00000000000E+00  0.45593999997E+02  0.45594000000E+02  0.51100000000E-03 0. -1.
         11   -1    0    0    0    0 -0.00000000000E+00 -0.00000000000E+00 -0.45593999997E+02  0.45594000000E+02  0.51100000000E-03 0.  1.
    9900012    2    1    2    0    0  0.44458437666E+02 -0.43218287069E+01  0.58208832302E+01  0.46142316915E+02  0.99999922800E+01 0.  0.
        -12    1    1    2    0    0 -0.44458437666E+02  0.43218287069E+01 -0.58208832302E+01  0.45045683085E+02  0.00000000000E+00 0.  1.
         11    1    3    3    0    0  0.34429423724E+02 -0.10986495390E+01  0.50359278745E+01  0.34813112739E+02  0.51100000000E-03 0. -1.
        -11    1    3    3    0    0  0.83329638225E+01 -0.14111030660E+01 -0.62504770059E+00  0.84746789213E+01  0.51100000000E-03 0.  1.
        -12    1    3    3    0    0  0.16960501192E+01 -0.18120761020E+01  0.14100030562E+01  0.28545252538E+01  0.00000000000E+00 0.  1.
</event>
<event>
 7    1  0.3846293E-008  0.4614232E+02  0.7816164E-02  0.1320468E+00
        -11   -1    0    0    0    0  0.00000000000E+00  0.00000000000E+00  0.45593999997E+02  0.45594000000E+02  0.51100000000E-03 0. -1.
         11   -1    0    0    0    0 -0.00000000000E+00 -0.00000000000E+00 -0.45593999997E+02  0.45594000000E+02  0.51100000000E-03 0.  1.
    9900012    2    1    2    0    0 -0.11132290682E+02  0.43449391831E+02 -0.41636351989E+01  0.46142318693E+02  0.10000008497E+02 0.  0.
        -12    1    1    2    0    0  0.11132290682E+02 -0.43449391831E+02  0.41636351989E+01  0.45045681307E+02  0.00000000000E+00 0.  1.
         11    1    3    3    0    0 -0.45802305237E+01  0.22350699949E+02 -0.24205371900E+00  0.22816460947E+02  0.51100000000E-03 0. -1.
        -11    1    3    3    0    0 -0.21148808131E+01  0.45138812955E+01  0.16907048582E+01  0.52636801178E+01  0.51100000000E-03 0.  1.
        -12    1    3    3    0    0 -0.44371793451E+01  0.16584810587E+02 -0.56122863381E+01  0.18062177628E+02  0.00000000000E+00 0.  1.
</event>
<event>
 7    1  0.3846293E-008  0.4614233E+02  0.7816164E-02  0.1320468E+00
        -11   -1    0    0    0    0  0.00000000000E+00  0.00000000000E+00  0.45593999997E+02  0.45594000000E+02  0.51100000000E-03 0.  1.
         11   -1    0    0    0    0 -0.00000000000E+00 -0.00000000000E+00 -0.45593999997E+02  0.45594000000E+02  0.51100000000E-03 0. -1.
    9900012    2    1    2    0    0 -0.47835509869E+01 -0.18651242824E+02 -0.40722981390E+02  0.46142329484E+02  0.10000106898E+02 0.  0.
        -12    1    1    2    0    0  0.47835509869E+01  0.18651242824E+02  0.40722981390E+02  0.45045670516E+02  0.00000000000E+00 0.  1.
         11    1    3    3    0    0  0.18159472468E+01 -0.38366434141E+01 -0.77866738735E+01  0.88684715347E+01  0.51100000000E-03 0. -1.
        -11    1    3    3    0    0  0.38024462055E+00  0.49573553504E+00 -0.11944682525E+01  0.13479964241E+01  0.51100000000E-03 0.  1.
         12    1    3    3    0    0 -0.69797428542E+01 -0.15310334945E+02 -0.31741839265E+02  0.35925861525E+02  0.00000000000E+00 0. -1.
</event>
<event>
 7    1  0.3846293E-008  0.4614232E+02  0.7816164E-02  0.1320468E+00
        -11   -1    0    0    0    0  0.00000000000E+00  0.00000000000E+00  0.45593999997E+02  0.45594000000E+02  0.51100000000E-03 0.  1.
         11   -1    0    0    0    0 -0.00000000000E+00 -0.00000000000E+00 -0.45593999997E+02  0.45594000000E+02  0.51100000000E-03 0. -1.
    9900012    2    1    2    0    0  0.24632248489E+02 -0.15265831047E+02 -0.34486523313E+02  0.46142317039E+02  0.99999934188E+01 0.  0.
        -12    1    1    2    0    0 -0.24632248489E+02  0.15265831047E+02  0.34486523313E+02  0.45045682961E+02  0.00000000000E+00 0.  1.
         11    1    3    3    0    0  0.24707861201E+02 -0.13630876070E+02 -0.31974466749E+02  0.42645582558E+02  0.51100000000E-03 0. -1.
        -11    1    3    3    0    0  0.74787503619E-01  0.27211071126E+00  0.62720962360E-01  0.28908751291E+00  0.51100000000E-03 0.  1.
         12    1    3    3    0    0 -0.15040021620E+00 -0.19070656875E+01 -0.25747775267E+01  0.32076469683E+01  0.00000000000E+00 0. -1.
</event>
<event>
 7    1  0.3846293E-008  0.4614232E+02  0.7816164E-02  0.1320468E+00
        -11   -1    0    0    0    0  0.00000000000E+00  0.00000000000E+00  0.45593999997E+02  0.45594000000E+02  0.51100000000E-03 0.  1.
         11   -1    0    0    0    0 -0.00000000000E+00 -0.00000000000E+00 -0.45593999997E+02  0.45594000000E+02  0.51100000000E-03 0. -1.
    9900012    2    1    2    0    0  0.39310954185E+02  0.17423954898E+02 -0.13422676905E+02  0.46142316760E+02  0.99999908735E+01 0.  0.
        -12    1    1    2    0    0 -0.39310954185E+02 -0.17423954898E+02  0.13422676905E+02  0.45045683240E+02  0.00000000000E+00 0.  1.
         11    1    3    3    0    0  0.96555916015E+01  0.46256024130E+01 -0.21978569929E+01  0.10929648781E+02  0.51100000000E-03 0. -1.
        -11    1    3    3    0    0  0.22209001097E+01  0.12167367623E+01  0.13707260327E+01  0.28795374218E+01  0.51100000000E-03 0.  1.
         12    1    3    3    0    0  0.27434462474E+02  0.11581615723E+02 -0.12595545945E+02  0.32333130557E+02  0.00000000000E+00 0. -1.
</event>
<event>
 7    1  0.3846293E-008  0.4614232E+02  0.7816164E-02  0.1320468E+00
        -11   -1    0    0    0    0  0.00000000000E+00  0.00000000000E+00  0.45593999997E+02  0.45594000000E+02  0.51100000000E-03 0. -1.
         11   -1    0    0    0    0 -0.00000000000E+00 -0.00000000000E+00 -0.45593999997E+02  0.45594000000E+02  0.51100000000E-03 0.  1.
    9900012    2    1    2    0    0 -0.26586508751E+01 -0.16432271705E+02  0.41857203585E+02  0.46142317967E+02  0.10000001873E+02 0.  0.
        -12    1    1    2    0    0  0.26586508751E+01  0.16432271705E+02 -0.41857203585E+02  0.45045682033E+02  0.00000000000E+00 0.  1.
         11    1    3    3    0    0 -0.97802004783E+00 -0.87124253341E+00  0.76969146071E+01  0.78075656575E+01  0.51100000000E-03 0. -1.
        -11    1    3    3    0    0 -0.26365618737E+01 -0.10789387042E+02  0.15619109236E+02  0.19165565602E+02  0.51100000000E-03 0.  1.
        -12    1    3    3    0    0  0.95593104638E+00 -0.47716421303E+01  0.18541179742E+02  0.19169186707E+02  0.00000000000E+00 0.  1.
</event>
<event>
 7    1  0.3846293E-008  0.4614232E+02  0.7816164E-02  0.1320468E+00
        -11   -1    0    0    0    0  0.00000000000E+00  0.00000000000E+00  0.45593999997E+02  0.45594000000E+02  0.51100000000E-03 0.  1.
         11   -1    0    0    0    0 -0.00000000000E+00 -0.00000000000E+00 -0.45593999997E+02  0.45594000000E+02  0.51100000000E-03 0. -1.
    9900012    2    1    2    0    0 -0.28564680332E+02  0.18764291019E+01 -0.34780043201E+02  0.46142319256E+02  0.10000013633E+02 0.  0.
        -12    1    1    2    0    0  0.28564680332E+02 -0.18764291019E+01  0.34780043201E+02  0.45045680744E+02  0.00000000000E+00 0.  1.
         11    1    3    3    0    0 -0.82647242061E+00  0.32234978446E+00 -0.15697560720E+01  0.18030808169E+01  0.51100000000E-03 0. -1.
        -11    1    3    3    0    0 -0.24806663943E+02 -0.18239865345E+01 -0.27388277015E+02  0.36997502902E+02  0.51100000000E-03 0.  1.
        -12    1    3    3    0    0 -0.29315439680E+01  0.33780658520E+01 -0.58220101136E+01  0.73417355373E+01  0.00000000000E+00 0.  1.
</event>
<event>
 7    1  0.3846293E-008  0.4614232E+02  0.7816164E-02  0.1320468E+00
        -11   -1    0    0    0    0  0.00000000000E+00  0.00000000000E+00  0.45593999997E+02  0.45594000000E+02  0.51100000000E-03 0.  1.
         11   -1    0    0    0    0 -0.00000000000E+00 -0.00000000000E+00 -0.45593999997E+02  0.45594000000E+02  0.51100000000E-03 0. -1.
    9900012    2    1    2    0    0 -0.35053565341E+02  0.85154902599E+01 -0.26978647120E+02  0.46142318544E+02  0.10000007136E+02 0.  0.
        -12    1    1    2    0    0  0.35053565341E+02 -0.85154902599E+01  0.26978647120E+02  0.45045681456E+02  0.00000000000E+00 0.  1.
         11    1    3    3    0    0 -0.86198839470E+01 -0.21125620416E+01 -0.58118091917E+01  0.10608602358E+02  0.51100000000E-03 0. -1.
        -11    1    3    3    0    0 -0.21719097812E+02  0.82755204634E+01 -0.17875360893E+02  0.29321186470E+02  0.51100000000E-03 0.  1.
         12    1    3    3    0    0 -0.47145835817E+01  0.23525318380E+01 -0.32914770351E+01  0.62125297158E+01  0.00000000000E+00 0. -1.
</event>
<event>
 7    1  0.3846293E-008  0.4614232E+02  0.7816164E-02  0.1320468E+00
        -11   -1    0    0    0    0  0.00000000000E+00  0.00000000000E+00  0.45593999997E+02  0.45594000000E+02  0.51100000000E-03 0. -1.
         11   -1    0    0    0    0 -0.00000000000E+00 -0.00000000000E+00 -0.45593999997E+02  0.45594000000E+02  0.51100000000E-03 0.  1.
    9900012    2    1    2    0    0  0.88547175722E+01  0.42687482823E+02  0.11335187750E+02  0.46142315474E+02  0.99999791485E+01 0.  0.
        -12    1    1    2    0    0 -0.88547175722E+01 -0.42687482823E+02 -0.11335187750E+02  0.45045684526E+02  0.00000000000E+00 0.  1.
         11    1    3    3    0    0  0.81759064908E+01  0.19559990846E+02  0.48950411937E+01  0.21757759935E+02  0.51100000000E-03 0. -1.
        -11    1    3    3    0    0 -0.13465602412E+01  0.82776011367E+01  0.36191047438E+01  0.91339927999E+01  0.51100000000E-03 0.  1.
         12    1    3    3    0    0  0.20253713226E+01  0.14849890840E+02  0.28210418128E+01  0.15250562739E+02  0.00000000000E+00 0. -1.
</event>
<event>
 7    1  0.3846293E-008  0.4614231E+02  0.7816164E-02  0.1320468E+00
        -11   -1    0    0    0    0  0.00000000000E+00  0.00000000000E+00  0.45593999997E+02  0.45594000000E+02  0.51100000000E-03 0. -1.
         11   -1    0    0    0    0 -0.00000000000E+00 -0.00000000000E+00 -0.45593999997E+02  0.45594000000E+02  0.51100000000E-03 0.  1.
    9900012    2    1    2    0    0  0.42076321006E+02 -0.14059907761E+02  0.78112754006E+01  0.46142314091E+02  0.99999665331E+01 0.  0.
        -12    1    1    2    0    0 -0.42076321006E+02  0.14059907761E+02 -0.78112754006E+01  0.45045685909E+02  0.00000000000E+00 0.  1.
         11    1    3    3    0    0  0.12286890930E+02 -0.60120394159E+01 -0.12097158219E+01  0.13732287475E+02  0.51100000000E-03 0.  1.
        -11    1    3    3    0    0  0.14020886831E+01  0.46544489770E-01  0.12657186438E+01  0.18894610372E+01  0.51100000000E-03 0. -1.
        -12    1    3    3    0    0  0.28387341392E+02 -0.80944128353E+01  0.77552725787E+01  0.30520565578E+02  0.00000000000E+00 0.  1.
</event>
<event>
 7    1  0.3846293E-008  0.4614231E+02  0.7816164E-02  0.1320468E+00
        -11   -1    0    0    0    0  0.00000000000E+00  0.00000000000E+00  0.45593999997E+02  0.45594000000E+02  0.51100000000E-03 0. -1.
         11   -1    0    0    0    0 -0.00000000000E+00 -0.00000000000E+00 -0.45593999997E+02  0.45594000000E+02  0.51100000000E-03 0.  1.
    9900012    2    1    2    0    0  0.33315731972E+02  0.26240923423E+02 -0.15185181239E+02  0.46142314433E+02  0.99999696527E+01 0.  0.
        -12    1    1    2    0    0 -0.33315731972E+02 -0.26240923423E+02  0.15185181239E+02  0.45045685567E+02  0.00000000000E+00 0.  1.
         11    1    3    3    0    0  0.89972861019E+01  0.10549394781E+02 -0.53252445652E+01  0.14852579486E+02  0.51100000000E-03 0. -1.
        -11    1    3    3    0    0  0.16673970855E+02  0.13721226556E+02 -0.55504876543E+01  0.22295768113E+02  0.51100000000E-03 0.  1.
        -12    1    3    3    0    0  0.76444750149E+01  0.19703020861E+01 -0.43094490200E+01  0.89939668345E+01  0.00000000000E+00 0.  1.
</event>
<event>
 7    1  0.3846293E-008  0.4614232E+02  0.7816164E-02  0.1320468E+00
        -11   -1    0    0    0    0  0.00000000000E+00  0.00000000000E+00  0.45593999997E+02  0.45594000000E+02  0.51100000000E-03 0.  1.
         11   -1    0    0    0    0 -0.00000000000E+00 -0.00000000000E+00 -0.45593999997E+02  0.45594000000E+02  0.51100000000E-03 0. -1.
    9900012    2    1    2    0    0  0.19133658171E+02  0.30935915719E+02 -0.26570393181E+02  0.46142317075E+02  0.99999937470E+01 0.  0.
        -12    1    1    2    0    0 -0.19133658171E+02 -0.30935915719E+02  0.26570393181E+02  0.45045682925E+02  0.00000000000E+00 0.  1.
         11    1    3    3    0    0  0.10027424922E+02  0.13557985812E+02 -0.14825479286E+02  0.22453575799E+02  0.51100000000E-03 0. -1.
        -11    1    3    3    0    0  0.25295355470E+01  0.33284799923E+01  0.82848396727E-01  0.41814104392E+01  0.51100000000E-03 0.  1.
         12    1    3    3    0    0  0.65766977018E+01  0.14049449915E+02 -0.11827762292E+02  0.19507330838E+02  0.00000000000E+00 0. -1.
</event>
<event>
 7    1  0.3846293E-008  0.4614232E+02  0.7816164E-02  0.1320468E+00
        -11   -1    0    0    0    0  0.00000000000E+00  0.00000000000E+00  0.45593999997E+02  0.45594000000E+02  0.51100000000E-03 0.  1.
         11   -1    0    0    0    0 -0.00000000000E+00 -0.00000000000E+00 -0.45593999997E+02  0.45594000000E+02  0.51100000000E-03 0. -1.
    9900012    2    1    2    0    0  0.31796183017E+02  0.20065825955E+01 -0.31844778233E+02  0.46142317312E+02  0.99999959032E+01 0.  0.
        -12    1    1    2    0    0 -0.31796183017E+02 -0.20065825955E+01  0.31844778233E+02  0.45045682688E+02  0.00000000000E+00 0.  1.
         11    1    3    3    0    0  0.13370220725E+02  0.28481439315E+01 -0.14917384592E+02  0.20233711706E+02  0.51100000000E-03 0. -1.
        -11    1    3    3    0    0  0.14347837167E+02 -0.16650758468E+01 -0.16166385647E+02  0.21679135917E+02  0.51100000000E-03 0.  1.
        -12    1    3    3    0    0  0.40781251247E+01  0.82351451084E+00 -0.76100799400E+00  0.42294696889E+01  0.00000000000E+00 0.  1.
</event>
<event>
 7    1  0.3846293E-008  0.4614232E+02  0.7816164E-02  0.1320468E+00
        -11   -1    0    0    0    0  0.00000000000E+00  0.00000000000E+00  0.45593999997E+02  0.45594000000E+02  0.51100000000E-03 0. -1.
         11   -1    0    0    0    0 -0.00000000000E+00 -0.00000000000E+00 -0.45593999997E+02  0.45594000000E+02  0.51100000000E-03 0.  1.
    9900012    2    1    2    0    0 -0.44078504576E+02 -0.41657170849E+00  0.92749853084E+01  0.46142318185E+02  0.10000003868E+02 0.  0.
        -12    1    1    2    0    0  0.44078504576E+02  0.41657170849E+00 -0.92749853084E+01  0.45045681815E+02  0.00000000000E+00 0.  1.
         11    1    3    3    0    0 -0.25971630934E+02  0.10989404610E+01  0.16334210951E+01  0.26046138836E+02  0.51100000000E-03 0. -1.
        -11    1    3    3    0    0 -0.14443889141E+02  0.35539456223E+00  0.55072532097E+01  0.15462279166E+02  0.51100000000E-03 0.  1.
         12    1    3    3    0    0 -0.36629845010E+01 -0.18709067317E+01  0.21343110035E+01  0.46339001838E+01  0.00000000000E+00 0. -1.
</event>
<event>
 7    1  0.3846293E-008  0.4614232E+02  0.7816164E-02  0.1320468E+00
        -11   -1    0    0    0    0  0.00000000000E+00  0.00000000000E+00  0.45593999997E+02  0.45594000000E+02  0.51100000000E-03 0. -1.
         11   -1    0    0    0    0 -0.00000000000E+00 -0.00000000000E+00 -0.45593999997E+02  0.45594000000E+02  0.51100000000E-03 0.  1.
    9900012    2    1    2    0    0  0.37404296272E+01  0.35228491655E+02  0.27822221219E+02  0.46142318390E+02  0.10000005736E+02 0.  0.
        -12    1    1    2    0    0 -0.37404296272E+01 -0.35228491655E+02 -0.27822221219E+02  0.45045681610E+02  0.00000000000E+00 0.  1.
         11    1    3    3    0    0  0.26659175322E+00  0.21224757046E+02  0.20040716836E+02  0.29192322867E+02  0.51100000000E-03 0. -1.
        -11    1    3    3    0    0  0.11690600511E+01  0.82796794982E+01  0.66334927150E+01  0.10673472718E+02  0.51100000000E-03 0.  1.
        -12    1    3    3    0    0  0.23047778228E+01  0.57240551113E+01  0.11480116681E+01  0.62765228049E+01  0.00000000000E+00 0.  1.
</event>
<event>
 7    1  0.3846293E-008  0.4614232E+02  0.7816164E-02  0.1320468E+00
        -11   -1    0    0    0    0  0.00000000000E+00  0.00000000000E+00  0.45593999997E+02  0.45594000000E+02  0.51100000000E-03 0.  1.
         11   -1    0    0    0    0 -0.00000000000E+00 -0.00000000000E+00 -0.45593999997E+02  0.45594000000E+02  0.51100000000E-03 0. -1.
    9900012    2    1    2    0    0 -0.13821099949E+02  0.33545576729E+02 -0.26698032659E+02  0.46142317968E+02  0.10000001883E+02 0.  0.
        -12    1    1    2    0    0  0.13821099949E+02 -0.33545576729E+02  0.26698032659E+02  0.45045682032E+02  0.00000000000E+00 0.  1.
         11    1    3    3    0    0 -0.12409093330E+02  0.30064445025E+02 -0.26247358690E+02  0.41794500720E+02  0.51100000000E-03 0. -1.
        -11    1    3    3    0    0  0.34180077052E-01 -0.12523151598E+00 -0.44368456433E+00  0.46228504627E+00  0.51100000000E-03 0.  1.
         12    1    3    3    0    0 -0.14461866960E+01  0.36063632206E+01 -0.69894041991E-02  0.38855322017E+01  0.00000000000E+00 0. -1.
</event>
<event>
 7    1  0.3846293E-008  0.4614232E+02  0.7816164E-02  0.1320468E+00
        -11   -1    0    0    0    0  0.00000000000E+00  0.00000000000E+00  0.45593999997E+02  0.45594000000E+02  0.51100000000E-03 0.  1.
         11   -1    0    0    0    0 -0.00000000000E+00 -0.00000000000E+00 -0.45593999997E+02  0.45594000000E+02  0.51100000000E-03 0. -1.
    9900012    2    1    2    0    0  0.63217814397E+01  0.11811433171E+01 -0.44584228853E+02  0.46142317826E+02  0.10000000590E+02 0.  0.
        -12    1    1    2    0    0 -0.63217814397E+01 -0.11811433171E+01  0.44584228853E+02  0.45045682174E+02  0.00000000000E+00 0.  1.
         11    1    3    3    0    0  0.18685389158E+01 -0.19906240043E+01 -0.80705159450E+01  0.85198151087E+01  0.51100000000E-03 0. -1.
        -11    1    3    3    0    0  0.11842037453E+01  0.16816784948E+01 -0.18294851080E+01  0.27527072296E+01  0.51100000000E-03 0.  1.
         12    1    3    3    0    0  0.32690387786E+01  0.14900888266E+01 -0.34684227800E+02  0.34869795488E+02  0.00000000000E+00 0. -1.
</event>
<event>
 7    1  0.3846293E-008  0.4614232E+02  0.7816164E-02  0.1320468E+00
        -11   -1    0    0    0    0  0.00000000000E+00  0.00000000000E+00  0.45593999997E+02  0.45594000000E+02  0.51100000000E-03 0.  1.
         11   -1    0    0    0    0 -0.00000000000E+00 -0.00000000000E+00 -0.45593999997E+02  0.45594000000E+02  0.51100000000E-03 0. -1.
    9900012    2    1    2    0    0  0.37203989975E+01  0.17093477268E+01 -0.44859228042E+02  0.46142316757E+02  0.99999908411E+01 0.  0.
        -12    1    1    2    0    0 -0.37203989975E+01 -0.17093477268E+01  0.44859228042E+02  0.45045683243E+02  0.00000000000E+00 0.  1.
         11    1    3    3    0    0  0.34630034499E+01 -0.13418166582E+00 -0.41301217916E+02  0.41446362919E+02  0.51100000000E-03 0. -1.
        -11    1    3    3    0    0 -0.83960272321E+00  0.86996698280E-02 -0.54284653915E+00  0.99984550970E+00  0.51100000000E-03 0.  1.
         12    1    3    3    0    0  0.10969982708E+01  0.18348297228E+01 -0.30151635866E+01  0.36961083279E+01  0.00000000000E+00 0. -1.
</event>
<event>
 7    1  0.3846293E-008  0.4614232E+02  0.7816164E-02  0.1320468E+00
        -11   -1    0    0    0    0  0.00000000000E+00  0.00000000000E+00  0.45593999997E+02  0.45594000000E+02  0.51100000000E-03 0.  1.
         11   -1    0    0    0    0 -0.00000000000E+00 -0.00000000000E+00 -0.45593999997E+02  0.45594000000E+02  0.51100000000E-03 0. -1.
    9900012    2    1    2    0    0 -0.10613922456E+02  0.43541612857E+02  0.45371731684E+01  0.46142319403E+02  0.10000014972E+02 0.  0.
        -12    1    1    2    0    0  0.10613922456E+02 -0.43541612857E+02 -0.45371731684E+01  0.45045680597E+02  0.00000000000E+00 0.  1.
         11    1    3    3    0    0 -0.75220610694E+01  0.25724052254E+02  0.19108181747E+01  0.26869303926E+02  0.51100000000E-03 0. -1.
        -11    1    3    3    0    0 -0.63344712481E+00  0.35411060951E+01 -0.19357440896E+01  0.40850695316E+01  0.51100000000E-03 0.  1.
        -12    1    3    3    0    0 -0.24584142622E+01  0.14276454508E+02  0.45620990834E+01  0.15187945945E+02  0.00000000000E+00 0.  1.
</event>
<event>
 7    1  0.3846293E-008  0.4614232E+02  0.7816164E-02  0.1320468E+00
        -11   -1    0    0    0    0  0.00000000000E+00  0.00000000000E+00  0.45593999997E+02  0.45594000000E+02  0.51100000000E-03 0.  1.
         11   -1    0    0    0    0 -0.00000000000E+00 -0.00000000000E+00 -0.45593999997E+02  0.45594000000E+02  0.51100000000E-03 0. -1.
    9900012    2    1    2    0    0  0.30603041904E+02  0.20547628824E+02 -0.25891348927E+02  0.46142321258E+02  0.10000031885E+02 0.  0.
        -12    1    1    2    0    0 -0.30603041904E+02 -0.20547628824E+02  0.25891348927E+02  0.45045678742E+02  0.00000000000E+00 0.  1.
         11    1    3    3    0    0  0.12831305177E+02  0.13039780496E+02 -0.14258146347E+02  0.23194245093E+02  0.51100000000E-03 0. -1.
        -11    1    3    3    0    0  0.91220042999E+01  0.54210747131E+01 -0.82016168160E+01  0.13411395608E+02  0.51100000000E-03 0.  1.
        -12    1    3    3    0    0  0.86497324272E+01  0.20867736151E+01 -0.34315857636E+01  0.95366805564E+01  0.00000000000E+00 0.  1.
</event>
<event>
 7    1  0.3846293E-008  0.4614232E+02  0.7816164E-02  0.1320468E+00
        -11   -1    0    0    0    0  0.00000000000E+00  0.00000000000E+00  0.45593999997E+02  0.45594000000E+02  0.51100000000E-03 0.  1.
         11   -1    0    0    0    0 -0.00000000000E+00 -0.00000000000E+00 -0.45593999997E+02  0.45594000000E+02  0.51100000000E-03 0. -1.
    9900012    2    1    2    0    0 -0.58744838717E+01 -0.89254988017E+00 -0.44652066425E+02  0.46142320495E+02  0.10000024928E+02 0.  0.
        -12    1    1    2    0    0  0.58744838717E+01  0.89254988017E+00  0.44652066425E+02  0.45045679505E+02  0.00000000000E+00 0.  1.
         11    1    3    3    0    0 -0.21218104682E+01 -0.18498155973E+01 -0.86586364322E+01  0.91047175977E+01  0.51100000000E-03 0. -1.
        -11    1    3    3    0    0 -0.38769040389E+01 -0.28202445288E+01 -0.16557992847E+02  0.17238076793E+02  0.51100000000E-03 0.  1.
         12    1    3    3    0    0  0.12423063538E+00  0.37775102459E+01 -0.19435437145E+02  0.19799526104E+02  0.00000000000E+00 0. -1.
</event>
<event>
 7    1  0.3846293E-008  0.4614232E+02  0.7816164E-02  0.1320468E+00
        -11   -1    0    0    0    0  0.00000000000E+00  0.00000000000E+00  0.45593999997E+02  0.45594000000E+02  0.51100000000E-03 0.  1.
         11   -1    0    0    0    0 -0.00000000000E+00 -0.00000000000E+00 -0.45593999997E+02  0.45594000000E+02  0.51100000000E-03 0. -1.
    9900012    2    1    2    0    0 -0.41388071947E+02 -0.12613731862E+02 -0.12531351115E+02  0.46142317723E+02  0.99999996561E+01 0.  0.
        -12    1    1    2    0    0  0.41388071947E+02  0.12613731862E+02  0.12531351115E+02  0.45045682277E+02  0.00000000000E+00 0.  1.
         11    1    3    3    0    0 -0.13870842163E+02 -0.96525470722E+00 -0.30367397127E+01  0.14232138536E+02  0.51100000000E-03 0. -1.
        -11    1    3    3    0    0 -0.24365594367E+02 -0.11331535842E+02 -0.10059167280E+02  0.28692729741E+02  0.51100000000E-03 0.  1.
        -12    1    3    3    0    0 -0.31516354172E+01 -0.31694131274E+00  0.56455587732E+00  0.32174494460E+01  0.00000000000E+00 0.  1.
</event>
<event>
 7    1  0.3846293E-008  0.4614232E+02  0.7816164E-02  0.1320468E+00
        -11   -1    0    0    0    0  0.00000000000E+00  0.00000000000E+00  0.45593999997E+02  0.45594000000E+02  0.51100000000E-03 0. -1.
         11   -1    0    0    0    0 -0.00000000000E+00 -0.00000000000E+00 -0.45593999997E+02  0.45594000000E+02  0.51100000000E-03 0.  1.
    9900012    2    1    2    0    0 -0.22942625757E+02 -0.22605117057E+02  0.31492190767E+02  0.46142317931E+02  0.10000001548E+02 0.  0.
        -12    1    1    2    0    0  0.22942625757E+02  0.22605117057E+02 -0.31492190767E+02  0.45045682069E+02  0.00000000000E+00 0.  1.
         11    1    3    3    0    0 -0.93550181227E+01 -0.48148738003E+01  0.88406443503E+01  0.13742502195E+02  0.51100000000E-03 0. -1.
        -11    1    3    3    0    0 -0.16465456497E+01 -0.56299128381E+00  0.39190542798E+01  0.42880133478E+01  0.51100000000E-03 0.  1.
        -12    1    3    3    0    0 -0.11941061984E+02 -0.17227251973E+02  0.18732492137E+02  0.28111802388E+02  0.00000000000E+00 0.  1.
</event>
<event>
 7    1  0.3846293E-008  0.4614232E+02  0.7816164E-02  0.1320468E+00
        -11   -1    0    0    0    0  0.00000000000E+00  0.00000000000E+00  0.45593999997E+02  0.45594000000E+02  0.51100000000E-03 0.  1.
         11   -1    0    0    0    0 -0.00000000000E+00 -0.00000000000E+00 -0.45593999997E+02  0.45594000000E+02  0.51100000000E-03 0. -1.
    9900012    2    1    2    0    0 -0.38498456638E+02  0.12250691888E+02 -0.19922421298E+02  0.46142317792E+02  0.10000000284E+02 0.  0.
        -12    1    1    2    0    0  0.38498456638E+02 -0.12250691888E+02  0.19922421298E+02  0.45045682208E+02  0.00000000000E+00 0.  1.
         11    1    3    3    0    0 -0.17631543103E+02  0.90873843769E+01 -0.84093718070E+01  0.21544591002E+02  0.51100000000E-03 0. -1.
        -11    1    3    3    0    0 -0.40466134352E-01 -0.42905895706E+00 -0.78786327400E+00  0.89803000858E+00  0.51100000000E-03 0.  1.
         12    1    3    3    0    0 -0.20826447400E+02  0.35923664679E+01 -0.10725186217E+02  0.23699696781E+02  0.00000000000E+00 0. -1.
</event>
<event>
 7    1  0.3846293E-008  0.4614232E+02  0.7816164E-02  0.1320468E+00
        -11   -1    0    0    0    0  0.00000000000E+00  0.00000000000E+00  0.45593999997E+02  0.45594000000E+02  0.51100000000E-03 0.  1.
         11   -1    0    0    0    0 -0.00000000000E+00 -0.00000000000E+00 -0.45593999997E+02  0.45594000000E+02  0.51100000000E-03 0. -1.
    9900012    2    1    2    0    0 -0.26903964646E+02  0.72537173313E+01 -0.35393131354E+02  0.46142317900E+02  0.10000001267E+02 0.  0.
        -12    1    1    2    0    0  0.26903964646E+02 -0.72537173313E+01  0.35393131354E+02  0.45045682100E+02  0.00000000000E+00 0.  1.
         11    1    3    3    0    0 -0.94259045306E+01  0.18381014477E+01 -0.83130020876E+01  0.12701665132E+02  0.51100000000E-03 0.  1.
        -11    1    3    3    0    0 -0.15594848650E+01  0.16923663126E+01 -0.69970718703E+00  0.24053455446E+01  0.51100000000E-03 0. -1.
         12    1    3    3    0    0 -0.15918575251E+02  0.37232495710E+01 -0.26380422079E+02  0.31035307224E+02  0.00000000000E+00 0. -1.
</event>
<event>
 7    1  0.3846293E-008  0.4614232E+02  0.7816164E-02  0.1320468E+00
        -11   -1    0    0    0    0  0.00000000000E+00  0.00000000000E+00  0.45593999997E+02  0.45594000000E+02  0.51100000000E-03 0. -1.
         11   -1    0    0    0    0 -0.00000000000E+00 -0.00000000000E+00 -0.45593999997E+02  0.45594000000E+02  0.51100000000E-03 0.  1.
    9900012    2    1    2    0    0 -0.13797309264E+01 -0.39253381805E+02  0.22054064235E+02  0.46142318855E+02  0.10000009976E+02 0.  0.
        -12    1    1    2    0    0  0.13797309264E+01  0.39253381805E+02 -0.22054064235E+02  0.45045681145E+02  0.00000000000E+00 0.  1.
         11    1    3    3    0    0 -0.39414335312E+01 -0.13652565086E+02  0.61172750763E+01  0.15470891582E+02  0.51100000000E-03 0. -1.
        -11    1    3    3    0    0  0.13435801815E+01 -0.22878891098E+02  0.12443897732E+02  0.26078716544E+02  0.51100000000E-03 0.  1.
        -12    1    3    3    0    0  0.12181224233E+01 -0.27219256206E+01  0.34928914268E+01  0.45927107291E+01  0.00000000000E+00 0.  1.
</event>
<event>
 7    1  0.3846293E-008  0.4614232E+02  0.7816164E-02  0.1320468E+00
        -11   -1    0    0    0    0  0.00000000000E+00  0.00000000000E+00  0.45593999997E+02  0.45594000000E+02  0.51100000000E-03 0. -1.
         11   -1    0    0    0    0 -0.00000000000E+00 -0.00000000000E+00 -0.45593999997E+02  0.45594000000E+02  0.51100000000E-03 0.  1.
    9900012    2    1    2    0    0  0.13365680562E+02  0.34188021461E+02  0.26108450645E+02  0.46142318483E+02  0.10000006581E+02 0.  0.
        -12    1    1    2    0    0 -0.13365680562E+02 -0.34188021461E+02 -0.26108450645E+02  0.45045681517E+02  0.00000000000E+00 0.  1.
         11    1    3    3    0    0 -0.39380381211E+00  0.40877376013E+01  0.11527651802E+01  0.42653895439E+01  0.51100000000E-03 0. -1.
        -11    1    3    3    0    0  0.16208527985E+01  0.14033190510E+01  0.32870549006E+01  0.39244360530E+01  0.51100000000E-03 0.  1.
         12    1    3    3    0    0  0.12138631576E+02  0.28696964808E+02  0.21668630564E+02  0.37952492886E+02  0.00000000000E+00 0. -1.
</event>
<event>
 7    1  0.3846293E-008  0.4614232E+02  0.7816164E-02  0.1320468E+00
        -11   -1    0    0    0    0  0.00000000000E+00  0.00000000000E+00  0.45593999997E+02  0.45594000000E+02  0.51100000000E-03 0.  1.
         11   -1    0    0    0    0 -0.00000000000E+00 -0.00000000000E+00 -0.45593999997E+02  0.45594000000E+02  0.51100000000E-03 0. -1.
    9900012    2    1    2    0    0  0.36357095132E+02  0.21147331757E+02 -0.16126540917E+02  0.46142319532E+02  0.10000016147E+02 0.  0.
        -12    1    1    2    0    0 -0.36357095132E+02 -0.21147331757E+02  0.16126540917E+02  0.45045680468E+02  0.00000000000E+00 0.  1.
         11    1    3    3    0    0  0.14771201646E+02  0.13049260136E+02 -0.72579639976E+01  0.21003562313E+02  0.51100000000E-03 0. -1.
        -11    1    3    3    0    0  0.25863994942E+01 -0.37317140896E+00 -0.26234680497E+00  0.26263178313E+01  0.51100000000E-03 0.  1.
        -12    1    3    3    0    0  0.18999493992E+02  0.84712430303E+01 -0.86062301141E+01  0.22512439388E+02  0.00000000000E+00 0.  1.
</event>
<event>
 7    1  0.3846293E-008  0.4614232E+02  0.7816164E-02  0.1320468E+00
        -11   -1    0    0    0    0  0.00000000000E+00  0.00000000000E+00  0.45593999997E+02  0.45594000000E+02  0.51100000000E-03 0.  1.
         11   -1    0    0    0    0 -0.00000000000E+00 -0.00000000000E+00 -0.45593999997E+02  0.45594000000E+02  0.51100000000E-03 0. -1.
    9900012    2    1    2    0    0 -0.12568315579E+02 -0.34920997865E+02 -0.25527921359E+02  0.46142318550E+02  0.10000007191E+02 0.  0.
        -12    1    1    2    0    0  0.12568315579E+02  0.34920997865E+02  0.25527921359E+02  0.45045681450E+02  0.00000000000E+00 0.  1.
         11    1    3    3    0    0 -0.63183824542E+01 -0.76546493784E+01 -0.37560624832E+01  0.10612427601E+02  0.51100000000E-03 0. -1.
        -11    1    3    3    0    0 -0.31581638367E+01 -0.15151065680E+02 -0.13505172542E+02  0.20540654218E+02  0.51100000000E-03 0.  1.
        -12    1    3    3    0    0 -0.30917692880E+01 -0.12115282807E+02 -0.82666863339E+01  0.14989236731E+02  0.00000000000E+00 0.  1.
</event>
<event>
 7    1  0.3846293E-008  0.4614232E+02  0.7816164E-02  0.1320468E+00
        -11   -1    0    0    0    0  0.00000000000E+00  0.00000000000E+00  0.45593999997E+02  0.45594000000E+02  0.51100000000E-03 0.  1.
         11   -1    0    0    0    0 -0.00000000000E+00 -0.00000000000E+00 -0.45593999997E+02  0.45594000000E+02  0.51100000000E-03 0. -1.
    9900012    2    1    2    0    0  0.43898934847E+02 -0.93416665790E+01 -0.38379996520E+01  0.46142318115E+02  0.10000003227E+02 0.  0.
        -12    1    1    2    0    0 -0.43898934847E+02  0.93416665790E+01  0.38379996520E+01  0.45045681885E+02  0.00000000000E+00 0.  1.
         11    1    3    3    0    0  0.90550773742E+01 -0.21144680158E+01 -0.37502177511E+01  0.10026441776E+02  0.51100000000E-03 0. -1.
        -11    1    3    3    0    0  0.69905282838E+01 -0.27969945463E+00  0.21581626206E+01  0.73214331677E+01  0.51100000000E-03 0.  1.
         12    1    3    3    0    0  0.27853329189E+02 -0.69474991086E+01 -0.22459445216E+01  0.28794443171E+02  0.00000000000E+00 0. -1.
</event>
<event>
 7    1  0.3846293E-008  0.4614232E+02  0.7816164E-02  0.1320468E+00
        -11   -1    0    0    0    0  0.00000000000E+00  0.00000000000E+00  0.45593999997E+02  0.45594000000E+02  0.51100000000E-03 0.  1.
         11   -1    0    0    0    0 -0.00000000000E+00 -0.00000000000E+00 -0.45593999997E+02  0.45594000000E+02  0.51100000000E-03 0. -1.
    9900012    2    1    2    0    0 -0.28894074983E+02 -0.29980388877E+02 -0.17187850955E+02  0.46142317556E+02  0.99999981332E+01 0.  0.
        -12    1    1    2    0    0  0.28894074983E+02  0.29980388877E+02  0.17187850955E+02  0.45045682444E+02  0.00000000000E+00 0.  1.
         11    1    3    3    0    0 -0.10581478396E+02 -0.15903655970E+02 -0.84920975751E+01  0.20904776481E+02  0.51100000000E-03 0. -1.
        -11    1    3    3    0    0 -0.64912132320E+01 -0.75935199612E+01 -0.20167419878E+01  0.10191400450E+02  0.51100000000E-03 0.  1.
         12    1    3    3    0    0 -0.11821383355E+02 -0.64832129463E+01 -0.66790113919E+01  0.15046140625E+02  0.00000000000E+00 0. -1.
</event>
<event>
 7    1  0.3846293E-008  0.4614232E+02  0.7816164E-02  0.1320468E+00
        -11   -1    0    0    0    0  0.00000000000E+00  0.00000000000E+00  0.45593999997E+02  0.45594000000E+02  0.51100000000E-03 0. -1.
         11   -1    0    0    0    0 -0.00000000000E+00 -0.00000000000E+00 -0.45593999997E+02  0.45594000000E+02  0.51100000000E-03 0.  1.
    9900012    2    1    2    0    0 -0.20259136522E+02 -0.37737074502E+02  0.13949698899E+02  0.46142317588E+02  0.99999984230E+01 0.  0.
        -12    1    1    2    0    0  0.20259136522E+02  0.37737074502E+02 -0.13949698899E+02  0.45045682412E+02  0.00000000000E+00 0.  1.
         11    1    3    3    0    0 -0.10368411592E+02 -0.15202084250E+02  0.81488917734E+01  0.20124904022E+02  0.51100000000E-03 0. -1.
        -11    1    3    3    0    0 -0.73790142289E+01 -0.19157282087E+02  0.69160605606E+01  0.21662945365E+02  0.51100000000E-03 0.  1.
        -12    1    3    3    0    0 -0.25117107010E+01 -0.33777081652E+01 -0.11152534352E+01  0.43544682017E+01  0.00000000000E+00 0.  1.
</event>
<event>
 7    1  0.3846293E-008  0.4614232E+02  0.7816164E-02  0.1320468E+00
        -11   -1    0    0    0    0  0.00000000000E+00  0.00000000000E+00  0.45593999997E+02  0.45594000000E+02  0.51100000000E-03 0. -1.
         11   -1    0    0    0    0 -0.00000000000E+00 -0.00000000000E+00 -0.45593999997E+02  0.45594000000E+02  0.51100000000E-03 0.  1.
    9900012    2    1    2    0    0 -0.19934491251E+02 -0.36214306483E+02  0.17895630253E+02  0.46142317436E+02  0.99999970362E+01 0.  0.
        -12    1    1    2    0    0  0.19934491251E+02  0.36214306483E+02 -0.17895630253E+02  0.45045682564E+02  0.00000000000E+00 0.  1.
         11    1    3    3    0    0 -0.10656189139E+02 -0.16473029977E+02  0.11558325669E+02  0.22770814130E+02  0.51100000000E-03 0. -1.
        -11    1    3    3    0    0 -0.32598327231E+01 -0.47348036677E+01 -0.59596368451E+00  0.57792774746E+01  0.51100000000E-03 0.  1.
        -12    1    3    3    0    0 -0.60184693885E+01 -0.15006472838E+02  0.69332682692E+01  0.17592225832E+02  0.00000000000E+00 0.  1.
</event>
<event>
 7    1  0.3846293E-008  0.4614232E+02  0.7816164E-02  0.1320468E+00
        -11   -1    0    0    0    0  0.00000000000E+00  0.00000000000E+00  0.45593999997E+02  0.45594000000E+02  0.51100000000E-03 0.  1.
         11   -1    0    0    0    0 -0.00000000000E+00 -0.00000000000E+00 -0.45593999997E+02  0.45594000000E+02  0.51100000000E-03 0. -1.
    9900012    2    1    2    0    0  0.37604108656E+02 -0.23427764352E+02 -0.81353623784E+01  0.46142320392E+02  0.10000023992E+02 0.  0.
        -12    1    1    2    0    0 -0.37604108656E+02  0.23427764352E+02  0.81353623784E+01  0.45045679608E+02  0.00000000000E+00 0.  1.
         11    1    3    3    0    0  0.27792945054E+02 -0.18113739175E+02 -0.63310687671E+01  0.33773329325E+02  0.51100000000E-03 0. -1.
        -11    1    3    3    0    0  0.17146672261E+01 -0.31534775471E+01 -0.17398512148E+01  0.39889330462E+01  0.51100000000E-03 0.  1.
        -12    1    3    3    0    0  0.80964963753E+01 -0.21605476301E+01 -0.64442396479E-01  0.83800580213E+01  0.00000000000E+00 0.  1.
</event>
<event>
 7    1  0.3846293E-008  0.4614232E+02  0.7816164E-02  0.1320468E+00
        -11   -1    0    0    0    0  0.00000000000E+00  0.00000000000E+00  0.45593999997E+02  0.45594000000E+02  0.51100000000E-03 0. -1.
         11   -1    0    0    0    0 -0.00000000000E+00 -0.00000000000E+00 -0.45593999997E+02  0.45594000000E+02  0.51100000000E-03 0.  1.
    9900012    2    1    2    0    0  0.11115673880E+02 -0.22572559176E+02  0.37363549717E+02  0.46142317843E+02  0.10000000745E+02 0.  0.
        -12    1    1    2    0    0 -0.11115673880E+02  0.22572559176E+02 -0.37363549717E+02  0.45045682157E+02  0.00000000000E+00 0.  1.
         11    1    3    3    0    0  0.52846057575E+01 -0.40866470717E+01  0.91655494245E+01  0.11341738791E+02  0.51100000000E-03 0. -1.
        -11    1    3    3    0    0 -0.10107862003E+01 -0.47755173435E+00  0.12815882600E+01  0.17006507963E+01  0.51100000000E-03 0.  1.
         12    1    3    3    0    0  0.68418543229E+01 -0.18008360370E+02  0.26916412033E+02  0.33099928255E+02  0.00000000000E+00 0. -1.
</event>
<event>
 7    1  0.3846293E-008  0.4614232E+02  0.7816164E-02  0.1320468E+00
        -11   -1    0    0    0    0  0.00000000000E+00  0.00000000000E+00  0.45593999997E+02  0.45594000000E+02  0.51100000000E-03 0.  1.
         11   -1    0    0    0    0 -0.00000000000E+00 -0.00000000000E+00 -0.45593999997E+02  0.45594000000E+02  0.51100000000E-03 0. -1.
    9900012    2    1    2    0    0  0.17372367691E+02  0.94411059716E+00 -0.41550245790E+02  0.46142318417E+02  0.10000005985E+02 0.  0.
        -12    1    1    2    0    0 -0.17372367691E+02 -0.94411059716E+00  0.41550245790E+02  0.45045681583E+02  0.00000000000E+00 0.  1.
         11    1    3    3    0    0  0.12645081391E+02 -0.15771747720E+01 -0.31625611256E+02  0.34096405254E+02  0.51100000000E-03 0. -1.
        -11    1    3    3    0    0  0.27979923531E+01  0.17055358881E+01 -0.92995298772E+01  0.98599629853E+01  0.51100000000E-03 0.  1.
        -12    1    3    3    0    0  0.19292939473E+01  0.81574948104E+00 -0.62510465690E+00  0.21859501785E+01  0.00000000000E+00 0.  1.
</event>
<event>
 7    1  0.3846293E-008  0.4614232E+02  0.7816164E-02  0.1320468E+00
        -11   -1    0    0    0    0  0.00000000000E+00  0.00000000000E+00  0.45593999997E+02  0.45594000000E+02  0.51100000000E-03 0.  1.
         11   -1    0    0    0    0 -0.00000000000E+00 -0.00000000000E+00 -0.45593999997E+02  0.45594000000E+02  0.51100000000E-03 0. -1.
    9900012    2    1    2    0    0 -0.44308439185E+02  0.74053025342E+01  0.33222135983E+01  0.46142318833E+02  0.10000009773E+02 0.  0.
        -12    1    1    2    0    0  0.44308439185E+02 -0.74053025342E+01 -0.33222135983E+01  0.45045681167E+02  0.00000000000E+00 0.  1.
         11    1    3    3    0    0 -0.16978433119E+02 -0.21549178707E+00  0.26291033956E+00  0.16981835884E+02  0.51100000000E-03 0. -1.
        -11    1    3    3    0    0 -0.63371455087E+01  0.40258393042E+01  0.22856315656E+01  0.78479874629E+01  0.51100000000E-03 0.  1.
        -12    1    3    3    0    0 -0.20992860557E+02  0.35949550171E+01  0.77367169312E+00  0.21312495486E+02  0.00000000000E+00 0.  1.
</event>
<event>
 7    1  0.3846293E-008  0.4614232E+02  0.7816164E-02  0.1320468E+00
        -11   -1    0    0    0    0  0.00000000000E+00  0.00000000000E+00  0.45593999997E+02  0.45594000000E+02  0.51100000000E-03 0.  1.
         11   -1    0    0    0    0 -0.00000000000E+00 -0.00000000000E+00 -0.45593999997E+02  0.45594000000E+02  0.51100000000E-03 0. -1.
    9900012    2    1    2    0    0 -0.15807707044E+02  0.19169414045E+02 -0.37573443301E+02  0.46142315652E+02  0.99999807699E+01 0.  0.
        -12    1    1    2    0    0  0.15807707044E+02 -0.19169414045E+02  0.37573443301E+02  0.45045684348E+02  0.00000000000E+00 0.  1.
         11    1    3    3    0    0 -0.53467568304E+01  0.72483778085E+01 -0.12715112888E+02  0.15582069358E+02  0.51100000000E-03 0. -1.
        -11    1    3    3    0    0 -0.43123692835E+01  0.95774398989E+01 -0.10946140931E+02  0.15170427990E+02  0.51100000000E-03 0.  1.
        -12    1    3    3    0    0 -0.61485809306E+01  0.23435963378E+01 -0.13912189482E+02  0.15389818305E+02  0.00000000000E+00 0.  1.
</event>
<event>
 7    1  0.3846293E-008  0.4614232E+02  0.7816164E-02  0.1320468E+00
        -11   -1    0    0    0    0  0.00000000000E+00  0.00000000000E+00  0.45593999997E+02  0.45594000000E+02  0.51100000000E-03 0. -1.
         11   -1    0    0    0    0 -0.00000000000E+00 -0.00000000000E+00 -0.45593999997E+02  0.45594000000E+02  0.51100000000E-03 0.  1.
    9900012    2    1    2    0    0  0.22529283498E+02  0.20395290388E+02  0.33250217396E+02  0.46142318278E+02  0.10000004711E+02 0.  0.
        -12    1    1    2    0    0 -0.22529283498E+02 -0.20395290388E+02 -0.33250217396E+02  0.45045681722E+02  0.00000000000E+00 0.  1.
         11    1    3    3    0    0  0.38679907756E+01  0.77522975394E+01  0.13878445413E+02  0.16360645376E+02  0.51100000000E-03 0. -1.
        -11    1    3    3    0    0  0.12243739675E+01  0.31142879990E+00  0.10517378761E+01  0.16438468088E+01  0.51100000000E-03 0.  1.
         12    1    3    3    0    0  0.17436918755E+02  0.12331564048E+02  0.18320034107E+02  0.28137826093E+02  0.00000000000E+00 0. -1.
</event>
<event>
 7    1  0.3846293E-008  0.4614232E+02  0.7816164E-02  0.1320468E+00
        -11   -1    0    0    0    0  0.00000000000E+00  0.00000000000E+00  0.45593999997E+02  0.45594000000E+02  0.51100000000E-03 0.  1.
         11   -1    0    0    0    0 -0.00000000000E+00 -0.00000000000E+00 -0.45593999997E+02  0.45594000000E+02  0.51100000000E-03 0. -1.
    9900012    2    1    2    0    0 -0.22614739344E+02  0.35734326917E+02 -0.15515957071E+02  0.46142317858E+02  0.10000000882E+02 0.  0.
        -12    1    1    2    0    0  0.22614739344E+02 -0.35734326917E+02  0.15515957071E+02  0.45045682142E+02  0.00000000000E+00 0.  1.
         11    1    3    3    0    0 -0.74251095577E+01  0.63067642099E+01 -0.37237865903E+01  0.10429482901E+02  0.51100000000E-03 0. -1.
        -11    1    3    3    0    0 -0.32505220953E+01  0.12547793724E+02 -0.34103927962E+01  0.13403126521E+02  0.51100000000E-03 0.  1.
        -12    1    3    3    0    0 -0.11939107692E+02  0.16879768983E+02 -0.83817776844E+01  0.22309708437E+02  0.00000000000E+00 0.  1.
</event>
<event>
 7    1  0.3846293E-008  0.4614232E+02  0.7816164E-02  0.1320468E+00
        -11   -1    0    0    0    0  0.00000000000E+00  0.00000000000E+00  0.45593999997E+02  0.45594000000E+02  0.51100000000E-03 0.  1.
         11   -1    0    0    0    0 -0.00000000000E+00 -0.00000000000E+00 -0.45593999997E+02  0.45594000000E+02  0.51100000000E-03 0. -1.
    9900012    2    1    2    0    0 -0.36121187411E+02  0.26060300907E+02 -0.67256374994E+01  0.46142315821E+02  0.99999823086E+01 0.  0.
        -12    1    1    2    0    0  0.36121187411E+02 -0.26060300907E+02  0.67256374994E+01  0.45045684179E+02  0.00000000000E+00 0.  1.
         11    1    3    3    0    0 -0.26141872439E+01  0.49771709330E+00  0.76708845553E+00  0.27694985486E+01  0.51100000000E-03 0. -1.
        -11    1    3    3    0    0 -0.65646745613E+01  0.88349665982E+01 -0.17988714448E+01  0.11152915566E+02  0.51100000000E-03 0.  1.
         12    1    3    3    0    0 -0.26942325606E+02  0.16727617216E+02 -0.56938545101E+01  0.32219901706E+02  0.00000000000E+00 0. -1.
</event>
<event>
 7    1  0.3846293E-008  0.4614232E+02  0.7816164E-02  0.1320468E+00
        -11   -1    0    0    0    0  0.00000000000E+00  0.00000000000E+00  0.45593999997E+02  0.45594000000E+02  0.51100000000E-03 0.  1.
         11   -1    0    0    0    0 -0.00000000000E+00 -0.00000000000E+00 -0.45593999997E+02  0.45594000000E+02  0.51100000000E-03 0. -1.
    9900012    2    1    2    0    0 -0.12062766754E+02 -0.13769563010E+02 -0.41158259705E+02  0.46142317086E+02  0.99999938428E+01 0.  0.
        -12    1    1    2    0    0  0.12062766754E+02  0.13769563010E+02  0.41158259705E+02  0.45045682914E+02  0.00000000000E+00 0.  1.
         11    1    3    3    0    0 -0.15980549194E+01 -0.20356795914E+01 -0.21985000574E+01  0.33957581904E+01  0.51100000000E-03 0. -1.
        -11    1    3    3    0    0 -0.54789592597E+00  0.11818366517E+01 -0.31177789480E+01  0.33789752362E+01  0.51100000000E-03 0.  1.
         12    1    3    3    0    0 -0.99168159087E+01 -0.12915720070E+02 -0.35841980700E+02  0.39367583659E+02  0.00000000000E+00 0. -1.
</event>
<event>
 7    1  0.3846293E-008  0.4614232E+02  0.7816164E-02  0.1320468E+00
        -11   -1    0    0    0    0  0.00000000000E+00  0.00000000000E+00  0.45593999997E+02  0.45594000000E+02  0.51100000000E-03 0.  1.
         11   -1    0    0    0    0 -0.00000000000E+00 -0.00000000000E+00 -0.45593999997E+02  0.45594000000E+02  0.51100000000E-03 0. -1.
    9900012    2    1    2    0    0 -0.10854345903E+02  0.64898768038E+01 -0.43233993008E+02  0.46142317884E+02  0.10000001118E+02 0.  0.
        -12    1    1    2    0    0  0.10854345903E+02 -0.64898768038E+01  0.43233993008E+02  0.45045682116E+02  0.00000000000E+00 0.  1.
         11    1    3    3    0    0 -0.18997229216E+01  0.21202161540E+01 -0.32912107370E+01  0.43515896056E+01  0.51100000000E-03 0. -1.
        -11    1    3    3    0    0 -0.44725820308E-01 -0.25690692480E+00  0.25109220549E+00  0.36200707699E+00  0.51100000000E-03 0.  1.
         12    1    3    3    0    0 -0.89098971614E+01  0.46265675745E+01 -0.40193874476E+02  0.41428721201E+02  0.00000000000E+00 0. -1.
</event>
<event>
 7    1  0.3846293E-008  0.4614232E+02  0.7816164E-02  0.1320468E+00
        -11   -1    0    0    0    0  0.00000000000E+00  0.00000000000E+00  0.45593999997E+02  0.45594000000E+02  0.51100000000E-03 0.  1.
         11   -1    0    0    0    0 -0.00000000000E+00 -0.00000000000E+00 -0.45593999997E+02  0.45594000000E+02  0.51100000000E-03 0. -1.
    9900012    2    1    2    0    0 -0.91749052745E+01  0.29236622317E+02 -0.33017487915E+02  0.46142317859E+02  0.10000000893E+02 0.  0.
        -12    1    1    2    0    0  0.91749052745E+01 -0.29236622317E+02  0.33017487915E+02  0.45045682141E+02  0.00000000000E+00 0.  1.
         11    1    3    3    0    0  0.11668004409E+01  0.45294417394E+01 -0.81043833364E+01  0.93572589611E+01  0.51100000000E-03 0. -1.
        -11    1    3    3    0    0 -0.46193311499E+01  0.94282828486E+01 -0.73688832933E+01  0.12826970765E+02  0.51100000000E-03 0.  1.
         12    1    3    3    0    0 -0.57223745655E+01  0.15278897729E+02 -0.17544221286E+02  0.23958088133E+02  0.00000000000E+00 0. -1.
</event>
<event>
 7    1  0.3846293E-008  0.4614232E+02  0.7816164E-02  0.1320468E+00
        -11   -1    0    0    0    0  0.00000000000E+00  0.00000000000E+00  0.45593999997E+02  0.45594000000E+02  0.51100000000E-03 0.  1.
         11   -1    0    0    0    0 -0.00000000000E+00 -0.00000000000E+00 -0.45593999997E+02  0.45594000000E+02  0.51100000000E-03 0. -1.
    9900012    2    1    2    0    0  0.10795972165E+02  0.34631193955E+02 -0.26706571497E+02  0.46142316845E+02  0.99999916504E+01 0.  0.
        -12    1    1    2    0    0 -0.10795972165E+02 -0.34631193955E+02  0.26706571497E+02  0.45045683155E+02  0.00000000000E+00 0.  1.
         11    1    3    3    0    0  0.70076804637E+01  0.25693835893E+02 -0.16714293656E+02  0.31442779792E+02  0.51100000000E-03 0. -1.
        -11    1    3    3    0    0 -0.70959580411E+00  0.37776871536E+01 -0.45392123326E+01  0.59480160808E+01  0.51100000000E-03 0.  1.
         12    1    3    3    0    0  0.44978875054E+01  0.51596709085E+01 -0.54530655086E+01  0.87515209727E+01  0.00000000000E+00 0. -1.
</event>
<event>
 7    1  0.3846293E-008  0.4614232E+02  0.7816164E-02  0.1320468E+00
        -11   -1    0    0    0    0  0.00000000000E+00  0.00000000000E+00  0.45593999997E+02  0.45594000000E+02  0.51100000000E-03 0. -1.
         11   -1    0    0    0    0 -0.00000000000E+00 -0.00000000000E+00 -0.45593999997E+02  0.45594000000E+02  0.51100000000E-03 0.  1.
    9900012    2    1    2    0    0  0.22888648060E+02 -0.38750608595E+02  0.19009531895E+01  0.46142317638E+02  0.99999988731E+01 0.  0.
        -12    1    1    2    0    0 -0.22888648060E+02  0.38750608595E+02 -0.19009531895E+01  0.45045682362E+02  0.00000000000E+00 0.  1.
         11    1    3    3    0    0  0.11642811722E+02 -0.22418741269E+02  0.58083632972E+01  0.25920881724E+02  0.51100000000E-03 0.  1.
        -11    1    3    3    0    0  0.28488597917E+01 -0.45298415865E+01 -0.85828325230E+00  0.54196049039E+01  0.51100000000E-03 0. -1.
        -12    1    3    3    0    0  0.83969765461E+01 -0.11802025739E+02 -0.30491268555E+01  0.14801831010E+02  0.00000000000E+00 0.  1.
</event>
<event>
 7    1  0.3846293E-008  0.4614232E+02  0.7816164E-02  0.1320468E+00
        -11   -1    0    0    0    0  0.00000000000E+00  0.00000000000E+00  0.45593999997E+02  0.45594000000E+02  0.51100000000E-03 0.  1.
         11   -1    0    0    0    0 -0.00000000000E+00 -0.00000000000E+00 -0.45593999997E+02  0.45594000000E+02  0.51100000000E-03 0. -1.
    9900012    2    1    2    0    0  0.81970047514E+01 -0.18399983446E+02 -0.40290981501E+02  0.46142317987E+02  0.10000002057E+02 0.  0.
        -12    1    1    2    0    0 -0.81970047514E+01  0.18399983446E+02  0.40290981501E+02  0.45045682013E+02  0.00000000000E+00 0.  1.
         11    1    3    3    0    0 -0.46791699431E-01 -0.46982929533E+01 -0.62176139400E+01  0.77932579520E+01  0.51100000000E-03 0. -1.
        -11    1    3    3    0    0  0.25727888757E+01  0.20493914013E-01 -0.72117444027E+01  0.76569524087E+01  0.51100000000E-03 0.  1.
         12    1    3    3    0    0  0.56710075751E+01 -0.13722184407E+02 -0.26861623159E+02  0.30692107626E+02  0.00000000000E+00 0. -1.
</event>
<event>
 7    1  0.3846293E-008  0.4614232E+02  0.7816164E-02  0.1320468E+00
        -11   -1    0    0    0    0  0.00000000000E+00  0.00000000000E+00  0.45593999997E+02  0.45594000000E+02  0.51100000000E-03 0.  1.
         11   -1    0    0    0    0 -0.00000000000E+00 -0.00000000000E+00 -0.45593999997E+02  0.45594000000E+02  0.51100000000E-03 0. -1.
    9900012    2    1    2    0    0 -0.34550194403E+02 -0.19469682270E+02 -0.21361858311E+02  0.46142318170E+02  0.10000003728E+02 0.  0.
        -12    1    1    2    0    0  0.34550194403E+02  0.19469682270E+02  0.21361858311E+02  0.45045681830E+02  0.00000000000E+00 0.  1.
         11    1    3    3    0    0 -0.15854372970E+02 -0.84328902084E+01 -0.85343449520E+01  0.19882399844E+02  0.51100000000E-03 0. -1.
        -11    1    3    3    0    0 -0.18961418812E+02 -0.96589793435E+01 -0.12846017468E+02  0.24856617839E+02  0.51100000000E-03 0.  1.
        -12    1    3    3    0    0  0.26559737890E+00 -0.13778127183E+01  0.18504108964E-01  0.14033004868E+01  0.00000000000E+00 0.  1.
</event>
<event>
 7    1  0.3846293E-008  0.4614232E+02  0.7816164E-02  0.1320468E+00
        -11   -1    0    0    0    0  0.00000000000E+00  0.00000000000E+00  0.45593999997E+02  0.45594000000E+02  0.51100000000E-03 0.  1.
         11   -1    0    0    0    0 -0.00000000000E+00 -0.00000000000E+00 -0.45593999997E+02  0.45594000000E+02  0.51100000000E-03 0. -1.
    9900012    2    1    2    0    0  0.16694718763E+02  0.23630055786E+02 -0.34525647119E+02  0.46142317854E+02  0.10000000845E+02 0.  0.
        -12    1    1    2    0    0 -0.16694718763E+02 -0.23630055786E+02  0.34525647119E+02  0.45045682146E+02  0.00000000000E+00 0.  1.
         11    1    3    3    0    0  0.53472697108E+01  0.65362935537E+01 -0.76063869120E+01  0.11365454188E+02  0.51100000000E-03 0. -1.
        -11    1    3    3    0    0  0.80969068228E+01  0.11025802720E+02 -0.23251285140E+02  0.26976850940E+02  0.51100000000E-03 0.  1.
        -12    1    3    3    0    0  0.32505422297E+01  0.60679595122E+01 -0.36679750667E+01  0.78000127256E+01  0.00000000000E+00 0.  1.
</event>
<event>
 7    1  0.3846293E-008  0.4614232E+02  0.7816164E-02  0.1320468E+00
        -11   -1    0    0    0    0  0.00000000000E+00  0.00000000000E+00  0.45593999997E+02  0.45594000000E+02  0.51100000000E-03 0.  1.
         11   -1    0    0    0    0 -0.00000000000E+00 -0.00000000000E+00 -0.45593999997E+02  0.45594000000E+02  0.51100000000E-03 0. -1.
    9900012    2    1    2    0    0 -0.31761397813E+02 -0.11754449614E+02 -0.29701179847E+02  0.46142316954E+02  0.99999926406E+01 0.  0.
        -12    1    1    2    0    0  0.31761397813E+02  0.11754449614E+02  0.29701179847E+02  0.45045683046E+02  0.00000000000E+00 0.  1.
         11    1    3    3    0    0 -0.25816584628E+02 -0.71835489378E+01 -0.26624807845E+02  0.37775386302E+02  0.51100000000E-03 0. -1.
        -11    1    3    3    0    0 -0.19959942735E+00 -0.98839838376E+00 -0.46029363878E+00  0.11084411538E+01  0.51100000000E-03 0.  1.
        -12    1    3    3    0    0 -0.57452137582E+01 -0.35825022921E+01 -0.26160783630E+01  0.72584894986E+01  0.00000000000E+00 0.  1.
</event>
<event>
 7    1  0.3846293E-008  0.4614232E+02  0.7816164E-02  0.1320468E+00
        -11   -1    0    0    0    0  0.00000000000E+00  0.00000000000E+00  0.45593999997E+02  0.45594000000E+02  0.51100000000E-03 0.  1.
         11   -1    0    0    0    0 -0.00000000000E+00 -0.00000000000E+00 -0.45593999997E+02  0.45594000000E+02  0.51100000000E-03 0. -1.
    9900012    2    1    2    0    0 -0.49601511930E+01  0.90103506422E+01 -0.43855717310E+02  0.46142318084E+02  0.10000002941E+02 0.  0.
        -12    1    1    2    0    0  0.49601511930E+01 -0.90103506422E+01  0.43855717310E+02  0.45045681916E+02  0.00000000000E+00 0.  1.
         11    1    3    3    0    0 -0.29736112662E+00  0.29864330694E+00 -0.57930986022E+01  0.58084079695E+01  0.51100000000E-03 0. -1.
        -11    1    3    3    0    0 -0.69719078434E+01  0.84509855038E+01 -0.29772316879E+02  0.31724084030E+02  0.51100000000E-03 0.  1.
        -12    1    3    3    0    0  0.23091177769E+01  0.26072183149E+00 -0.82903018291E+01  0.86098260842E+01  0.00000000000E+00 0.  1.
</event>
<event>
 7    1  0.3846293E-008  0.4614232E+02  0.7816164E-02  0.1320468E+00
        -11   -1    0    0    0    0  0.00000000000E+00  0.00000000000E+00  0.45593999997E+02  0.45594000000E+02  0.51100000000E-03 0.  1.
         11   -1    0    0    0    0 -0.00000000000E+00 -0.00000000000E+00 -0.45593999997E+02  0.45594000000E+02  0.51100000000E-03 0. -1.
    9900012    2    1    2    0    0 -0.17322681062E+02 -0.11545654729E+02 -0.39946664760E+02  0.46142318213E+02  0.10000004118E+02 0.  0.
        -12    1    1    2    0    0  0.17322681062E+02  0.11545654729E+02  0.39946664760E+02  0.45045681787E+02  0.00000000000E+00 0.  1.
         11    1    3    3    0    0 -0.73654156511E+01 -0.48706786522E+01 -0.16570089860E+02  0.18776068185E+02  0.51100000000E-03 0. -1.
        -11    1    3    3    0    0 -0.48885572523E+01 -0.18990704813E+01 -0.35004795699E+01  0.63053800982E+01  0.51100000000E-03 0.  1.
         12    1    3    3    0    0 -0.50687081582E+01 -0.47759055951E+01 -0.19876095330E+02  0.21060869930E+02  0.00000000000E+00 0. -1.
</event>
<event>
 7    1  0.3846293E-008  0.4614232E+02  0.7816164E-02  0.1320468E+00
        -11   -1    0    0    0    0  0.00000000000E+00  0.00000000000E+00  0.45593999997E+02  0.45594000000E+02  0.51100000000E-03 0. -1.
         11   -1    0    0    0    0 -0.00000000000E+00 -0.00000000000E+00 -0.45593999997E+02  0.45594000000E+02  0.51100000000E-03 0.  1.
    9900012    2    1    2    0    0  0.31720150842E+02 -0.72608953332E+01  0.31148434377E+02  0.46142317248E+02  0.99999953198E+01 0.  0.
        -12    1    1    2    0    0 -0.31720150842E+02  0.72608953332E+01 -0.31148434377E+02  0.45045682752E+02  0.00000000000E+00 0.  1.
         11    1    3    3    0    0  0.41164377461E+01  0.15197595809E+01  0.59519223604E+01  0.73945999855E+01  0.51100000000E-03 0. -1.
        -11    1    3    3    0    0  0.10484796051E+01 -0.12287764954E+01  0.46190131908E+00  0.16800459064E+01  0.51100000000E-03 0.  1.
         12    1    3    3    0    0  0.26555233490E+02 -0.75518784187E+01  0.24734610698E+02  0.37067671356E+02  0.00000000000E+00 0. -1.
</event>
<event>
 7    1  0.3846293E-008  0.4614232E+02  0.7816164E-02  0.1320468E+00
        -11   -1    0    0    0    0  0.00000000000E+00  0.00000000000E+00  0.45593999997E+02  0.45594000000E+02  0.51100000000E-03 0. -1.
         11   -1    0    0    0    0 -0.00000000000E+00 -0.00000000000E+00 -0.45593999997E+02  0.45594000000E+02  0.51100000000E-03 0.  1.
    9900012    2    1    2    0    0  0.32103701596E+02 -0.96017591272E+01  0.30104352462E+02  0.46142317947E+02  0.10000001693E+02 0.  0.
        -12    1    1    2    0    0 -0.32103701596E+02  0.96017591272E+01 -0.30104352462E+02  0.45045682053E+02  0.00000000000E+00 0.  1.
         11    1    3    3    0    0  0.17075192076E+02 -0.26607682638E+01  0.15663003822E+02  0.23323197919E+02  0.51100000000E-03 0. -1.
        -11    1    3    3    0    0  0.11356134884E+02 -0.47480771984E+01  0.68003111855E+01  0.14062370677E+02  0.51100000000E-03 0.  1.
         12    1    3    3    0    0  0.36723746359E+01 -0.21929136650E+01  0.76410374542E+01  0.87567493504E+01  0.00000000000E+00 0. -1.
</event>
<event>
 7    1  0.3846293E-008  0.4614232E+02  0.7816164E-02  0.1320468E+00
        -11   -1    0    0    0    0  0.00000000000E+00  0.00000000000E+00  0.45593999997E+02  0.45594000000E+02  0.51100000000E-03 0.  1.
         11   -1    0    0    0    0 -0.00000000000E+00 -0.00000000000E+00 -0.45593999997E+02  0.45594000000E+02  0.51100000000E-03 0. -1.
    9900012    2    1    2    0    0 -0.35054497887E+02  0.11746632527E+02 -0.25735428547E+02  0.46142317850E+02  0.10000000814E+02 0.  0.
        -12    1    1    2    0    0  0.35054497887E+02 -0.11746632527E+02  0.25735428547E+02  0.45045682150E+02  0.00000000000E+00 0.  1.
         11    1    3    3    0    0 -0.17743699192E+02  0.94008848720E+01 -0.10658978741E+02  0.22733880563E+02  0.51100000000E-03 0. -1.
        -11    1    3    3    0    0 -0.52690179457E+01 -0.25013661621E+00 -0.26203128764E+01  0.58899200564E+01  0.51100000000E-03 0.  1.
         12    1    3    3    0    0 -0.12041780749E+02  0.25958842709E+01 -0.12456136929E+02  0.17518517231E+02  0.00000000000E+00 0. -1.
</event>
<event>
 7    1  0.3846293E-008  0.4614232E+02  0.7816164E-02  0.1320468E+00
        -11   -1    0    0    0    0  0.00000000000E+00  0.00000000000E+00  0.45593999997E+02  0.45594000000E+02  0.51100000000E-03 0. -1.
         11   -1    0    0    0    0 -0.00000000000E+00 -0.00000000000E+00 -0.45593999997E+02  0.45594000000E+02  0.51100000000E-03 0.  1.
    9900012    2    1    2    0    0 -0.88900473350E+01 -0.37282530474E+02  0.23666294564E+02  0.46142317426E+02  0.99999969456E+01 0.  0.
        -12    1    1    2    0    0  0.88900473350E+01  0.37282530474E+02 -0.23666294564E+02  0.45045682574E+02  0.00000000000E+00 0.  1.
         11    1    3    3    0    0 -0.46794361081E+01 -0.11906463529E+02  0.59000686861E+01  0.14088002229E+02  0.51100000000E-03 0. -1.
        -11    1    3    3    0    0 -0.18217087506E+01 -0.84858756328E+01  0.21825743700E+01  0.89494323378E+01  0.51100000000E-03 0.  1.
        -12    1    3    3    0    0 -0.23889024763E+01 -0.16890191312E+02  0.15583651508E+02  0.23104882859E+02  0.00000000000E+00 0.  1.
</event>
<event>
 7    1  0.3846293E-008  0.4614232E+02  0.7816164E-02  0.1320468E+00
        -11   -1    0    0    0    0  0.00000000000E+00  0.00000000000E+00  0.45593999997E+02  0.45594000000E+02  0.51100000000E-03 0.  1.
         11   -1    0    0    0    0 -0.00000000000E+00 -0.00000000000E+00 -0.45593999997E+02  0.45594000000E+02  0.51100000000E-03 0. -1.
    9900012    2    1    2    0    0  0.41683465649E+02 -0.16554382646E+02 -0.41898230987E+01  0.46142317511E+02  0.99999977207E+01 0.  0.
        -12    1    1    2    0    0 -0.41683465649E+02  0.16554382646E+02  0.41898230987E+01  0.45045682489E+02  0.00000000000E+00 0.  1.
         11    1    3    3    0    0  0.25766099394E+02 -0.12942863272E+02 -0.11995840033E+01  0.28859116232E+02  0.51100000000E-03 0.  1.
        -11    1    3    3    0    0  0.64217270201E+01 -0.38478612551E+01 -0.74810698236E+00  0.75235814928E+01  0.51100000000E-03 0. -1.
        -12    1    3    3    0    0  0.94956392348E+01  0.23634188109E+00 -0.22421321131E+01  0.97596197864E+01  0.00000000000E+00 0.  1.
</event>
<event>
 7    1  0.3846293E-008  0.4614232E+02  0.7816164E-02  0.1320468E+00
        -11   -1    0    0    0    0  0.00000000000E+00  0.00000000000E+00  0.45593999997E+02  0.45594000000E+02  0.51100000000E-03 0.  1.
         11   -1    0    0    0    0 -0.00000000000E+00 -0.00000000000E+00 -0.45593999997E+02  0.45594000000E+02  0.51100000000E-03 0. -1.
    9900012    2    1    2    0    0  0.34122719933E+02  0.26251768247E+00 -0.29405520086E+02  0.46142317158E+02  0.99999944993E+01 0.  0.
        -12    1    1    2    0    0 -0.34122719933E+02 -0.26251768247E+00  0.29405520086E+02  0.45045682842E+02  0.00000000000E+00 0.  1.
         11    1    3    3    0    0  0.25375596306E+02  0.19888992626E+01 -0.16560771261E+02  0.30366688216E+02  0.51100000000E-03 0. -1.
        -11    1    3    3    0    0  0.19556674902E+01  0.39422169511E+00 -0.35264911288E+01  0.40516892797E+01  0.51100000000E-03 0.  1.
         12    1    3    3    0    0  0.67914561368E+01 -0.21206032753E+01 -0.93182576967E+01  0.11723939663E+02  0.00000000000E+00 0. -1.
</event>
<event>
 7    1  0.3846293E-008  0.4614232E+02  0.7816164E-02  0.1320468E+00
        -11   -1    0    0    0    0  0.00000000000E+00  0.00000000000E+00  0.45593999997E+02  0.45594000000E+02  0.51100000000E-03 0.  1.
         11   -1    0    0    0    0 -0.00000000000E+00 -0.00000000000E+00 -0.45593999997E+02  0.45594000000E+02  0.51100000000E-03 0. -1.
    9900012    2    1    2    0    0 -0.28529500501E+02 -0.91935216131E+01 -0.33625291588E+02  0.46142317933E+02  0.10000001568E+02 0.  0.
        -12    1    1    2    0    0  0.28529500501E+02  0.91935216131E+01  0.33625291588E+02  0.45045682067E+02  0.00000000000E+00 0.  1.
         11    1    3    3    0    0 -0.11613456039E+01  0.30383829533E-01 -0.47014048101E+00  0.12532673784E+01  0.51100000000E-03 0.  1.
        -11    1    3    3    0    0 -0.26359231732E+02 -0.62085858795E+01 -0.29802460973E+02  0.40268378617E+02  0.51100000000E-03 0. -1.
         12    1    3    3    0    0 -0.10089231652E+01 -0.30153195631E+01 -0.33526901344E+01  0.46206719380E+01  0.00000000000E+00 0. -1.
</event>
<event>
 7    1  0.3846293E-008  0.4614232E+02  0.7816164E-02  0.1320468E+00
        -11   -1    0    0    0    0  0.00000000000E+00  0.00000000000E+00  0.45593999997E+02  0.45594000000E+02  0.51100000000E-03 0.  1.
         11   -1    0    0    0    0 -0.00000000000E+00 -0.00000000000E+00 -0.45593999997E+02  0.45594000000E+02  0.51100000000E-03 0. -1.
    9900012    2    1    2    0    0  0.17429514312E+02  0.64354203748E+01 -0.41035483557E+02  0.46142317462E+02  0.99999972730E+01 0.  0.
        -12    1    1    2    0    0 -0.17429514312E+02 -0.64354203748E+01  0.41035483557E+02  0.45045682538E+02  0.00000000000E+00 0.  1.
         11    1    3    3    0    0  0.24712279313E+01  0.22731242165E+01 -0.28471375691E+01  0.44023009655E+01  0.51100000000E-03 0. -1.
        -11    1    3    3    0    0  0.12629394545E+00  0.16861161094E+01 -0.55986936677E+01  0.58484449848E+01  0.51100000000E-03 0.  1.
         12    1    3    3    0    0  0.14831992435E+02  0.24761800490E+01 -0.32589652320E+02  0.35891571512E+02  0.00000000000E+00 0. -1.
</event>
<event>
 7    1  0.3846293E-008  0.4614232E+02  0.7816164E-02  0.1320468E+00
        -11   -1    0    0    0    0  0.00000000000E+00  0.00000000000E+00  0.45593999997E+02  0.45594000000E+02  0.51100000000E-03 0.  1.
         11   -1    0    0    0    0 -0.00000000000E+00 -0.00000000000E+00 -0.45593999997E+02  0.45594000000E+02  0.51100000000E-03 0. -1.
    9900012    2    1    2    0    0 -0.68648565186E+01  0.14665277715E+02 -0.42034710038E+02  0.46142317926E+02  0.10000001507E+02 0.  0.
        -12    1    1    2    0    0  0.68648565186E+01 -0.14665277715E+02  0.42034710038E+02  0.45045682074E+02  0.00000000000E+00 0.  1.
         11    1    3    3    0    0 -0.22516238274E+00  0.15146790797E-02 -0.27345159148E+00  0.35422651913E+00  0.51100000000E-03 0. -1.
        -11    1    3    3    0    0 -0.64071064716E+01  0.11255362048E+02 -0.20459743831E+02  0.24214361567E+02  0.51100000000E-03 0.  1.
         12    1    3    3    0    0 -0.23258766423E+00  0.34084009871E+01 -0.21301514616E+02  0.21573729840E+02  0.00000000000E+00 0. -1.
</event>
<event>
 7    1  0.3846293E-008  0.4614231E+02  0.7816164E-02  0.1320468E+00
        -11   -1    0    0    0    0  0.00000000000E+00  0.00000000000E+00  0.45593999997E+02  0.45594000000E+02  0.51100000000E-03 0. -1.
         11   -1    0    0    0    0 -0.00000000000E+00 -0.00000000000E+00 -0.45593999997E+02  0.45594000000E+02  0.51100000000E-03 0.  1.
    9900012    2    1    2    0    0 -0.25314748537E+02  0.30183789901E+02  0.21845291851E+02  0.46142307172E+02  0.99999034431E+01 0.  0.
        -12    1    1    2    0    0  0.25314748537E+02 -0.30183789901E+02 -0.21845291851E+02  0.45045692828E+02  0.00000000000E+00 0.  1.
         11    1    3    3    0    0 -0.49163444152E+01  0.72720420977E+01  0.15647087674E+01  0.89163530924E+01  0.51100000000E-03 0. -1.
        -11    1    3    3    0    0 -0.82442680838E+01  0.52429059152E+01  0.62241621288E+01  0.11584308919E+02  0.51100000000E-03 0.  1.
         12    1    3    3    0    0 -0.12154136038E+02  0.17668841888E+02  0.14056420955E+02  0.25641645161E+02  0.00000000000E+00 0. -1.
</event>
<event>
 7    1  0.4641837E-008  0.4614232E+02  0.7816164E-02  0.1320468E+00
        -11   -1    0    0    0    0  0.00000000000E+00  0.00000000000E+00  0.45593999997E+02  0.45594000000E+02  0.51100000000E-03 0. -1.
         11   -1    0    0    0    0 -0.00000000000E+00 -0.00000000000E+00 -0.45593999997E+02  0.45594000000E+02  0.51100000000E-03 0.  1.
    9900012    2    1    2    0    0 -0.15317444836E+02 -0.12911820986E+02  0.40345685028E+02  0.46142317212E+02  0.99999949931E+01 0.  0.
        -12    1    1    2    0    0  0.15317444836E+02  0.12911820986E+02 -0.40345685028E+02  0.45045682788E+02  0.00000000000E+00 0.  1.
         11    1    3    3    0    0 -0.92779527330E+01 -0.72883289116E+01  0.23472437938E+02  0.26270810575E+02  0.51100000000E-03 0. -1.
        -11    1    3    3    0    0 -0.44958269160E+01 -0.28796546985E+01  0.15577472155E+02  0.16467012778E+02  0.51100000000E-03 0.  1.
        -12    1    3    3    0    0 -0.15436651867E+01 -0.27438373757E+01  0.12957749347E+01  0.34044938588E+01  0.00000000000E+00 0.  1.
</event>
<event>
 7    1  0.3846293E-008  0.4614232E+02  0.7816164E-02  0.1320468E+00
        -11   -1    0    0    0    0  0.00000000000E+00  0.00000000000E+00  0.45593999997E+02  0.45594000000E+02  0.51100000000E-03 0. -1.
         11   -1    0    0    0    0 -0.00000000000E+00 -0.00000000000E+00 -0.45593999997E+02  0.45594000000E+02  0.51100000000E-03 0.  1.
    9900012    2    1    2    0    0  0.27698759879E+02 -0.22310467589E+02  0.27642995838E+02  0.46142317834E+02  0.10000000667E+02 0.  0.
        -12    1    1    2    0    0 -0.27698759879E+02  0.22310467589E+02 -0.27642995838E+02  0.45045682166E+02  0.00000000000E+00 0.  1.
         11    1    3    3    0    0  0.14751155936E+02 -0.10567856728E+02  0.15922289191E+02  0.24141157607E+02  0.51100000000E-03 0. -1.
        -11    1    3    3    0    0 -0.13938209656E+00 -0.50754432861E-02 -0.54692059181E+00  0.56442494969E+00  0.51100000000E-03 0.  1.
        -12    1    3    3    0    0  0.13086986039E+02 -0.11737535418E+02  0.12267627239E+02  0.21436735278E+02  0.00000000000E+00 0.  1.
</event>
<event>
 7    1  0.3846293E-008  0.4614232E+02  0.7816164E-02  0.1320468E+00
        -11   -1    0    0    0    0  0.00000000000E+00  0.00000000000E+00  0.45593999997E+02  0.45594000000E+02  0.51100000000E-03 0.  1.
         11   -1    0    0    0    0 -0.00000000000E+00 -0.00000000000E+00 -0.45593999997E+02  0.45594000000E+02  0.51100000000E-03 0. -1.
    9900012    2    1    2    0    0  0.41040227646E+02 -0.18259960324E+02 -0.33744701827E+01  0.46142317796E+02  0.10000000316E+02 0.  0.
        -12    1    1    2    0    0 -0.41040227646E+02  0.18259960324E+02  0.33744701827E+01  0.45045682204E+02  0.00000000000E+00 0.  1.
         11    1    3    3    0    0  0.96331998967E+01 -0.57067151275E+01 -0.22078406769E+00  0.11198834031E+02  0.51100000000E-03 0. -1.
        -11    1    3    3    0    0  0.23004711399E+02 -0.12922001007E+02 -0.26440717082E+01  0.26517653970E+02  0.51100000000E-03 0.  1.
        -12    1    3    3    0    0  0.84023163495E+01  0.36875581103E+00 -0.50961440681E+00  0.84258297947E+01  0.00000000000E+00 0.  1.
</event>
<event>
 7    1  0.3846293E-008  0.4614232E+02  0.7816164E-02  0.1320468E+00
        -11   -1    0    0    0    0  0.00000000000E+00  0.00000000000E+00  0.45593999997E+02  0.45594000000E+02  0.51100000000E-03 0. -1.
         11   -1    0    0    0    0 -0.00000000000E+00 -0.00000000000E+00 -0.45593999997E+02  0.45594000000E+02  0.51100000000E-03 0.  1.
    9900012    2    1    2    0    0 -0.23638044185E+01  0.23232840927E+02  0.38519617544E+02  0.46142318691E+02  0.10000008482E+02 0.  0.
        -12    1    1    2    0    0  0.23638044185E+01 -0.23232840927E+02 -0.38519617544E+02  0.45045681309E+02  0.00000000000E+00 0.  1.
         11    1    3    3    0    0  0.13082000821E+01  0.10266615410E+02  0.18449795537E+02  0.21154425897E+02  0.51100000000E-03 0. -1.
        -11    1    3    3    0    0  0.43194291077E+00 -0.31223545045E+00  0.26503834512E+01  0.27034419458E+01  0.51100000000E-03 0.  1.
         12    1    3    3    0    0 -0.41039474114E+01  0.13278460967E+02  0.17419438556E+02  0.22284450848E+02  0.00000000000E+00 0. -1.
</event>
<event>
 7    1  0.3846293E-008  0.4614232E+02  0.7816164E-02  0.1320468E+00
        -11   -1    0    0    0    0  0.00000000000E+00  0.00000000000E+00  0.45593999997E+02  0.45594000000E+02  0.51100000000E-03 0.  1.
         11   -1    0    0    0    0 -0.00000000000E+00 -0.00000000000E+00 -0.45593999997E+02  0.45594000000E+02  0.51100000000E-03 0. -1.
    9900012    2    1    2    0    0 -0.23739505224E+02  0.34257757225E+02  0.17086704875E+02  0.46142317390E+02  0.99999966145E+01 0.  0.
        -12    1    1    2    0    0  0.23739505224E+02 -0.34257757225E+02 -0.17086704875E+02  0.45045682610E+02  0.00000000000E+00 0.  1.
         11    1    3    3    0    0 -0.81881567790E+01  0.10017156069E+02  0.31259605102E+01  0.13310182438E+02  0.51100000000E-03 0. -1.
        -11    1    3    3    0    0  0.14489341848E+00  0.32640342109E+01  0.29899428361E+01  0.44288454316E+01  0.51100000000E-03 0.  1.
        -12    1    3    3    0    0 -0.15696241863E+02  0.20976566944E+02  0.10970801528E+02  0.28403289520E+02  0.00000000000E+00 0.  1.
</event>
<event>
 7    1  0.3846293E-008  0.4614232E+02  0.7816164E-02  0.1320468E+00
        -11   -1    0    0    0    0  0.00000000000E+00  0.00000000000E+00  0.45593999997E+02  0.45594000000E+02  0.51100000000E-03 0.  1.
         11   -1    0    0    0    0 -0.00000000000E+00 -0.00000000000E+00 -0.45593999997E+02  0.45594000000E+02  0.51100000000E-03 0. -1.
    9900012    2    1    2    0    0  0.32254643231E+02  0.44954213299E+01 -0.31121417658E+02  0.46142318077E+02  0.10000002884E+02 0.  0.
        -12    1    1    2    0    0 -0.32254643231E+02 -0.44954213299E+01  0.31121417658E+02  0.45045681923E+02  0.00000000000E+00 0.  1.
         11    1    3    3    0    0  0.19854313257E+02  0.26162873705E+00 -0.18264080795E+02  0.26978488691E+02  0.51100000000E-03 0. -1.
        -11    1    3    3    0    0  0.22303957535E+01 -0.13211585868E+01 -0.18848693704E+01  0.32051299558E+01  0.51100000000E-03 0.  1.
         12    1    3    3    0    0  0.10169934220E+02  0.55549511797E+01 -0.10972467492E+02  0.15958699430E+02  0.00000000000E+00 0. -1.
</event>
<event>
 7    1  0.3846293E-008  0.4614232E+02  0.7816164E-02  0.1320468E+00
        -11   -1    0    0    0    0  0.00000000000E+00  0.00000000000E+00  0.45593999997E+02  0.45594000000E+02  0.51100000000E-03 0.  1.
         11   -1    0    0    0    0 -0.00000000000E+00 -0.00000000000E+00 -0.45593999997E+02  0.45594000000E+02  0.51100000000E-03 0. -1.
    9900012    2    1    2    0    0  0.23572548832E+02  0.37890014223E+02 -0.61477768585E+01  0.46142318780E+02  0.10000009290E+02 0.  0.
        -12    1    1    2    0    0 -0.23572548832E+02 -0.37890014223E+02  0.61477768585E+01  0.45045681220E+02  0.00000000000E+00 0.  1.
         11    1    3    3    0    0  0.22185211315E+02  0.31418393161E+02 -0.59868423892E+01  0.38924816145E+02  0.51100000000E-03 0. -1.
        -11    1    3    3    0    0  0.16552215763E+01  0.33826675071E+01  0.10168485159E+01  0.39007921114E+01  0.51100000000E-03 0.  1.
        -12    1    3    3    0    0 -0.26788405866E+00  0.30889535551E+01 -0.11777829853E+01  0.33167105232E+01  0.00000000000E+00 0.  1.
</event>
<event>
 7    1  0.3846293E-008  0.4614232E+02  0.7816164E-02  0.1320468E+00
        -11   -1    0    0    0    0  0.00000000000E+00  0.00000000000E+00  0.45593999997E+02  0.45594000000E+02  0.51100000000E-03 0. -1.
         11   -1    0    0    0    0 -0.00000000000E+00 -0.00000000000E+00 -0.45593999997E+02  0.45594000000E+02  0.51100000000E-03 0.  1.
    9900012    2    1    2    0    0 -0.75001229839E+01  0.32268326023E+02  0.30522397940E+02  0.46142317797E+02  0.10000000329E+02 0.  0.
        -12    1    1    2    0    0  0.75001229839E+01 -0.32268326023E+02 -0.30522397940E+02  0.45045682203E+02  0.00000000000E+00 0.  1.
         11    1    3    3    0    0 -0.97960259730E-01  0.88498167876E+01  0.13489426048E+02  0.16133613010E+02  0.51100000000E-03 0. -1.
        -11    1    3    3    0    0 -0.19473107433E+01  0.51034787374E+01  0.25374991884E+01  0.60229906813E+01  0.51100000000E-03 0.  1.
         12    1    3    3    0    0 -0.54548519809E+01  0.18315030498E+02  0.14495472703E+02  0.23985714106E+02  0.00000000000E+00 0. -1.
</event>
<event>
 7    1  0.3846293E-008  0.4614232E+02  0.7816164E-02  0.1320468E+00
        -11   -1    0    0    0    0  0.00000000000E+00  0.00000000000E+00  0.45593999997E+02  0.45594000000E+02  0.51100000000E-03 0.  1.
         11   -1    0    0    0    0 -0.00000000000E+00 -0.00000000000E+00 -0.45593999997E+02  0.45594000000E+02  0.51100000000E-03 0. -1.
    9900012    2    1    2    0    0  0.18110880217E+02  0.12581802440E+02 -0.39278591012E+02  0.46142318223E+02  0.10000004212E+02 0.  0.
        -12    1    1    2    0    0 -0.18110880217E+02 -0.12581802440E+02  0.39278591012E+02  0.45045681777E+02  0.00000000000E+00 0.  1.
         11    1    3    3    0    0  0.63614021521E+01  0.78954341672E+01 -0.12328573019E+02  0.15962425598E+02  0.51100000000E-03 0. -1.
        -11    1    3    3    0    0  0.65588038481E+01  0.45916232939E+00 -0.10129457212E+02  0.12076201457E+02  0.51100000000E-03 0.  1.
        -12    1    3    3    0    0  0.51906742170E+01  0.42272059437E+01 -0.16820560781E+02  0.18103691168E+02  0.00000000000E+00 0.  1.
</event>
<event>
 7    1  0.3846293E-008  0.4614232E+02  0.7816164E-02  0.1320468E+00
        -11   -1    0    0    0    0  0.00000000000E+00  0.00000000000E+00  0.45593999997E+02  0.45594000000E+02  0.51100000000E-03 0.  1.
         11   -1    0    0    0    0 -0.00000000000E+00 -0.00000000000E+00 -0.45593999997E+02  0.45594000000E+02  0.51100000000E-03 0. -1.
    9900012    2    1    2    0    0 -0.33722930549E+02  0.29702987109E+02 -0.31000123734E+01  0.46142316914E+02  0.99999922744E+01 0.  0.
        -12    1    1    2    0    0  0.33722930549E+02 -0.29702987109E+02  0.31000123734E+01  0.45045683086E+02  0.00000000000E+00 0.  1.
         11    1    3    3    0    0 -0.30735567067E+01  0.51341716325E+01 -0.21478663957E+01  0.63576567614E+01  0.51100000000E-03 0.  1.
        -11    1    3    3    0    0 -0.28358922879E+01  0.15181191348E+01 -0.17303447968E+01  0.36525421493E+01  0.51100000000E-03 0. -1.
        -12    1    3    3    0    0 -0.27813481554E+02  0.23050696342E+02  0.77819881905E+00  0.36132118003E+02  0.00000000000E+00 0.  1.
</event>
<event>
 7    1  0.3846293E-008  0.4614232E+02  0.7816164E-02  0.1320468E+00
        -11   -1    0    0    0    0  0.00000000000E+00  0.00000000000E+00  0.45593999997E+02  0.45594000000E+02  0.51100000000E-03 0. -1.
         11   -1    0    0    0    0 -0.00000000000E+00 -0.00000000000E+00 -0.45593999997E+02  0.45594000000E+02  0.51100000000E-03 0.  1.
    9900012    2    1    2    0    0 -0.29870322710E+01  0.33331819198E+02  0.30152626962E+02  0.46142318236E+02  0.10000004335E+02 0.  0.
        -12    1    1    2    0    0  0.29870322710E+01 -0.33331819198E+02 -0.30152626962E+02  0.45045681764E+02  0.00000000000E+00 0.  1.
         11    1    3    3    0    0  0.23868154549E+01  0.10325099510E+02  0.66828392588E+01  0.12528563714E+02  0.51100000000E-03 0.  1.
        -11    1    3    3    0    0 -0.34017005930E+01  0.85820357244E+01  0.11628423631E+02  0.14847327722E+02  0.51100000000E-03 0. -1.
        -12    1    3    3    0    0 -0.19721471330E+01  0.14424683963E+02  0.11841364073E+02  0.18766426801E+02  0.00000000000E+00 0.  1.
</event>
<event>
 7    1  0.3846293E-008  0.4614232E+02  0.7816164E-02  0.1320468E+00
        -11   -1    0    0    0    0  0.00000000000E+00  0.00000000000E+00  0.45593999997E+02  0.45594000000E+02  0.51100000000E-03 0.  1.
         11   -1    0    0    0    0 -0.00000000000E+00 -0.00000000000E+00 -0.45593999997E+02  0.45594000000E+02  0.51100000000E-03 0. -1.
    9900012    2    1    2    0    0 -0.79104944448E+01  0.32284366496E+02 -0.30401599377E+02  0.46142317776E+02  0.10000000132E+02 0.  0.
        -12    1    1    2    0    0  0.79104944448E+01 -0.32284366496E+02  0.30401599377E+02  0.45045682224E+02  0.00000000000E+00 0.  1.
         11    1    3    3    0    0  0.12688629905E-01 -0.17092290165E-01  0.50232377110E-01  0.54559147199E-01  0.51100000000E-03 0.  1.
        -11    1    3    3    0    0 -0.76752886878E+01  0.29290903897E+02 -0.22930708268E+02  0.37982686707E+02  0.51100000000E-03 0. -1.
         12    1    3    3    0    0 -0.24789438698E+00  0.30105548893E+01 -0.75211234855E+01  0.81050719215E+01  0.00000000000E+00 0. -1.
</event>
<event>
 7    1  0.3846293E-008  0.4614232E+02  0.7816164E-02  0.1320468E+00
        -11   -1    0    0    0    0  0.00000000000E+00  0.00000000000E+00  0.45593999997E+02  0.45594000000E+02  0.51100000000E-03 0.  1.
         11   -1    0    0    0    0 -0.00000000000E+00 -0.00000000000E+00 -0.45593999997E+02  0.45594000000E+02  0.51100000000E-03 0. -1.
    9900012    2    1    2    0    0  0.23630787802E+02  0.32054477566E+02 -0.21052539004E+02  0.46142322486E+02  0.10000043088E+02 0.  0.
        -12    1    1    2    0    0 -0.23630787802E+02 -0.32054477566E+02  0.21052539004E+02  0.45045677514E+02  0.00000000000E+00 0.  1.
         11    1    3    3    0    0  0.67181445998E+01  0.86685060378E+01 -0.63978200374E+01  0.12696793504E+02  0.51100000000E-03 0. -1.
        -11    1    3    3    0    0  0.92741344692E+01  0.86529129485E+01 -0.26357444500E+01  0.12954907245E+02  0.51100000000E-03 0.  1.
        -12    1    3    3    0    0  0.76385087328E+01  0.14733058580E+02 -0.12018974516E+02  0.20490621738E+02  0.00000000000E+00 0.  1.
</event>
<event>
 7    1  0.3846293E-008  0.4614232E+02  0.7816164E-02  0.1320468E+00
        -11   -1    0    0    0    0  0.00000000000E+00  0.00000000000E+00  0.45593999997E+02  0.45594000000E+02  0.51100000000E-03 0. -1.
         11   -1    0    0    0    0 -0.00000000000E+00 -0.00000000000E+00 -0.45593999997E+02  0.45594000000E+02  0.51100000000E-03 0.  1.
    9900012    2    1    2    0    0 -0.12682906116E+02 -0.43153446927E+02  0.24570757696E+01  0.46142319735E+02  0.10000017999E+02 0.  0.
        -12    1    1    2    0    0  0.12682906116E+02  0.43153446927E+02 -0.24570757696E+01  0.45045680265E+02  0.00000000000E+00 0.  1.
         11    1    3    3    0    0 -0.10252572719E+02 -0.31510735013E+02  0.40471908581E+01  0.33382951076E+02  0.51100000000E-03 0. -1.
        -11    1    3    3    0    0 -0.35004307589E+00 -0.45230766536E+01  0.14212940709E+01  0.47540329896E+01  0.51100000000E-03 0.  1.
        -12    1    3    3    0    0 -0.20802903212E+01 -0.71196352601E+01 -0.30114091594E+01  0.80053356696E+01  0.00000000000E+00 0.  1.
</event>
<event>
 7    1  0.3846293E-008  0.4614232E+02  0.7816164E-02  0.1320468E+00
        -11   -1    0    0    0    0  0.00000000000E+00  0.00000000000E+00  0.45593999997E+02  0.45594000000E+02  0.51100000000E-03 0.  1.
         11   -1    0    0    0    0 -0.00000000000E+00 -0.00000000000E+00 -0.45593999997E+02  0.45594000000E+02  0.51100000000E-03 0. -1.
    9900012    2    1    2    0    0 -0.35989101429E+02 -0.39247162920E+01 -0.26804750588E+02  0.46142317924E+02  0.10000001485E+02 0.  0.
        -12    1    1    2    0    0  0.35989101429E+02  0.39247162920E+01  0.26804750588E+02  0.45045682076E+02  0.00000000000E+00 0.  1.
         11    1    3    3    0    0 -0.19503131734E+02  0.14149193106E+01 -0.14240561526E+02  0.24190240530E+02  0.51100000000E-03 0. -1.
        -11    1    3    3    0    0 -0.15360481083E+02 -0.55148219094E+01 -0.99851790833E+01  0.19132732199E+02  0.51100000000E-03 0.  1.
         12    1    3    3    0    0 -0.11254886115E+01  0.17518630680E+00 -0.25790099790E+01  0.28193451950E+01  0.00000000000E+00 0. -1.
</event>
<event>
 7    1  0.3846293E-008  0.4614232E+02  0.7816164E-02  0.1320468E+00
        -11   -1    0    0    0    0  0.00000000000E+00  0.00000000000E+00  0.45593999997E+02  0.45594000000E+02  0.51100000000E-03 0.  1.
         11   -1    0    0    0    0 -0.00000000000E+00 -0.00000000000E+00 -0.45593999997E+02  0.45594000000E+02  0.51100000000E-03 0. -1.
    9900012    2    1    2    0    0  0.56722053054E+01  0.79906760245E+01 -0.43966904365E+02  0.46142317679E+02  0.99999992480E+01 0.  0.
        -12    1    1    2    0    0 -0.56722053054E+01 -0.79906760245E+01  0.43966904365E+02  0.45045682321E+02  0.00000000000E+00 0.  1.
         11    1    3    3    0    0  0.99985399775E+00  0.55478716553E+00 -0.42462867866E+00  0.12197567756E+01  0.51100000000E-03 0. -1.
        -11    1    3    3    0    0 -0.16401944784E+01  0.24838846744E+01 -0.13782001025E+02  0.14099768563E+02  0.51100000000E-03 0.  1.
         12    1    3    3    0    0  0.63125457861E+01  0.49520041846E+01 -0.29760274661E+02  0.30822792340E+02  0.00000000000E+00 0. -1.
</event>
<event>
 7    1  0.3846293E-008  0.4614232E+02  0.7816164E-02  0.1320468E+00
        -11   -1    0    0    0    0  0.00000000000E+00  0.00000000000E+00  0.45593999997E+02  0.45594000000E+02  0.51100000000E-03 0. -1.
         11   -1    0    0    0    0 -0.00000000000E+00 -0.00000000000E+00 -0.45593999997E+02  0.45594000000E+02  0.51100000000E-03 0.  1.
    9900012    2    1    2    0    0  0.34536759288E+02 -0.27248019873E+02  0.96887139043E+01  0.46142317563E+02  0.99999981940E+01 0.  0.
        -12    1    1    2    0    0 -0.34536759288E+02  0.27248019873E+02 -0.96887139043E+01  0.45045682437E+02  0.00000000000E+00 0.  1.
         11    1    3    3    0    0  0.85081198813E+01 -0.85694454938E+01  0.35750273022E+01  0.12593820725E+02  0.51100000000E-03 0. -1.
        -11    1    3    3    0    0  0.25216830132E+02 -0.19462357645E+02  0.60033213906E+01  0.32414684250E+02  0.51100000000E-03 0.  1.
        -12    1    3    3    0    0  0.81180927425E+00  0.78378326588E+00  0.11036521150E+00  0.11338125884E+01  0.00000000000E+00 0.  1.
</event>
<event>
 7    1  0.3846293E-008  0.4614232E+02  0.7816164E-02  0.1320468E+00
        -11   -1    0    0    0    0  0.00000000000E+00  0.00000000000E+00  0.45593999997E+02  0.45594000000E+02  0.51100000000E-03 0.  1.
         11   -1    0    0    0    0 -0.00000000000E+00 -0.00000000000E+00 -0.45593999997E+02  0.45594000000E+02  0.51100000000E-03 0. -1.
    9900012    2    1    2    0    0  0.35129163525E+02 -0.26000374434E+02  0.10910359334E+02  0.46142317172E+02  0.99999946262E+01 0.  0.
        -12    1    1    2    0    0 -0.35129163525E+02  0.26000374434E+02 -0.10910359334E+02  0.45045682828E+02  0.00000000000E+00 0.  1.
         11    1    3    3    0    0  0.13257335195E+02 -0.12852035440E+02  0.43976439035E+01  0.18980806716E+02  0.51100000000E-03 0. -1.
        -11    1    3    3    0    0  0.13852784133E+02 -0.11863082537E+02  0.48427839681E+01  0.18870212302E+02  0.51100000000E-03 0.  1.
        -12    1    3    3    0    0  0.80190441962E+01 -0.12852564580E+01  0.16699314625E+01  0.82912981537E+01  0.00000000000E+00 0.  1.
</event>
<event>
 7    1  0.3846293E-008  0.4614232E+02  0.7816164E-02  0.1320468E+00
        -11   -1    0    0    0    0  0.00000000000E+00  0.00000000000E+00  0.45593999997E+02  0.45594000000E+02  0.51100000000E-03 0. -1.
         11   -1    0    0    0    0 -0.00000000000E+00 -0.00000000000E+00 -0.45593999997E+02  0.45594000000E+02  0.51100000000E-03 0.  1.
    9900012    2    1    2    0    0  0.14581802267E+02 -0.41331689858E+02 -0.10400774754E+02  0.46142315863E+02  0.99999826911E+01 0.  0.
        -12    1    1    2    0    0 -0.14581802267E+02  0.41331689858E+02  0.10400774754E+02  0.45045684137E+02  0.00000000000E+00 0.  1.
         11    1    3    3    0    0 -0.11584621183E-01 -0.53601972629E+01 -0.29917564182E+00  0.53685524330E+01  0.51100000000E-03 0. -1.
        -11    1    3    3    0    0  0.51323535926E+00 -0.59070808434E+01 -0.36252135348E+01  0.69497617267E+01  0.51100000000E-03 0.  1.
         12    1    3    3    0    0  0.14080151529E+02 -0.30064411752E+02 -0.64763855773E+01  0.33824001703E+02  0.00000000000E+00 0. -1.
</event>
<event>
 7    1  0.3846293E-008  0.4614232E+02  0.7816164E-02  0.1320468E+00
        -11   -1    0    0    0    0  0.00000000000E+00  0.00000000000E+00  0.45593999997E+02  0.45594000000E+02  0.51100000000E-03 0.  1.
         11   -1    0    0    0    0 -0.00000000000E+00 -0.00000000000E+00 -0.45593999997E+02  0.45594000000E+02  0.51100000000E-03 0. -1.
    9900012    2    1    2    0    0  0.42581113952E+02  0.10642425559E+02 -0.10134162013E+02  0.46142315113E+02  0.99999758557E+01 0.  0.
        -12    1    1    2    0    0 -0.42581113952E+02 -0.10642425559E+02  0.10134162013E+02  0.45045684887E+02  0.00000000000E+00 0.  1.
         11    1    3    3    0    0  0.48921173141E+01  0.28052698391E+01 -0.71121084506E+00  0.56840277807E+01  0.51100000000E-03 0. -1.
        -11    1    3    3    0    0  0.28720927649E+02  0.75182444455E+01 -0.10340179002E+02  0.31437795511E+02  0.51100000000E-03 0.  1.
        -12    1    3    3    0    0  0.89680689895E+01  0.31891127456E+00  0.91722783429E+00  0.90204918215E+01  0.00000000000E+00 0.  1.
</event>
<event>
 7    1  0.3846293E-008  0.4614232E+02  0.7816164E-02  0.1320468E+00
        -11   -1    0    0    0    0  0.00000000000E+00  0.00000000000E+00  0.45593999997E+02  0.45594000000E+02  0.51100000000E-03 0.  1.
         11   -1    0    0    0    0 -0.00000000000E+00 -0.00000000000E+00 -0.45593999997E+02  0.45594000000E+02  0.51100000000E-03 0. -1.
    9900012    2    1    2    0    0 -0.41455983781E+02  0.32605148118E+01 -0.17317158240E+02  0.46142317436E+02  0.99999970389E+01 0.  0.
        -12    1    1    2    0    0  0.41455983781E+02 -0.32605148118E+01  0.17317158240E+02  0.45045682564E+02  0.00000000000E+00 0.  1.
         11    1    3    3    0    0 -0.11501874620E+02  0.31732416787E+01 -0.61205782410E+01  0.13409849395E+02  0.51100000000E-03 0. -1.
        -11    1    3    3    0    0 -0.23990055360E+02 -0.93470875692E+00 -0.59764061889E+01  0.24740935063E+02  0.51100000000E-03 0.  1.
         12    1    3    3    0    0 -0.59640538018E+01  0.10219818901E+01 -0.52201738102E+01  0.79915329783E+01  0.00000000000E+00 0. -1.
</event>
<event>
 7    1  0.3846293E-008  0.4614232E+02  0.7816164E-02  0.1320468E+00
        -11   -1    0    0    0    0  0.00000000000E+00  0.00000000000E+00  0.45593999997E+02  0.45594000000E+02  0.51100000000E-03 0. -1.
         11   -1    0    0    0    0 -0.00000000000E+00 -0.00000000000E+00 -0.45593999997E+02  0.45594000000E+02  0.51100000000E-03 0.  1.
    9900012    2    1    2    0    0 -0.20917582592E+02 -0.31749381323E+02  0.24156677694E+02  0.46142317043E+02  0.99999934498E+01 0.  0.
        -12    1    1    2    0    0  0.20917582592E+02  0.31749381323E+02 -0.24156677694E+02  0.45045682957E+02  0.00000000000E+00 0.  1.
         11    1    3    3    0    0 -0.69031652841E+01 -0.72776407456E+01  0.93886407973E+01  0.13739152887E+02  0.51100000000E-03 0. -1.
        -11    1    3    3    0    0 -0.27161934033E+01 -0.10594990773E+02  0.60178409407E+01  0.12483827375E+02  0.51100000000E-03 0.  1.
         12    1    3    3    0    0 -0.11298223904E+02 -0.13876749805E+02  0.87501959555E+01  0.19919336781E+02  0.00000000000E+00 0. -1.
</event>
<event>
 7    1  0.3846293E-008  0.4614232E+02  0.7816164E-02  0.1320468E+00
        -11   -1    0    0    0    0  0.00000000000E+00  0.00000000000E+00  0.45593999997E+02  0.45594000000E+02  0.51100000000E-03 0.  1.
         11   -1    0    0    0    0 -0.00000000000E+00 -0.00000000000E+00 -0.45593999997E+02  0.45594000000E+02  0.51100000000E-03 0. -1.
    9900012    2    1    2    0    0 -0.50250991487E+01  0.13010127334E+02 -0.42832212928E+02  0.46142317643E+02  0.99999989275E+01 0.  0.
        -12    1    1    2    0    0  0.50250991487E+01 -0.13010127334E+02  0.42832212928E+02  0.45045682357E+02  0.00000000000E+00 0.  1.
         11    1    3    3    0    0 -0.14212648728E+00  0.40722234170E+01 -0.20389214961E+02  0.20792385396E+02  0.51100000000E-03 0. -1.
        -11    1    3    3    0    0 -0.46314352830E+01  0.93722095055E+01 -0.22533053208E+02  0.24840027998E+02  0.51100000000E-03 0.  1.
        -12    1    3    3    0    0 -0.25153737842E+00 -0.43430558875E+00  0.90055241061E-01  0.50990424945E+00  0.00000000000E+00 0.  1.
</event>
<event>
 7    1  0.3846293E-008  0.4614232E+02  0.7816164E-02  0.1320468E+00
        -11   -1    0    0    0    0  0.00000000000E+00  0.00000000000E+00  0.45593999997E+02  0.45594000000E+02  0.51100000000E-03 0. -1.
         11   -1    0    0    0    0 -0.00000000000E+00 -0.00000000000E+00 -0.45593999997E+02  0.45594000000E+02  0.51100000000E-03 0.  1.
    9900012    2    1    2    0    0 -0.34102691005E+02 -0.12215582865E+02  0.26774978908E+02  0.46142317698E+02  0.99999994229E+01 0.  0.
        -12    1    1    2    0    0  0.34102691005E+02  0.12215582865E+02 -0.26774978908E+02  0.45045682302E+02  0.00000000000E+00 0.  1.
         11    1    3    3    0    0 -0.37071519658E+01 -0.34190289896E+00  0.24359742037E+01  0.44490272950E+01  0.51100000000E-03 0. -1.
        -11    1    3    3    0    0 -0.12164796550E+02 -0.26648043533E+01  0.14211296508E+02  0.18895618700E+02  0.51100000000E-03 0.  1.
         12    1    3    3    0    0 -0.18230742489E+02 -0.92088756125E+01  0.10127708197E+02  0.22797671703E+02  0.00000000000E+00 0. -1.
</event>
<event>
 7    1  0.3846293E-008  0.4614232E+02  0.7816164E-02  0.1320468E+00
        -11   -1    0    0    0    0  0.00000000000E+00  0.00000000000E+00  0.45593999997E+02  0.45594000000E+02  0.51100000000E-03 0.  1.
         11   -1    0    0    0    0 -0.00000000000E+00 -0.00000000000E+00 -0.45593999997E+02  0.45594000000E+02  0.51100000000E-03 0. -1.
    9900012    2    1    2    0    0  0.86186632081E+01 -0.39857555944E+02 -0.19136544720E+02  0.46142318019E+02  0.10000002351E+02 0.  0.
        -12    1    1    2    0    0 -0.86186632081E+01  0.39857555944E+02  0.19136544720E+02  0.45045681981E+02  0.00000000000E+00 0.  1.
         11    1    3    3    0    0  0.51751732672E+01 -0.21017606597E+02 -0.81011723323E+01  0.23111711292E+02  0.51100000000E-03 0. -1.
        -11    1    3    3    0    0  0.72071647786E+00 -0.11679425922E+00  0.48740050708E+00  0.87785685386E+00  0.51100000000E-03 0.  1.
        -12    1    3    3    0    0  0.27227734630E+01 -0.18723155088E+02 -0.11522772894E+02  0.22152749873E+02  0.00000000000E+00 0.  1.
</event>
<event>
 7    1  0.3846293E-008  0.4614232E+02  0.7816164E-02  0.1320468E+00
        -11   -1    0    0    0    0  0.00000000000E+00  0.00000000000E+00  0.45593999997E+02  0.45594000000E+02  0.51100000000E-03 0.  1.
         11   -1    0    0    0    0 -0.00000000000E+00 -0.00000000000E+00 -0.45593999997E+02  0.45594000000E+02  0.51100000000E-03 0. -1.
    9900012    2    1    2    0    0 -0.21031170468E+02  0.37537517620E+02 -0.13331845256E+02  0.46142318095E+02  0.10000003049E+02 0.  0.
        -12    1    1    2    0    0  0.21031170468E+02 -0.37537517620E+02  0.13331845256E+02  0.45045681905E+02  0.00000000000E+00 0.  1.
         11    1    3    3    0    0 -0.14777640377E+02  0.25312553085E+02 -0.78310559405E+01  0.30338579996E+02  0.51100000000E-03 0. -1.
        -11    1    3    3    0    0 -0.29420542406E+01  0.10297629642E+02 -0.26630328545E+01  0.11035787404E+02  0.51100000000E-03 0.  1.
         12    1    3    3    0    0 -0.33114758501E+01  0.19273348935E+01 -0.28377564606E+01  0.47679506947E+01  0.00000000000E+00 0. -1.
</event>
<event>
 7    1  0.3846293E-008  0.4614232E+02  0.7816164E-02  0.1320468E+00
        -11   -1    0    0    0    0  0.00000000000E+00  0.00000000000E+00  0.45593999997E+02  0.45594000000E+02  0.51100000000E-03 0. -1.
         11   -1    0    0    0    0 -0.00000000000E+00 -0.00000000000E+00 -0.45593999997E+02  0.45594000000E+02  0.51100000000E-03 0.  1.
    9900012    2    1    2    0    0 -0.44260201341E+02 -0.38498027809E+01 -0.74382201787E+01  0.46142317369E+02  0.99999964280E+01 0.  0.
        -12    1    1    2    0    0  0.44260201341E+02  0.38498027809E+01  0.74382201787E+01  0.45045682631E+02  0.00000000000E+00 0.  1.
         11    1    3    3    0    0 -0.13702545226E+02 -0.11378415305E+01 -0.53375669109E-01  0.13749810116E+02  0.51100000000E-03 0. -1.
        -11    1    3    3    0    0 -0.23364708337E+02 -0.28108516294E+01 -0.24315366577E+01  0.23658462616E+02  0.51100000000E-03 0.  1.
        -12    1    3    3    0    0 -0.71929477784E+01  0.98890379050E-01 -0.49533078518E+01  0.87340446372E+01  0.00000000000E+00 0.  1.
</event>
<event>
 7    1  0.3846293E-008  0.4614232E+02  0.7816164E-02  0.1320468E+00
        -11   -1    0    0    0    0  0.00000000000E+00  0.00000000000E+00  0.45593999997E+02  0.45594000000E+02  0.51100000000E-03 0.  1.
         11   -1    0    0    0    0 -0.00000000000E+00 -0.00000000000E+00 -0.45593999997E+02  0.45594000000E+02  0.51100000000E-03 0. -1.
    9900012    2    1    2    0    0  0.15079983390E+02 -0.37249024135E+02 -0.20352330112E+02  0.46142322749E+02  0.10000045479E+02 0.  0.
        -12    1    1    2    0    0 -0.15079983390E+02  0.37249024135E+02  0.20352330112E+02  0.45045677251E+02  0.00000000000E+00 0.  1.
         11    1    3    3    0    0  0.16124913867E+01 -0.73144307687E+01 -0.12588258072E+01  0.75951082031E+01  0.51100000000E-03 0.  1.
        -11    1    3    3    0    0  0.95282006753E+01 -0.14544259495E+02 -0.12136664091E+02  0.21204261550E+02  0.51100000000E-03 0. -1.
         12    1    3    3    0    0  0.39392913281E+01 -0.15390333871E+02 -0.69568402140E+01  0.17342952995E+02  0.00000000000E+00 0. -1.
</event>
<event>
 7    1  0.3846293E-008  0.4614232E+02  0.7816164E-02  0.1320468E+00
        -11   -1    0    0    0    0  0.00000000000E+00  0.00000000000E+00  0.45593999997E+02  0.45594000000E+02  0.51100000000E-03 0.  1.
         11   -1    0    0    0    0 -0.00000000000E+00 -0.00000000000E+00 -0.45593999997E+02  0.45594000000E+02  0.51100000000E-03 0. -1.
    9900012    2    1    2    0    0  0.11461485260E+02  0.45125308424E+01 -0.43328801820E+02  0.46142316010E+02  0.99999840323E+01 0.  0.
        -12    1    1    2    0    0 -0.11461485260E+02 -0.45125308424E+01  0.43328801820E+02  0.45045683990E+02  0.00000000000E+00 0.  1.
         11    1    3    3    0    0  0.37636514667E+01  0.28781740139E+00 -0.23109189591E+02  0.23415434120E+02  0.51100000000E-03 0. -1.
        -11    1    3    3    0    0  0.22181649978E+01  0.40338783046E+01 -0.11936426548E+02  0.12793385367E+02  0.51100000000E-03 0.  1.
        -12    1    3    3    0    0  0.54796687957E+01  0.19083513649E+00 -0.82831856806E+01  0.99334965234E+01  0.00000000000E+00 0.  1.
</event>
<event>
 7    1  0.3846293E-008  0.4614232E+02  0.7816164E-02  0.1320468E+00
        -11   -1    0    0    0    0  0.00000000000E+00  0.00000000000E+00  0.45593999997E+02  0.45594000000E+02  0.51100000000E-03 0. -1.
         11   -1    0    0    0    0 -0.00000000000E+00 -0.00000000000E+00 -0.45593999997E+02  0.45594000000E+02  0.51100000000E-03 0.  1.
    9900012    2    1    2    0    0  0.35281468042E+02  0.17165977649E+02  0.22128279144E+02  0.46142317480E+02  0.99999974352E+01 0.  0.
        -12    1    1    2    0    0 -0.35281468042E+02 -0.17165977649E+02 -0.22128279144E+02  0.45045682520E+02  0.00000000000E+00 0.  1.
         11    1    3    3    0    0  0.15567710174E+02  0.81905325037E+01  0.13675415694E+02  0.22281279528E+02  0.51100000000E-03 0. -1.
        -11    1    3    3    0    0  0.40754960097E+01  0.11577259425E+01  0.39834846224E+01  0.58153372285E+01  0.51100000000E-03 0.  1.
        -12    1    3    3    0    0  0.15638261859E+02  0.78177192026E+01  0.44693788276E+01  0.18045700723E+02  0.00000000000E+00 0.  1.
</event>
<event>
 7    1  0.3846293E-008  0.4614232E+02  0.7816164E-02  0.1320468E+00
        -11   -1    0    0    0    0  0.00000000000E+00  0.00000000000E+00  0.45593999997E+02  0.45594000000E+02  0.51100000000E-03 0.  1.
         11   -1    0    0    0    0 -0.00000000000E+00 -0.00000000000E+00 -0.45593999997E+02  0.45594000000E+02  0.51100000000E-03 0. -1.
    9900012    2    1    2    0    0  0.38667480545E+02  0.13477155069E+02 -0.18769808896E+02  0.46142317783E+02  0.10000000197E+02 0.  0.
        -12    1    1    2    0    0 -0.38667480545E+02 -0.13477155069E+02  0.18769808896E+02  0.45045682217E+02  0.00000000000E+00 0.  1.
         11    1    3    3    0    0  0.29358707182E+01  0.93460151648E-01 -0.26188095207E+00  0.29490089129E+01  0.51100000000E-03 0. -1.
        -11    1    3    3    0    0  0.49637890992E+01  0.47140199710E+01 -0.15952049815E+01  0.70289306229E+01  0.51100000000E-03 0.  1.
         12    1    3    3    0    0  0.30767820728E+02  0.86696749462E+01 -0.16912722962E+02  0.36164378247E+02  0.00000000000E+00 0. -1.
</event>
<event>
 7    1  0.3846293E-008  0.4614231E+02  0.7816164E-02  0.1320468E+00
        -11   -1    0    0    0    0  0.00000000000E+00  0.00000000000E+00  0.45593999997E+02  0.45594000000E+02  0.51100000000E-03 0.  1.
         11   -1    0    0    0    0 -0.00000000000E+00 -0.00000000000E+00 -0.45593999997E+02  0.45594000000E+02  0.51100000000E-03 0. -1.
    9900012    2    1    2    0    0  0.34876602372E+02 -0.82520093239E+01 -0.27288114311E+02  0.46142309489E+02  0.99999245714E+01 0.  0.
        -12    1    1    2    0    0 -0.34876602372E+02  0.82520093239E+01  0.27288114311E+02  0.45045690511E+02  0.00000000000E+00 0.  1.
         11    1    3    3    0    0  0.60644986710E+01 -0.17239555556E+01 -0.80660876859E+00  0.63561611728E+01  0.51100000000E-03 0.  1.
        -11    1    3    3    0    0  0.10297341437E+02 -0.36711328405E+01 -0.89492166535E+01  0.14128019535E+02  0.51100000000E-03 0. -1.
        -12    1    3    3    0    0  0.18514762264E+02 -0.28569209279E+01 -0.17532288889E+02  0.25658128782E+02  0.00000000000E+00 0.  1.
</event>
<event>
 7    1  0.3846293E-008  0.4614232E+02  0.7816164E-02  0.1320468E+00
        -11   -1    0    0    0    0  0.00000000000E+00  0.00000000000E+00  0.45593999997E+02  0.45594000000E+02  0.51100000000E-03 0.  1.
         11   -1    0    0    0    0 -0.00000000000E+00 -0.00000000000E+00 -0.45593999997E+02  0.45594000000E+02  0.51100000000E-03 0. -1.
    9900012    2    1    2    0    0 -0.44458584604E+02 -0.60722625743E+01 -0.39592108322E+01  0.46142317985E+02  0.10000002042E+02 0.  0.
        -12    1    1    2    0    0  0.44458584604E+02  0.60722625743E+01  0.39592108322E+01  0.45045682015E+02  0.00000000000E+00 0.  1.
         11    1    3    3    0    0 -0.40396060006E+01  0.16285098571E+01 -0.13660152097E+00  0.43576508845E+01  0.51100000000E-03 0. -1.
        -11    1    3    3    0    0 -0.17433230132E+02 -0.46133086350E+01  0.11333277770E+01  0.18068883793E+02  0.51100000000E-03 0.  1.
         12    1    3    3    0    0 -0.22985748472E+02 -0.30874637964E+01 -0.49559370882E+01  0.23715783308E+02  0.00000000000E+00 0. -1.
</event>
<event>
 7    1  0.3846293E-008  0.4614232E+02  0.7816164E-02  0.1320468E+00
        -11   -1    0    0    0    0  0.00000000000E+00  0.00000000000E+00  0.45593999997E+02  0.45594000000E+02  0.51100000000E-03 0.  1.
         11   -1    0    0    0    0 -0.00000000000E+00 -0.00000000000E+00 -0.45593999997E+02  0.45594000000E+02  0.51100000000E-03 0. -1.
    9900012    2    1    2    0    0 -0.15624644285E+02 -0.28853303566E+02 -0.30862121850E+02  0.46142320953E+02  0.10000029104E+02 0.  0.
        -12    1    1    2    0    0  0.15624644285E+02  0.28853303566E+02  0.30862121850E+02  0.45045679047E+02  0.00000000000E+00 0.  1.
         11    1    3    3    0    0 -0.10772944819E+02 -0.14698466170E+02 -0.20701377599E+02  0.27579852838E+02  0.51100000000E-03 0. -1.
        -11    1    3    3    0    0 -0.24369051905E+01 -0.20301677767E+01 -0.20542302431E+01  0.37788821445E+01  0.51100000000E-03 0.  1.
         12    1    3    3    0    0 -0.24147942755E+01 -0.12124669619E+02 -0.81065140088E+01  0.14783585970E+02  0.00000000000E+00 0. -1.
</event>
<event>
 7    1  0.3846293E-008  0.4614232E+02  0.7816164E-02  0.1320468E+00
        -11   -1    0    0    0    0  0.00000000000E+00  0.00000000000E+00  0.45593999997E+02  0.45594000000E+02  0.51100000000E-03 0.  1.
         11   -1    0    0    0    0 -0.00000000000E+00 -0.00000000000E+00 -0.45593999997E+02  0.45594000000E+02  0.51100000000E-03 0. -1.
    9900012    2    1    2    0    0  0.36953556561E+02  0.25135504567E+02 -0.56351025750E+01  0.46142319703E+02  0.10000017711E+02 0.  0.
        -12    1    1    2    0    0 -0.36953556561E+02 -0.25135504567E+02  0.56351025750E+01  0.45045680297E+02  0.00000000000E+00 0.  1.
         11    1    3    3    0    0  0.11613431301E+02  0.11430267226E+02 -0.37112487066E+01  0.16712156135E+02  0.51100000000E-03 0. -1.
        -11    1    3    3    0    0  0.15178890956E+02  0.11131107920E+02 -0.31723310934E+00  0.18825539336E+02  0.51100000000E-03 0.  1.
         12    1    3    3    0    0  0.10161234304E+02  0.25741294206E+01 -0.16066207591E+01  0.10604624233E+02  0.00000000000E+00 0. -1.
</event>
<event>
 7    1  0.3846293E-008  0.4614232E+02  0.7816164E-02  0.1320468E+00
        -11   -1    0    0    0    0  0.00000000000E+00  0.00000000000E+00  0.45593999997E+02  0.45594000000E+02  0.51100000000E-03 0.  1.
         11   -1    0    0    0    0 -0.00000000000E+00 -0.00000000000E+00 -0.45593999997E+02  0.45594000000E+02  0.51100000000E-03 0. -1.
    9900012    2    1    2    0    0 -0.34176657579E+02 -0.28039957086E+02 -0.86504269826E+01  0.46142323142E+02  0.10000049065E+02 0.  0.
        -12    1    1    2    0    0  0.34176657579E+02  0.28039957086E+02  0.86504269826E+01  0.45045676858E+02  0.00000000000E+00 0.  1.
         11    1    3    3    0    0 -0.13404416914E+01 -0.15102882736E+01 -0.15128448450E+01  0.25231833829E+01  0.51100000000E-03 0. -1.
        -11    1    3    3    0    0 -0.10299559810E+02 -0.99563540180E+01 -0.62535091298E+01  0.15630620407E+02  0.51100000000E-03 0.  1.
         12    1    3    3    0    0 -0.22536656078E+02 -0.16573314794E+02 -0.88407300773E+00  0.27988519352E+02  0.00000000000E+00 0. -1.
</event>
<event>
 7    1  0.3846293E-008  0.4614232E+02  0.7816164E-02  0.1320468E+00
        -11   -1    0    0    0    0  0.00000000000E+00  0.00000000000E+00  0.45593999997E+02  0.45594000000E+02  0.51100000000E-03 0.  1.
         11   -1    0    0    0    0 -0.00000000000E+00 -0.00000000000E+00 -0.45593999997E+02  0.45594000000E+02  0.51100000000E-03 0. -1.
    9900012    2    1    2    0    0 -0.18396110016E+02 -0.23731452334E+01 -0.41049541495E+02  0.46142317200E+02  0.99999948793E+01 0.  0.
        -12    1    1    2    0    0  0.18396110016E+02  0.23731452334E+01  0.41049541495E+02  0.45045682800E+02  0.00000000000E+00 0.  1.
         11    1    3    3    0    0 -0.12015370067E+02  0.12965817372E+01 -0.22959489124E+02  0.25945874107E+02  0.51100000000E-03 0. -1.
        -11    1    3    3    0    0 -0.63648763373E+01 -0.19083065387E+01 -0.16630460395E+02  0.17908810621E+02  0.51100000000E-03 0.  1.
        -12    1    3    3    0    0 -0.15863611106E-01 -0.17614204320E+01 -0.14595919759E+01  0.22876324723E+01  0.00000000000E+00 0.  1.
</event>
<event>
 7    1  0.3846293E-008  0.4614232E+02  0.7816164E-02  0.1320468E+00
        -11   -1    0    0    0    0  0.00000000000E+00  0.00000000000E+00  0.45593999997E+02  0.45594000000E+02  0.51100000000E-03 0.  1.
         11   -1    0    0    0    0 -0.00000000000E+00 -0.00000000000E+00 -0.45593999997E+02  0.45594000000E+02  0.51100000000E-03 0. -1.
    9900012    2    1    2    0    0  0.36117081375E+02 -0.26735172422E+02  0.31464859642E+01  0.46142318904E+02  0.10000010418E+02 0.  0.
        -12    1    1    2    0    0 -0.36117081375E+02  0.26735172422E+02 -0.31464859642E+01  0.45045681096E+02  0.00000000000E+00 0.  1.
         11    1    3    3    0    0  0.69878437766E+01 -0.45566258984E+01 -0.15800690104E+00  0.83437261859E+01  0.51100000000E-03 0. -1.
        -11    1    3    3    0    0  0.21858218434E+02 -0.11874914947E+02  0.38713894139E+01  0.25175046661E+02  0.51100000000E-03 0.  1.
         12    1    3    3    0    0  0.72710191646E+01 -0.10303631576E+02 -0.56689654861E+00  0.12623546057E+02  0.00000000000E+00 0. -1.
</event>
<event>
 7    1  0.3846293E-008  0.4614232E+02  0.7816164E-02  0.1320468E+00
        -11   -1    0    0    0    0  0.00000000000E+00  0.00000000000E+00  0.45593999997E+02  0.45594000000E+02  0.51100000000E-03 0.  1.
         11   -1    0    0    0    0 -0.00000000000E+00 -0.00000000000E+00 -0.45593999997E+02  0.45594000000E+02  0.51100000000E-03 0. -1.
    9900012    2    1    2    0    0 -0.13291220181E+02  0.10176240111E+02 -0.41819865987E+02  0.46142316656E+02  0.99999899263E+01 0.  0.
        -12    1    1    2    0    0  0.13291220181E+02 -0.10176240111E+02  0.41819865987E+02  0.45045683344E+02  0.00000000000E+00 0.  1.
         11    1    3    3    0    0 -0.60891540691E+01  0.13716807337E+01 -0.12990363211E+02  0.14412107477E+02  0.51100000000E-03 0. -1.
        -11    1    3    3    0    0 -0.57555603608E+01  0.29732093580E+01 -0.95787429034E+01  0.11563683013E+02  0.51100000000E-03 0.  1.
        -12    1    3    3    0    0 -0.14465057508E+01  0.58313500195E+01 -0.19250759873E+02  0.20166526167E+02  0.00000000000E+00 0.  1.
</event>
<event>
 7    1  0.3846293E-008  0.4614232E+02  0.7816164E-02  0.1320468E+00
        -11   -1    0    0    0    0  0.00000000000E+00  0.00000000000E+00  0.45593999997E+02  0.45594000000E+02  0.51100000000E-03 0. -1.
         11   -1    0    0    0    0 -0.00000000000E+00 -0.00000000000E+00 -0.45593999997E+02  0.45594000000E+02  0.51100000000E-03 0.  1.
    9900012    2    1    2    0    0 -0.18693061017E+02 -0.18043612385E+02  0.36798245951E+02  0.46142318929E+02  0.10000010651E+02 0.  0.
        -12    1    1    2    0    0  0.18693061017E+02  0.18043612385E+02 -0.36798245951E+02  0.45045681071E+02  0.00000000000E+00 0.  1.
         11    1    3    3    0    0 -0.93393834558E+01 -0.28544718560E+01  0.15175381341E+02  0.18046171118E+02  0.51100000000E-03 0. -1.
        -11    1    3    3    0    0 -0.65607233855E+01 -0.91631013273E+01  0.12830441486E+02  0.17077053208E+02  0.51100000000E-03 0.  1.
         12    1    3    3    0    0 -0.27929541753E+01 -0.60260392018E+01  0.87924231242E+01  0.11019094604E+02  0.00000000000E+00 0. -1.
</event>
<event>
 7    1  0.3846293E-008  0.4614232E+02  0.7816164E-02  0.1320468E+00
        -11   -1    0    0    0    0  0.00000000000E+00  0.00000000000E+00  0.45593999997E+02  0.45594000000E+02  0.51100000000E-03 0.  1.
         11   -1    0    0    0    0 -0.00000000000E+00 -0.00000000000E+00 -0.45593999997E+02  0.45594000000E+02  0.51100000000E-03 0. -1.
    9900012    2    1    2    0    0 -0.86189855491E+01 -0.15907732242E+02 -0.41252521211E+02  0.46142319150E+02  0.10000012664E+02 0.  0.
        -12    1    1    2    0    0  0.86189855491E+01  0.15907732242E+02  0.41252521211E+02  0.45045680850E+02  0.00000000000E+00 0.  1.
         11    1    3    3    0    0 -0.72167932438E+01 -0.55685402467E+01 -0.18484673501E+02  0.20610043666E+02  0.51100000000E-03 0. -1.
        -11    1    3    3    0    0 -0.23188118983E+01 -0.87479441800E+01 -0.14735844659E+02  0.17293019807E+02  0.51100000000E-03 0.  1.
        -12    1    3    3    0    0  0.91661959301E+00 -0.15912478148E+01 -0.80320030513E+01  0.82392556765E+01  0.00000000000E+00 0.  1.
</event>
<event>
 7    1  0.3846293E-008  0.4614232E+02  0.7816164E-02  0.1320468E+00
        -11   -1    0    0    0    0  0.00000000000E+00  0.00000000000E+00  0.45593999997E+02  0.45594000000E+02  0.51100000000E-03 0.  1.
         11   -1    0    0    0    0 -0.00000000000E+00 -0.00000000000E+00 -0.45593999997E+02  0.45594000000E+02  0.51100000000E-03 0. -1.
    9900012    2    1    2    0    0  0.32339830847E+02  0.11081012723E+02 -0.29333598064E+02  0.46142317881E+02  0.10000001095E+02 0.  0.
        -12    1    1    2    0    0 -0.32339830847E+02 -0.11081012723E+02  0.29333598064E+02  0.45045682119E+02  0.00000000000E+00 0.  1.
         11    1    3    3    0    0  0.17861880387E+02  0.35272539303E+01 -0.11589546504E+02  0.21582536451E+02  0.51100000000E-03 0. -1.
        -11    1    3    3    0    0  0.75456004115E+01  0.16132896790E+01 -0.96780599212E+01  0.12377545526E+02  0.51100000000E-03 0.  1.
         12    1    3    3    0    0  0.69323500485E+01  0.59404691141E+01 -0.80659916393E+01  0.12182235904E+02  0.00000000000E+00 0. -1.
</event>
<event>
 7    1  0.3846293E-008  0.4614232E+02  0.7816164E-02  0.1320468E+00
        -11   -1    0    0    0    0  0.00000000000E+00  0.00000000000E+00  0.45593999997E+02  0.45594000000E+02  0.51100000000E-03 0.  1.
         11   -1    0    0    0    0 -0.00000000000E+00 -0.00000000000E+00 -0.45593999997E+02  0.45594000000E+02  0.51100000000E-03 0. -1.
    9900012    2    1    2    0    0 -0.33502228058E+02 -0.62872961694E+01 -0.29447987180E+02  0.46142319553E+02  0.10000016343E+02 0.  0.
        -12    1    1    2    0    0  0.33502228058E+02  0.62872961694E+01  0.29447987180E+02  0.45045680447E+02  0.00000000000E+00 0.  1.
         11    1    3    3    0    0 -0.20255074296E+02 -0.12933708125E+01 -0.13252758409E+02  0.24239976248E+02  0.51100000000E-03 0. -1.
        -11    1    3    3    0    0 -0.23971125224E+01  0.61625086087E+00 -0.34832967859E+01  0.42730867448E+01  0.51100000000E-03 0.  1.
         12    1    3    3    0    0 -0.10850041239E+02 -0.56101762178E+01 -0.12711931985E+02  0.17629256561E+02  0.00000000000E+00 0. -1.
</event>
<event>
 7    1  0.3846293E-008  0.4614232E+02  0.7816164E-02  0.1320468E+00
        -11   -1    0    0    0    0  0.00000000000E+00  0.00000000000E+00  0.45593999997E+02  0.45594000000E+02  0.51100000000E-03 0.  1.
         11   -1    0    0    0    0 -0.00000000000E+00 -0.00000000000E+00 -0.45593999997E+02  0.45594000000E+02  0.51100000000E-03 0. -1.
    9900012    2    1    2    0    0 -0.25077758111E+02 -0.27357771320E+02 -0.25529821057E+02  0.46142319112E+02  0.10000012319E+02 0.  0.
        -12    1    1    2    0    0  0.25077758111E+02  0.27357771320E+02  0.25529821057E+02  0.45045680888E+02  0.00000000000E+00 0.  1.
         11    1    3    3    0    0 -0.95196472856E+01 -0.88578181435E+01 -0.80297469216E+01  0.15282717775E+02  0.51100000000E-03 0. -1.
        -11    1    3    3    0    0  0.18302663789E-01  0.69601837083E+00 -0.43850970031E+00  0.82284116233E+00  0.51100000000E-03 0.  1.
        -12    1    3    3    0    0 -0.15576413489E+02 -0.19195971547E+02 -0.17061564435E+02  0.30036760175E+02  0.00000000000E+00 0.  1.
</event>
<event>
 7    1  0.3846293E-008  0.4614232E+02  0.7816164E-02  0.1320468E+00
        -11   -1    0    0    0    0  0.00000000000E+00  0.00000000000E+00  0.45593999997E+02  0.45594000000E+02  0.51100000000E-03 0. -1.
         11   -1    0    0    0    0 -0.00000000000E+00 -0.00000000000E+00 -0.45593999997E+02  0.45594000000E+02  0.51100000000E-03 0.  1.
    9900012    2    1    2    0    0  0.23691424021E+02 -0.10753721593E+02  0.36772100921E+02  0.46142317561E+02  0.99999981797E+01 0.  0.
        -12    1    1    2    0    0 -0.23691424021E+02  0.10753721593E+02 -0.36772100921E+02  0.45045682439E+02  0.00000000000E+00 0.  1.
         11    1    3    3    0    0  0.10734871406E+02 -0.39985795201E+01  0.17113312801E+02  0.20593483862E+02  0.51100000000E-03 0. -1.
        -11    1    3    3    0    0  0.29087165194E+01  0.45592986614E+00  0.81082815195E+01  0.86262815450E+01  0.51100000000E-03 0.  1.
         12    1    3    3    0    0  0.10047836096E+02 -0.72110719386E+01  0.11550506600E+02  0.16922552155E+02  0.00000000000E+00 0. -1.
</event>
<event>
 7    1  0.3846293E-008  0.4614232E+02  0.7816164E-02  0.1320468E+00
        -11   -1    0    0    0    0  0.00000000000E+00  0.00000000000E+00  0.45593999997E+02  0.45594000000E+02  0.51100000000E-03 0.  1.
         11   -1    0    0    0    0 -0.00000000000E+00 -0.00000000000E+00 -0.45593999997E+02  0.45594000000E+02  0.51100000000E-03 0. -1.
    9900012    2    1    2    0    0 -0.40336278665E+02 -0.34360802852E+01 -0.19755796728E+02  0.46142317314E+02  0.99999959246E+01 0.  0.
        -12    1    1    2    0    0  0.40336278665E+02  0.34360802852E+01  0.19755796728E+02  0.45045682686E+02  0.00000000000E+00 0.  1.
         11    1    3    3    0    0 -0.39893259996E+02 -0.45265643978E+01 -0.19182556233E+02  0.44496431792E+02  0.51100000000E-03 0. -1.
        -11    1    3    3    0    0 -0.22219162304E+00  0.57034759625E+00 -0.82499429318E+00  0.10272688756E+01  0.51100000000E-03 0.  1.
         12    1    3    3    0    0 -0.22082704596E+00  0.52013651641E+00  0.25175379826E+00  0.61861664613E+00  0.00000000000E+00 0. -1.
</event>
<event>
 7    1  0.3846293E-008  0.4614232E+02  0.7816164E-02  0.1320468E+00
        -11   -1    0    0    0    0  0.00000000000E+00  0.00000000000E+00  0.45593999997E+02  0.45594000000E+02  0.51100000000E-03 0.  1.
         11   -1    0    0    0    0 -0.00000000000E+00 -0.00000000000E+00 -0.45593999997E+02  0.45594000000E+02  0.51100000000E-03 0. -1.
    9900012    2    1    2    0    0 -0.23699926786E+02 -0.21360684827E+02  0.31798557511E+02  0.46142316014E+02  0.99999840712E+01 0.  0.
        -12    1    1    2    0    0  0.23699926786E+02  0.21360684827E+02 -0.31798557511E+02  0.45045683986E+02  0.00000000000E+00 0.  1.
         11    1    3    3    0    0 -0.15075376046E+02 -0.72103581524E+01  0.15415875682E+02  0.22735554775E+02  0.51100000000E-03 0.  1.
        -11    1    3    3    0    0 -0.78904642808E+01 -0.13268414835E+02  0.14372594430E+02  0.21092219649E+02  0.51100000000E-03 0. -1.
        -12    1    3    3    0    0 -0.73408645910E+00 -0.88191184006E+00  0.20100873994E+01  0.23145415910E+01  0.00000000000E+00 0.  1.
</event>
<event>
 7    1  0.3846293E-008  0.4614232E+02  0.7816164E-02  0.1320468E+00
        -11   -1    0    0    0    0  0.00000000000E+00  0.00000000000E+00  0.45593999997E+02  0.45594000000E+02  0.51100000000E-03 0.  1.
         11   -1    0    0    0    0 -0.00000000000E+00 -0.00000000000E+00 -0.45593999997E+02  0.45594000000E+02  0.51100000000E-03 0. -1.
    9900012    2    1    2    0    0  0.12403635726E+02 -0.34525151869E+02 -0.26139572177E+02  0.46142317362E+02  0.99999963561E+01 0.  0.
        -12    1    1    2    0    0 -0.12403635726E+02  0.34525151869E+02  0.26139572177E+02  0.45045682638E+02  0.00000000000E+00 0.  1.
         11    1    3    3    0    0 -0.14142610367E+00 -0.99914283022E+00 -0.57609886758E-01  0.10107457139E+01  0.51100000000E-03 0. -1.
        -11    1    3    3    0    0  0.46392710095E+00  0.46535746836E+00 -0.78119221012E-01  0.66173166930E+00  0.51100000000E-03 0.  1.
         12    1    3    3    0    0  0.12081134729E+02 -0.33991366507E+02 -0.26003843069E+02  0.44469839978E+02  0.00000000000E+00 0. -1.
</event>
<event>
 7    1  0.3846293E-008  0.4614232E+02  0.7816164E-02  0.1320468E+00
        -11   -1    0    0    0    0  0.00000000000E+00  0.00000000000E+00  0.45593999997E+02  0.45594000000E+02  0.51100000000E-03 0.  1.
         11   -1    0    0    0    0 -0.00000000000E+00 -0.00000000000E+00 -0.45593999997E+02  0.45594000000E+02  0.51100000000E-03 0. -1.
    9900012    2    1    2    0    0  0.19354604289E+02 -0.35627043625E+02 -0.19627189874E+02  0.46142317332E+02  0.99999960869E+01 0.  0.
        -12    1    1    2    0    0 -0.19354604289E+02  0.35627043625E+02  0.19627189874E+02  0.45045682668E+02  0.00000000000E+00 0.  1.
         11    1    3    3    0    0  0.27704839876E+01 -0.26934773247E+01 -0.10530584875E+01  0.40049137398E+01  0.51100000000E-03 0. -1.
        -11    1    3    3    0    0  0.92200472595E+00 -0.25589096657E+01  0.82266647561E+00  0.28416354065E+01  0.51100000000E-03 0.  1.
         12    1    3    3    0    0  0.15662115576E+02 -0.30374656635E+02 -0.19396797862E+02  0.39295768186E+02  0.00000000000E+00 0. -1.
</event>
<event>
 7    1  0.3846293E-008  0.4614232E+02  0.7816164E-02  0.1320468E+00
        -11   -1    0    0    0    0  0.00000000000E+00  0.00000000000E+00  0.45593999997E+02  0.45594000000E+02  0.51100000000E-03 0.  1.
         11   -1    0    0    0    0 -0.00000000000E+00 -0.00000000000E+00 -0.45593999997E+02  0.45594000000E+02  0.51100000000E-03 0. -1.
    9900012    2    1    2    0    0 -0.21225107158E+02  0.10056285633E+02 -0.38437994748E+02  0.46142317689E+02  0.99999993413E+01 0.  0.
        -12    1    1    2    0    0  0.21225107158E+02 -0.10056285633E+02  0.38437994748E+02  0.45045682311E+02  0.00000000000E+00 0.  1.
         11    1    3    3    0    0 -0.63444970033E+01  0.22262526923E+01 -0.17055760827E+02  0.18333243601E+02  0.51100000000E-03 0. -1.
        -11    1    3    3    0    0 -0.64167493865E+01  0.11474606618E+01 -0.50865615093E+01  0.82682795616E+01  0.51100000000E-03 0.  1.
         12    1    3    3    0    0 -0.84638607678E+01  0.66825722793E+01 -0.16295672412E+02  0.19540794527E+02  0.00000000000E+00 0. -1.
</event>
<event>
 7    1  0.3846293E-008  0.4614232E+02  0.7816164E-02  0.1320468E+00
        -11   -1    0    0    0    0  0.00000000000E+00  0.00000000000E+00  0.45593999997E+02  0.45594000000E+02  0.51100000000E-03 0.  1.
         11   -1    0    0    0    0 -0.00000000000E+00 -0.00000000000E+00 -0.45593999997E+02  0.45594000000E+02  0.51100000000E-03 0. -1.
    9900012    2    1    2    0    0 -0.64653572272E+00  0.38157534024E+02 -0.23931111529E+02  0.46142317518E+02  0.99999977844E+01 0.  0.
        -12    1    1    2    0    0  0.64653572272E+00 -0.38157534024E+02  0.23931111529E+02  0.45045682482E+02  0.00000000000E+00 0.  1.
         11    1    3    3    0    0  0.50341405487E+00  0.20043532553E+02 -0.14540504815E+02  0.24767375788E+02  0.51100000000E-03 0. -1.
        -11    1    3    3    0    0 -0.13906581681E+01  0.32679051137E+01  0.42340250458E+00  0.35766470213E+01  0.51100000000E-03 0.  1.
        -12    1    3    3    0    0  0.24070839054E+00  0.14846096357E+02 -0.98140092190E+01  0.17798294709E+02  0.00000000000E+00 0.  1.
</event>
<event>
 7    1  0.3846293E-008  0.4614232E+02  0.7816164E-02  0.1320468E+00
        -11   -1    0    0    0    0  0.00000000000E+00  0.00000000000E+00  0.45593999997E+02  0.45594000000E+02  0.51100000000E-03 0.  1.
         11   -1    0    0    0    0 -0.00000000000E+00 -0.00000000000E+00 -0.45593999997E+02  0.45594000000E+02  0.51100000000E-03 0. -1.
    9900012    2    1    2    0    0  0.43336923615E+02  0.41187211012E+01 -0.11578457068E+02  0.46142317854E+02  0.10000000849E+02 0.  0.
        -12    1    1    2    0    0 -0.43336923615E+02 -0.41187211012E+01  0.11578457068E+02  0.45045682146E+02  0.00000000000E+00 0.  1.
         11    1    3    3    0    0  0.31154600515E+02  0.13687031576E+01 -0.65967286301E+01  0.31874744085E+02  0.51100000000E-03 0. -1.
        -11    1    3    3    0    0  0.56326942810E+01 -0.86168953862E+00 -0.97008404705E+00  0.57802090831E+01  0.51100000000E-03 0.  1.
        -12    1    3    3    0    0  0.65496288184E+01  0.36117074822E+01 -0.40116443907E+01  0.84873646860E+01  0.00000000000E+00 0.  1.
</event>
<event>
 7    1  0.3846293E-008  0.4614232E+02  0.7816164E-02  0.1320468E+00
        -11   -1    0    0    0    0  0.00000000000E+00  0.00000000000E+00  0.45593999997E+02  0.45594000000E+02  0.51100000000E-03 0. -1.
         11   -1    0    0    0    0 -0.00000000000E+00 -0.00000000000E+00 -0.45593999997E+02  0.45594000000E+02  0.51100000000E-03 0.  1.
    9900012    2    1    2    0    0 -0.38263073841E+02  0.18903550958E+02 -0.14412023438E+02  0.46142317874E+02  0.10000001030E+02 0.  0.
        -12    1    1    2    0    0  0.38263073841E+02 -0.18903550958E+02  0.14412023438E+02  0.45045682126E+02  0.00000000000E+00 0.  1.
         11    1    3    3    0    0 -0.21716607565E+02  0.14587968743E+02 -0.60028403135E+01  0.26841273596E+02  0.51100000000E-03 0. -1.
        -11    1    3    3    0    0 -0.11867186831E+01  0.13847371318E+00 -0.15785928341E+01  0.19797554897E+01  0.51100000000E-03 0.  1.
         12    1    3    3    0    0 -0.15359747594E+02  0.41771085016E+01 -0.68305902903E+01  0.17321288788E+02  0.00000000000E+00 0. -1.
</event>
<event>
 7    1  0.3846293E-008  0.4614232E+02  0.7816164E-02  0.1320468E+00
        -11   -1    0    0    0    0  0.00000000000E+00  0.00000000000E+00  0.45593999997E+02  0.45594000000E+02  0.51100000000E-03 0.  1.
         11   -1    0    0    0    0 -0.00000000000E+00 -0.00000000000E+00 -0.45593999997E+02  0.45594000000E+02  0.51100000000E-03 0. -1.
    9900012    2    1    2    0    0 -0.34741605149E+02 -0.28666549274E+02  0.60280591975E+00  0.46142317071E+02  0.99999937039E+01 0.  0.
        -12    1    1    2    0    0  0.34741605149E+02  0.28666549274E+02 -0.60280591975E+00  0.45045682929E+02  0.00000000000E+00 0.  1.
         11    1    3    3    0    0 -0.22236714633E+02 -0.15550440423E+02 -0.13907348404E+00  0.27134977735E+02  0.51100000000E-03 0. -1.
        -11    1    3    3    0    0 -0.11467356316E+02 -0.12711674603E+02 -0.76120430096E+00  0.17136696424E+02  0.51100000000E-03 0.  1.
         12    1    3    3    0    0 -0.10375342002E+01 -0.40443424826E+00  0.15030837048E+01  0.18706429112E+01  0.00000000000E+00 0. -1.
</event>
<event>
 7    1  0.3846293E-008  0.4614232E+02  0.7816164E-02  0.1320468E+00
        -11   -1    0    0    0    0  0.00000000000E+00  0.00000000000E+00  0.45593999997E+02  0.45594000000E+02  0.51100000000E-03 0.  1.
         11   -1    0    0    0    0 -0.00000000000E+00 -0.00000000000E+00 -0.45593999997E+02  0.45594000000E+02  0.51100000000E-03 0. -1.
    9900012    2    1    2    0    0 -0.18448021474E+02 -0.20891249215E+02 -0.35388413691E+02  0.46142316371E+02  0.99999873215E+01 0.  0.
        -12    1    1    2    0    0  0.18448021474E+02  0.20891249215E+02  0.35388413691E+02  0.45045683629E+02  0.00000000000E+00 0.  1.
         11    1    3    3    0    0 -0.55298350433E+00 -0.12938805521E+01 -0.28399176953E+01  0.31693927520E+01  0.51100000000E-03 0. -1.
        -11    1    3    3    0    0 -0.49058844996E+00 -0.14723389357E+01  0.33480354913E+00  0.15876248444E+01  0.51100000000E-03 0.  1.
         12    1    3    3    0    0 -0.17404449520E+02 -0.18125029728E+02 -0.32883299545E+02  0.41385298774E+02  0.00000000000E+00 0. -1.
</event>
<event>
 7    1  0.3846293E-008  0.4614232E+02  0.7816164E-02  0.1320468E+00
        -11   -1    0    0    0    0  0.00000000000E+00  0.00000000000E+00  0.45593999997E+02  0.45594000000E+02  0.51100000000E-03 0. -1.
         11   -1    0    0    0    0 -0.00000000000E+00 -0.00000000000E+00 -0.45593999997E+02  0.45594000000E+02  0.51100000000E-03 0.  1.
    9900012    2    1    2    0    0 -0.74683709190E+01 -0.17990757046E+02  0.40616125510E+02  0.46142317025E+02  0.99999932836E+01 0.  0.
        -12    1    1    2    0    0  0.74683709190E+01  0.17990757046E+02 -0.40616125510E+02  0.45045682975E+02  0.00000000000E+00 0.  1.
         11    1    3    3    0    0 -0.18656034755E+01 -0.31743689413E+01  0.10581722815E+02  0.11204015017E+02  0.51100000000E-03 0. -1.
        -11    1    3    3    0    0 -0.73477576438E+01 -0.86171933259E+01  0.20747111212E+02  0.23636585775E+02  0.51100000000E-03 0.  1.
        -12    1    3    3    0    0  0.17449902004E+01 -0.61991947791E+01  0.92872914828E+01  0.11301716232E+02  0.00000000000E+00 0.  1.
</event>
<event>
 7    1  0.3846293E-008  0.4614231E+02  0.7816164E-02  0.1320468E+00
        -11   -1    0    0    0    0  0.00000000000E+00  0.00000000000E+00  0.45593999997E+02  0.45594000000E+02  0.51100000000E-03 0.  1.
         11   -1    0    0    0    0 -0.00000000000E+00 -0.00000000000E+00 -0.45593999997E+02  0.45594000000E+02  0.51100000000E-03 0. -1.
    9900012    2    1    2    0    0  0.26791685113E+02 -0.25508473931E+02 -0.25702867707E+02  0.46142311617E+02  0.99999439767E+01 0.  0.
        -12    1    1    2    0    0 -0.26791685113E+02  0.25508473931E+02  0.25702867707E+02  0.45045688383E+02  0.00000000000E+00 0.  1.
         11    1    3    3    0    0  0.10485481639E+02 -0.12114396452E+02 -0.56287850183E+01  0.16981965364E+02  0.51100000000E-03 0. -1.
        -11    1    3    3    0    0  0.12109780102E+02 -0.10728360985E+02 -0.15460970420E+02  0.22378250828E+02  0.51100000000E-03 0.  1.
         12    1    3    3    0    0  0.41964233723E+01 -0.26657164939E+01 -0.46131122693E+01  0.67820954250E+01  0.00000000000E+00 0. -1.
</event>
<event>
 7    1  0.3846293E-008  0.4614232E+02  0.7816164E-02  0.1320468E+00
        -11   -1    0    0    0    0  0.00000000000E+00  0.00000000000E+00  0.45593999997E+02  0.45594000000E+02  0.51100000000E-03 0.  1.
         11   -1    0    0    0    0 -0.00000000000E+00 -0.00000000000E+00 -0.45593999997E+02  0.45594000000E+02  0.51100000000E-03 0. -1.
    9900012    2    1    2    0    0 -0.10457228168E+02  0.33289167894E+01 -0.43688422213E+02  0.46142317150E+02  0.99999944281E+01 0.  0.
        -12    1    1    2    0    0  0.10457228168E+02 -0.33289167894E+01  0.43688422213E+02  0.45045682850E+02  0.00000000000E+00 0.  1.
         11    1    3    3    0    0 -0.20099435229E+01  0.24200632456E+01 -0.35138387945E+01  0.47163166150E+01  0.51100000000E-03 0. -1.
        -11    1    3    3    0    0 -0.31109316804E+01 -0.21640378595E+01 -0.11908381117E+02  0.12496819470E+02  0.51100000000E-03 0.  1.
         12    1    3    3    0    0 -0.53363529646E+01  0.30728914033E+01 -0.28266202302E+02  0.28929181065E+02  0.00000000000E+00 0. -1.
</event>
<event>
 7    1  0.3846293E-008  0.4614232E+02  0.7816164E-02  0.1320468E+00
        -11   -1    0    0    0    0  0.00000000000E+00  0.00000000000E+00  0.45593999997E+02  0.45594000000E+02  0.51100000000E-03 0.  1.
         11   -1    0    0    0    0 -0.00000000000E+00 -0.00000000000E+00 -0.45593999997E+02  0.45594000000E+02  0.51100000000E-03 0. -1.
    9900012    2    1    2    0    0  0.25071621211E+02  0.37414474637E+02 -0.82726780885E+00  0.46142317915E+02  0.10000001403E+02 0.  0.
        -12    1    1    2    0    0 -0.25071621211E+02 -0.37414474637E+02  0.82726780885E+00  0.45045682085E+02  0.00000000000E+00 0.  1.
         11    1    3    3    0    0  0.13787962597E+01  0.54360423282E+01 -0.42347263471E+00  0.56241412370E+01  0.51100000000E-03 0. -1.
        -11    1    3    3    0    0  0.15165754275E+02  0.14380962048E+02 -0.13240216900E+01  0.20941948473E+02  0.51100000000E-03 0.  1.
        -12    1    3    3    0    0  0.85270706761E+01  0.17597470261E+02  0.92022651585E+00  0.19576228205E+02  0.00000000000E+00 0.  1.
</event>
<event>
 7    1  0.3846293E-008  0.4614232E+02  0.7816164E-02  0.1320468E+00
        -11   -1    0    0    0    0  0.00000000000E+00  0.00000000000E+00  0.45593999997E+02  0.45594000000E+02  0.51100000000E-03 0.  1.
         11   -1    0    0    0    0 -0.00000000000E+00 -0.00000000000E+00 -0.45593999997E+02  0.45594000000E+02  0.51100000000E-03 0. -1.
    9900012    2    1    2    0    0 -0.12718268517E+02  0.25081048461E+02 -0.35189487230E+02  0.46142319213E+02  0.10000013244E+02 0.  0.
        -12    1    1    2    0    0  0.12718268517E+02 -0.25081048461E+02  0.35189487230E+02  0.45045680787E+02  0.00000000000E+00 0.  1.
         11    1    3    3    0    0 -0.34914955310E+01  0.87948414187E+01 -0.10044956136E+02  0.13800033357E+02  0.51100000000E-03 0. -1.
        -11    1    3    3    0    0  0.13152722657E+00 -0.39566913489E+00  0.29743114933E+00  0.51217089467E+00  0.51100000000E-03 0.  1.
        -12    1    3    3    0    0 -0.93583002124E+01  0.16681876178E+02 -0.25441962243E+02  0.31830114961E+02  0.00000000000E+00 0.  1.
</event>
<event>
 7    1  0.3846293E-008  0.4614232E+02  0.7816164E-02  0.1320468E+00
        -11   -1    0    0    0    0  0.00000000000E+00  0.00000000000E+00  0.45593999997E+02  0.45594000000E+02  0.51100000000E-03 0.  1.
         11   -1    0    0    0    0 -0.00000000000E+00 -0.00000000000E+00 -0.45593999997E+02  0.45594000000E+02  0.51100000000E-03 0. -1.
    9900012    2    1    2    0    0 -0.93841682983E+01  0.39122915798E+01 -0.43883309984E+02  0.46142317241E+02  0.99999952566E+01 0.  0.
        -12    1    1    2    0    0  0.93841682983E+01 -0.39122915798E+01  0.43883309984E+02  0.45045682759E+02  0.00000000000E+00 0.  1.
         11    1    3    3    0    0 -0.30303175998E+01  0.41280028677E+01 -0.88866348576E+01  0.10256486327E+02  0.51100000000E-03 0. -1.
        -11    1    3    3    0    0 -0.50892334486E+01  0.18708197682E+01 -0.26315853137E+02  0.26868650697E+02  0.51100000000E-03 0.  1.
        -12    1    3    3    0    0 -0.12646172499E+01 -0.20865310561E+01 -0.86808219896E+01  0.90171802163E+01  0.00000000000E+00 0.  1.
</event>
<event>
 7    1  0.3846293E-008  0.4614232E+02  0.7816164E-02  0.1320468E+00
        -11   -1    0    0    0    0  0.00000000000E+00  0.00000000000E+00  0.45593999997E+02  0.45594000000E+02  0.51100000000E-03 0.  1.
         11   -1    0    0    0    0 -0.00000000000E+00 -0.00000000000E+00 -0.45593999997E+02  0.45594000000E+02  0.51100000000E-03 0. -1.
    9900012    2    1    2    0    0 -0.39993491627E+02 -0.42617469316E+01 -0.20284765300E+02  0.46142316936E+02  0.99999924794E+01 0.  0.
        -12    1    1    2    0    0  0.39993491627E+02  0.42617469316E+01  0.20284765300E+02  0.45045683064E+02  0.00000000000E+00 0.  1.
         11    1    3    3    0    0 -0.34782094511E+01 -0.10769929960E+01  0.45361482344E+00  0.36692807971E+01  0.51100000000E-03 0. -1.
        -11    1    3    3    0    0 -0.35525778509E+01 -0.62423267860E-01 -0.40736882992E+01  0.54055196486E+01  0.51100000000E-03 0.  1.
         12    1    3    3    0    0 -0.32962704325E+02 -0.31223306678E+01 -0.16664691824E+02  0.37067516491E+02  0.00000000000E+00 0. -1.
</event>
<event>
 7    1  0.3846293E-008  0.4614232E+02  0.7816164E-02  0.1320468E+00
        -11   -1    0    0    0    0  0.00000000000E+00  0.00000000000E+00  0.45593999997E+02  0.45594000000E+02  0.51100000000E-03 0.  1.
         11   -1    0    0    0    0 -0.00000000000E+00 -0.00000000000E+00 -0.45593999997E+02  0.45594000000E+02  0.51100000000E-03 0. -1.
    9900012    2    1    2    0    0  0.15535302664E+02 -0.26158607307E+02 -0.33218891833E+02  0.46142321631E+02  0.10000035289E+02 0.  0.
        -12    1    1    2    0    0 -0.15535302664E+02  0.26158607307E+02  0.33218891833E+02  0.45045678369E+02  0.00000000000E+00 0.  1.
         11    1    3    3    0    0  0.65427235955E+01 -0.13606943366E+02 -0.17274920245E+02  0.22942951195E+02  0.51100000000E-03 0. -1.
        -11    1    3    3    0    0  0.76525184199E+01 -0.10242916190E+02 -0.86625353549E+01  0.15444024387E+02  0.51100000000E-03 0.  1.
        -12    1    3    3    0    0  0.13400606491E+01 -0.23087477513E+01 -0.72814362327E+01  0.77553460486E+01  0.00000000000E+00 0.  1.
</event>
<event>
 7    1  0.3846293E-008  0.4614231E+02  0.7816164E-02  0.1320468E+00
        -11   -1    0    0    0    0  0.00000000000E+00  0.00000000000E+00  0.45593999997E+02  0.45594000000E+02  0.51100000000E-03 0.  1.
         11   -1    0    0    0    0 -0.00000000000E+00 -0.00000000000E+00 -0.45593999997E+02  0.45594000000E+02  0.51100000000E-03 0. -1.
    9900012    2    1    2    0    0  0.51650784086E+00 -0.31766029742E+02 -0.31933780822E+02  0.46142314485E+02  0.99999701240E+01 0.  0.
        -12    1    1    2    0    0 -0.51650784086E+00  0.31766029742E+02  0.31933780822E+02  0.45045685515E+02  0.00000000000E+00 0.  1.
         11    1    3    3    0    0  0.30676355217E+00 -0.21818025882E+01 -0.15841057753E+01  0.27136244728E+01  0.51100000000E-03 0.  1.
        -11    1    3    3    0    0  0.56605294637E+00 -0.25792661625E+02 -0.30054831120E+02  0.39609022755E+02  0.51100000000E-03 0. -1.
         12    1    3    3    0    0 -0.35630865769E+00 -0.37915655283E+01 -0.29484392699E+00  0.38196672573E+01  0.00000000000E+00 0. -1.
</event>
<event>
 7    1  0.3846293E-008  0.4614232E+02  0.7816164E-02  0.1320468E+00
        -11   -1    0    0    0    0  0.00000000000E+00  0.00000000000E+00  0.45593999997E+02  0.45594000000E+02  0.51100000000E-03 0. -1.
         11   -1    0    0    0    0 -0.00000000000E+00 -0.00000000000E+00 -0.45593999997E+02  0.45594000000E+02  0.51100000000E-03 0.  1.
    9900012    2    1    2    0    0  0.31158073453E+02 -0.11028346516E+02  0.30604960257E+02  0.46142316960E+02  0.99999926965E+01 0.  0.
        -12    1    1    2    0    0 -0.31158073453E+02  0.11028346516E+02 -0.30604960257E+02  0.45045683040E+02  0.00000000000E+00 0.  1.
         11    1    3    3    0    0  0.91471340003E+01  0.12992088567E+01  0.87523791157E+01  0.12726434871E+02  0.51100000000E-03 0. -1.
        -11    1    3    3    0    0  0.49648486539E+01 -0.35731041403E+01  0.51973295815E+01  0.80267696113E+01  0.51100000000E-03 0.  1.
         12    1    3    3    0    0  0.17046090799E+02 -0.87544512320E+01  0.16655251560E+02  0.25389112478E+02  0.00000000000E+00 0. -1.
</event>
<event>
 7    1  0.3846293E-008  0.4614232E+02  0.7816164E-02  0.1320468E+00
        -11   -1    0    0    0    0  0.00000000000E+00  0.00000000000E+00  0.45593999997E+02  0.45594000000E+02  0.51100000000E-03 0. -1.
         11   -1    0    0    0    0 -0.00000000000E+00 -0.00000000000E+00 -0.45593999997E+02  0.45594000000E+02  0.51100000000E-03 0.  1.
    9900012    2    1    2    0    0  0.39980445277E+02  0.20746921181E+02 -0.49278772215E+00  0.46142316713E+02  0.99999904421E+01 0.  0.
        -12    1    1    2    0    0 -0.39980445277E+02 -0.20746921181E+02  0.49278772215E+00  0.45045683287E+02  0.00000000000E+00 0.  1.
         11    1    3    3    0    0  0.21448290557E+02  0.13891596079E+02 -0.99896809833E+00  0.25573493054E+02  0.51100000000E-03 0. -1.
        -11    1    3    3    0    0  0.11389740259E+01 -0.71483616942E+00 -0.78267230521E+00  0.15559012756E+01  0.51100000000E-03 0.  1.
         12    1    3    3    0    0  0.17393180694E+02  0.75701612714E+01  0.12888526814E+01  0.19012922384E+02  0.00000000000E+00 0. -1.
</event>
<event>
 7    1  0.3846293E-008  0.4614232E+02  0.7816164E-02  0.1320468E+00
        -11   -1    0    0    0    0  0.00000000000E+00  0.00000000000E+00  0.45593999997E+02  0.45594000000E+02  0.51100000000E-03 0.  1.
         11   -1    0    0    0    0 -0.00000000000E+00 -0.00000000000E+00 -0.45593999997E+02  0.45594000000E+02  0.51100000000E-03 0. -1.
    9900012    2    1    2    0    0  0.16628314270E+02  0.14314213735E+01 -0.41839735870E+02  0.46142319848E+02  0.10000019034E+02 0.  0.
        -12    1    1    2    0    0 -0.16628314270E+02 -0.14314213735E+01  0.41839735870E+02  0.45045680152E+02  0.00000000000E+00 0.  1.
         11    1    3    3    0    0  0.29909428166E+01  0.24491882195E+01 -0.71663841680E+01  0.81425625064E+01  0.51100000000E-03 0. -1.
        -11    1    3    3    0    0 -0.56708026375E+00  0.10432122894E+01 -0.29755997546E+01  0.32037581162E+01  0.51100000000E-03 0.  1.
         12    1    3    3    0    0  0.14204451717E+02 -0.20609791355E+01 -0.31697751948E+02  0.34795999226E+02  0.00000000000E+00 0. -1.
</event>
<event>
 7    1  0.3846293E-008  0.4614232E+02  0.7816164E-02  0.1320468E+00
        -11   -1    0    0    0    0  0.00000000000E+00  0.00000000000E+00  0.45593999997E+02  0.45594000000E+02  0.51100000000E-03 0. -1.
         11   -1    0    0    0    0 -0.00000000000E+00 -0.00000000000E+00 -0.45593999997E+02  0.45594000000E+02  0.51100000000E-03 0.  1.
    9900012    2    1    2    0    0  0.18471861404E+02 -0.37280069370E+02  0.17265577285E+02  0.46142318798E+02  0.10000009459E+02 0.  0.
        -12    1    1    2    0    0 -0.18471861404E+02  0.37280069370E+02 -0.17265577285E+02  0.45045681202E+02  0.00000000000E+00 0.  1.
         11    1    3    3    0    0  0.90524811964E+01 -0.16301637452E+02  0.89987994026E+01  0.20704327818E+02  0.51100000000E-03 0.  1.
        -11    1    3    3    0    0  0.86384899886E+01 -0.21464230332E+02  0.79728138141E+01  0.24472483597E+02  0.51100000000E-03 0. -1.
        -12    1    3    3    0    0  0.78089021850E+00  0.48579841503E+00  0.29396406861E+00  0.96550738321E+00  0.00000000000E+00 0.  1.
</event>
<event>
 7    1  0.3846293E-008  0.4614232E+02  0.7816164E-02  0.1320468E+00
        -11   -1    0    0    0    0  0.00000000000E+00  0.00000000000E+00  0.45593999997E+02  0.45594000000E+02  0.51100000000E-03 0.  1.
         11   -1    0    0    0    0 -0.00000000000E+00 -0.00000000000E+00 -0.45593999997E+02  0.45594000000E+02  0.51100000000E-03 0. -1.
    9900012    2    1    2    0    0 -0.43914798933E+02 -0.50878340282E+01 -0.86439466036E+01  0.46142318373E+02  0.10000005576E+02 0.  0.
        -12    1    1    2    0    0  0.43914798933E+02  0.50878340282E+01  0.86439466036E+01  0.45045681627E+02  0.00000000000E+00 0.  1.
         11    1    3    3    0    0 -0.22261767137E+02 -0.33059599901E+01 -0.17485343984E+01  0.22573724113E+02  0.51100000000E-03 0. -1.
        -11    1    3    3    0    0 -0.39158582763E+01 -0.10326322871E+01  0.94949205255E+00  0.41595445543E+01  0.51100000000E-03 0.  1.
        -12    1    3    3    0    0 -0.17737173519E+02 -0.74924175101E+00 -0.78449042578E+01  0.19409049706E+02  0.00000000000E+00 0.  1.
</event>
<event>
 7    1  0.3846293E-008  0.4614232E+02  0.7816164E-02  0.1320468E+00
        -11   -1    0    0    0    0  0.00000000000E+00  0.00000000000E+00  0.45593999997E+02  0.45594000000E+02  0.51100000000E-03 0.  1.
         11   -1    0    0    0    0 -0.00000000000E+00 -0.00000000000E+00 -0.45593999997E+02  0.45594000000E+02  0.51100000000E-03 0. -1.
    9900012    2    1    2    0    0 -0.83771831660E+01  0.43956401038E+02  0.51740795266E+01  0.46142317755E+02  0.99999999406E+01 0.  0.
        -12    1    1    2    0    0  0.83771831660E+01 -0.43956401038E+02 -0.51740795266E+01  0.45045682245E+02  0.00000000000E+00 0.  1.
         11    1    3    3    0    0 -0.49358370811E+00  0.17811513580E+02  0.48494519259E+01  0.18466478417E+02  0.51100000000E-03 0. -1.
        -11    1    3    3    0    0 -0.90763631388E+00  0.77972247369E+01  0.15775189102E+01  0.80068148130E+01  0.51100000000E-03 0.  1.
        -12    1    3    3    0    0 -0.69759631440E+01  0.18347662721E+02 -0.12528913094E+01  0.19669024524E+02  0.00000000000E+00 0.  1.
</event>
<event>
 7    1  0.3846293E-008  0.4614232E+02  0.7816164E-02  0.1320468E+00
        -11   -1    0    0    0    0  0.00000000000E+00  0.00000000000E+00  0.45593999997E+02  0.45594000000E+02  0.51100000000E-03 0.  1.
         11   -1    0    0    0    0 -0.00000000000E+00 -0.00000000000E+00 -0.45593999997E+02  0.45594000000E+02  0.51100000000E-03 0. -1.
    9900012    2    1    2    0    0 -0.27748483649E+02  0.22621452009E+02 -0.27338710187E+02  0.46142317516E+02  0.99999977605E+01 0.  0.
        -12    1    1    2    0    0  0.27748483649E+02 -0.22621452009E+02  0.27338710187E+02  0.45045682484E+02  0.00000000000E+00 0.  1.
         11    1    3    3    0    0 -0.15926918608E+02  0.14996309987E+02 -0.15506538458E+02  0.26814339164E+02  0.51100000000E-03 0. -1.
        -11    1    3    3    0    0 -0.14244720383E+01  0.80399422327E+00  0.60190332783E+00  0.17429329236E+01  0.51100000000E-03 0.  1.
         12    1    3    3    0    0 -0.10397093003E+02  0.68211477984E+01 -0.12434075057E+02  0.17585045428E+02  0.00000000000E+00 0. -1.
</event>
<event>
 7    1  0.3846293E-008  0.4614232E+02  0.7816164E-02  0.1320468E+00
        -11   -1    0    0    0    0  0.00000000000E+00  0.00000000000E+00  0.45593999997E+02  0.45594000000E+02  0.51100000000E-03 0. -1.
         11   -1    0    0    0    0 -0.00000000000E+00 -0.00000000000E+00 -0.45593999997E+02  0.45594000000E+02  0.51100000000E-03 0.  1.
    9900012    2    1    2    0    0 -0.22226705552E+02 -0.10218277130E+02  0.37824246379E+02  0.46142320503E+02  0.10000025006E+02 0.  0.
        -12    1    1    2    0    0  0.22226705552E+02  0.10218277130E+02 -0.37824246379E+02  0.45045679497E+02  0.00000000000E+00 0.  1.
         11    1    3    3    0    0 -0.60180810003E+01 -0.53891776415E+01  0.12489003720E+02  0.14873995723E+02  0.51100000000E-03 0. -1.
        -11    1    3    3    0    0 -0.13715567989E+01 -0.14116515107E+01  0.33480102751E+00  0.19965019483E+01  0.51100000000E-03 0.  1.
        -12    1    3    3    0    0 -0.14837067753E+02 -0.34174479776E+01  0.25000441631E+02  0.29271822832E+02  0.00000000000E+00 0.  1.
</event>
<event>
 7    1  0.3846293E-008  0.4614232E+02  0.7816164E-02  0.1320468E+00
        -11   -1    0    0    0    0  0.00000000000E+00  0.00000000000E+00  0.45593999997E+02  0.45594000000E+02  0.51100000000E-03 0. -1.
         11   -1    0    0    0    0 -0.00000000000E+00 -0.00000000000E+00 -0.45593999997E+02  0.45594000000E+02  0.51100000000E-03 0.  1.
    9900012    2    1    2    0    0  0.15286301897E+02  0.56797197693E+01  0.41990274612E+02  0.46142318694E+02  0.10000008507E+02 0.  0.
        -12    1    1    2    0    0 -0.15286301897E+02 -0.56797197693E+01 -0.41990274612E+02  0.45045681306E+02  0.00000000000E+00 0.  1.
         11    1    3    3    0    0  0.52177624339E+01  0.28014492577E+01  0.87101285731E+01  0.10532782291E+02  0.51100000000E-03 0. -1.
        -11    1    3    3    0    0  0.57116831235E+01  0.15341183010E+01  0.81534965343E+01  0.10072554247E+02  0.51100000000E-03 0.  1.
         12    1    3    3    0    0  0.43568563397E+01  0.13441522106E+01  0.25126649504E+02  0.25536982156E+02  0.00000000000E+00 0. -1.
</event>
<event>
 7    1  0.3846293E-008  0.4614232E+02  0.7816164E-02  0.1320468E+00
        -11   -1    0    0    0    0  0.00000000000E+00  0.00000000000E+00  0.45593999997E+02  0.45594000000E+02  0.51100000000E-03 0.  1.
         11   -1    0    0    0    0 -0.00000000000E+00 -0.00000000000E+00 -0.45593999997E+02  0.45594000000E+02  0.51100000000E-03 0. -1.
    9900012    2    1    2    0    0 -0.13572240454E+02  0.18283824083E+02 -0.38866562672E+02  0.46142316211E+02  0.99999858655E+01 0.  0.
        -12    1    1    2    0    0  0.13572240454E+02 -0.18283824083E+02  0.38866562672E+02  0.45045683789E+02  0.00000000000E+00 0.  1.
         11    1    3    3    0    0 -0.54808335105E+00 -0.65880257209E-01 -0.24749427515E+01  0.25357597387E+01  0.51100000000E-03 0. -1.
        -11    1    3    3    0    0 -0.28673612317E+01  0.86616054504E+01 -0.20282372974E+02  0.22240049981E+02  0.51100000000E-03 0.  1.
         12    1    3    3    0    0 -0.10156795872E+02  0.96880988897E+01 -0.16109246947E+02  0.21366506492E+02  0.00000000000E+00 0. -1.
</event>
<event>
 7    1  0.3846293E-008  0.4614232E+02  0.7816164E-02  0.1320468E+00
        -11   -1    0    0    0    0  0.00000000000E+00  0.00000000000E+00  0.45593999997E+02  0.45594000000E+02  0.51100000000E-03 0.  1.
         11   -1    0    0    0    0 -0.00000000000E+00 -0.00000000000E+00 -0.45593999997E+02  0.45594000000E+02  0.51100000000E-03 0. -1.
    9900012    2    1    2    0    0 -0.29980643246E+02  0.27939552456E+02 -0.18699087828E+02  0.46142318226E+02  0.10000004240E+02 0.  0.
        -12    1    1    2    0    0  0.29980643246E+02 -0.27939552456E+02  0.18699087828E+02  0.45045681774E+02  0.00000000000E+00 0.  1.
         11    1    3    3    0    0 -0.20475250167E+01  0.49082796169E+01 -0.44151594685E+00  0.53365254693E+01  0.51100000000E-03 0. -1.
        -11    1    3    3    0    0 -0.82267998170E+00  0.68077672997E+00  0.24565141462E+00  0.10957208527E+01  0.51100000000E-03 0.  1.
         12    1    3    3    0    0 -0.27110438248E+02  0.22350496109E+02 -0.18503223295E+02  0.39710071904E+02  0.00000000000E+00 0. -1.
</event>
<event>
 7    1  0.3846293E-008  0.4614232E+02  0.7816164E-02  0.1320468E+00
        -11   -1    0    0    0    0  0.00000000000E+00  0.00000000000E+00  0.45593999997E+02  0.45594000000E+02  0.51100000000E-03 0.  1.
         11   -1    0    0    0    0 -0.00000000000E+00 -0.00000000000E+00 -0.45593999997E+02  0.45594000000E+02  0.51100000000E-03 0. -1.
    9900012    2    1    2    0    0  0.16085260132E+02  0.12982432062E+02 -0.40022921897E+02  0.46142318598E+02  0.10000007635E+02 0.  0.
        -12    1    1    2    0    0 -0.16085260132E+02 -0.12982432062E+02  0.40022921897E+02  0.45045681402E+02  0.00000000000E+00 0.  1.
         11    1    3    3    0    0  0.38816365337E+01  0.32267680963E+01 -0.17678054419E+02  0.18384578941E+02  0.51100000000E-03 0. -1.
        -11    1    3    3    0    0  0.67910874867E+01  0.22615346960E+01 -0.10994261688E+02  0.13118963327E+02  0.51100000000E-03 0.  1.
        -12    1    3    3    0    0  0.54125361118E+01  0.74941292697E+01 -0.11350605789E+02  0.14638776330E+02  0.00000000000E+00 0.  1.
</event>
<event>
 7    1  0.3846293E-008  0.4614232E+02  0.7816164E-02  0.1320468E+00
        -11   -1    0    0    0    0  0.00000000000E+00  0.00000000000E+00  0.45593999997E+02  0.45594000000E+02  0.51100000000E-03 0.  1.
         11   -1    0    0    0    0 -0.00000000000E+00 -0.00000000000E+00 -0.45593999997E+02  0.45594000000E+02  0.51100000000E-03 0. -1.
    9900012    2    1    2    0    0 -0.40750276073E+02 -0.14756150647E+02 -0.12279433040E+02  0.46142318101E+02  0.10000003099E+02 0.  0.
        -12    1    1    2    0    0  0.40750276073E+02  0.14756150647E+02  0.12279433040E+02  0.45045681899E+02  0.00000000000E+00 0.  1.
         11    1    3    3    0    0 -0.20359228026E+02 -0.92223291187E+01 -0.77674381513E+01  0.23661838810E+02  0.51100000000E-03 0. -1.
        -11    1    3    3    0    0 -0.29610651179E+01 -0.33269387154E+01 -0.88804116566E+00  0.45414805099E+01  0.51100000000E-03 0.  1.
        -12    1    3    3    0    0 -0.17429982930E+02 -0.22068828126E+01 -0.36239537235E+01  0.17938998781E+02  0.00000000000E+00 0.  1.
</event>
<event>
 7    1  0.3846293E-008  0.4614232E+02  0.7816164E-02  0.1320468E+00
        -11   -1    0    0    0    0  0.00000000000E+00  0.00000000000E+00  0.45593999997E+02  0.45594000000E+02  0.51100000000E-03 0.  1.
         11   -1    0    0    0    0 -0.00000000000E+00 -0.00000000000E+00 -0.45593999997E+02  0.45594000000E+02  0.51100000000E-03 0. -1.
    9900012    2    1    2    0    0  0.35868303875E+02 -0.15235839392E+02 -0.22593087521E+02  0.46142316205E+02  0.99999858126E+01 0.  0.
        -12    1    1    2    0    0 -0.35868303875E+02  0.15235839392E+02  0.22593087521E+02  0.45045683795E+02  0.00000000000E+00 0.  1.
         11    1    3    3    0    0  0.90298679053E+01 -0.32558339344E+01 -0.34709955563E+01  0.10207192533E+02  0.51100000000E-03 0. -1.
        -11    1    3    3    0    0  0.12542469793E+02 -0.64428437243E+01 -0.46363992266E+01  0.14843179640E+02  0.51100000000E-03 0.  1.
         12    1    3    3    0    0  0.14295966176E+02 -0.55371617333E+01 -0.14485692738E+02  0.21091944032E+02  0.00000000000E+00 0. -1.
</event>
<event>
 7    1  0.3846293E-008  0.4614232E+02  0.7816164E-02  0.1320468E+00
        -11   -1    0    0    0    0  0.00000000000E+00  0.00000000000E+00  0.45593999997E+02  0.45594000000E+02  0.51100000000E-03 0. -1.
         11   -1    0    0    0    0 -0.00000000000E+00 -0.00000000000E+00 -0.45593999997E+02  0.45594000000E+02  0.51100000000E-03 0.  1.
    9900012    2    1    2    0    0 -0.34917184949E+02 -0.11790372783E+02  0.25901559845E+02  0.46142317659E+02  0.99999990684E+01 0.  0.
        -12    1    1    2    0    0  0.34917184949E+02  0.11790372783E+02 -0.25901559845E+02  0.45045682341E+02  0.00000000000E+00 0.  1.
         11    1    3    3    0    0 -0.45731761260E+01 -0.39268321932E+01  0.44679949615E+01  0.75031280271E+01  0.51100000000E-03 0. -1.
        -11    1    3    3    0    0 -0.29081677330E+02 -0.90086267173E+01  0.20323067526E+02  0.36605004925E+02  0.51100000000E-03 0.  1.
         12    1    3    3    0    0 -0.12623314938E+01  0.11450861276E+01  0.11104973577E+01  0.20341847068E+01  0.00000000000E+00 0. -1.
</event>
<event>
 7    1  0.3846293E-008  0.4614232E+02  0.7816164E-02  0.1320468E+00
        -11   -1    0    0    0    0  0.00000000000E+00  0.00000000000E+00  0.45593999997E+02  0.45594000000E+02  0.51100000000E-03 0.  1.
         11   -1    0    0    0    0 -0.00000000000E+00 -0.00000000000E+00 -0.45593999997E+02  0.45594000000E+02  0.51100000000E-03 0. -1.
    9900012    2    1    2    0    0  0.48288786499E+01  0.34536362945E+02 -0.28513768927E+02  0.46142318155E+02  0.10000003588E+02 0.  0.
        -12    1    1    2    0    0 -0.48288786499E+01 -0.34536362945E+02  0.28513768927E+02  0.45045681845E+02  0.00000000000E+00 0.  1.
         11    1    3    3    0    0  0.29134259285E+01  0.40247305877E+01 -0.34671687014E+01  0.60586934243E+01  0.51100000000E-03 0. -1.
        -11    1    3    3    0    0 -0.36711220910E+00  0.94229480079E+01 -0.41341778575E+01  0.10296511417E+02  0.51100000000E-03 0.  1.
         12    1    3    3    0    0  0.22825649305E+01  0.21088684349E+02 -0.20912422369E+02  0.29787113314E+02  0.00000000000E+00 0. -1.
</event>
<event>
 7    1  0.3846293E-008  0.4614232E+02  0.7816164E-02  0.1320468E+00
        -11   -1    0    0    0    0  0.00000000000E+00  0.00000000000E+00  0.45593999997E+02  0.45594000000E+02  0.51100000000E-03 0.  1.
         11   -1    0    0    0    0 -0.00000000000E+00 -0.00000000000E+00 -0.45593999997E+02  0.45594000000E+02  0.51100000000E-03 0. -1.
    9900012    2    1    2    0    0  0.30930446505E+02  0.18579754352E+02 -0.26966898463E+02  0.46142318681E+02  0.10000008387E+02 0.  0.
        -12    1    1    2    0    0 -0.30930446505E+02 -0.18579754352E+02  0.26966898463E+02  0.45045681319E+02  0.00000000000E+00 0.  1.
         11    1    3    3    0    0  0.24582216051E+02  0.12732818914E+02 -0.20331068205E+02  0.34347668889E+02  0.51100000000E-03 0. -1.
        -11    1    3    3    0    0  0.40715692252E+00  0.43643404306E-01  0.63564816532E+00  0.75612853239E+00  0.51100000000E-03 0.  1.
         12    1    3    3    0    0  0.59410735305E+01  0.58032920338E+01 -0.72714784240E+01  0.11038521259E+02  0.00000000000E+00 0. -1.
</event>
<event>
 7    1  0.3846293E-008  0.4614232E+02  0.7816164E-02  0.1320468E+00
        -11   -1    0    0    0    0  0.00000000000E+00  0.00000000000E+00  0.45593999997E+02  0.45594000000E+02  0.51100000000E-03 0.  1.
         11   -1    0    0    0    0 -0.00000000000E+00 -0.00000000000E+00 -0.45593999997E+02  0.45594000000E+02  0.51100000000E-03 0. -1.
    9900012    2    1    2    0    0 -0.44148244676E+01 -0.27876252993E+01 -0.44742059666E+02  0.46142318375E+02  0.10000005601E+02 0.  0.
        -12    1    1    2    0    0  0.44148244676E+01  0.27876252993E+01  0.44742059666E+02  0.45045681625E+02  0.00000000000E+00 0.  1.
         11    1    3    3    0    0 -0.30289203002E+01 -0.14609145985E+01 -0.23882833068E+02  0.24118423358E+02  0.51100000000E-03 0. -1.
        -11    1    3    3    0    0  0.13108727302E+01 -0.32158714741E+01 -0.13866337568E+02  0.14294598087E+02  0.51100000000E-03 0.  1.
        -12    1    3    3    0    0 -0.26967768976E+01  0.18891607732E+01 -0.69928890301E+01  0.77292969312E+01  0.00000000000E+00 0.  1.
</event>
<event>
 7    1  0.3846293E-008  0.4614232E+02  0.7816164E-02  0.1320468E+00
        -11   -1    0    0    0    0  0.00000000000E+00  0.00000000000E+00  0.45593999997E+02  0.45594000000E+02  0.51100000000E-03 0. -1.
         11   -1    0    0    0    0 -0.00000000000E+00 -0.00000000000E+00 -0.45593999997E+02  0.45594000000E+02  0.51100000000E-03 0.  1.
    9900012    2    1    2    0    0 -0.17581687479E+02  0.41367954942E+02  0.29478541206E+01  0.46142320134E+02  0.10000021635E+02 0.  0.
        -12    1    1    2    0    0  0.17581687479E+02 -0.41367954942E+02 -0.29478541206E+01  0.45045679866E+02  0.00000000000E+00 0.  1.
         11    1    3    3    0    0 -0.14555299447E+02  0.30260087319E+02 -0.96043796617E+00  0.33592440636E+02  0.51100000000E-03 0. -1.
        -11    1    3    3    0    0 -0.26127901810E+01  0.84850868112E+01  0.15785472345E+01  0.90174931304E+01  0.51100000000E-03 0.  1.
        -12    1    3    3    0    0 -0.41359785101E+00  0.26227808121E+01  0.23297448523E+01  0.35323863672E+01  0.00000000000E+00 0.  1.
</event>
<event>
 7    1  0.3846293E-008  0.4614232E+02  0.7816164E-02  0.1320468E+00
        -11   -1    0    0    0    0  0.00000000000E+00  0.00000000000E+00  0.45593999997E+02  0.45594000000E+02  0.51100000000E-03 0.  1.
         11   -1    0    0    0    0 -0.00000000000E+00 -0.00000000000E+00 -0.45593999997E+02  0.45594000000E+02  0.51100000000E-03 0. -1.
    9900012    2    1    2    0    0 -0.43682968647E+02 -0.10390327995E+02  0.35989954685E+01  0.46142318364E+02  0.10000005499E+02 0.  0.
        -12    1    1    2    0    0  0.43682968647E+02  0.10390327995E+02 -0.35989954685E+01  0.45045681636E+02  0.00000000000E+00 0.  1.
         11    1    3    3    0    0 -0.24700837249E+02 -0.58990929547E+01  0.52974897300E+00  0.25401009679E+02  0.51100000000E-03 0. -1.
        -11    1    3    3    0    0 -0.10438283433E+02  0.79079039200E+00  0.15767763364E+01  0.10586280477E+02  0.51100000000E-03 0.  1.
         12    1    3    3    0    0 -0.85438479652E+01 -0.52820254326E+01  0.14924701591E+01  0.10155028208E+02  0.00000000000E+00 0. -1.
</event>
<event>
 7    1  0.3846293E-008  0.4614232E+02  0.7816164E-02  0.1320468E+00
        -11   -1    0    0    0    0  0.00000000000E+00  0.00000000000E+00  0.45593999997E+02  0.45594000000E+02  0.51100000000E-03 0. -1.
         11   -1    0    0    0    0 -0.00000000000E+00 -0.00000000000E+00 -0.45593999997E+02  0.45594000000E+02  0.51100000000E-03 0.  1.
    9900012    2    1    2    0    0 -0.40299221930E+02 -0.14057008829E+02 -0.14404394563E+02  0.46142319096E+02  0.10000012170E+02 0.  0.
        -12    1    1    2    0    0  0.40299221930E+02  0.14057008829E+02  0.14404394563E+02  0.45045680904E+02  0.00000000000E+00 0.  1.
         11    1    3    3    0    0 -0.23206423558E+02 -0.10616731552E+02 -0.12538010831E+02  0.28433339569E+02  0.51100000000E-03 0. -1.
        -11    1    3    3    0    0 -0.11885355502E+02 -0.35419328057E+01 -0.13281190402E+01  0.12472804972E+02  0.51100000000E-03 0.  1.
         12    1    3    3    0    0 -0.52074428697E+01  0.10165552850E+00 -0.53826469181E+00  0.52361745545E+01  0.00000000000E+00 0. -1.
</event>
<event>
 7    1  0.3846293E-008  0.4614232E+02  0.7816164E-02  0.1320468E+00
        -11   -1    0    0    0    0  0.00000000000E+00  0.00000000000E+00  0.45593999997E+02  0.45594000000E+02  0.51100000000E-03 0.  1.
         11   -1    0    0    0    0 -0.00000000000E+00 -0.00000000000E+00 -0.45593999997E+02  0.45594000000E+02  0.51100000000E-03 0. -1.
    9900012    2    1    2    0    0  0.13208549831E+02  0.13466863142E+02 -0.40905881572E+02  0.46142319422E+02  0.10000015148E+02 0.  0.
        -12    1    1    2    0    0 -0.13208549831E+02 -0.13466863142E+02  0.40905881572E+02  0.45045680578E+02  0.00000000000E+00 0.  1.
         11    1    3    3    0    0  0.63089458336E+01  0.75705065731E+01 -0.11433177122E+02  0.15094134843E+02  0.51100000000E-03 0. -1.
        -11    1    3    3    0    0  0.14421488447E+00  0.81692714349E-01  0.77514891176E-01  0.18297664320E+00  0.51100000000E-03 0.  1.
        -12    1    3    3    0    0  0.67553891126E+01  0.58146638550E+01 -0.29550219341E+02  0.30865207936E+02  0.00000000000E+00 0.  1.
</event>
<event>
 7    1  0.3846293E-008  0.4614232E+02  0.7816164E-02  0.1320468E+00
        -11   -1    0    0    0    0  0.00000000000E+00  0.00000000000E+00  0.45593999997E+02  0.45594000000E+02  0.51100000000E-03 0.  1.
         11   -1    0    0    0    0 -0.00000000000E+00 -0.00000000000E+00 -0.45593999997E+02  0.45594000000E+02  0.51100000000E-03 0. -1.
    9900012    2    1    2    0    0  0.27732612870E+01  0.31329058015E+02 -0.32247676936E+02  0.46142317388E+02  0.99999965963E+01 0.  0.
        -12    1    1    2    0    0 -0.27732612870E+01 -0.31329058015E+02  0.32247676936E+02  0.45045682612E+02  0.00000000000E+00 0.  1.
         11    1    3    3    0    0  0.37400063354E+01  0.16658190258E+02 -0.19167065786E+02  0.25668255905E+02  0.51100000000E-03 0. -1.
        -11    1    3    3    0    0 -0.10383819368E+01  0.15157767745E+02 -0.12285328142E+02  0.19538818999E+02  0.51100000000E-03 0.  1.
        -12    1    3    3    0    0  0.71636888426E-01 -0.48689998845E+00 -0.79528300756E+00  0.93524248442E+00  0.00000000000E+00 0.  1.
</event>
<event>
 7    1  0.3846293E-008  0.4614232E+02  0.7816164E-02  0.1320468E+00
        -11   -1    0    0    0    0  0.00000000000E+00  0.00000000000E+00  0.45593999997E+02  0.45594000000E+02  0.51100000000E-03 0.  1.
         11   -1    0    0    0    0 -0.00000000000E+00 -0.00000000000E+00 -0.45593999997E+02  0.45594000000E+02  0.51100000000E-03 0. -1.
    9900012    2    1    2    0    0 -0.95186337011E+01 -0.43980735145E+02  0.20504043789E+01  0.46142316416E+02  0.99999877343E+01 0.  0.
        -12    1    1    2    0    0  0.95186337011E+01  0.43980735145E+02 -0.20504043789E+01  0.45045683584E+02  0.00000000000E+00 0.  1.
         11    1    3    3    0    0 -0.54025827838E+01 -0.24420974845E+02  0.36593699099E+01  0.25277715512E+02  0.51100000000E-03 0. -1.
        -11    1    3    3    0    0 -0.31087637890E+00 -0.11656153717E+02 -0.28547503571E+01  0.12004672568E+02  0.51100000000E-03 0.  1.
        -12    1    3    3    0    0 -0.38051745384E+01 -0.79036065831E+01  0.12457848261E+01  0.88599283361E+01  0.00000000000E+00 0.  1.
</event>
<event>
 7    1  0.3846293E-008  0.4614232E+02  0.7816164E-02  0.1320468E+00
        -11   -1    0    0    0    0  0.00000000000E+00  0.00000000000E+00  0.45593999997E+02  0.45594000000E+02  0.51100000000E-03 0.  1.
         11   -1    0    0    0    0 -0.00000000000E+00 -0.00000000000E+00 -0.45593999997E+02  0.45594000000E+02  0.51100000000E-03 0. -1.
    9900012    2    1    2    0    0 -0.15638232334E+02 -0.52787287224E+01 -0.41912936469E+02  0.46142317289E+02  0.99999956958E+01 0.  0.
        -12    1    1    2    0    0  0.15638232334E+02  0.52787287224E+01  0.41912936469E+02  0.45045682711E+02  0.00000000000E+00 0.  1.
         11    1    3    3    0    0 -0.53203124102E+01 -0.40801664604E+01 -0.17096178172E+02  0.18363899119E+02  0.51100000000E-03 0. -1.
        -11    1    3    3    0    0 -0.38964367024E+00 -0.23938854500E+01 -0.59499222683E+01  0.64252692549E+01  0.51100000000E-03 0.  1.
        -12    1    3    3    0    0 -0.99282762533E+01  0.11953231880E+01 -0.18866836028E+02  0.21353148916E+02  0.00000000000E+00 0.  1.
</event>
<event>
 7    1  0.3846293E-008  0.4614232E+02  0.7816164E-02  0.1320468E+00
        -11   -1    0    0    0    0  0.00000000000E+00  0.00000000000E+00  0.45593999997E+02  0.45594000000E+02  0.51100000000E-03 0. -1.
         11   -1    0    0    0    0 -0.00000000000E+00 -0.00000000000E+00 -0.45593999997E+02  0.45594000000E+02  0.51100000000E-03 0.  1.
    9900012    2    1    2    0    0  0.21359322433E+02 -0.21040704388E+02  0.33618172837E+02  0.46142318289E+02  0.10000004811E+02 0.  0.
        -12    1    1    2    0    0 -0.21359322433E+02  0.21040704388E+02 -0.33618172837E+02  0.45045681711E+02  0.00000000000E+00 0.  1.
         11    1    3    3    0    0  0.79332596228E+01 -0.96636993016E+01  0.14836045729E+02  0.19401854179E+02  0.51100000000E-03 0. -1.
        -11    1    3    3    0    0  0.12533032883E+02 -0.97253930391E+01  0.12538513696E+02  0.20220645612E+02  0.51100000000E-03 0.  1.
         12    1    3    3    0    0  0.89302992718E+00 -0.16516120475E+01  0.62436134126E+01  0.65198184984E+01  0.00000000000E+00 0. -1.
</event>
<event>
 7    1  0.3846293E-008  0.4614231E+02  0.7816164E-02  0.1320468E+00
        -11   -1    0    0    0    0  0.00000000000E+00  0.00000000000E+00  0.45593999997E+02  0.45594000000E+02  0.51100000000E-03 0.  1.
         11   -1    0    0    0    0 -0.00000000000E+00 -0.00000000000E+00 -0.45593999997E+02  0.45594000000E+02  0.51100000000E-03 0. -1.
    9900012    2    1    2    0    0  0.11914981439E+02 -0.70640242650E+01 -0.42863114755E+02  0.46142313991E+02  0.99999656225E+01 0.  0.
        -12    1    1    2    0    0 -0.11914981439E+02  0.70640242650E+01  0.42863114755E+02  0.45045686009E+02  0.00000000000E+00 0.  1.
         11    1    3    3    0    0  0.56842044409E+01 -0.24504518759E+01 -0.22126351234E+02  0.22975863721E+02  0.51100000000E-03 0. -1.
        -11    1    3    3    0    0  0.11961734031E+01 -0.36356029835E+01 -0.35124225808E+01  0.51947620264E+01  0.51100000000E-03 0.  1.
        -12    1    3    3    0    0  0.50346035946E+01 -0.97796940558E+00 -0.17224340940E+02  0.17971688244E+02  0.00000000000E+00 0.  1.
</event>
<event>
 7    1  0.3846293E-008  0.4614232E+02  0.7816164E-02  0.1320468E+00
        -11   -1    0    0    0    0  0.00000000000E+00  0.00000000000E+00  0.45593999997E+02  0.45594000000E+02  0.51100000000E-03 0.  1.
         11   -1    0    0    0    0 -0.00000000000E+00 -0.00000000000E+00 -0.45593999997E+02  0.45594000000E+02  0.51100000000E-03 0. -1.
    9900012    2    1    2    0    0  0.43921197409E+02 -0.84646477926E+01  0.53283822006E+01  0.46142317622E+02  0.99999987276E+01 0.  0.
        -12    1    1    2    0    0 -0.43921197409E+02  0.84646477926E+01 -0.53283822006E+01  0.45045682378E+02  0.00000000000E+00 0.  1.
         11    1    3    3    0    0  0.20186921677E+02  0.89668509938E-01  0.18836591506E+01  0.20274812435E+02  0.51100000000E-03 0.  1.
        -11    1    3    3    0    0  0.14690053334E+02 -0.50181382813E+01 -0.11709882899E+00  0.15523952176E+02  0.51100000000E-03 0. -1.
        -12    1    3    3    0    0  0.90442223977E+01 -0.35361780212E+01  0.35618218790E+01  0.10343553010E+02  0.00000000000E+00 0.  1.
</event>
<event>
 7    1  0.3846293E-008  0.4614232E+02  0.7816164E-02  0.1320468E+00
        -11   -1    0    0    0    0  0.00000000000E+00  0.00000000000E+00  0.45593999997E+02  0.45594000000E+02  0.51100000000E-03 0.  1.
         11   -1    0    0    0    0 -0.00000000000E+00 -0.00000000000E+00 -0.45593999997E+02  0.45594000000E+02  0.51100000000E-03 0. -1.
    9900012    2    1    2    0    0 -0.32954352159E+02 -0.30700552476E+02  0.77474145478E+00  0.46142317933E+02  0.10000001563E+02 0.  0.
        -12    1    1    2    0    0  0.32954352159E+02  0.30700552476E+02 -0.77474145478E+00  0.45045682067E+02  0.00000000000E+00 0.  1.
         11    1    3    3    0    0 -0.13438297392E+02 -0.84280546613E+01 -0.66714638174E+00  0.15876555883E+02  0.51100000000E-03 0. -1.
        -11    1    3    3    0    0 -0.62593081133E+01 -0.58562144992E+01 -0.22086830211E+01  0.88516929040E+01  0.51100000000E-03 0.  1.
         12    1    3    3    0    0 -0.13256746654E+02 -0.16416283316E+02  0.36505708576E+01  0.21414069145E+02  0.00000000000E+00 0. -1.
</event>
<event>
 7    1  0.3846293E-008  0.4614232E+02  0.7816164E-02  0.1320468E+00
        -11   -1    0    0    0    0  0.00000000000E+00  0.00000000000E+00  0.45593999997E+02  0.45594000000E+02  0.51100000000E-03 0.  1.
         11   -1    0    0    0    0 -0.00000000000E+00 -0.00000000000E+00 -0.45593999997E+02  0.45594000000E+02  0.51100000000E-03 0. -1.
    9900012    2    1    2    0    0  0.58572173773E+01 -0.25304169610E+02 -0.36803605354E+02  0.46142319162E+02  0.10000012777E+02 0.  0.
        -12    1    1    2    0    0 -0.58572173773E+01  0.25304169610E+02  0.36803605354E+02  0.45045680838E+02  0.00000000000E+00 0.  1.
         11    1    3    3    0    0  0.26004196349E+01 -0.16353768825E+02 -0.17168545038E+02  0.23853026559E+02  0.51100000000E-03 0. -1.
        -11    1    3    3    0    0  0.15543712313E+01 -0.16367238121E+00 -0.23117987116E+01  0.27905684218E+01  0.51100000000E-03 0.  1.
         12    1    3    3    0    0  0.17024265111E+01 -0.87867284038E+01 -0.17323261605E+02  0.19498724181E+02  0.00000000000E+00 0. -1.
</event>
<event>
 7    1  0.3846293E-008  0.4614232E+02  0.7816164E-02  0.1320468E+00
        -11   -1    0    0    0    0  0.00000000000E+00  0.00000000000E+00  0.45593999997E+02  0.45594000000E+02  0.51100000000E-03 0.  1.
         11   -1    0    0    0    0 -0.00000000000E+00 -0.00000000000E+00 -0.45593999997E+02  0.45594000000E+02  0.51100000000E-03 0. -1.
    9900012    2    1    2    0    0 -0.70576860656E+01  0.22446892744E+02 -0.38411451643E+02  0.46142317146E+02  0.99999943929E+01 0.  0.
        -12    1    1    2    0    0  0.70576860656E+01 -0.22446892744E+02  0.38411451643E+02  0.45045682854E+02  0.00000000000E+00 0.  1.
         11    1    3    3    0    0 -0.31142028939E+01  0.88751763648E+00 -0.30325971417E+01  0.44365068358E+01  0.51100000000E-03 0. -1.
        -11    1    3    3    0    0 -0.30446437580E+00  0.36978425173E+01 -0.43369899207E+01  0.57075581181E+01  0.51100000000E-03 0.  1.
         12    1    3    3    0    0 -0.36390187959E+01  0.17861532590E+02 -0.31041864581E+02  0.35998252192E+02  0.00000000000E+00 0. -1.
</event>
<event>
 7    1  0.3846293E-008  0.4614232E+02  0.7816164E-02  0.1320468E+00
        -11   -1    0    0    0    0  0.00000000000E+00  0.00000000000E+00  0.45593999997E+02  0.45594000000E+02  0.51100000000E-03 0.  1.
         11   -1    0    0    0    0 -0.00000000000E+00 -0.00000000000E+00 -0.45593999997E+02  0.45594000000E+02  0.51100000000E-03 0. -1.
    9900012    2    1    2    0    0 -0.23810417426E+02  0.25130203676E+02 -0.28820998774E+02  0.46142322237E+02  0.10000040811E+02 0.  0.
        -12    1    1    2    0    0  0.23810417426E+02 -0.25130203676E+02  0.28820998774E+02  0.45045677763E+02  0.00000000000E+00 0.  1.
         11    1    3    3    0    0 -0.97706323279E+01  0.16559187700E+02 -0.15989588647E+02  0.25006777056E+02  0.51100000000E-03 0. -1.
        -11    1    3    3    0    0 -0.44709330492E+01  0.21934217982E+01 -0.58506337850E+01  0.76831150885E+01  0.51100000000E-03 0.  1.
         12    1    3    3    0    0 -0.95688520493E+01  0.63775941782E+01 -0.69807763415E+01  0.13452430092E+02  0.00000000000E+00 0. -1.
</event>
<event>
 7    1  0.3846293E-008  0.4614232E+02  0.7816164E-02  0.1320468E+00
        -11   -1    0    0    0    0  0.00000000000E+00  0.00000000000E+00  0.45593999997E+02  0.45594000000E+02  0.51100000000E-03 0.  1.
         11   -1    0    0    0    0 -0.00000000000E+00 -0.00000000000E+00 -0.45593999997E+02  0.45594000000E+02  0.51100000000E-03 0. -1.
    9900012    2    1    2    0    0 -0.31114751241E+02  0.16912005108E+02 -0.27838279682E+02  0.46142317885E+02  0.10000001131E+02 0.  0.
        -12    1    1    2    0    0  0.31114751241E+02 -0.16912005108E+02  0.27838279682E+02  0.45045682115E+02  0.00000000000E+00 0.  1.
         11    1    3    3    0    0 -0.12472271872E+01  0.12176567231E+01 -0.41409076715E+01  0.44928142802E+01  0.51100000000E-03 0.  1.
        -11    1    3    3    0    0 -0.14934079079E+02  0.50966781109E+01 -0.12977235250E+02  0.20430650521E+02  0.51100000000E-03 0. -1.
        -12    1    3    3    0    0 -0.14933444974E+02  0.10597670274E+02 -0.10720136760E+02  0.21218853084E+02  0.00000000000E+00 0.  1.
</event>
<event>
 7    1  0.3846293E-008  0.4614231E+02  0.7816164E-02  0.1320468E+00
        -11   -1    0    0    0    0  0.00000000000E+00  0.00000000000E+00  0.45593999997E+02  0.45594000000E+02  0.51100000000E-03 0.  1.
         11   -1    0    0    0    0 -0.00000000000E+00 -0.00000000000E+00 -0.45593999997E+02  0.45594000000E+02  0.51100000000E-03 0. -1.
    9900012    2    1    2    0    0 -0.40130475838E+02 -0.15995449503E+02  0.12759490663E+02  0.46142310997E+02  0.99999383198E+01 0.  0.
        -12    1    1    2    0    0  0.40130475838E+02  0.15995449503E+02 -0.12759490663E+02  0.45045689003E+02  0.00000000000E+00 0.  1.
         11    1    3    3    0    0 -0.17500641227E+02 -0.10749606148E+02  0.35428822373E+01  0.20841748739E+02  0.51100000000E-03 0. -1.
        -11    1    3    3    0    0 -0.65395437796E+01 -0.28735626625E+01  0.41710600844E+01  0.82716828826E+01  0.51100000000E-03 0.  1.
        -12    1    3    3    0    0 -0.16090290831E+02 -0.23722806923E+01  0.50455483411E+01  0.17028879375E+02  0.00000000000E+00 0.  1.
</event>
<event>
 7    1  0.3846293E-008  0.4614232E+02  0.7816164E-02  0.1320468E+00
        -11   -1    0    0    0    0  0.00000000000E+00  0.00000000000E+00  0.45593999997E+02  0.45594000000E+02  0.51100000000E-03 0.  1.
         11   -1    0    0    0    0 -0.00000000000E+00 -0.00000000000E+00 -0.45593999997E+02  0.45594000000E+02  0.51100000000E-03 0. -1.
    9900012    2    1    2    0    0 -0.16620342440E+01 -0.36699929763E+02 -0.26066576108E+02  0.46142316606E+02  0.99999894663E+01 0.  0.
        -12    1    1    2    0    0  0.16620342440E+01  0.36699929763E+02  0.26066576108E+02  0.45045683394E+02  0.00000000000E+00 0.  1.
         11    1    3    3    0    0 -0.11864753042E+01 -0.10265096203E+02 -0.63243264810E+01  0.12115157011E+02  0.51100000000E-03 0. -1.
        -11    1    3    3    0    0 -0.17357951094E+01 -0.14577397332E+02 -0.15556353322E+02  0.21389568172E+02  0.51100000000E-03 0.  1.
        -12    1    3    3    0    0  0.12602361697E+01 -0.11857436227E+02 -0.41858963056E+01  0.12637591423E+02  0.00000000000E+00 0.  1.
</event>
<event>
 7    1  0.3846293E-008  0.4614232E+02  0.7816164E-02  0.1320468E+00
        -11   -1    0    0    0    0  0.00000000000E+00  0.00000000000E+00  0.45593999997E+02  0.45594000000E+02  0.51100000000E-03 0.  1.
         11   -1    0    0    0    0 -0.00000000000E+00 -0.00000000000E+00 -0.45593999997E+02  0.45594000000E+02  0.51100000000E-03 0. -1.
    9900012    2    1    2    0    0 -0.11291660479E+02  0.32556584727E+02 -0.29011736105E+02  0.46142316108E+02  0.99999849249E+01 0.  0.
        -12    1    1    2    0    0  0.11291660479E+02 -0.32556584727E+02  0.29011736105E+02  0.45045683892E+02  0.00000000000E+00 0.  1.
         11    1    3    3    0    0 -0.63762313996E+01  0.10714251196E+02 -0.12323036130E+02  0.17530223195E+02  0.51100000000E-03 0. -1.
        -11    1    3    3    0    0 -0.49881560366E+01  0.85855741565E+01 -0.61834257757E+01  0.11697373159E+02  0.51100000000E-03 0.  1.
         12    1    3    3    0    0  0.72726957237E-01  0.13256759375E+02 -0.10505274199E+02  0.16914719753E+02  0.00000000000E+00 0. -1.
</event>
<event>
 7    1  0.3846293E-008  0.4614232E+02  0.7816164E-02  0.1320468E+00
        -11   -1    0    0    0    0  0.00000000000E+00  0.00000000000E+00  0.45593999997E+02  0.45594000000E+02  0.51100000000E-03 0.  1.
         11   -1    0    0    0    0 -0.00000000000E+00 -0.00000000000E+00 -0.45593999997E+02  0.45594000000E+02  0.51100000000E-03 0. -1.
    9900012    2    1    2    0    0 -0.15864181704E+02 -0.21570311695E+02 -0.36223789055E+02  0.46142317618E+02  0.99999986919E+01 0.  0.
        -12    1    1    2    0    0  0.15864181704E+02  0.21570311695E+02  0.36223789055E+02  0.45045682382E+02  0.00000000000E+00 0.  1.
         11    1    3    3    0    0 -0.17059512589E+01 -0.54975088385E+01 -0.11884479168E+02  0.13205064122E+02  0.51100000000E-03 0. -1.
        -11    1    3    3    0    0 -0.67575760748E+01 -0.49635949354E+01 -0.62585450945E+01  0.10462862708E+02  0.51100000000E-03 0.  1.
         12    1    3    3    0    0 -0.74006543701E+01 -0.11109207921E+02 -0.18080764793E+02  0.22474390787E+02  0.00000000000E+00 0. -1.
</event>
<event>
 7    1  0.3846293E-008  0.4614232E+02  0.7816164E-02  0.1320468E+00
        -11   -1    0    0    0    0  0.00000000000E+00  0.00000000000E+00  0.45593999997E+02  0.45594000000E+02  0.51100000000E-03 0.  1.
         11   -1    0    0    0    0 -0.00000000000E+00 -0.00000000000E+00 -0.45593999997E+02  0.45594000000E+02  0.51100000000E-03 0. -1.
    9900012    2    1    2    0    0  0.10735705840E+02  0.46343871661E+01 -0.43501501132E+02  0.46142317354E+02  0.99999962849E+01 0.  0.
        -12    1    1    2    0    0 -0.10735705840E+02 -0.46343871661E+01  0.43501501132E+02  0.45045682646E+02  0.00000000000E+00 0.  1.
         11    1    3    3    0    0  0.17552587550E+01  0.95149108153E-01 -0.92866214134E+01  0.94515249662E+01  0.51100000000E-03 0. -1.
        -11    1    3    3    0    0  0.47915169629E+01 -0.98012115231E+00 -0.22951450292E+02  0.23466749733E+02  0.51100000000E-03 0.  1.
        -12    1    3    3    0    0  0.41889301224E+01  0.55193592103E+01 -0.11263429427E+02  0.13224042655E+02  0.00000000000E+00 0.  1.
</event>
<event>
 7    1  0.3846293E-008  0.4614232E+02  0.7816164E-02  0.1320468E+00
        -11   -1    0    0    0    0  0.00000000000E+00  0.00000000000E+00  0.45593999997E+02  0.45594000000E+02  0.51100000000E-03 0.  1.
         11   -1    0    0    0    0 -0.00000000000E+00 -0.00000000000E+00 -0.45593999997E+02  0.45594000000E+02  0.51100000000E-03 0. -1.
    9900012    2    1    2    0    0  0.44023192869E+01  0.58082907834E+01 -0.44452187413E+02  0.46142316270E+02  0.99999863984E+01 0.  0.
        -12    1    1    2    0    0 -0.44023192869E+01 -0.58082907834E+01  0.44452187413E+02  0.45045683730E+02  0.00000000000E+00 0.  1.
         11    1    3    3    0    0  0.36497035457E+01  0.40431539620E+01 -0.29895775147E+02  0.30387905519E+02  0.51100000000E-03 0. -1.
        -11    1    3    3    0    0  0.15044283055E+01 -0.18189589427E+01 -0.54493758084E+01  0.59386541509E+01  0.51100000000E-03 0.  1.
        -12    1    3    3    0    0 -0.75181256427E+00  0.35840957641E+01 -0.91070364577E+01  0.98157565994E+01  0.00000000000E+00 0.  1.
</event>
<event>
 7    1  0.3846293E-008  0.4614232E+02  0.7816164E-02  0.1320468E+00
        -11   -1    0    0    0    0  0.00000000000E+00  0.00000000000E+00  0.45593999997E+02  0.45594000000E+02  0.51100000000E-03 0.  1.
         11   -1    0    0    0    0 -0.00000000000E+00 -0.00000000000E+00 -0.45593999997E+02  0.45594000000E+02  0.51100000000E-03 0. -1.
    9900012    2    1    2    0    0 -0.36342131686E+02  0.69527637689E+01 -0.25690893454E+02  0.46142318009E+02  0.10000002263E+02 0.  0.
        -12    1    1    2    0    0  0.36342131686E+02 -0.69527637689E+01  0.25690893454E+02  0.45045681991E+02  0.00000000000E+00 0.  1.
         11    1    3    3    0    0 -0.61330782124E+01 -0.61319235891E+00 -0.22860569881E+01  0.65739417431E+01  0.51100000000E-03 0. -1.
        -11    1    3    3    0    0 -0.40496876175E+01 -0.86456527327E+00 -0.49940187827E+01  0.64875008111E+01  0.51100000000E-03 0.  1.
         12    1    3    3    0    0 -0.26159365856E+02  0.84305214011E+01 -0.18410817683E+02  0.33080875455E+02  0.00000000000E+00 0. -1.
</event>
<event>
 7    1  0.3846293E-008  0.4614232E+02  0.7816164E-02  0.1320468E+00
        -11   -1    0    0    0    0  0.00000000000E+00  0.00000000000E+00  0.45593999997E+02  0.45594000000E+02  0.51100000000E-03 0. -1.
         11   -1    0    0    0    0 -0.00000000000E+00 -0.00000000000E+00 -0.45593999997E+02  0.45594000000E+02  0.51100000000E-03 0.  1.
    9900012    2    1    2    0    0 -0.12577295387E+02 -0.70975001523E+01  0.42667910280E+02  0.46142318350E+02  0.10000005366E+02 0.  0.
        -12    1    1    2    0    0  0.12577295387E+02  0.70975001523E+01 -0.42667910280E+02  0.45045681650E+02  0.00000000000E+00 0.  1.
         11    1    3    3    0    0 -0.81836208886E+00  0.24453973381E+00  0.71717544739E+01  0.72224357862E+01  0.51100000000E-03 0. -1.
        -11    1    3    3    0    0 -0.20117112209E-01 -0.14662965318E+01  0.11276536375E+02  0.11371486407E+02  0.51100000000E-03 0.  1.
         12    1    3    3    0    0 -0.11738816186E+02 -0.58757433543E+01  0.24219619431E+02  0.27548396157E+02  0.00000000000E+00 0. -1.
</event>
<event>
 7    1  0.3846293E-008  0.4614232E+02  0.7816164E-02  0.1320468E+00
        -11   -1    0    0    0    0  0.00000000000E+00  0.00000000000E+00  0.45593999997E+02  0.45594000000E+02  0.51100000000E-03 0. -1.
         11   -1    0    0    0    0 -0.00000000000E+00 -0.00000000000E+00 -0.45593999997E+02  0.45594000000E+02  0.51100000000E-03 0.  1.
    9900012    2    1    2    0    0  0.37261124306E+02 -0.20563069443E+02 -0.14760835518E+02  0.46142317913E+02  0.10000001386E+02 0.  0.
        -12    1    1    2    0    0 -0.37261124306E+02  0.20563069443E+02  0.14760835518E+02  0.45045682087E+02  0.00000000000E+00 0.  1.
         11    1    3    3    0    0  0.19285563799E+02 -0.68269872448E+01 -0.48027536864E+01  0.21014451435E+02  0.51100000000E-03 0. -1.
        -11    1    3    3    0    0  0.11166253856E+02 -0.57593785961E+01 -0.59288158908E+01  0.13892678832E+02  0.51100000000E-03 0.  1.
        -12    1    3    3    0    0  0.68093066511E+01 -0.79767036024E+01 -0.40292659408E+01  0.11235187646E+02  0.00000000000E+00 0.  1.
</event>
<event>
 7    1  0.3846293E-008  0.4614232E+02  0.7816164E-02  0.1320468E+00
        -11   -1    0    0    0    0  0.00000000000E+00  0.00000000000E+00  0.45593999997E+02  0.45594000000E+02  0.51100000000E-03 0.  1.
         11   -1    0    0    0    0 -0.00000000000E+00 -0.00000000000E+00 -0.45593999997E+02  0.45594000000E+02  0.51100000000E-03 0. -1.
    9900012    2    1    2    0    0 -0.13257841793E+02 -0.58076784921E+01 -0.42656932973E+02  0.46142318418E+02  0.10000005990E+02 0.  0.
        -12    1    1    2    0    0  0.13257841793E+02  0.58076784921E+01  0.42656932973E+02  0.45045681582E+02  0.00000000000E+00 0.  1.
         11    1    3    3    0    0 -0.45021409102E+01  0.31229900963E+00 -0.16805409311E+02  0.17400821413E+02  0.51100000000E-03 0. -1.
        -11    1    3    3    0    0 -0.60752621901E+01 -0.72972599070E+00 -0.93310989676E+01  0.11158437117E+02  0.51100000000E-03 0.  1.
        -12    1    3    3    0    0 -0.26804386931E+01 -0.53902515110E+01 -0.16520424694E+02  0.17583059888E+02  0.00000000000E+00 0.  1.
</event>
<event>
 7    1  0.3846293E-008  0.4614232E+02  0.7816164E-02  0.1320468E+00
        -11   -1    0    0    0    0  0.00000000000E+00  0.00000000000E+00  0.45593999997E+02  0.45594000000E+02  0.51100000000E-03 0.  1.
         11   -1    0    0    0    0 -0.00000000000E+00 -0.00000000000E+00 -0.45593999997E+02  0.45594000000E+02  0.51100000000E-03 0. -1.
    9900012    2    1    2    0    0  0.22824011200E+02 -0.38718221159E+02 -0.30128639311E+01  0.46142317787E+02  0.10000000241E+02 0.  0.
        -12    1    1    2    0    0 -0.22824011200E+02  0.38718221159E+02  0.30128639311E+01  0.45045682213E+02  0.00000000000E+00 0.  1.
         11    1    3    3    0    0  0.13781050796E+02 -0.29051893022E+02 -0.50262312587E+01  0.32545243126E+02  0.51100000000E-03 0. -1.
        -11    1    3    3    0    0  0.38999169827E+01 -0.41355441830E+01  0.20550535694E+01  0.60444456815E+01  0.51100000000E-03 0.  1.
        -12    1    3    3    0    0  0.51430434204E+01 -0.55307839538E+01 -0.41686241902E-01  0.75526289801E+01  0.00000000000E+00 0.  1.
</event>
<event>
 7    1  0.3846293E-008  0.4614232E+02  0.7816164E-02  0.1320468E+00
        -11   -1    0    0    0    0  0.00000000000E+00  0.00000000000E+00  0.45593999997E+02  0.45594000000E+02  0.51100000000E-03 0. -1.
         11   -1    0    0    0    0 -0.00000000000E+00 -0.00000000000E+00 -0.45593999997E+02  0.45594000000E+02  0.51100000000E-03 0.  1.
    9900012    2    1    2    0    0 -0.42181579178E+02 -0.15709854366E+02  0.17402243948E+01  0.46142317331E+02  0.99999960769E+01 0.  0.
        -12    1    1    2    0    0  0.42181579178E+02  0.15709854366E+02 -0.17402243948E+01  0.45045682669E+02  0.00000000000E+00 0.  1.
         11    1    3    3    0    0 -0.32014219170E+02 -0.14681719689E+02  0.10822250750E+01  0.35236832058E+02  0.51100000000E-03 0. -1.
        -11    1    3    3    0    0 -0.54177685600E+01  0.70080287172E+00 -0.10643092163E+01  0.55656172348E+01  0.51100000000E-03 0.  1.
        -12    1    3    3    0    0 -0.47495914482E+01 -0.17289375489E+01  0.17223085361E+01  0.53398680383E+01  0.00000000000E+00 0.  1.
</event>
<event>
 7    1  0.3846293E-008  0.4614232E+02  0.7816164E-02  0.1320468E+00
        -11   -1    0    0    0    0  0.00000000000E+00  0.00000000000E+00  0.45593999997E+02  0.45594000000E+02  0.51100000000E-03 0.  1.
         11   -1    0    0    0    0 -0.00000000000E+00 -0.00000000000E+00 -0.45593999997E+02  0.45594000000E+02  0.51100000000E-03 0. -1.
    9900012    2    1    2    0    0 -0.21074825235E+02  0.57221990814E+01 -0.39398244502E+02  0.46142317733E+02  0.99999997465E+01 0.  0.
        -12    1    1    2    0    0  0.21074825235E+02 -0.57221990814E+01  0.39398244502E+02  0.45045682267E+02  0.00000000000E+00 0.  1.
         11    1    3    3    0    0 -0.46246688732E+01 -0.35312772020E+00 -0.95351756330E+01  0.10603387949E+02  0.51100000000E-03 0. -1.
        -11    1    3    3    0    0 -0.16221778816E+01  0.39223188309E+01 -0.56890563719E+01  0.70979862464E+01  0.51100000000E-03 0.  1.
         12    1    3    3    0    0 -0.14827978480E+02  0.21530079707E+01 -0.24174012498E+02  0.28440943538E+02  0.00000000000E+00 0. -1.
</event>
<event>
 7    1  0.3846293E-008  0.4614232E+02  0.7816164E-02  0.1320468E+00
        -11   -1    0    0    0    0  0.00000000000E+00  0.00000000000E+00  0.45593999997E+02  0.45594000000E+02  0.51100000000E-03 0. -1.
         11   -1    0    0    0    0 -0.00000000000E+00 -0.00000000000E+00 -0.45593999997E+02  0.45594000000E+02  0.51100000000E-03 0.  1.
    9900012    2    1    2    0    0  0.30614597867E+02 -0.92130797916E+01  0.31732933470E+02  0.46142317539E+02  0.99999979718E+01 0.  0.
        -12    1    1    2    0    0 -0.30614597867E+02  0.92130797916E+01 -0.31732933470E+02  0.45045682461E+02  0.00000000000E+00 0.  1.
         11    1    3    3    0    0  0.11252586338E+02 -0.27929135296E+01  0.16230090120E+02  0.19945848963E+02  0.51100000000E-03 0. -1.
        -11    1    3    3    0    0  0.13234983462E+02 -0.29013012407E+01  0.73732797219E+01  0.15425549917E+02  0.51100000000E-03 0.  1.
        -12    1    3    3    0    0  0.61270280663E+01 -0.35188650213E+01  0.81295636277E+01  0.10770918658E+02  0.00000000000E+00 0.  1.
</event>
<event>
 7    1  0.3846293E-008  0.4614232E+02  0.7816164E-02  0.1320468E+00
        -11   -1    0    0    0    0  0.00000000000E+00  0.00000000000E+00  0.45593999997E+02  0.45594000000E+02  0.51100000000E-03 0. -1.
         11   -1    0    0    0    0 -0.00000000000E+00 -0.00000000000E+00 -0.45593999997E+02  0.45594000000E+02  0.51100000000E-03 0.  1.
    9900012    2    1    2    0    0 -0.41093444456E+02 -0.17340120091E+02  0.63057603763E+01  0.46142317010E+02  0.99999931551E+01 0.  0.
        -12    1    1    2    0    0  0.41093444456E+02  0.17340120091E+02 -0.63057603763E+01  0.45045682990E+02  0.00000000000E+00 0.  1.
         11    1    3    3    0    0 -0.89319058571E+01 -0.24818792140E+01  0.28575136471E+01  0.97007242605E+01  0.51100000000E-03 0. -1.
        -11    1    3    3    0    0 -0.14864420626E+02 -0.44889288071E+01  0.47353027987E+01  0.16233440031E+02  0.51100000000E-03 0.  1.
         12    1    3    3    0    0 -0.17297117973E+02 -0.10369312070E+02 -0.12870560696E+01  0.20208152719E+02  0.00000000000E+00 0. -1.
</event>
<event>
 7    1  0.3846293E-008  0.4614232E+02  0.7816164E-02  0.1320468E+00
        -11   -1    0    0    0    0  0.00000000000E+00  0.00000000000E+00  0.45593999997E+02  0.45594000000E+02  0.51100000000E-03 0. -1.
         11   -1    0    0    0    0 -0.00000000000E+00 -0.00000000000E+00 -0.45593999997E+02  0.45594000000E+02  0.51100000000E-03 0.  1.
    9900012    2    1    2    0    0 -0.33500996279E+02  0.11032521681E+02  0.28019283148E+02  0.46142317472E+02  0.99999973626E+01 0.  0.
        -12    1    1    2    0    0  0.33500996279E+02 -0.11032521681E+02 -0.28019283148E+02  0.45045682528E+02  0.00000000000E+00 0.  1.
         11    1    3    3    0    0 -0.12506913281E+02  0.30401464086E+01  0.15187151870E+02  0.19907660641E+02  0.51100000000E-03 0. -1.
        -11    1    3    3    0    0 -0.90979950106E+01  0.57448093689E+01  0.65234277506E+01  0.12582982865E+02  0.51100000000E-03 0.  1.
         12    1    3    3    0    0 -0.11896087987E+02  0.22475659036E+01  0.63087035274E+01  0.13651673967E+02  0.00000000000E+00 0. -1.
</event>
<event>
 7    1  0.3846293E-008  0.4614232E+02  0.7816164E-02  0.1320468E+00
        -11   -1    0    0    0    0  0.00000000000E+00  0.00000000000E+00  0.45593999997E+02  0.45594000000E+02  0.51100000000E-03 0. -1.
         11   -1    0    0    0    0 -0.00000000000E+00 -0.00000000000E+00 -0.45593999997E+02  0.45594000000E+02  0.51100000000E-03 0.  1.
    9900012    2    1    2    0    0  0.26926409735E+02  0.30381085537E+02  0.19521053877E+02  0.46142318252E+02  0.10000004479E+02 0.  0.
        -12    1    1    2    0    0 -0.26926409735E+02 -0.30381085537E+02 -0.19521053877E+02  0.45045681748E+02  0.00000000000E+00 0.  1.
         11    1    3    3    0    0  0.93899896189E+01  0.12836134265E+02  0.50880036313E+01  0.16698084595E+02  0.51100000000E-03 0. -1.
        -11    1    3    3    0    0  0.28654009873E+01  0.66256082162E+01  0.55895534639E+01  0.91297489143E+01  0.51100000000E-03 0.  1.
         12    1    3    3    0    0  0.14671019129E+02  0.10919343056E+02  0.88434967818E+01  0.20314484743E+02  0.00000000000E+00 0. -1.
</event>
<event>
 7    1  0.3846293E-008  0.4614232E+02  0.7816164E-02  0.1320468E+00
        -11   -1    0    0    0    0  0.00000000000E+00  0.00000000000E+00  0.45593999997E+02  0.45594000000E+02  0.51100000000E-03 0.  1.
         11   -1    0    0    0    0 -0.00000000000E+00 -0.00000000000E+00 -0.45593999997E+02  0.45594000000E+02  0.51100000000E-03 0. -1.
    9900012    2    1    2    0    0 -0.43766043292E+02 -0.51442259508E+01  0.93372329348E+01  0.46142317355E+02  0.99999963012E+01 0.  0.
        -12    1    1    2    0    0  0.43766043292E+02  0.51442259508E+01 -0.93372329348E+01  0.45045682645E+02  0.00000000000E+00 0.  1.
         11    1    3    3    0    0 -0.30039777543E+02 -0.50477063909E+01  0.30702825984E+01  0.30615261066E+02  0.51100000000E-03 0. -1.
        -11    1    3    3    0    0 -0.35871115494E+01 -0.16493588578E+01  0.18081912104E+01  0.43425003885E+01  0.51100000000E-03 0.  1.
         12    1    3    3    0    0 -0.10139154199E+02  0.15528392979E+01  0.44587591260E+01  0.11184555901E+02  0.00000000000E+00 0. -1.
</event>
<event>
 7    1  0.3846293E-008  0.4614232E+02  0.7816164E-02  0.1320468E+00
        -11   -1    0    0    0    0  0.00000000000E+00  0.00000000000E+00  0.45593999997E+02  0.45594000000E+02  0.51100000000E-03 0.  1.
         11   -1    0    0    0    0 -0.00000000000E+00 -0.00000000000E+00 -0.45593999997E+02  0.45594000000E+02  0.51100000000E-03 0. -1.
    9900012    2    1    2    0    0 -0.30126174835E+02 -0.12855582215E+02 -0.30923471030E+02  0.46142318023E+02  0.10000002386E+02 0.  0.
        -12    1    1    2    0    0  0.30126174835E+02  0.12855582215E+02  0.30923471030E+02  0.45045681977E+02  0.00000000000E+00 0.  1.
         11    1    3    3    0    0 -0.32064287643E+01 -0.28063768297E+00 -0.66134384741E+01  0.73551010626E+01  0.51100000000E-03 0. -1.
        -11    1    3    3    0    0 -0.37486514104E+01 -0.85528558869E-01 -0.44112194476E+01  0.57895215525E+01  0.51100000000E-03 0.  1.
        -12    1    3    3    0    0 -0.23171094660E+02 -0.12489415974E+02 -0.19898813108E+02  0.32997695408E+02  0.00000000000E+00 0.  1.
</event>
<event>
 7    1  0.3846293E-008  0.4614232E+02  0.7816164E-02  0.1320468E+00
        -11   -1    0    0    0    0  0.00000000000E+00  0.00000000000E+00  0.45593999997E+02  0.45594000000E+02  0.51100000000E-03 0.  1.
         11   -1    0    0    0    0 -0.00000000000E+00 -0.00000000000E+00 -0.45593999997E+02  0.45594000000E+02  0.51100000000E-03 0. -1.
    9900012    2    1    2    0    0 -0.32420756134E+02 -0.11793231948E+02 -0.28964250148E+02  0.46142317247E+02  0.99999953124E+01 0.  0.
        -12    1    1    2    0    0  0.32420756134E+02  0.11793231948E+02  0.28964250148E+02  0.45045682753E+02  0.00000000000E+00 0.  1.
         11    1    3    3    0    0 -0.96206235079E+01 -0.85096482188E+00 -0.80024092046E+01  0.12542690746E+02  0.51100000000E-03 0. -1.
        -11    1    3    3    0    0 -0.13382590740E+02 -0.27766785641E+01 -0.12605864763E+02  0.18593318839E+02  0.51100000000E-03 0.  1.
        -12    1    3    3    0    0 -0.94175418860E+01 -0.81655885616E+01 -0.83559761804E+01  0.15006307662E+02  0.00000000000E+00 0.  1.
</event>
<event>
 7    1  0.3846293E-008  0.4614232E+02  0.7816164E-02  0.1320468E+00
        -11   -1    0    0    0    0  0.00000000000E+00  0.00000000000E+00  0.45593999997E+02  0.45594000000E+02  0.51100000000E-03 0. -1.
         11   -1    0    0    0    0 -0.00000000000E+00 -0.00000000000E+00 -0.45593999997E+02  0.45594000000E+02  0.51100000000E-03 0.  1.
    9900012    2    1    2    0    0 -0.29871696819E+02  0.32384562839E+02 -0.93827110191E+01  0.46142318218E+02  0.10000004164E+02 0.  0.
        -12    1    1    2    0    0  0.29871696819E+02 -0.32384562839E+02  0.93827110191E+01  0.45045681782E+02  0.00000000000E+00 0.  1.
         11    1    3    3    0    0 -0.74270838047E+01  0.43923513749E+01 -0.26967393444E+01  0.90402836126E+01  0.51100000000E-03 0. -1.
        -11    1    3    3    0    0 -0.15692962645E+02  0.23413146621E+02 -0.65781947938E+01  0.28943343937E+02  0.51100000000E-03 0.  1.
        -12    1    3    3    0    0 -0.67516503700E+01  0.45790648434E+01 -0.10777688093E+00  0.81586906680E+01  0.00000000000E+00 0.  1.
</event>
<event>
 7    1  0.3846293E-008  0.4614232E+02  0.7816164E-02  0.1320468E+00
        -11   -1    0    0    0    0  0.00000000000E+00  0.00000000000E+00  0.45593999997E+02  0.45594000000E+02  0.51100000000E-03 0.  1.
         11   -1    0    0    0    0 -0.00000000000E+00 -0.00000000000E+00 -0.45593999997E+02  0.45594000000E+02  0.51100000000E-03 0. -1.
    9900012    2    1    2    0    0 -0.29967458905E+02  0.14022149218E+01 -0.33602062905E+02  0.46142318394E+02  0.10000005768E+02 0.  0.
        -12    1    1    2    0    0  0.29967458905E+02 -0.14022149218E+01  0.33602062905E+02  0.45045681606E+02  0.00000000000E+00 0.  1.
         11    1    3    3    0    0 -0.78926704190E+01 -0.24339896038E+01 -0.80714821474E+01  0.11548479383E+02  0.51100000000E-03 0. -1.
        -11    1    3    3    0    0 -0.17164648193E+02  0.19516129298E+01 -0.15238252588E+02  0.23035587312E+02  0.51100000000E-03 0.  1.
         12    1    3    3    0    0 -0.49101402930E+01  0.18845915958E+01 -0.10292328170E+02  0.11558251699E+02  0.00000000000E+00 0. -1.
</event>
<event>
 7    1  0.3846293E-008  0.4614232E+02  0.7816164E-02  0.1320468E+00
        -11   -1    0    0    0    0  0.00000000000E+00  0.00000000000E+00  0.45593999997E+02  0.45594000000E+02  0.51100000000E-03 0.  1.
         11   -1    0    0    0    0 -0.00000000000E+00 -0.00000000000E+00 -0.45593999997E+02  0.45594000000E+02  0.51100000000E-03 0. -1.
    9900012    2    1    2    0    0  0.23540422847E+02 -0.22045555697E+02 -0.31447662197E+02  0.46142317727E+02  0.99999996857E+01 0.  0.
        -12    1    1    2    0    0 -0.23540422847E+02  0.22045555697E+02  0.31447662197E+02  0.45045682273E+02  0.00000000000E+00 0.  1.
         11    1    3    3    0    0  0.78580836137E+01 -0.62330998149E+01 -0.13074572265E+02  0.16478636217E+02  0.51100000000E-03 0. -1.
        -11    1    3    3    0    0  0.16380004293E+02 -0.15051135958E+02 -0.17738517669E+02  0.28451647468E+02  0.51100000000E-03 0.  1.
         12    1    3    3    0    0 -0.69766505978E+00 -0.76131992441E+00 -0.63457226259E+00  0.12120340422E+01  0.00000000000E+00 0. -1.
</event>
<event>
 7    1  0.3846293E-008  0.4614232E+02  0.7816164E-02  0.1320468E+00
        -11   -1    0    0    0    0  0.00000000000E+00  0.00000000000E+00  0.45593999997E+02  0.45594000000E+02  0.51100000000E-03 0.  1.
         11   -1    0    0    0    0 -0.00000000000E+00 -0.00000000000E+00 -0.45593999997E+02  0.45594000000E+02  0.51100000000E-03 0. -1.
    9900012    2    1    2    0    0  0.34369520483E+02 -0.24784289747E+02 -0.15283603585E+02  0.46142317687E+02  0.99999993283E+01 0.  0.
        -12    1    1    2    0    0 -0.34369520483E+02  0.24784289747E+02  0.15283603585E+02  0.45045682313E+02  0.00000000000E+00 0.  1.
         11    1    3    3    0    0  0.12178398510E+02 -0.82434257066E+01 -0.24872188684E+01  0.14914882353E+02  0.51100000000E-03 0. -1.
        -11    1    3    3    0    0  0.16006237932E+02 -0.11274357598E+02 -0.12230187978E+02  0.23084373291E+02  0.51100000000E-03 0.  1.
        -12    1    3    3    0    0  0.61848840410E+01 -0.52665064420E+01 -0.56619673882E+00  0.81430620439E+01  0.00000000000E+00 0.  1.
</event>
<event>
 7    1  0.3846293E-008  0.4614232E+02  0.7816164E-02  0.1320468E+00
        -11   -1    0    0    0    0  0.00000000000E+00  0.00000000000E+00  0.45593999997E+02  0.45594000000E+02  0.51100000000E-03 0. -1.
         11   -1    0    0    0    0 -0.00000000000E+00 -0.00000000000E+00 -0.45593999997E+02  0.45594000000E+02  0.51100000000E-03 0.  1.
    9900012    2    1    2    0    0  0.26975047082E+02  0.84614353859E+01  0.35069422306E+02  0.46142318356E+02  0.10000005428E+02 0.  0.
        -12    1    1    2    0    0 -0.26975047082E+02 -0.84614353859E+01 -0.35069422306E+02  0.45045681644E+02  0.00000000000E+00 0.  1.
         11    1    3    3    0    0  0.20319269584E+02  0.40881532276E+01  0.20855346146E+02  0.29402911019E+02  0.51100000000E-03 0. -1.
        -11    1    3    3    0    0  0.59257732601E+01  0.27795809521E+01  0.82957888565E+01  0.10566975538E+02  0.51100000000E-03 0.  1.
        -12    1    3    3    0    0  0.73000423801E+00  0.15937012062E+01  0.59182873034E+01  0.61724318002E+01  0.00000000000E+00 0.  1.
</event>
<event>
 7    1  0.3846293E-008  0.4614232E+02  0.7816164E-02  0.1320468E+00
        -11   -1    0    0    0    0  0.00000000000E+00  0.00000000000E+00  0.45593999997E+02  0.45594000000E+02  0.51100000000E-03 0. -1.
         11   -1    0    0    0    0 -0.00000000000E+00 -0.00000000000E+00 -0.45593999997E+02  0.45594000000E+02  0.51100000000E-03 0.  1.
    9900012    2    1    2    0    0  0.21843758807E+02  0.36493488145E+02  0.14838767706E+02  0.46142317601E+02  0.99999985357E+01 0.  0.
        -12    1    1    2    0    0 -0.21843758807E+02 -0.36493488145E+02 -0.14838767706E+02  0.45045682399E+02  0.00000000000E+00 0.  1.
         11    1    3    3    0    0  0.97454567050E+01  0.16356984192E+02  0.93525662839E+01  0.21213093942E+02  0.51100000000E-03 0. -1.
        -11    1    3    3    0    0  0.51865677566E+01  0.34278914632E+01  0.97224522909E+00  0.62925500414E+01  0.51100000000E-03 0.  1.
         12    1    3    3    0    0  0.69117343456E+01  0.16708612489E+02  0.45139561932E+01  0.18636673617E+02  0.00000000000E+00 0. -1.
</event>
<event>
 7    1  0.3846293E-008  0.4614232E+02  0.7816164E-02  0.1320468E+00
        -11   -1    0    0    0    0  0.00000000000E+00  0.00000000000E+00  0.45593999997E+02  0.45594000000E+02  0.51100000000E-03 0.  1.
         11   -1    0    0    0    0 -0.00000000000E+00 -0.00000000000E+00 -0.45593999997E+02  0.45594000000E+02  0.51100000000E-03 0. -1.
    9900012    2    1    2    0    0  0.15778563972E+02 -0.12132199314E+02 -0.40409902207E+02  0.46142317215E+02  0.99999950159E+01 0.  0.
        -12    1    1    2    0    0 -0.15778563972E+02  0.12132199314E+02  0.40409902207E+02  0.45045682785E+02  0.00000000000E+00 0.  1.
         11    1    3    3    0    0  0.54664098168E+01 -0.17242542308E+01 -0.79501096826E+01  0.98009659301E+01  0.51100000000E-03 0.  1.
        -11    1    3    3    0    0  0.55260965227E+01 -0.85483219342E+01 -0.14890613615E+02  0.18037237171E+02  0.51100000000E-03 0. -1.
         12    1    3    3    0    0  0.47860576322E+01 -0.18596231492E+01 -0.17569178910E+02  0.18304114114E+02  0.00000000000E+00 0. -1.
</event>
<event>
 7    1  0.3846293E-008  0.4614232E+02  0.7816164E-02  0.1320468E+00
        -11   -1    0    0    0    0  0.00000000000E+00  0.00000000000E+00  0.45593999997E+02  0.45594000000E+02  0.51100000000E-03 0. -1.
         11   -1    0    0    0    0 -0.00000000000E+00 -0.00000000000E+00 -0.45593999997E+02  0.45594000000E+02  0.51100000000E-03 0.  1.
    9900012    2    1    2    0    0  0.19524618189E+02 -0.24175531396E+02  0.32610526528E+02  0.46142317919E+02  0.10000001440E+02 0.  0.
        -12    1    1    2    0    0 -0.19524618189E+02  0.24175531396E+02 -0.32610526528E+02  0.45045682081E+02  0.00000000000E+00 0.  1.
         11    1    3    3    0    0  0.97340643436E+01 -0.12581079429E+02  0.13971466160E+02  0.21171618624E+02  0.51100000000E-03 0. -1.
        -11    1    3    3    0    0  0.67041996548E+01 -0.11259399017E+02  0.16986692880E+02  0.21453859664E+02  0.51100000000E-03 0.  1.
         12    1    3    3    0    0  0.30863541907E+01 -0.33505294961E+00  0.16523674877E+01  0.35168396301E+01  0.00000000000E+00 0. -1.
</event>
<event>
 7    1  0.3846293E-008  0.4614232E+02  0.7816164E-02  0.1320468E+00
        -11   -1    0    0    0    0  0.00000000000E+00  0.00000000000E+00  0.45593999997E+02  0.45594000000E+02  0.51100000000E-03 0.  1.
         11   -1    0    0    0    0 -0.00000000000E+00 -0.00000000000E+00 -0.45593999997E+02  0.45594000000E+02  0.51100000000E-03 0. -1.
    9900012    2    1    2    0    0  0.23017291212E+01 -0.34534023093E+02 -0.28830831155E+02  0.46142317265E+02  0.99999954761E+01 0.  0.
        -12    1    1    2    0    0 -0.23017291212E+01  0.34534023093E+02  0.28830831155E+02  0.45045682735E+02  0.00000000000E+00 0.  1.
         11    1    3    3    0    0  0.40940197981E+00 -0.16330233390E+02 -0.12093616218E+02  0.20324853899E+02  0.51100000000E-03 0. -1.
        -11    1    3    3    0    0  0.32742292584E+01 -0.11949830145E+02 -0.72035112765E+01  0.14332117524E+02  0.51100000000E-03 0.  1.
        -12    1    3    3    0    0 -0.13819021171E+01 -0.62539595582E+01 -0.95337036607E+01  0.11485345842E+02  0.00000000000E+00 0.  1.
</event>
<event>
 7    1  0.3846293E-008  0.4614232E+02  0.7816164E-02  0.1320468E+00
        -11   -1    0    0    0    0  0.00000000000E+00  0.00000000000E+00  0.45593999997E+02  0.45594000000E+02  0.51100000000E-03 0.  1.
         11   -1    0    0    0    0 -0.00000000000E+00 -0.00000000000E+00 -0.45593999997E+02  0.45594000000E+02  0.51100000000E-03 0. -1.
    9900012    2    1    2    0    0 -0.49172681542E+01 -0.34483619559E+02 -0.28562457048E+02  0.46142317669E+02  0.99999991630E+01 0.  0.
        -12    1    1    2    0    0  0.49172681542E+01  0.34483619559E+02  0.28562457048E+02  0.45045682331E+02  0.00000000000E+00 0.  1.
         11    1    3    3    0    0 -0.69142631386E+00 -0.16821591268E+02 -0.16746594635E+02  0.23746419420E+02  0.51100000000E-03 0. -1.
        -11    1    3    3    0    0 -0.93145979759E+00 -0.10734577165E+02 -0.41365215567E+01  0.11541645251E+02  0.51100000000E-03 0.  1.
        -12    1    3    3    0    0 -0.32943820428E+01 -0.69274511264E+01 -0.76793408569E+01  0.10854252998E+02  0.00000000000E+00 0.  1.
</event>
<event>
 7    1  0.3846293E-008  0.4614232E+02  0.7816164E-02  0.1320468E+00
        -11   -1    0    0    0    0  0.00000000000E+00  0.00000000000E+00  0.45593999997E+02  0.45594000000E+02  0.51100000000E-03 0.  1.
         11   -1    0    0    0    0 -0.00000000000E+00 -0.00000000000E+00 -0.45593999997E+02  0.45594000000E+02  0.51100000000E-03 0. -1.
    9900012    2    1    2    0    0 -0.37886868786E+01  0.43477977474E+02 -0.11154587042E+02  0.46142317792E+02  0.10000000282E+02 0.  0.
        -12    1    1    2    0    0  0.37886868786E+01 -0.43477977474E+02  0.11154587042E+02  0.45045682208E+02  0.00000000000E+00 0.  1.
         11    1    3    3    0    0  0.64838675698E+00  0.13620346038E+02 -0.37764161567E+01  0.14149047701E+02  0.51100000000E-03 0. -1.
        -11    1    3    3    0    0 -0.46119801069E+01  0.29339280491E+02 -0.57176071247E+01  0.30244913154E+02  0.51100000000E-03 0.  1.
         12    1    3    3    0    0  0.17490647139E+00  0.51835094527E+00 -0.16605637606E+01  0.17483569370E+01  0.00000000000E+00 0. -1.
</event>
<event>
 7    1  0.3846293E-008  0.4614231E+02  0.7816164E-02  0.1320468E+00
        -11   -1    0    0    0    0  0.00000000000E+00  0.00000000000E+00  0.45593999997E+02  0.45594000000E+02  0.51100000000E-03 0.  1.
         11   -1    0    0    0    0 -0.00000000000E+00 -0.00000000000E+00 -0.45593999997E+02  0.45594000000E+02  0.51100000000E-03 0. -1.
    9900012    2    1    2    0    0 -0.36642500105E+02  0.24548895641E+02  0.91538355765E+01  0.46142314337E+02  0.99999687757E+01 0.  0.
        -12    1    1    2    0    0  0.36642500105E+02 -0.24548895641E+02 -0.91538355765E+01  0.45045685663E+02  0.00000000000E+00 0.  1.
         11    1    3    3    0    0 -0.39246657415E+01  0.35484723992E+01 -0.83230586975E+00  0.53560611342E+01  0.51100000000E-03 0.  1.
        -11    1    3    3    0    0 -0.22335514115E+02  0.12498986003E+02  0.96788073920E+01  0.27363829313E+02  0.51100000000E-03 0. -1.
         12    1    3    3    0    0 -0.10382320248E+02  0.85014372386E+01  0.30733405430E+00  0.13422423890E+02  0.00000000000E+00 0. -1.
</event>
<event>
 7    1  0.3846293E-008  0.4614232E+02  0.7816164E-02  0.1320468E+00
        -11   -1    0    0    0    0  0.00000000000E+00  0.00000000000E+00  0.45593999997E+02  0.45594000000E+02  0.51100000000E-03 0. -1.
         11   -1    0    0    0    0 -0.00000000000E+00 -0.00000000000E+00 -0.45593999997E+02  0.45594000000E+02  0.51100000000E-03 0.  1.
    9900012    2    1    2    0    0 -0.11423884778E+01  0.35237796713E+02  0.28037583941E+02  0.46142317833E+02  0.10000000659E+02 0.  0.
        -12    1    1    2    0    0  0.11423884778E+01 -0.35237796713E+02 -0.28037583941E+02  0.45045682167E+02  0.00000000000E+00 0.  1.
         11    1    3    3    0    0  0.75134019554E+00  0.51662203818E+01  0.36978966988E+01  0.63975608929E+01  0.51100000000E-03 0. -1.
        -11    1    3    3    0    0  0.13740161070E+01  0.15975963045E+01  0.42514387360E+01  0.47449937620E+01  0.51100000000E-03 0.  1.
         12    1    3    3    0    0 -0.32677447803E+01  0.28473980027E+02  0.20088248506E+02  0.34999763178E+02  0.00000000000E+00 0. -1.
</event>
<event>
 7    1  0.3846293E-008  0.4614231E+02  0.7816164E-02  0.1320468E+00
        -11   -1    0    0    0    0  0.00000000000E+00  0.00000000000E+00  0.45593999997E+02  0.45594000000E+02  0.51100000000E-03 0. -1.
         11   -1    0    0    0    0 -0.00000000000E+00 -0.00000000000E+00 -0.45593999997E+02  0.45594000000E+02  0.51100000000E-03 0.  1.
    9900012    2    1    2    0    0 -0.35582954495E+02  0.26484740610E+02  0.78438441059E+01  0.46142311792E+02  0.99999455720E+01 0.  0.
        -12    1    1    2    0    0  0.35582954495E+02 -0.26484740610E+02 -0.78438441059E+01  0.45045688208E+02  0.00000000000E+00 0.  1.
         11    1    3    3    0    0  0.24554718876E+00  0.20078572167E+00  0.64149911368E+00  0.71563237903E+00  0.51100000000E-03 0. -1.
        -11    1    3    3    0    0 -0.81611539006E+01  0.42363012218E+01  0.35667277768E+01  0.98626684181E+01  0.51100000000E-03 0.  1.
         12    1    3    3    0    0 -0.27667347783E+02  0.22047653666E+02  0.36356172154E+01  0.35564010995E+02  0.00000000000E+00 0. -1.
</event>
<event>
 7    1  0.3846293E-008  0.4614232E+02  0.7816164E-02  0.1320468E+00
        -11   -1    0    0    0    0  0.00000000000E+00  0.00000000000E+00  0.45593999997E+02  0.45594000000E+02  0.51100000000E-03 0. -1.
         11   -1    0    0    0    0 -0.00000000000E+00 -0.00000000000E+00 -0.45593999997E+02  0.45594000000E+02  0.51100000000E-03 0.  1.
    9900012    2    1    2    0    0  0.26764636879E+02  0.35998368191E+02  0.41091714457E+01  0.46142316637E+02  0.99999897494E+01 0.  0.
        -12    1    1    2    0    0 -0.26764636879E+02 -0.35998368191E+02 -0.41091714457E+01  0.45045683363E+02  0.00000000000E+00 0.  1.
         11    1    3    3    0    0  0.43634149600E+01  0.58446436686E+01 -0.16940931132E+01  0.74879370633E+01  0.51100000000E-03 0. -1.
        -11    1    3    3    0    0  0.12070509774E+01  0.43876343520E-01  0.90412704256E+00  0.15087555023E+01  0.51100000000E-03 0.  1.
        -12    1    3    3    0    0  0.21194170941E+02  0.30109848179E+02  0.48991375163E+01  0.37145624071E+02  0.00000000000E+00 0.  1.
</event>
<event>
 7    1  0.3846293E-008  0.4614232E+02  0.7816164E-02  0.1320468E+00
        -11   -1    0    0    0    0  0.00000000000E+00  0.00000000000E+00  0.45593999997E+02  0.45594000000E+02  0.51100000000E-03 0. -1.
         11   -1    0    0    0    0 -0.00000000000E+00 -0.00000000000E+00 -0.45593999997E+02  0.45594000000E+02  0.51100000000E-03 0.  1.
    9900012    2    1    2    0    0 -0.31058065199E+02  0.20321530893E+02  0.25525386624E+02  0.46142318808E+02  0.10000009549E+02 0.  0.
        -12    1    1    2    0    0  0.31058065199E+02 -0.20321530893E+02 -0.25525386624E+02  0.45045681192E+02  0.00000000000E+00 0.  1.
         11    1    3    3    0    0 -0.19248959192E+02  0.15016097040E+02  0.13966018812E+02  0.28125705005E+02  0.51100000000E-03 0. -1.
        -11    1    3    3    0    0 -0.33806296536E+01  0.27457561675E+01  0.66012378956E+01  0.79084875799E+01  0.51100000000E-03 0.  1.
        -12    1    3    3    0    0 -0.84284763524E+01  0.25596776851E+01  0.49581299165E+01  0.10108126223E+02  0.00000000000E+00 0.  1.
</event>
<event>
 7    1  0.3846293E-008  0.4614232E+02  0.7816164E-02  0.1320468E+00
        -11   -1    0    0    0    0  0.00000000000E+00  0.00000000000E+00  0.45593999997E+02  0.45594000000E+02  0.51100000000E-03 0.  1.
         11   -1    0    0    0    0 -0.00000000000E+00 -0.00000000000E+00 -0.45593999997E+02  0.45594000000E+02  0.51100000000E-03 0. -1.
    9900012    2    1    2    0    0  0.23809487236E+02  0.68109706655E+00 -0.38232942811E+02  0.46142317725E+02  0.99999996692E+01 0.  0.
        -12    1    1    2    0    0 -0.23809487236E+02 -0.68109706655E+00  0.38232942811E+02  0.45045682275E+02  0.00000000000E+00 0.  1.
         11    1    3    3    0    0  0.25994429570E+01  0.49705950742E+00 -0.24433308085E+01  0.36019491310E+01  0.51100000000E-03 0. -1.
        -11    1    3    3    0    0  0.11484435133E+02  0.23098764475E+01 -0.12088063309E+02  0.16832975208E+02  0.51100000000E-03 0.  1.
         12    1    3    3    0    0  0.97256091462E+01 -0.21258388884E+01 -0.23701548693E+02  0.25707393386E+02  0.00000000000E+00 0. -1.
</event>
<event>
 7    1  0.3846293E-008  0.4614232E+02  0.7816164E-02  0.1320468E+00
        -11   -1    0    0    0    0  0.00000000000E+00  0.00000000000E+00  0.45593999997E+02  0.45594000000E+02  0.51100000000E-03 0.  1.
         11   -1    0    0    0    0 -0.00000000000E+00 -0.00000000000E+00 -0.45593999997E+02  0.45594000000E+02  0.51100000000E-03 0. -1.
    9900012    2    1    2    0    0  0.34217706304E+02  0.55034839076E+01 -0.28774533148E+02  0.46142317435E+02  0.99999970287E+01 0.  0.
        -12    1    1    2    0    0 -0.34217706304E+02 -0.55034839076E+01  0.28774533148E+02  0.45045682565E+02  0.00000000000E+00 0.  1.
         11    1    3    3    0    0  0.22578538338E+02 -0.36938373300E+00 -0.17278997689E+02  0.28433969108E+02  0.51100000000E-03 0. -1.
        -11    1    3    3    0    0  0.37657196505E+01  0.31190464535E+01 -0.59064259243E+01  0.76677873422E+01  0.51100000000E-03 0.  1.
         12    1    3    3    0    0  0.78734483151E+01  0.27538211871E+01 -0.55891095353E+01  0.10040560985E+02  0.00000000000E+00 0. -1.
</event>
<event>
 7    1  0.3846293E-008  0.4614232E+02  0.7816164E-02  0.1320468E+00
        -11   -1    0    0    0    0  0.00000000000E+00  0.00000000000E+00  0.45593999997E+02  0.45594000000E+02  0.51100000000E-03 0. -1.
         11   -1    0    0    0    0 -0.00000000000E+00 -0.00000000000E+00 -0.45593999997E+02  0.45594000000E+02  0.51100000000E-03 0.  1.
    9900012    2    1    2    0    0  0.26180410027E+02 -0.35253009645E+02 -0.10046138183E+02  0.46142318181E+02  0.10000003825E+02 0.  0.
        -12    1    1    2    0    0 -0.26180410027E+02  0.35253009645E+02  0.10046138183E+02  0.45045681819E+02  0.00000000000E+00 0.  1.
         11    1    3    3    0    0  0.84533967618E+01 -0.13054985654E+02 -0.34105830145E+01  0.15922457222E+02  0.51100000000E-03 0. -1.
        -11    1    3    3    0    0  0.29193233468E+01 -0.67682543828E+01 -0.47108440026E+01  0.87477864441E+01  0.51100000000E-03 0.  1.
         12    1    3    3    0    0  0.14807689918E+02 -0.15429769608E+02 -0.19247111662E+01  0.21472074514E+02  0.00000000000E+00 0. -1.
</event>
<event>
 7    1  0.3846293E-008  0.4614232E+02  0.7816164E-02  0.1320468E+00
        -11   -1    0    0    0    0  0.00000000000E+00  0.00000000000E+00  0.45593999997E+02  0.45594000000E+02  0.51100000000E-03 0.  1.
         11   -1    0    0    0    0 -0.00000000000E+00 -0.00000000000E+00 -0.45593999997E+02  0.45594000000E+02  0.51100000000E-03 0. -1.
    9900012    2    1    2    0    0 -0.44715475357E+01  0.25999822043E+02 -0.36512023597E+02  0.46142319289E+02  0.10000013930E+02 0.  0.
        -12    1    1    2    0    0  0.44715475357E+01 -0.25999822043E+02  0.36512023597E+02  0.45045680711E+02  0.00000000000E+00 0.  1.
         11    1    3    3    0    0 -0.61315174858E+00  0.65754722100E+01 -0.81724601785E+01  0.10507230629E+02  0.51100000000E-03 0. -1.
        -11    1    3    3    0    0  0.76102911682E+00  0.69601924151E+01 -0.44493198663E+01  0.82957755096E+01  0.51100000000E-03 0.  1.
        -12    1    3    3    0    0 -0.46194249039E+01  0.12464157418E+02 -0.23890243552E+02  0.27339313151E+02  0.00000000000E+00 0.  1.
</event>
<event>
 7    1  0.3846293E-008  0.4614232E+02  0.7816164E-02  0.1320468E+00
        -11   -1    0    0    0    0  0.00000000000E+00  0.00000000000E+00  0.45593999997E+02  0.45594000000E+02  0.51100000000E-03 0.  1.
         11   -1    0    0    0    0 -0.00000000000E+00 -0.00000000000E+00 -0.45593999997E+02  0.45594000000E+02  0.51100000000E-03 0. -1.
    9900012    2    1    2    0    0 -0.16354979202E+00  0.35792798955E+02 -0.27348898741E+02  0.46142317989E+02  0.10000002076E+02 0.  0.
        -12    1    1    2    0    0  0.16354979202E+00 -0.35792798955E+02  0.27348898741E+02  0.45045682011E+02  0.00000000000E+00 0.  1.
         11    1    3    3    0    0 -0.19676067151E+01  0.16508355753E+02 -0.16164936484E+02  0.23188412141E+02  0.51100000000E-03 0. -1.
        -11    1    3    3    0    0 -0.12664773050E+01  0.98233607054E+01 -0.39897518520E+01  0.10678038229E+02  0.51100000000E-03 0.  1.
         12    1    3    3    0    0  0.30705342281E+01  0.94610824963E+01 -0.71942104050E+01  0.12275867619E+02  0.00000000000E+00 0. -1.
</event>
<event>
 7    1  0.3846293E-008  0.4614232E+02  0.7816164E-02  0.1320468E+00
        -11   -1    0    0    0    0  0.00000000000E+00  0.00000000000E+00  0.45593999997E+02  0.45594000000E+02  0.51100000000E-03 0. -1.
         11   -1    0    0    0    0 -0.00000000000E+00 -0.00000000000E+00 -0.45593999997E+02  0.45594000000E+02  0.51100000000E-03 0.  1.
    9900012    2    1    2    0    0  0.27250046701E+02  0.27977268849E+02  0.22445956149E+02  0.46142316911E+02  0.99999922512E+01 0.  0.
        -12    1    1    2    0    0 -0.27250046701E+02 -0.27977268849E+02 -0.22445956149E+02  0.45045683089E+02  0.00000000000E+00 0.  1.
         11    1    3    3    0    0  0.10531247759E+02  0.11254795339E+02  0.11780738418E+02  0.19400087511E+02  0.51100000000E-03 0. -1.
        -11    1    3    3    0    0  0.34303069660E+01  0.77060140504E+01  0.30508415471E+01  0.89697989294E+01  0.51100000000E-03 0.  1.
        -12    1    3    3    0    0  0.13288491976E+02  0.90164594597E+01  0.76143761839E+01  0.17772430471E+02  0.00000000000E+00 0.  1.
</event>
<event>
 7    1  0.3846293E-008  0.4614231E+02  0.7816164E-02  0.1320468E+00
        -11   -1    0    0    0    0  0.00000000000E+00  0.00000000000E+00  0.45593999997E+02  0.45594000000E+02  0.51100000000E-03 0. -1.
         11   -1    0    0    0    0 -0.00000000000E+00 -0.00000000000E+00 -0.45593999997E+02  0.45594000000E+02  0.51100000000E-03 0.  1.
    9900012    2    1    2    0    0  0.33174455395E+02 -0.18917476864E+02  0.23889300194E+02  0.46142311134E+02  0.99999395676E+01 0.  0.
        -12    1    1    2    0    0 -0.33174455395E+02  0.18917476864E+02 -0.23889300194E+02  0.45045688866E+02  0.00000000000E+00 0.  1.
         11    1    3    3    0    0  0.99143346809E+01 -0.37553904481E+01  0.97643438982E+01  0.14413167646E+02  0.51100000000E-03 0. -1.
        -11    1    3    3    0    0  0.54500421016E+01 -0.11393462006E+01  0.14305988047E+01  0.57487113229E+01  0.51100000000E-03 0.  1.
        -12    1    3    3    0    0  0.17810078612E+02 -0.14022740216E+02  0.12694357492E+02  0.25980432165E+02  0.00000000000E+00 0.  1.
</event>
<event>
 7    1  0.3846293E-008  0.4614232E+02  0.7816164E-02  0.1320468E+00
        -11   -1    0    0    0    0  0.00000000000E+00  0.00000000000E+00  0.45593999997E+02  0.45594000000E+02  0.51100000000E-03 0.  1.
         11   -1    0    0    0    0 -0.00000000000E+00 -0.00000000000E+00 -0.45593999997E+02  0.45594000000E+02  0.51100000000E-03 0. -1.
    9900012    2    1    2    0    0 -0.50160484363E+01 -0.29691524948E+02 -0.33501732180E+02  0.46142318135E+02  0.10000003411E+02 0.  0.
        -12    1    1    2    0    0  0.50160484363E+01  0.29691524948E+02  0.33501732180E+02  0.45045681865E+02  0.00000000000E+00 0.  1.
         11    1    3    3    0    0 -0.43393774051E+00 -0.14867112778E+02 -0.19930277448E+02  0.24868359490E+02  0.51100000000E-03 0. -1.
        -11    1    3    3    0    0 -0.39849393017E+01 -0.13316613392E+02 -0.13857030868E+02  0.19627257531E+02  0.51100000000E-03 0.  1.
        -12    1    3    3    0    0 -0.59717139414E+00 -0.15077987778E+01  0.28557613622E+00  0.16467011137E+01  0.00000000000E+00 0.  1.
</event>
<event>
 7    1  0.3846293E-008  0.4614232E+02  0.7816164E-02  0.1320468E+00
        -11   -1    0    0    0    0  0.00000000000E+00  0.00000000000E+00  0.45593999997E+02  0.45594000000E+02  0.51100000000E-03 0.  1.
         11   -1    0    0    0    0 -0.00000000000E+00 -0.00000000000E+00 -0.45593999997E+02  0.45594000000E+02  0.51100000000E-03 0. -1.
    9900012    2    1    2    0    0 -0.47025904138E+01 -0.33677593021E+02  0.29543507844E+02  0.46142317809E+02  0.10000000437E+02 0.  0.
        -12    1    1    2    0    0  0.47025904138E+01  0.33677593021E+02 -0.29543507844E+02  0.45045682191E+02  0.00000000000E+00 0.  1.
         11    1    3    3    0    0  0.12650128175E+01 -0.17968753548E+02  0.11601725380E+02  0.21426068084E+02  0.51100000000E-03 0. -1.
        -11    1    3    3    0    0 -0.16653249087E+01 -0.49819909579E+01  0.73882734108E+01  0.90653254332E+01  0.51100000000E-03 0.  1.
         12    1    3    3    0    0 -0.43022783227E+01 -0.10726848515E+02  0.10553509054E+02  0.15650924292E+02  0.00000000000E+00 0. -1.
</event>
<event>
 7    1  0.3846293E-008  0.4614232E+02  0.7816164E-02  0.1320468E+00
        -11   -1    0    0    0    0  0.00000000000E+00  0.00000000000E+00  0.45593999997E+02  0.45594000000E+02  0.51100000000E-03 0.  1.
         11   -1    0    0    0    0 -0.00000000000E+00 -0.00000000000E+00 -0.45593999997E+02  0.45594000000E+02  0.51100000000E-03 0. -1.
    9900012    2    1    2    0    0  0.14302643983E+02  0.11209960727E+02 -0.41217528643E+02  0.46142317500E+02  0.99999976235E+01 0.  0.
        -12    1    1    2    0    0 -0.14302643983E+02 -0.11209960727E+02  0.41217528643E+02  0.45045682500E+02  0.00000000000E+00 0.  1.
         11    1    3    3    0    0  0.46667976399E+01  0.62306468973E+00 -0.93728286851E+01  0.10488904978E+02  0.51100000000E-03 0.  1.
        -11    1    3    3    0    0  0.53388663018E+01  0.91649116515E+00 -0.96947014074E+01  0.11105434934E+02  0.51100000000E-03 0. -1.
        -12    1    3    3    0    0  0.42969800414E+01  0.96704048720E+01 -0.22149998551E+02  0.24547977588E+02  0.00000000000E+00 0.  1.
</event>
<event>
 7    1  0.3846293E-008  0.4614232E+02  0.7816164E-02  0.1320468E+00
        -11   -1    0    0    0    0  0.00000000000E+00  0.00000000000E+00  0.45593999997E+02  0.45594000000E+02  0.51100000000E-03 0.  1.
         11   -1    0    0    0    0 -0.00000000000E+00 -0.00000000000E+00 -0.45593999997E+02  0.45594000000E+02  0.51100000000E-03 0. -1.
    9900012    2    1    2    0    0 -0.25237626750E+02  0.37942524367E+00 -0.37309940905E+02  0.46142318100E+02  0.10000003089E+02 0.  0.
        -12    1    1    2    0    0  0.25237626750E+02 -0.37942524367E+00  0.37309940905E+02  0.45045681900E+02  0.00000000000E+00 0.  1.
         11    1    3    3    0    0 -0.14197507599E+01 -0.90405643585E+00 -0.42717644693E+01  0.45914030755E+01  0.51100000000E-03 0. -1.
        -11    1    3    3    0    0 -0.81438292780E+00  0.19373578581E+01 -0.38019856113E+01  0.43441535278E+01  0.51100000000E-03 0.  1.
         12    1    3    3    0    0 -0.23003493062E+02 -0.65387617861E+00 -0.29236190825E+02  0.37206761497E+02  0.00000000000E+00 0. -1.
</event>
<event>
 7    1  0.3846293E-008  0.4614232E+02  0.7816164E-02  0.1320468E+00
        -11   -1    0    0    0    0  0.00000000000E+00  0.00000000000E+00  0.45593999997E+02  0.45594000000E+02  0.51100000000E-03 0. -1.
         11   -1    0    0    0    0 -0.00000000000E+00 -0.00000000000E+00 -0.45593999997E+02  0.45594000000E+02  0.51100000000E-03 0.  1.
    9900012    2    1    2    0    0  0.40724405457E+02 -0.16993041070E+02 -0.90483575654E+01  0.46142318528E+02  0.10000006991E+02 0.  0.
        -12    1    1    2    0    0 -0.40724405457E+02  0.16993041070E+02  0.90483575654E+01  0.45045681472E+02  0.00000000000E+00 0.  1.
         11    1    3    3    0    0  0.27834065042E+01  0.70014640800E+00 -0.20141777109E+00  0.28771732899E+01  0.51100000000E-03 0. -1.
        -11    1    3    3    0    0  0.14480312952E+02 -0.33856048650E+01 -0.29754966957E+01  0.15165598054E+02  0.51100000000E-03 0.  1.
        -12    1    3    3    0    0  0.23460686001E+02 -0.14307582613E+02 -0.58714430987E+01  0.28099547184E+02  0.00000000000E+00 0.  1.
</event>
<event>
 7    1  0.3846293E-008  0.4614232E+02  0.7816164E-02  0.1320468E+00
        -11   -1    0    0    0    0  0.00000000000E+00  0.00000000000E+00  0.45593999997E+02  0.45594000000E+02  0.51100000000E-03 0. -1.
         11   -1    0    0    0    0 -0.00000000000E+00 -0.00000000000E+00 -0.45593999997E+02  0.45594000000E+02  0.51100000000E-03 0.  1.
    9900012    2    1    2    0    0  0.27148820754E+02  0.13425557235E+02  0.33343801616E+02  0.46142321388E+02  0.10000033074E+02 0.  0.
        -12    1    1    2    0    0 -0.27148820754E+02 -0.13425557235E+02 -0.33343801616E+02  0.45045678612E+02  0.00000000000E+00 0.  1.
         11    1    3    3    0    0  0.46217499481E+01  0.54794812581E+01  0.93563101828E+01  0.11786680107E+02  0.51100000000E-03 0. -1.
        -11    1    3    3    0    0  0.85115103813E+01  0.81600291101E-01  0.78040007148E+01  0.11547938993E+02  0.51100000000E-03 0.  1.
         12    1    3    3    0    0  0.14015560424E+02  0.78644756859E+01  0.16183490719E+02  0.22807702288E+02  0.00000000000E+00 0. -1.
</event>
<event>
 7    1  0.3846293E-008  0.4614232E+02  0.7816164E-02  0.1320468E+00
        -11   -1    0    0    0    0  0.00000000000E+00  0.00000000000E+00  0.45593999997E+02  0.45594000000E+02  0.51100000000E-03 0. -1.
         11   -1    0    0    0    0 -0.00000000000E+00 -0.00000000000E+00 -0.45593999997E+02  0.45594000000E+02  0.51100000000E-03 0.  1.
    9900012    2    1    2    0    0  0.38839652785E+02 -0.58758155812E+01 -0.22046991948E+02  0.46142315511E+02  0.99999794780E+01 0.  0.
        -12    1    1    2    0    0 -0.38839652785E+02  0.58758155812E+01  0.22046991948E+02  0.45045684489E+02  0.00000000000E+00 0.  1.
         11    1    3    3    0    0  0.14664856973E+02 -0.23119558704E+01 -0.93412929228E+01  0.17540322794E+02  0.51100000000E-03 0. -1.
        -11    1    3    3    0    0  0.11496052956E+01 -0.14124817358E+01  0.60539870665E+00  0.19191677479E+01  0.51100000000E-03 0.  1.
        -12    1    3    3    0    0  0.23025190516E+02 -0.21513779750E+01 -0.13311097731E+02  0.26682824969E+02  0.00000000000E+00 0.  1.
</event>
<event>
 7    1  0.3846293E-008  0.4614232E+02  0.7816164E-02  0.1320468E+00
        -11   -1    0    0    0    0  0.00000000000E+00  0.00000000000E+00  0.45593999997E+02  0.45594000000E+02  0.51100000000E-03 0.  1.
         11   -1    0    0    0    0 -0.00000000000E+00 -0.00000000000E+00 -0.45593999997E+02  0.45594000000E+02  0.51100000000E-03 0. -1.
    9900012    2    1    2    0    0  0.24795209191E+02 -0.26427423026E+02 -0.26756351953E+02  0.46142318115E+02  0.10000003230E+02 0.  0.
        -12    1    1    2    0    0 -0.24795209191E+02  0.26427423026E+02  0.26756351953E+02  0.45045681885E+02  0.00000000000E+00 0.  1.
         11    1    3    3    0    0  0.37445270798E+01 -0.41034078913E+01 -0.80825722411E+01  0.98075182216E+01  0.51100000000E-03 0. -1.
        -11    1    3    3    0    0  0.17316493416E+02 -0.16126249270E+02 -0.16245260072E+02  0.28702357653E+02  0.51100000000E-03 0.  1.
        -12    1    3    3    0    0  0.37341886950E+01 -0.61977658647E+01 -0.24285196399E+01  0.76324422411E+01  0.00000000000E+00 0.  1.
</event>
<event>
 7    1  0.3846293E-008  0.4614232E+02  0.7816164E-02  0.1320468E+00
        -11   -1    0    0    0    0  0.00000000000E+00  0.00000000000E+00  0.45593999997E+02  0.45594000000E+02  0.51100000000E-03 0. -1.
         11   -1    0    0    0    0 -0.00000000000E+00 -0.00000000000E+00 -0.45593999997E+02  0.45594000000E+02  0.51100000000E-03 0.  1.
    9900012    2    1    2    0    0 -0.42484821157E+02 -0.12657105808E+02  0.79969433175E+01  0.46142318091E+02  0.10000003009E+02 0.  0.
        -12    1    1    2    0    0  0.42484821157E+02  0.12657105808E+02 -0.79969433175E+01  0.45045681909E+02  0.00000000000E+00 0.  1.
         11    1    3    3    0    0 -0.13458779122E+02 -0.53657923661E+01  0.46686946590E+01  0.15222587600E+02  0.51100000000E-03 0. -1.
        -11    1    3    3    0    0 -0.10399813855E+02 -0.60903692058E+01  0.71920785725E+00  0.12073358501E+02  0.51100000000E-03 0.  1.
         12    1    3    3    0    0 -0.18626228180E+02 -0.12009442362E+01  0.26090408012E+01  0.18846371990E+02  0.00000000000E+00 0. -1.
</event>
<event>
 7    1  0.3846293E-008  0.4614232E+02  0.7816164E-02  0.1320468E+00
        -11   -1    0    0    0    0  0.00000000000E+00  0.00000000000E+00  0.45593999997E+02  0.45594000000E+02  0.51100000000E-03 0.  1.
         11   -1    0    0    0    0 -0.00000000000E+00 -0.00000000000E+00 -0.45593999997E+02  0.45594000000E+02  0.51100000000E-03 0. -1.
    9900012    2    1    2    0    0 -0.18330402841E+02  0.17364101567E+02 -0.37304124768E+02  0.46142318562E+02  0.10000007301E+02 0.  0.
        -12    1    1    2    0    0  0.18330402841E+02 -0.17364101567E+02  0.37304124768E+02  0.45045681438E+02  0.00000000000E+00 0.  1.
         11    1    3    3    0    0 -0.13322709055E+02  0.98561450545E+01 -0.25122213991E+02  0.30095910153E+02  0.51100000000E-03 0. -1.
        -11    1    3    3    0    0 -0.41145670600E+01  0.82522468167E+01 -0.10213170407E+02  0.13760017792E+02  0.51100000000E-03 0.  1.
         12    1    3    3    0    0 -0.89312672591E+00 -0.74429030408E+00 -0.19687403703E+01  0.22863906165E+01  0.00000000000E+00 0. -1.
</event>
<event>
 7    1  0.3846293E-008  0.4614231E+02  0.7816164E-02  0.1320468E+00
        -11   -1    0    0    0    0  0.00000000000E+00  0.00000000000E+00  0.45593999997E+02  0.45594000000E+02  0.51100000000E-03 0.  1.
         11   -1    0    0    0    0 -0.00000000000E+00 -0.00000000000E+00 -0.45593999997E+02  0.45594000000E+02  0.51100000000E-03 0. -1.
    9900012    2    1    2    0    0  0.10568275403E+01  0.42078946157E+02 -0.16042423853E+02  0.46142312557E+02  0.99999525446E+01 0.  0.
        -12    1    1    2    0    0 -0.10568275403E+01 -0.42078946157E+02  0.16042423853E+02  0.45045687443E+02  0.00000000000E+00 0.  1.
         11    1    3    3    0    0  0.25788753230E+01  0.12628948450E+02 -0.14481448014E+01  0.12970661530E+02  0.51100000000E-03 0. -1.
        -11    1    3    3    0    0  0.12676016052E+01  0.56147976860E+01 -0.22012493262E+01  0.61626508697E+01  0.51100000000E-03 0.  1.
         12    1    3    3    0    0 -0.27896493880E+01  0.23835200020E+02 -0.12393029726E+02  0.27009000157E+02  0.00000000000E+00 0. -1.
</event>
<event>
 7    1  0.3846293E-008  0.4614232E+02  0.7816164E-02  0.1320468E+00
        -11   -1    0    0    0    0  0.00000000000E+00  0.00000000000E+00  0.45593999997E+02  0.45594000000E+02  0.51100000000E-03 0. -1.
         11   -1    0    0    0    0 -0.00000000000E+00 -0.00000000000E+00 -0.45593999997E+02  0.45594000000E+02  0.51100000000E-03 0.  1.
    9900012    2    1    2    0    0  0.17619612883E+02 -0.12033901415E+02 -0.39671751814E+02  0.46142318372E+02  0.10000005566E+02 0.  0.
        -12    1    1    2    0    0 -0.17619612883E+02  0.12033901415E+02  0.39671751814E+02  0.45045681628E+02  0.00000000000E+00 0.  1.
         11    1    3    3    0    0  0.69740693965E+01 -0.87883209567E+01 -0.24267255058E+02  0.26735218299E+02  0.51100000000E-03 0. -1.
        -11    1    3    3    0    0  0.43841935152E+01 -0.57389305382E+00 -0.32913933902E+01  0.55121481045E+01  0.51100000000E-03 0.  1.
         12    1    3    3    0    0  0.62613499713E+01 -0.26716874040E+01 -0.12113103365E+02  0.13894951968E+02  0.00000000000E+00 0. -1.
</event>
<event>
 7    1  0.3846293E-008  0.4614232E+02  0.7816164E-02  0.1320468E+00
        -11   -1    0    0    0    0  0.00000000000E+00  0.00000000000E+00  0.45593999997E+02  0.45594000000E+02  0.51100000000E-03 0.  1.
         11   -1    0    0    0    0 -0.00000000000E+00 -0.00000000000E+00 -0.45593999997E+02  0.45594000000E+02  0.51100000000E-03 0. -1.
    9900012    2    1    2    0    0 -0.10895417996E+01 -0.23563044183E+02 -0.38375895537E+02  0.46142317513E+02  0.99999977352E+01 0.  0.
        -12    1    1    2    0    0  0.10895417996E+01  0.23563044183E+02  0.38375895537E+02  0.45045682487E+02  0.00000000000E+00 0.  1.
         11    1    3    3    0    0 -0.42701818635E+01 -0.16681831922E+02 -0.29317081672E+02  0.34000135991E+02  0.51100000000E-03 0. -1.
        -11    1    3    3    0    0  0.18832090680E+01 -0.28674746718E+01 -0.60702122126E+01  0.69725435785E+01  0.51100000000E-03 0.  1.
        -12    1    3    3    0    0  0.12974309959E+01 -0.40137375893E+01 -0.29886016524E+01  0.51696379430E+01  0.00000000000E+00 0.  1.
</event>
<event>
 7    1  0.3846293E-008  0.4614232E+02  0.7816164E-02  0.1320468E+00
        -11   -1    0    0    0    0  0.00000000000E+00  0.00000000000E+00  0.45593999997E+02  0.45594000000E+02  0.51100000000E-03 0.  1.
         11   -1    0    0    0    0 -0.00000000000E+00 -0.00000000000E+00 -0.45593999997E+02  0.45594000000E+02  0.51100000000E-03 0. -1.
    9900012    2    1    2    0    0  0.14919474351E+00 -0.98750726086E+01 -0.43949679058E+02  0.46142316440E+02  0.99999879508E+01 0.  0.
        -12    1    1    2    0    0 -0.14919474351E+00  0.98750726086E+01  0.43949679058E+02  0.45045683560E+02  0.00000000000E+00 0.  1.
         11    1    3    3    0    0  0.41619184893E+00  0.33148914308E+00 -0.69605501791E+01  0.69808566641E+01  0.51100000000E-03 0. -1.
        -11    1    3    3    0    0 -0.27140696792E+01 -0.38706877491E+00 -0.77599705082E+01  0.82300145206E+01  0.51100000000E-03 0.  1.
        -12    1    3    3    0    0  0.24470725738E+01 -0.98194929767E+01 -0.29229158371E+02  0.30931445255E+02  0.00000000000E+00 0.  1.
</event>
<event>
 7    1  0.3846293E-008  0.4614232E+02  0.7816164E-02  0.1320468E+00
        -11   -1    0    0    0    0  0.00000000000E+00  0.00000000000E+00  0.45593999997E+02  0.45594000000E+02  0.51100000000E-03 0. -1.
         11   -1    0    0    0    0 -0.00000000000E+00 -0.00000000000E+00 -0.45593999997E+02  0.45594000000E+02  0.51100000000E-03 0.  1.
    9900012    2    1    2    0    0  0.18704342770E+02 -0.29186148416E+02  0.28765079775E+02  0.46142317496E+02  0.99999975802E+01 0.  0.
        -12    1    1    2    0    0 -0.18704342770E+02  0.29186148416E+02 -0.28765079775E+02  0.45045682504E+02  0.00000000000E+00 0.  1.
         11    1    3    3    0    0  0.70004584726E+01 -0.13443254874E+02  0.11759903238E+02  0.19183921519E+02  0.51100000000E-03 0. -1.
        -11    1    3    3    0    0  0.42670028607E+01 -0.11697973261E+02  0.10235402014E+02  0.16118726578E+02  0.51100000000E-03 0.  1.
         12    1    3    3    0    0  0.74368814365E+01 -0.40449202802E+01  0.67697745233E+01  0.10839669399E+02  0.00000000000E+00 0. -1.
</event>
<event>
 7    1  0.3846293E-008  0.4614232E+02  0.7816164E-02  0.1320468E+00
        -11   -1    0    0    0    0  0.00000000000E+00  0.00000000000E+00  0.45593999997E+02  0.45594000000E+02  0.51100000000E-03 0.  1.
         11   -1    0    0    0    0 -0.00000000000E+00 -0.00000000000E+00 -0.45593999997E+02  0.45594000000E+02  0.51100000000E-03 0. -1.
    9900012    2    1    2    0    0 -0.44373006781E+01  0.40997906504E+02 -0.18127198484E+02  0.46142319853E+02  0.10000019074E+02 0.  0.
        -12    1    1    2    0    0  0.44373006781E+01 -0.40997906504E+02  0.18127198484E+02  0.45045680147E+02  0.00000000000E+00 0.  1.
         11    1    3    3    0    0  0.57222835759E+00  0.22285437574E+02 -0.12789101910E+02  0.25700764602E+02  0.51100000000E-03 0. -1.
        -11    1    3    3    0    0 -0.24535140978E+01  0.36231965598E+01 -0.18137421537E+01  0.47367653098E+01  0.51100000000E-03 0.  1.
        -12    1    3    3    0    0 -0.25560149379E+01  0.15089272370E+02 -0.35243544201E+01  0.15704789941E+02  0.00000000000E+00 0.  1.
</event>
<event>
 7    1  0.3846293E-008  0.4614232E+02  0.7816164E-02  0.1320468E+00
        -11   -1    0    0    0    0  0.00000000000E+00  0.00000000000E+00  0.45593999997E+02  0.45594000000E+02  0.51100000000E-03 0.  1.
         11   -1    0    0    0    0 -0.00000000000E+00 -0.00000000000E+00 -0.45593999997E+02  0.45594000000E+02  0.51100000000E-03 0. -1.
    9900012    2    1    2    0    0 -0.10747852452E+01 -0.39388123878E+02 -0.21829658393E+02  0.46142318170E+02  0.10000003727E+02 0.  0.
        -12    1    1    2    0    0  0.10747852452E+01  0.39388123878E+02  0.21829658393E+02  0.45045681830E+02  0.00000000000E+00 0.  1.
         11    1    3    3    0    0 -0.33147309479E+01 -0.10030232992E+02 -0.61947717640E+01  0.12246150930E+02  0.51100000000E-03 0. -1.
        -11    1    3    3    0    0 -0.32402928101E+00  0.15246182233E+00 -0.54605861573E+00  0.65300831170E+00  0.51100000000E-03 0.  1.
         12    1    3    3    0    0  0.25639749837E+01 -0.29510352709E+02 -0.15088828013E+02  0.33243158928E+02  0.00000000000E+00 0. -1.
</event>
<event>
 7    1  0.3846293E-008  0.4614232E+02  0.7816164E-02  0.1320468E+00
        -11   -1    0    0    0    0  0.00000000000E+00  0.00000000000E+00  0.45593999997E+02  0.45594000000E+02  0.51100000000E-03 0.  1.
         11   -1    0    0    0    0 -0.00000000000E+00 -0.00000000000E+00 -0.45593999997E+02  0.45594000000E+02  0.51100000000E-03 0. -1.
    9900012    2    1    2    0    0  0.29551663386E+02 -0.11710304459E+02 -0.31916789671E+02  0.46142317607E+02  0.99999985907E+01 0.  0.
        -12    1    1    2    0    0 -0.29551663386E+02  0.11710304459E+02  0.31916789671E+02  0.45045682393E+02  0.00000000000E+00 0.  1.
         11    1    3    3    0    0  0.86588240672E+01 -0.39400803531E+01 -0.63673314357E+01  0.11447374253E+02  0.51100000000E-03 0. -1.
        -11    1    3    3    0    0  0.37387311371E+00  0.72985815208E+00 -0.27339877037E+01  0.28543235717E+01  0.51100000000E-03 0.  1.
         12    1    3    3    0    0  0.20518966205E+02 -0.85000822582E+01 -0.22815470531E+02  0.31840619782E+02  0.00000000000E+00 0. -1.
</event>
<event>
 7    1  0.3846293E-008  0.4614232E+02  0.7816164E-02  0.1320468E+00
        -11   -1    0    0    0    0  0.00000000000E+00  0.00000000000E+00  0.45593999997E+02  0.45594000000E+02  0.51100000000E-03 0.  1.
         11   -1    0    0    0    0 -0.00000000000E+00 -0.00000000000E+00 -0.45593999997E+02  0.45594000000E+02  0.51100000000E-03 0. -1.
    9900012    2    1    2    0    0 -0.23652975758E+02 -0.22821608176E+01 -0.38268028064E+02  0.46142317720E+02  0.99999996257E+01 0.  0.
        -12    1    1    2    0    0  0.23652975758E+02  0.22821608176E+01  0.38268028064E+02  0.45045682280E+02  0.00000000000E+00 0.  1.
         11    1    3    3    0    0 -0.88618335734E+01 -0.30561617691E+00 -0.13299412567E+02  0.15984363310E+02  0.51100000000E-03 0. -1.
        -11    1    3    3    0    0 -0.14400660710E+02 -0.90332381446E+00 -0.17870027845E+02  0.22968084775E+02  0.51100000000E-03 0.  1.
        -12    1    3    3    0    0 -0.39048147437E+00 -0.10732208263E+01 -0.70985876514E+01  0.71898696350E+01  0.00000000000E+00 0.  1.
</event>
<event>
 7    1  0.3846293E-008  0.4614232E+02  0.7816164E-02  0.1320468E+00
        -11   -1    0    0    0    0  0.00000000000E+00  0.00000000000E+00  0.45593999997E+02  0.45594000000E+02  0.51100000000E-03 0. -1.
         11   -1    0    0    0    0 -0.00000000000E+00 -0.00000000000E+00 -0.45593999997E+02  0.45594000000E+02  0.51100000000E-03 0.  1.
    9900012    2    1    2    0    0  0.28788531419E+02 -0.72550290467E+01  0.33877698880E+02  0.46142317975E+02  0.10000001948E+02 0.  0.
        -12    1    1    2    0    0 -0.28788531419E+02  0.72550290467E+01 -0.33877698880E+02  0.45045682025E+02  0.00000000000E+00 0.  1.
         11    1    3    3    0    0  0.21011287442E+02 -0.54579659051E+01  0.21530971638E+02  0.30575256855E+02  0.51100000000E-03 0. -1.
        -11    1    3    3    0    0  0.55970438146E+01 -0.60286093893E+00  0.11722373803E+02  0.13004014327E+02  0.51100000000E-03 0.  1.
        -12    1    3    3    0    0  0.21802001616E+01 -0.11942022026E+01  0.62435343912E+00  0.25630467929E+01  0.00000000000E+00 0.  1.
</event>
<event>
 7    1  0.3846293E-008  0.4614232E+02  0.7816164E-02  0.1320468E+00
        -11   -1    0    0    0    0  0.00000000000E+00  0.00000000000E+00  0.45593999997E+02  0.45594000000E+02  0.51100000000E-03 0. -1.
         11   -1    0    0    0    0 -0.00000000000E+00 -0.00000000000E+00 -0.45593999997E+02  0.45594000000E+02  0.51100000000E-03 0.  1.
    9900012    2    1    2    0    0 -0.15298166827E+02 -0.37690883203E+02  0.19351405413E+02  0.46142317895E+02  0.10000001217E+02 0.  0.
        -12    1    1    2    0    0  0.15298166827E+02  0.37690883203E+02 -0.19351405413E+02  0.45045682105E+02  0.00000000000E+00 0.  1.
         11    1    3    3    0    0 -0.39275308863E+01 -0.71650999158E+01  0.67474995390E+01  0.10596834714E+02  0.51100000000E-03 0. -1.
        -11    1    3    3    0    0 -0.10144225269E+02 -0.29743079996E+02  0.10803219267E+02  0.33230492936E+02  0.51100000000E-03 0.  1.
        -12    1    3    3    0    0 -0.12264106713E+01 -0.78270329135E+00  0.18006866073E+01  0.23149902451E+01  0.00000000000E+00 0.  1.
</event>
<event>
 7    1  0.3846293E-008  0.4614232E+02  0.7816164E-02  0.1320468E+00
        -11   -1    0    0    0    0  0.00000000000E+00  0.00000000000E+00  0.45593999997E+02  0.45594000000E+02  0.51100000000E-03 0. -1.
         11   -1    0    0    0    0 -0.00000000000E+00 -0.00000000000E+00 -0.45593999997E+02  0.45594000000E+02  0.51100000000E-03 0.  1.
    9900012    2    1    2    0    0  0.30432502179E+02 -0.32190434863E+02 -0.81701995837E+01  0.46142318223E+02  0.10000004212E+02 0.  0.
        -12    1    1    2    0    0 -0.30432502179E+02  0.32190434863E+02  0.81701995837E+01  0.45045681777E+02  0.00000000000E+00 0.  1.
         11    1    3    3    0    0  0.21328684944E+02 -0.20383225064E+02 -0.51531107973E+01  0.29949010278E+02  0.51100000000E-03 0. -1.
        -11    1    3    3    0    0  0.51579410394E+01 -0.92022338467E+01  0.64786318162E-01  0.10549391502E+02  0.51100000000E-03 0.  1.
        -12    1    3    3    0    0  0.39458761952E+01 -0.26049759520E+01 -0.30818751046E+01  0.56439164433E+01  0.00000000000E+00 0.  1.
</event>
<event>
 7    1  0.3846293E-008  0.4614232E+02  0.7816164E-02  0.1320468E+00
        -11   -1    0    0    0    0  0.00000000000E+00  0.00000000000E+00  0.45593999997E+02  0.45594000000E+02  0.51100000000E-03 0.  1.
         11   -1    0    0    0    0 -0.00000000000E+00 -0.00000000000E+00 -0.45593999997E+02  0.45594000000E+02  0.51100000000E-03 0. -1.
    9900012    2    1    2    0    0  0.38669980300E+02  0.17053803038E+02 -0.15585694838E+02  0.46142318098E+02  0.10000003074E+02 0.  0.
        -12    1    1    2    0    0 -0.38669980300E+02 -0.17053803038E+02  0.15585694838E+02  0.45045681902E+02  0.00000000000E+00 0.  1.
         11    1    3    3    0    0  0.19860490966E+01  0.10040375579E+01 -0.22211450065E+01  0.31441958960E+01  0.51100000000E-03 0. -1.
        -11    1    3    3    0    0  0.80572351943E+01  0.47071361613E+01 -0.67149372569E+01  0.11496371273E+02  0.51100000000E-03 0.  1.
        -12    1    3    3    0    0  0.28626696009E+02  0.11342629318E+02 -0.66496125745E+01  0.31501750929E+02  0.00000000000E+00 0.  1.
</event>
<event>
 7    1  0.3846293E-008  0.4614232E+02  0.7816164E-02  0.1320468E+00
        -11   -1    0    0    0    0  0.00000000000E+00  0.00000000000E+00  0.45593999997E+02  0.45594000000E+02  0.51100000000E-03 0.  1.
         11   -1    0    0    0    0 -0.00000000000E+00 -0.00000000000E+00 -0.45593999997E+02  0.45594000000E+02  0.51100000000E-03 0. -1.
    9900012    2    1    2    0    0 -0.21247645774E+02 -0.21144886535E+02 -0.33623575090E+02  0.46142317861E+02  0.10000000911E+02 0.  0.
        -12    1    1    2    0    0  0.21247645774E+02  0.21144886535E+02  0.33623575090E+02  0.45045682139E+02  0.00000000000E+00 0.  1.
         11    1    3    3    0    0 -0.14273740008E+02 -0.18963690683E+02 -0.27141471320E+02  0.36055799587E+02  0.51100000000E-03 0. -1.
        -11    1    3    3    0    0 -0.74005656624E+00  0.30756830545E+00 -0.71214593600E-01  0.80458297472E+00  0.51100000000E-03 0.  1.
         12    1    3    3    0    0 -0.62338491992E+01 -0.24887641574E+01 -0.64108891763E+01  0.92819352993E+01  0.00000000000E+00 0. -1.
</event>
<event>
 7    1  0.3846293E-008  0.4614232E+02  0.7816164E-02  0.1320468E+00
        -11   -1    0    0    0    0  0.00000000000E+00  0.00000000000E+00  0.45593999997E+02  0.45594000000E+02  0.51100000000E-03 0.  1.
         11   -1    0    0    0    0 -0.00000000000E+00 -0.00000000000E+00 -0.45593999997E+02  0.45594000000E+02  0.51100000000E-03 0. -1.
    9900012    2    1    2    0    0  0.25584850012E+02 -0.21453050984E+01 -0.37012519912E+02  0.46142317473E+02  0.99999973710E+01 0.  0.
        -12    1    1    2    0    0 -0.25584850012E+02  0.21453050984E+01  0.37012519912E+02  0.45045682527E+02  0.00000000000E+00 0.  1.
         11    1    3    3    0    0  0.14703967755E+02 -0.16228001568E+01 -0.14106235830E+02  0.20440793469E+02  0.51100000000E-03 0. -1.
        -11    1    3    3    0    0  0.12957306715E+01 -0.13090014225E+01 -0.56957014327E+01  0.59861020513E+01  0.51100000000E-03 0.  1.
         12    1    3    3    0    0  0.95851515850E+01  0.78649648095E+00 -0.17210582649E+02  0.19715421952E+02  0.00000000000E+00 0. -1.
</event>
<event>
 7    1  0.3846293E-008  0.4614232E+02  0.7816164E-02  0.1320468E+00
        -11   -1    0    0    0    0  0.00000000000E+00  0.00000000000E+00  0.45593999997E+02  0.45594000000E+02  0.51100000000E-03 0.  1.
         11   -1    0    0    0    0 -0.00000000000E+00 -0.00000000000E+00 -0.45593999997E+02  0.45594000000E+02  0.51100000000E-03 0. -1.
    9900012    2    1    2    0    0  0.43799328422E+02  0.10412627660E+02  0.15197023424E+01  0.46142317852E+02  0.10000000827E+02 0.  0.
        -12    1    1    2    0    0 -0.43799328422E+02 -0.10412627660E+02 -0.15197023424E+01  0.45045682148E+02  0.00000000000E+00 0.  1.
         11    1    3    3    0    0  0.13480522523E+02  0.53659290606E+01  0.14431380169E+01  0.14580820614E+02  0.51100000000E-03 0.  1.
        -11    1    3    3    0    0  0.14526665486E+02  0.53845182119E+01  0.21095713540E+01  0.15635451323E+02  0.51100000000E-03 0. -1.
        -12    1    3    3    0    0  0.15792140412E+02 -0.33781961233E+00 -0.20330070285E+01  0.15926045914E+02  0.00000000000E+00 0.  1.
</event>
<event>
 7    1  0.3846293E-008  0.4614232E+02  0.7816164E-02  0.1320468E+00
        -11   -1    0    0    0    0  0.00000000000E+00  0.00000000000E+00  0.45593999997E+02  0.45594000000E+02  0.51100000000E-03 0.  1.
         11   -1    0    0    0    0 -0.00000000000E+00 -0.00000000000E+00 -0.45593999997E+02  0.45594000000E+02  0.51100000000E-03 0. -1.
    9900012    2    1    2    0    0 -0.44829991714E+02  0.33686090419E+01 -0.28351048291E+01  0.46142317595E+02  0.99999984881E+01 0.  0.
        -12    1    1    2    0    0  0.44829991714E+02 -0.33686090419E+01  0.28351048291E+01  0.45045682405E+02  0.00000000000E+00 0.  1.
         11    1    3    3    0    0 -0.23664731227E+02  0.33821223203E+01 -0.35594934070E+00  0.23907842974E+02  0.51100000000E-03 0. -1.
        -11    1    3    3    0    0 -0.16797718036E+02  0.13747256224E+00 -0.45426241535E+01  0.17401656944E+02  0.51100000000E-03 0.  1.
         12    1    3    3    0    0 -0.43675424500E+01 -0.15098584066E+00  0.20634686652E+01  0.48328176780E+01  0.00000000000E+00 0. -1.
</event>
<event>
 7    1  0.3846293E-008  0.4614232E+02  0.7816164E-02  0.1320468E+00
        -11   -1    0    0    0    0  0.00000000000E+00  0.00000000000E+00  0.45593999997E+02  0.45594000000E+02  0.51100000000E-03 0. -1.
         11   -1    0    0    0    0 -0.00000000000E+00 -0.00000000000E+00 -0.45593999997E+02  0.45594000000E+02  0.51100000000E-03 0.  1.
    9900012    2    1    2    0    0  0.80748556038E+01  0.39056241484E+02  0.20940875952E+02  0.46142316772E+02  0.99999909775E+01 0.  0.
        -12    1    1    2    0    0 -0.80748556038E+01 -0.39056241484E+02 -0.20940875952E+02  0.45045683228E+02  0.00000000000E+00 0.  1.
         11    1    3    3    0    0  0.61713491743E+01  0.22882332440E+02  0.12437031484E+02  0.26765022715E+02  0.51100000000E-03 0. -1.
        -11    1    3    3    0    0  0.18122520607E+01  0.46677901683E+01  0.55957931975E+01  0.75090228630E+01  0.51100000000E-03 0.  1.
        -12    1    3    3    0    0  0.91254368876E-01  0.11506118876E+02  0.29080512702E+01  0.11868271194E+02  0.00000000000E+00 0.  1.
</event>
<event>
 7    1  0.3846293E-008  0.4614232E+02  0.7816164E-02  0.1320468E+00
        -11   -1    0    0    0    0  0.00000000000E+00  0.00000000000E+00  0.45593999997E+02  0.45594000000E+02  0.51100000000E-03 0.  1.
         11   -1    0    0    0    0 -0.00000000000E+00 -0.00000000000E+00 -0.45593999997E+02  0.45594000000E+02  0.51100000000E-03 0. -1.
    9900012    2    1    2    0    0  0.95971331001E+01  0.36785825210E+02 -0.24162193744E+02  0.46142317558E+02  0.99999981496E+01 0.  0.
        -12    1    1    2    0    0 -0.95971331001E+01 -0.36785825210E+02  0.24162193744E+02  0.45045682442E+02  0.00000000000E+00 0.  1.
         11    1    3    3    0    0  0.52245303399E+01  0.20861441028E+02 -0.11728516291E+02  0.24495990155E+02  0.51100000000E-03 0. -1.
        -11    1    3    3    0    0 -0.26756094173E+00  0.24671803795E+01  0.35949829937E+00  0.25075500335E+01  0.51100000000E-03 0.  1.
        -12    1    3    3    0    0  0.46401637019E+01  0.13457203803E+02 -0.12793175752E+02  0.19138777369E+02  0.00000000000E+00 0.  1.
</event>
<event>
 7    1  0.3846293E-008  0.4614232E+02  0.7816164E-02  0.1320468E+00
        -11   -1    0    0    0    0  0.00000000000E+00  0.00000000000E+00  0.45593999997E+02  0.45594000000E+02  0.51100000000E-03 0.  1.
         11   -1    0    0    0    0 -0.00000000000E+00 -0.00000000000E+00 -0.45593999997E+02  0.45594000000E+02  0.51100000000E-03 0. -1.
    9900012    2    1    2    0    0  0.10742159826E+02 -0.17099060069E+02 -0.40265886633E+02  0.46142317862E+02  0.10000000916E+02 0.  0.
        -12    1    1    2    0    0 -0.10742159826E+02  0.17099060069E+02  0.40265886633E+02  0.45045682138E+02  0.00000000000E+00 0.  1.
         11    1    3    3    0    0  0.15033803067E+01 -0.26310398261E+01 -0.11498660341E+02  0.11891245217E+02  0.51100000000E-03 0.  1.
        -11    1    3    3    0    0  0.13422379884E+01 -0.59950505801E+01 -0.54360434045E+01  0.82032190287E+01  0.51100000000E-03 0. -1.
         12    1    3    3    0    0  0.78965415313E+01 -0.84729696633E+01 -0.23331182887E+02  0.26047853616E+02  0.00000000000E+00 0. -1.
</event>
<event>
 7    1  0.3846293E-008  0.4614232E+02  0.7816164E-02  0.1320468E+00
        -11   -1    0    0    0    0  0.00000000000E+00  0.00000000000E+00  0.45593999997E+02  0.45594000000E+02  0.51100000000E-03 0. -1.
         11   -1    0    0    0    0 -0.00000000000E+00 -0.00000000000E+00 -0.45593999997E+02  0.45594000000E+02  0.51100000000E-03 0.  1.
    9900012    2    1    2    0    0 -0.36655369855E+02 -0.17722453285E+02  0.19272050895E+02  0.46142318350E+02  0.10000005366E+02 0.  0.
        -12    1    1    2    0    0  0.36655369855E+02  0.17722453285E+02 -0.19272050895E+02  0.45045681650E+02  0.00000000000E+00 0.  1.
         11    1    3    3    0    0 -0.18650050637E+02 -0.98959332398E+01  0.10733191298E+02  0.23684494488E+02  0.51100000000E-03 0. -1.
        -11    1    3    3    0    0 -0.35865060882E+01 -0.61076205716E+00  0.45913989539E+01  0.58580714255E+01  0.51100000000E-03 0.  1.
         12    1    3    3    0    0 -0.14418813129E+02 -0.72157579885E+01  0.39474606434E+01  0.16599752436E+02  0.00000000000E+00 0. -1.
</event>
<event>
 7    1  0.3846293E-008  0.4614232E+02  0.7816164E-02  0.1320468E+00
        -11   -1    0    0    0    0  0.00000000000E+00  0.00000000000E+00  0.45593999997E+02  0.45594000000E+02  0.51100000000E-03 0.  1.
         11   -1    0    0    0    0 -0.00000000000E+00 -0.00000000000E+00 -0.45593999997E+02  0.45594000000E+02  0.51100000000E-03 0. -1.
    9900012    2    1    2    0    0 -0.19004889118E+02  0.11740298546E+02 -0.39116396021E+02  0.46142324758E+02  0.10000063801E+02 0.  0.
        -12    1    1    2    0    0  0.19004889118E+02 -0.11740298546E+02  0.39116396021E+02  0.45045675242E+02  0.00000000000E+00 0.  1.
         11    1    3    3    0    0 -0.14333639292E+02  0.70793539962E+01 -0.29563896455E+02  0.33609439779E+02  0.51100000000E-03 0. -1.
        -11    1    3    3    0    0 -0.56437162483E+01  0.41832246238E+01 -0.84164470392E+01  0.10963005171E+02  0.51100000000E-03 0.  1.
        -12    1    3    3    0    0  0.97246642223E+00  0.47771992586E+00 -0.11360525268E+01  0.15698798086E+01  0.00000000000E+00 0.  1.
</event>
<event>
 7    1  0.3846293E-008  0.4614232E+02  0.7816164E-02  0.1320468E+00
        -11   -1    0    0    0    0  0.00000000000E+00  0.00000000000E+00  0.45593999997E+02  0.45594000000E+02  0.51100000000E-03 0.  1.
         11   -1    0    0    0    0 -0.00000000000E+00 -0.00000000000E+00 -0.45593999997E+02  0.45594000000E+02  0.51100000000E-03 0. -1.
    9900012    2    1    2    0    0 -0.36057768036E+02  0.11316369106E+02 -0.24513070802E+02  0.46142317791E+02  0.10000000276E+02 0.  0.
        -12    1    1    2    0    0  0.36057768036E+02 -0.11316369106E+02  0.24513070802E+02  0.45045682209E+02  0.00000000000E+00 0.  1.
         11    1    3    3    0    0 -0.26853154444E+02  0.82667001908E+01 -0.13010682216E+02  0.30963011604E+02  0.51100000000E-03 0. -1.
        -11    1    3    3    0    0 -0.40259923799E+01  0.65922258932E+00 -0.59890497307E+01  0.72465099188E+01  0.51100000000E-03 0.  1.
         12    1    3    3    0    0 -0.51786212124E+01  0.23904463259E+01 -0.55133388555E+01  0.79327962683E+01  0.00000000000E+00 0. -1.
</event>
<event>
 7    1  0.3846293E-008  0.4614232E+02  0.7816164E-02  0.1320468E+00
        -11   -1    0    0    0    0  0.00000000000E+00  0.00000000000E+00  0.45593999997E+02  0.45594000000E+02  0.51100000000E-03 0. -1.
         11   -1    0    0    0    0 -0.00000000000E+00 -0.00000000000E+00 -0.45593999997E+02  0.45594000000E+02  0.51100000000E-03 0.  1.
    9900012    2    1    2    0    0 -0.22504079319E+02  0.13198330388E+02  0.36721710481E+02  0.46142317280E+02  0.99999956150E+01 0.  0.
        -12    1    1    2    0    0  0.22504079319E+02 -0.13198330388E+02 -0.36721710481E+02  0.45045682720E+02  0.00000000000E+00 0.  1.
         11    1    3    3    0    0 -0.65207745006E+01 -0.91276172130E+00  0.91148095565E+01  0.11244260205E+02  0.51100000000E-03 0. -1.
        -11    1    3    3    0    0 -0.19167060554E+01  0.21762082995E+01  0.36718584914E+01  0.46789090296E+01  0.51100000000E-03 0.  1.
         12    1    3    3    0    0 -0.14066598763E+02  0.11934883810E+02  0.23935042434E+02  0.30219148046E+02  0.00000000000E+00 0. -1.
</event>
<event>
 7    1  0.3846293E-008  0.4614232E+02  0.7816164E-02  0.1320468E+00
        -11   -1    0    0    0    0  0.00000000000E+00  0.00000000000E+00  0.45593999997E+02  0.45594000000E+02  0.51100000000E-03 0.  1.
         11   -1    0    0    0    0 -0.00000000000E+00 -0.00000000000E+00 -0.45593999997E+02  0.45594000000E+02  0.51100000000E-03 0. -1.
    9900012    2    1    2    0    0 -0.31344404058E+02  0.30907458888E+02 -0.95588070235E+01  0.46142317939E+02  0.10000001620E+02 0.  0.
        -12    1    1    2    0    0  0.31344404058E+02 -0.30907458888E+02  0.95588070235E+01  0.45045682061E+02  0.00000000000E+00 0.  1.
         11    1    3    3    0    0 -0.14338308255E+02  0.10939610598E+02 -0.40486852835E+01  0.18483885318E+02  0.51100000000E-03 0. -1.
        -11    1    3    3    0    0 -0.15315957116E+02  0.16090451386E+02 -0.68076517436E+01  0.23234140627E+02  0.51100000000E-03 0.  1.
        -12    1    3    3    0    0 -0.16901386870E+01  0.38773969048E+01  0.12975300036E+01  0.44242919941E+01  0.00000000000E+00 0.  1.
</event>
<event>
 7    1  0.3846293E-008  0.4614233E+02  0.7816164E-02  0.1320468E+00
        -11   -1    0    0    0    0  0.00000000000E+00  0.00000000000E+00  0.45593999997E+02  0.45594000000E+02  0.51100000000E-03 0.  1.
         11   -1    0    0    0    0 -0.00000000000E+00 -0.00000000000E+00 -0.45593999997E+02  0.45594000000E+02  0.51100000000E-03 0. -1.
    9900012    2    1    2    0    0 -0.50977444596E+01  0.20943969313E+02 -0.39553457262E+02  0.46142325062E+02  0.10000066579E+02 0.  0.
        -12    1    1    2    0    0  0.50977444596E+01 -0.20943969313E+02  0.39553457262E+02  0.45045674938E+02  0.00000000000E+00 0.  1.
         11    1    3    3    0    0 -0.67696237118E+01  0.15297762820E+02 -0.27203243042E+02  0.31935337556E+02  0.51100000000E-03 0. -1.
        -11    1    3    3    0    0 -0.57564395145E+00  0.33603717884E+00 -0.40253356858E+01  0.40801488440E+01  0.51100000000E-03 0.  1.
        -12    1    3    3    0    0  0.22475232036E+01  0.53101693141E+01 -0.83248785342E+01  0.10126838663E+02  0.00000000000E+00 0.  1.
</event>
<event>
 7    1  0.3846293E-008  0.4614232E+02  0.7816164E-02  0.1320468E+00
        -11   -1    0    0    0    0  0.00000000000E+00  0.00000000000E+00  0.45593999997E+02  0.45594000000E+02  0.51100000000E-03 0.  1.
         11   -1    0    0    0    0 -0.00000000000E+00 -0.00000000000E+00 -0.45593999997E+02  0.45594000000E+02  0.51100000000E-03 0. -1.
    9900012    2    1    2    0    0  0.30753877089E+01 -0.89017377966E+01 -0.44050133453E+02  0.46142320933E+02  0.10000028922E+02 0.  0.
        -12    1    1    2    0    0 -0.30753877089E+01  0.89017377966E+01  0.44050133453E+02  0.45045679067E+02  0.00000000000E+00 0.  1.
         11    1    3    3    0    0  0.90468727173E+00 -0.95025119301E+00 -0.70983364453E+01  0.72185744396E+01  0.51100000000E-03 0. -1.
        -11    1    3    3    0    0  0.25444049436E+01  0.48245940231E+00 -0.17885421561E+02  0.18071941464E+02  0.51100000000E-03 0.  1.
         12    1    3    3    0    0 -0.37370450649E+00 -0.84339460059E+01 -0.19066375447E+02  0.20851805029E+02  0.00000000000E+00 0. -1.
</event>
<event>
 7    1  0.3846293E-008  0.4614233E+02  0.7816164E-02  0.1320468E+00
        -11   -1    0    0    0    0  0.00000000000E+00  0.00000000000E+00  0.45593999997E+02  0.45594000000E+02  0.51100000000E-03 0. -1.
         11   -1    0    0    0    0 -0.00000000000E+00 -0.00000000000E+00 -0.45593999997E+02  0.45594000000E+02  0.51100000000E-03 0.  1.
    9900012    2    1    2    0    0  0.26990953508E+02  0.16478335058E+01 -0.36026174541E+02  0.46142332299E+02  0.10000132568E+02 0.  0.
        -12    1    1    2    0    0 -0.26990953508E+02 -0.16478335058E+01  0.36026174541E+02  0.45045667701E+02  0.00000000000E+00 0.  1.
         11    1    3    3    0    0  0.11830254904E+02 -0.12055031636E+01 -0.90814599898E+01  0.14962656341E+02  0.51100000000E-03 0. -1.
        -11    1    3    3    0    0  0.15946102731E+01  0.97830979742E+00 -0.46817877073E+01  0.50417267261E+01  0.51100000000E-03 0.  1.
        -12    1    3    3    0    0  0.13566088331E+02  0.18750268720E+01 -0.22262926844E+02  0.26137949232E+02  0.00000000000E+00 0.  1.
</event>
<event>
 7    1  0.3846293E-008  0.4614232E+02  0.7816164E-02  0.1320468E+00
        -11   -1    0    0    0    0  0.00000000000E+00  0.00000000000E+00  0.45593999997E+02  0.45594000000E+02  0.51100000000E-03 0.  1.
         11   -1    0    0    0    0 -0.00000000000E+00 -0.00000000000E+00 -0.45593999997E+02  0.45594000000E+02  0.51100000000E-03 0. -1.
    9900012    2    1    2    0    0  0.31996097177E+02  0.30051254863E+02 -0.10113611818E+02  0.46142319881E+02  0.10000019328E+02 0.  0.
        -12    1    1    2    0    0 -0.31996097177E+02 -0.30051254863E+02  0.10113611818E+02  0.45045680119E+02  0.00000000000E+00 0.  1.
         11    1    3    3    0    0  0.21711724788E+02  0.18083223626E+02 -0.47702005338E+01  0.28655833322E+02  0.51100000000E-03 0. -1.
        -11    1    3    3    0    0  0.80160799041E+01  0.10860897023E+02 -0.25786555665E+01  0.13742855816E+02  0.51100000000E-03 0.  1.
        -12    1    3    3    0    0  0.22682924856E+01  0.11071342138E+01 -0.27647557174E+01  0.37436307436E+01  0.00000000000E+00 0.  1.
</event>
<event>
 7    1  0.3846293E-008  0.4614232E+02  0.7816164E-02  0.1320468E+00
        -11   -1    0    0    0    0  0.00000000000E+00  0.00000000000E+00  0.45593999997E+02  0.45594000000E+02  0.51100000000E-03 0.  1.
         11   -1    0    0    0    0 -0.00000000000E+00 -0.00000000000E+00 -0.45593999997E+02  0.45594000000E+02  0.51100000000E-03 0. -1.
    9900012    2    1    2    0    0 -0.26378857592E+02  0.17434990991E+02 -0.32082557221E+02  0.46142317448E+02  0.99999971469E+01 0.  0.
        -12    1    1    2    0    0  0.26378857592E+02 -0.17434990991E+02  0.32082557221E+02  0.45045682552E+02  0.00000000000E+00 0.  1.
         11    1    3    3    0    0 -0.87888863232E+01  0.93806857242E+01 -0.11738634019E+02  0.17407967037E+02  0.51100000000E-03 0. -1.
        -11    1    3    3    0    0 -0.68487098115E+01  0.64919024507E+01 -0.96437484533E+01  0.13492646442E+02  0.51100000000E-03 0.  1.
        -12    1    3    3    0    0 -0.10741261457E+02  0.15624028167E+01 -0.10700174749E+02  0.15241703970E+02  0.00000000000E+00 0.  1.
</event>
<event>
 7    1  0.3846293E-008  0.4614232E+02  0.7816164E-02  0.1320468E+00
        -11   -1    0    0    0    0  0.00000000000E+00  0.00000000000E+00  0.45593999997E+02  0.45594000000E+02  0.51100000000E-03 0.  1.
         11   -1    0    0    0    0 -0.00000000000E+00 -0.00000000000E+00 -0.45593999997E+02  0.45594000000E+02  0.51100000000E-03 0. -1.
    9900012    2    1    2    0    0 -0.33006303360E+02 -0.24819972317E+01 -0.30553839244E+02  0.46142318028E+02  0.10000002435E+02 0.  0.
        -12    1    1    2    0    0  0.33006303360E+02  0.24819972317E+01  0.30553839244E+02  0.45045681972E+02  0.00000000000E+00 0.  1.
         11    1    3    3    0    0 -0.18166093727E+02  0.21004895341E+01 -0.17718328932E+02  0.25462878824E+02  0.51100000000E-03 0. -1.
        -11    1    3    3    0    0 -0.58174995911E+01 -0.11850158229E+01 -0.22179652715E+01  0.63377388870E+01  0.51100000000E-03 0.  1.
         12    1    3    3    0    0 -0.90227100416E+01 -0.33974709430E+01 -0.10617545041E+02  0.14341700317E+02  0.00000000000E+00 0. -1.
</event>
<event>
 7    1  0.3846293E-008  0.4614232E+02  0.7816164E-02  0.1320468E+00
        -11   -1    0    0    0    0  0.00000000000E+00  0.00000000000E+00  0.45593999997E+02  0.45594000000E+02  0.51100000000E-03 0.  1.
         11   -1    0    0    0    0 -0.00000000000E+00 -0.00000000000E+00 -0.45593999997E+02  0.45594000000E+02  0.51100000000E-03 0. -1.
    9900012    2    1    2    0    0 -0.22060906944E+01  0.38881173497E+02 -0.22638486459E+02  0.46142316990E+02  0.99999929716E+01 0.  0.
        -12    1    1    2    0    0  0.22060906944E+01 -0.38881173497E+02  0.22638486459E+02  0.45045683010E+02  0.00000000000E+00 0.  1.
         11    1    3    3    0    0  0.18099776743E+00  0.30049078663E+02 -0.17503480890E+02  0.34775734819E+02  0.51100000000E-03 0. -1.
        -11    1    3    3    0    0  0.98945251087E+00  0.20387829188E+01 -0.24040798852E+01  0.33038239083E+01  0.51100000000E-03 0.  1.
        -12    1    3    3    0    0 -0.33765409727E+01  0.67933119149E+01 -0.27309256844E+01  0.80627582630E+01  0.00000000000E+00 0.  1.
</event>
<event>
 7    1  0.3846293E-008  0.4614232E+02  0.7816164E-02  0.1320468E+00
        -11   -1    0    0    0    0  0.00000000000E+00  0.00000000000E+00  0.45593999997E+02  0.45594000000E+02  0.51100000000E-03 0.  1.
         11   -1    0    0    0    0 -0.00000000000E+00 -0.00000000000E+00 -0.45593999997E+02  0.45594000000E+02  0.51100000000E-03 0. -1.
    9900012    2    1    2    0    0 -0.96516643921E+01 -0.29502828169E+02 -0.32642640738E+02  0.46142317745E+02  0.99999998505E+01 0.  0.
        -12    1    1    2    0    0  0.96516643921E+01  0.29502828169E+02  0.32642640738E+02  0.45045682255E+02  0.00000000000E+00 0.  1.
         11    1    3    3    0    0 -0.37334136864E+01 -0.89290660622E+01 -0.57770695852E+01  0.11271252448E+02  0.51100000000E-03 0. -1.
        -11    1    3    3    0    0  0.32403055143E+00 -0.12500399690E+01 -0.13009406125E+00  0.12978907690E+01  0.51100000000E-03 0.  1.
         12    1    3    3    0    0 -0.62422812572E+01 -0.19323722137E+02 -0.26735477092E+02  0.33573174528E+02  0.00000000000E+00 0. -1.
</event>
<event>
 7    1  0.3846293E-008  0.4614232E+02  0.7816164E-02  0.1320468E+00
        -11   -1    0    0    0    0  0.00000000000E+00  0.00000000000E+00  0.45593999997E+02  0.45594000000E+02  0.51100000000E-03 0.  1.
         11   -1    0    0    0    0 -0.00000000000E+00 -0.00000000000E+00 -0.45593999997E+02  0.45594000000E+02  0.51100000000E-03 0. -1.
    9900012    2    1    2    0    0 -0.43090965742E+02 -0.26266378552E+01 -0.12860131245E+02  0.46142317292E+02  0.99999957258E+01 0.  0.
        -12    1    1    2    0    0  0.43090965742E+02  0.26266378552E+01  0.12860131245E+02  0.45045682708E+02  0.00000000000E+00 0.  1.
         11    1    3    3    0    0 -0.34447336666E+01 -0.68512998759E+00 -0.79458094916E+00  0.36009654649E+01  0.51100000000E-03 0. -1.
        -11    1    3    3    0    0 -0.36820236956E+02  0.36216653091E+00 -0.12462486789E+02  0.38873829131E+02  0.51100000000E-03 0.  1.
        -12    1    3    3    0    0 -0.28259951188E+01 -0.23036743985E+01  0.39693649369E+00  0.36675226960E+01  0.00000000000E+00 0.  1.
</event>
<event>
 7    1  0.3846293E-008  0.4614232E+02  0.7816164E-02  0.1320468E+00
        -11   -1    0    0    0    0  0.00000000000E+00  0.00000000000E+00  0.45593999997E+02  0.45594000000E+02  0.51100000000E-03 0.  1.
         11   -1    0    0    0    0 -0.00000000000E+00 -0.00000000000E+00 -0.45593999997E+02  0.45594000000E+02  0.51100000000E-03 0. -1.
    9900012    2    1    2    0    0  0.19385886341E+02  0.65460902240E+01 -0.40130407389E+02  0.46142317813E+02  0.10000000476E+02 0.  0.
        -12    1    1    2    0    0 -0.19385886341E+02 -0.65460902240E+01  0.40130407389E+02  0.45045682187E+02  0.00000000000E+00 0.  1.
         11    1    3    3    0    0  0.10510979620E+02  0.37272736530E+01 -0.13432731904E+02  0.17458853001E+02  0.51100000000E-03 0. -1.
        -11    1    3    3    0    0  0.57576005732E+01 -0.65614966723E+00 -0.13820611311E+02  0.14986320229E+02  0.51100000000E-03 0.  1.
         12    1    3    3    0    0  0.31173061483E+01  0.34749662382E+01 -0.12877064174E+02  0.13697144583E+02  0.00000000000E+00 0. -1.
</event>
<event>
 7    1  0.3846293E-008  0.4614232E+02  0.7816164E-02  0.1320468E+00
        -11   -1    0    0    0    0  0.00000000000E+00  0.00000000000E+00  0.45593999997E+02  0.45594000000E+02  0.51100000000E-03 0. -1.
         11   -1    0    0    0    0 -0.00000000000E+00 -0.00000000000E+00 -0.45593999997E+02  0.45594000000E+02  0.51100000000E-03 0.  1.
    9900012    2    1    2    0    0  0.15246279909E+02  0.55591654301E+01  0.42020949147E+02  0.46142317204E+02  0.99999949218E+01 0.  0.
        -12    1    1    2    0    0 -0.15246279909E+02 -0.55591654301E+01 -0.42020949147E+02  0.45045682796E+02  0.00000000000E+00 0.  1.
         11    1    3    3    0    0  0.19088823203E+00 -0.48436629193E+00  0.45270425884E+01  0.45568809376E+01  0.51100000000E-03 0. -1.
        -11    1    3    3    0    0  0.23806126220E+01  0.41193554254E+01  0.14481138041E+02  0.15242695458E+02  0.51100000000E-03 0.  1.
         12    1    3    3    0    0  0.12674779055E+02  0.19241762967E+01  0.23012768517E+02  0.26342740809E+02  0.00000000000E+00 0. -1.
</event>
<event>
 7    1  0.3846293E-008  0.4614232E+02  0.7816164E-02  0.1320468E+00
        -11   -1    0    0    0    0  0.00000000000E+00  0.00000000000E+00  0.45593999997E+02  0.45594000000E+02  0.51100000000E-03 0. -1.
         11   -1    0    0    0    0 -0.00000000000E+00 -0.00000000000E+00 -0.45593999997E+02  0.45594000000E+02  0.51100000000E-03 0.  1.
    9900012    2    1    2    0    0 -0.36532487724E+02  0.11194358130E+02  0.23857433504E+02  0.46142318224E+02  0.10000004221E+02 0.  0.
        -12    1    1    2    0    0  0.36532487724E+02 -0.11194358130E+02 -0.23857433504E+02  0.45045681776E+02  0.00000000000E+00 0.  1.
         11    1    3    3    0    0 -0.13415545730E+00  0.13537901054E+01  0.21808328494E+01  0.25703652492E+01  0.51100000000E-03 0. -1.
        -11    1    3    3    0    0 -0.15088628238E+02  0.53132821803E+01  0.85677887784E+01  0.18146753827E+02  0.51100000000E-03 0.  1.
         12    1    3    3    0    0 -0.21309704028E+02  0.45272858443E+01  0.13108811877E+02  0.25425199148E+02  0.00000000000E+00 0. -1.
</event>
<event>
 7    1  0.3846293E-008  0.4614232E+02  0.7816164E-02  0.1320468E+00
        -11   -1    0    0    0    0  0.00000000000E+00  0.00000000000E+00  0.45593999997E+02  0.45594000000E+02  0.51100000000E-03 0. -1.
         11   -1    0    0    0    0 -0.00000000000E+00 -0.00000000000E+00 -0.45593999997E+02  0.45594000000E+02  0.51100000000E-03 0.  1.
    9900012    2    1    2    0    0 -0.43743250219E+02  0.10665309358E+02  0.13758430564E+01  0.46142315328E+02  0.99999778161E+01 0.  0.
        -12    1    1    2    0    0  0.43743250219E+02 -0.10665309358E+02 -0.13758430564E+01  0.45045684672E+02  0.00000000000E+00 0.  1.
         11    1    3    3    0    0 -0.20060416818E+02  0.60558399787E+01  0.14086046852E+01  0.21001849637E+02  0.51100000000E-03 0. -1.
        -11    1    3    3    0    0 -0.64996186365E+01  0.45492651656E+01 -0.51666385365E+00  0.79503331858E+01  0.51100000000E-03 0.  1.
         12    1    3    3    0    0 -0.17183214764E+02  0.60204213539E-01  0.48390222484E+00  0.17190132505E+02  0.00000000000E+00 0. -1.
</event>
<event>
 7    1  0.3846293E-008  0.4614232E+02  0.7816164E-02  0.1320468E+00
        -11   -1    0    0    0    0  0.00000000000E+00  0.00000000000E+00  0.45593999997E+02  0.45594000000E+02  0.51100000000E-03 0. -1.
         11   -1    0    0    0    0 -0.00000000000E+00 -0.00000000000E+00 -0.45593999997E+02  0.45594000000E+02  0.51100000000E-03 0.  1.
    9900012    2    1    2    0    0 -0.18988522695E+02 -0.40841904124E+02 -0.69884052653E+00  0.46142317580E+02  0.99999983458E+01 0.  0.
        -12    1    1    2    0    0  0.18988522695E+02  0.40841904124E+02  0.69884052653E+00  0.45045682420E+02  0.00000000000E+00 0.  1.
         11    1    3    3    0    0 -0.10663098960E+02 -0.29647914691E+02 -0.10842109248E+01  0.31525799570E+02  0.51100000000E-03 0. -1.
        -11    1    3    3    0    0 -0.23518398867E+00 -0.27663935702E+01  0.91205234435E+00  0.29223423197E+01  0.51100000000E-03 0.  1.
        -12    1    3    3    0    0 -0.80902397468E+01 -0.84275958626E+01 -0.52668194607E+00  0.11694175690E+02  0.00000000000E+00 0.  1.
</event>
<event>
 7    1  0.3846293E-008  0.4614232E+02  0.7816164E-02  0.1320468E+00
        -11   -1    0    0    0    0  0.00000000000E+00  0.00000000000E+00  0.45593999997E+02  0.45594000000E+02  0.51100000000E-03 0.  1.
         11   -1    0    0    0    0 -0.00000000000E+00 -0.00000000000E+00 -0.45593999997E+02  0.45594000000E+02  0.51100000000E-03 0. -1.
    9900012    2    1    2    0    0 -0.19639487371E+02  0.39730981104E+02  0.80531555085E+01  0.46142316108E+02  0.99999849240E+01 0.  0.
        -12    1    1    2    0    0  0.19639487371E+02 -0.39730981104E+02 -0.80531555085E+01  0.45045683892E+02  0.00000000000E+00 0.  1.
         11    1    3    3    0    0 -0.14364069472E+02  0.23810567265E+02  0.46720287251E+01  0.28197472545E+02  0.51100000000E-03 0. -1.
        -11    1    3    3    0    0 -0.35259968154E+01  0.14815890275E+02  0.40701871343E+01  0.15764189854E+02  0.51100000000E-03 0.  1.
         12    1    3    3    0    0 -0.17494210830E+01  0.11045235644E+01 -0.68906035091E+00  0.21806537087E+01  0.00000000000E+00 0. -1.
</event>
<event>
 7    1  0.3846293E-008  0.4614232E+02  0.7816164E-02  0.1320468E+00
        -11   -1    0    0    0    0  0.00000000000E+00  0.00000000000E+00  0.45593999997E+02  0.45594000000E+02  0.51100000000E-03 0.  1.
         11   -1    0    0    0    0 -0.00000000000E+00 -0.00000000000E+00 -0.45593999997E+02  0.45594000000E+02  0.51100000000E-03 0. -1.
    9900012    2    1    2    0    0 -0.37122687848E+02  0.22046378726E+02 -0.12844325079E+02  0.46142318135E+02  0.10000003405E+02 0.  0.
        -12    1    1    2    0    0  0.37122687848E+02 -0.22046378726E+02  0.12844325079E+02  0.45045681865E+02  0.00000000000E+00 0.  1.
         11    1    3    3    0    0 -0.17346847380E+02  0.90519670663E+01 -0.39516066848E+01  0.19961623618E+02  0.51100000000E-03 0. -1.
        -11    1    3    3    0    0 -0.12063956550E+00  0.19439345325E+01 -0.16001072169E-01  0.19477401436E+01  0.51100000000E-03 0.  1.
        -12    1    3    3    0    0 -0.19655200902E+02  0.11050477128E+02 -0.88767173216E+01  0.24232954373E+02  0.00000000000E+00 0.  1.
</event>
<event>
 7    1  0.3846293E-008  0.4614232E+02  0.7816164E-02  0.1320468E+00
        -11   -1    0    0    0    0  0.00000000000E+00  0.00000000000E+00  0.45593999997E+02  0.45594000000E+02  0.51100000000E-03 0.  1.
         11   -1    0    0    0    0 -0.00000000000E+00 -0.00000000000E+00 -0.45593999997E+02  0.45594000000E+02  0.51100000000E-03 0. -1.
    9900012    2    1    2    0    0  0.18851498078E+02 -0.37642403832E+02 -0.16024479206E+02  0.46142317856E+02  0.10000000865E+02 0.  0.
        -12    1    1    2    0    0 -0.18851498078E+02  0.37642403832E+02  0.16024479206E+02  0.45045682144E+02  0.00000000000E+00 0.  1.
         11    1    3    3    0    0  0.21889834552E+01 -0.18631492292E+01 -0.10670906528E+01  0.30662120507E+01  0.51100000000E-03 0.  1.
        -11    1    3    3    0    0  0.10100724214E+02 -0.13985899673E+02 -0.94042800434E+01  0.19648676869E+02  0.51100000000E-03 0. -1.
         12    1    3    3    0    0  0.65617904084E+01 -0.21793354929E+02 -0.55531085097E+01  0.23427428936E+02  0.00000000000E+00 0. -1.
</event>
<event>
 7    1  0.3846293E-008  0.4614232E+02  0.7816164E-02  0.1320468E+00
        -11   -1    0    0    0    0  0.00000000000E+00  0.00000000000E+00  0.45593999997E+02  0.45594000000E+02  0.51100000000E-03 0.  1.
         11   -1    0    0    0    0 -0.00000000000E+00 -0.00000000000E+00 -0.45593999997E+02  0.45594000000E+02  0.51100000000E-03 0. -1.
    9900012    2    1    2    0    0  0.28615550590E+02  0.34703409529E+02  0.24366146926E+01  0.46142318080E+02  0.10000002905E+02 0.  0.
        -12    1    1    2    0    0 -0.28615550590E+02 -0.34703409529E+02 -0.24366146926E+01  0.45045681920E+02  0.00000000000E+00 0.  1.
         11    1    3    3    0    0  0.17346217326E+02  0.18767476982E+02  0.43867058664E+01  0.25929763524E+02  0.51100000000E-03 0. -1.
        -11    1    3    3    0    0  0.12750861536E+01  0.30527797030E+01  0.13560762230E+01  0.35755071805E+01  0.51100000000E-03 0.  1.
        -12    1    3    3    0    0  0.99942471098E+01  0.12883152845E+02 -0.33061673968E+01  0.16637047375E+02  0.00000000000E+00 0.  1.
</event>
<event>
 7    1  0.3846293E-008  0.4614232E+02  0.7816164E-02  0.1320468E+00
        -11   -1    0    0    0    0  0.00000000000E+00  0.00000000000E+00  0.45593999997E+02  0.45594000000E+02  0.51100000000E-03 0. -1.
         11   -1    0    0    0    0 -0.00000000000E+00 -0.00000000000E+00 -0.45593999997E+02  0.45594000000E+02  0.51100000000E-03 0.  1.
    9900012    2    1    2    0    0  0.27148989504E+02 -0.26398808108E+02 -0.24395672084E+02  0.46142317443E+02  0.99999970997E+01 0.  0.
        -12    1    1    2    0    0 -0.27148989504E+02  0.26398808108E+02  0.24395672084E+02  0.45045682557E+02  0.00000000000E+00 0.  1.
         11    1    3    3    0    0  0.44940971796E+01 -0.68623104012E+00 -0.24605165307E+01  0.51693291982E+01  0.51100000000E-03 0. -1.
        -11    1    3    3    0    0  0.18826095455E+02 -0.18252915589E+02 -0.16641781599E+02  0.31057039341E+02  0.51100000000E-03 0.  1.
         12    1    3    3    0    0  0.38287968692E+01 -0.74596614790E+01 -0.52933739541E+01  0.99159489039E+01  0.00000000000E+00 0. -1.
</event>
<event>
 7    1  0.3846293E-008  0.4614232E+02  0.7816164E-02  0.1320468E+00
        -11   -1    0    0    0    0  0.00000000000E+00  0.00000000000E+00  0.45593999997E+02  0.45594000000E+02  0.51100000000E-03 0.  1.
         11   -1    0    0    0    0 -0.00000000000E+00 -0.00000000000E+00 -0.45593999997E+02  0.45594000000E+02  0.51100000000E-03 0. -1.
    9900012    2    1    2    0    0 -0.27092805356E+02  0.19781903274E+02 -0.30062762044E+02  0.46142318066E+02  0.10000002777E+02 0.  0.
        -12    1    1    2    0    0  0.27092805356E+02 -0.19781903274E+02  0.30062762044E+02  0.45045681934E+02  0.00000000000E+00 0.  1.
         11    1    3    3    0    0 -0.25729514346E+01  0.13851669835E+01 -0.13965401723E+01  0.32386866738E+01  0.51100000000E-03 0.  1.
        -11    1    3    3    0    0 -0.42989327331E+00 -0.84723746492E+00 -0.16755594936E+01  0.19261670296E+01  0.51100000000E-03 0. -1.
         12    1    3    3    0    0 -0.24089960648E+02  0.19243973756E+02 -0.26990662379E+02  0.40977464362E+02  0.00000000000E+00 0. -1.
</event>
<event>
 7    1  0.3846293E-008  0.4614232E+02  0.7816164E-02  0.1320468E+00
        -11   -1    0    0    0    0  0.00000000000E+00  0.00000000000E+00  0.45593999997E+02  0.45594000000E+02  0.51100000000E-03 0.  1.
         11   -1    0    0    0    0 -0.00000000000E+00 -0.00000000000E+00 -0.45593999997E+02  0.45594000000E+02  0.51100000000E-03 0. -1.
    9900012    2    1    2    0    0 -0.30804064302E+02  0.13546219646E+02 -0.29945332362E+02  0.46142319026E+02  0.10000011531E+02 0.  0.
        -12    1    1    2    0    0  0.30804064302E+02 -0.13546219646E+02  0.29945332362E+02  0.45045680974E+02  0.00000000000E+00 0.  1.
         11    1    3    3    0    0 -0.16323826551E+02  0.68826292231E+01 -0.11422977313E+02  0.21078954179E+02  0.51100000000E-03 0. -1.
        -11    1    3    3    0    0 -0.14817779533E+02  0.59008312770E+01 -0.16891858261E+02  0.23231902114E+02  0.51100000000E-03 0.  1.
         12    1    3    3    0    0  0.33754178303E+00  0.76275914550E+00 -0.16304967872E+01  0.18314627330E+01  0.00000000000E+00 0. -1.
</event>
<event>
 7    1  0.3846293E-008  0.4614232E+02  0.7816164E-02  0.1320468E+00
        -11   -1    0    0    0    0  0.00000000000E+00  0.00000000000E+00  0.45593999997E+02  0.45594000000E+02  0.51100000000E-03 0.  1.
         11   -1    0    0    0    0 -0.00000000000E+00 -0.00000000000E+00 -0.45593999997E+02  0.45594000000E+02  0.51100000000E-03 0. -1.
    9900012    2    1    2    0    0  0.95538433938E+00  0.27347873367E+02 -0.35781203663E+02  0.46142317937E+02  0.10000001604E+02 0.  0.
        -12    1    1    2    0    0 -0.95538433938E+00 -0.27347873367E+02  0.35781203663E+02  0.45045682063E+02  0.00000000000E+00 0.  1.
         11    1    3    3    0    0  0.33069619235E-02  0.11877262336E+02 -0.20221002124E+02  0.23451189707E+02  0.51100000000E-03 0. -1.
        -11    1    3    3    0    0  0.27920836807E+01  0.12707167804E+02 -0.13666460471E+02  0.18869021886E+02  0.51100000000E-03 0.  1.
         12    1    3    3    0    0 -0.18400063032E+01  0.27634432275E+01 -0.18937410682E+01  0.38221063435E+01  0.00000000000E+00 0. -1.
</event>
<event>
 7    1  0.3846293E-008  0.4614231E+02  0.7816164E-02  0.1320468E+00
        -11   -1    0    0    0    0  0.00000000000E+00  0.00000000000E+00  0.45593999997E+02  0.45594000000E+02  0.51100000000E-03 0.  1.
         11   -1    0    0    0    0 -0.00000000000E+00 -0.00000000000E+00 -0.45593999997E+02  0.45594000000E+02  0.51100000000E-03 0. -1.
    9900012    2    1    2    0    0  0.31337838132E+01  0.23459705373E+02 -0.38326700360E+02  0.46142308334E+02  0.99999140346E+01 0.  0.
        -12    1    1    2    0    0 -0.31337838132E+01 -0.23459705373E+02  0.38326700360E+02  0.45045691666E+02  0.00000000000E+00 0.  1.
         11    1    3    3    0    0  0.24462560834E+00  0.39917390762E+01 -0.15056423246E+02  0.15578501332E+02  0.51100000000E-03 0. -1.
        -11    1    3    3    0    0  0.81612544571E+00  0.12691399858E+02 -0.14451938966E+02  0.19250876116E+02  0.51100000000E-03 0.  1.
         12    1    3    3    0    0  0.20730327592E+01  0.67765664388E+01 -0.88183381486E+01  0.11312930886E+02  0.00000000000E+00 0. -1.
</event>
<event>
 7    1  0.3846293E-008  0.4614232E+02  0.7816164E-02  0.1320468E+00
        -11   -1    0    0    0    0  0.00000000000E+00  0.00000000000E+00  0.45593999997E+02  0.45594000000E+02  0.51100000000E-03 0. -1.
         11   -1    0    0    0    0 -0.00000000000E+00 -0.00000000000E+00 -0.45593999997E+02  0.45594000000E+02  0.51100000000E-03 0.  1.
    9900012    2    1    2    0    0  0.26548975924E+02 -0.19403019264E+02  0.30786168777E+02  0.46142317997E+02  0.10000002147E+02 0.  0.
        -12    1    1    2    0    0 -0.26548975924E+02  0.19403019264E+02 -0.30786168777E+02  0.45045682003E+02  0.00000000000E+00 0.  1.
         11    1    3    3    0    0  0.23205071031E+01 -0.11252303251E+01  0.22386488896E+01  0.34150323003E+01  0.51100000000E-03 0. -1.
        -11    1    3    3    0    0  0.19769522147E+02 -0.18813163503E+02  0.24144465892E+02  0.36437952197E+02  0.51100000000E-03 0.  1.
         12    1    3    3    0    0  0.44589466744E+01  0.53537456373E+00  0.44030539958E+01  0.62893334988E+01  0.00000000000E+00 0. -1.
</event>
<event>
 7    1  0.3846293E-008  0.4614232E+02  0.7816164E-02  0.1320468E+00
        -11   -1    0    0    0    0  0.00000000000E+00  0.00000000000E+00  0.45593999997E+02  0.45594000000E+02  0.51100000000E-03 0.  1.
         11   -1    0    0    0    0 -0.00000000000E+00 -0.00000000000E+00 -0.45593999997E+02  0.45594000000E+02  0.51100000000E-03 0. -1.
    9900012    2    1    2    0    0 -0.86130354876E+01  0.40220304251E+02 -0.18364536711E+02  0.46142318043E+02  0.10000002570E+02 0.  0.
        -12    1    1    2    0    0  0.86130354876E+01 -0.40220304251E+02  0.18364536711E+02  0.45045681957E+02  0.00000000000E+00 0.  1.
         11    1    3    3    0    0 -0.72721363006E+01  0.17343790242E+02 -0.85365408024E+01  0.20653415104E+02  0.51100000000E-03 0. -1.
        -11    1    3    3    0    0 -0.15473157523E+00  0.13945022015E+02 -0.32125208009E+01  0.14311110055E+02  0.51100000000E-03 0.  1.
         12    1    3    3    0    0 -0.11861676118E+01  0.89314919944E+01 -0.66154751080E+01  0.11177792884E+02  0.00000000000E+00 0. -1.
</event>
<event>
 7    1  0.3846293E-008  0.4614232E+02  0.7816164E-02  0.1320468E+00
        -11   -1    0    0    0    0  0.00000000000E+00  0.00000000000E+00  0.45593999997E+02  0.45594000000E+02  0.51100000000E-03 0.  1.
         11   -1    0    0    0    0 -0.00000000000E+00 -0.00000000000E+00 -0.45593999997E+02  0.45594000000E+02  0.51100000000E-03 0. -1.
    9900012    2    1    2    0    0 -0.40592022328E+01 -0.41130175002E+02 -0.17914938171E+02  0.46142318430E+02  0.10000006098E+02 0.  0.
        -12    1    1    2    0    0  0.40592022328E+01  0.41130175002E+02  0.17914938171E+02  0.45045681570E+02  0.00000000000E+00 0.  1.
         11    1    3    3    0    0 -0.16715498123E+01 -0.17456032450E+02 -0.92643944601E+01  0.19832704118E+02  0.51100000000E-03 0. -1.
        -11    1    3    3    0    0 -0.34250183931E+01 -0.18909233505E+02 -0.41206184744E+01  0.19653736531E+02  0.51100000000E-03 0.  1.
        -12    1    3    3    0    0  0.10373659726E+01 -0.47649090465E+01 -0.45299252366E+01  0.66558777807E+01  0.00000000000E+00 0.  1.
</event>
<event>
 7    1  0.3846293E-008  0.4614232E+02  0.7816164E-02  0.1320468E+00
        -11   -1    0    0    0    0  0.00000000000E+00  0.00000000000E+00  0.45593999997E+02  0.45594000000E+02  0.51100000000E-03 0.  1.
         11   -1    0    0    0    0 -0.00000000000E+00 -0.00000000000E+00 -0.45593999997E+02  0.45594000000E+02  0.51100000000E-03 0. -1.
    9900012    2    1    2    0    0  0.82010725631E+01 -0.33579993592E+02 -0.28883211842E+02  0.46142317775E+02  0.10000000128E+02 0.  0.
        -12    1    1    2    0    0 -0.82010725631E+01  0.33579993592E+02  0.28883211842E+02  0.45045682225E+02  0.00000000000E+00 0.  1.
         11    1    3    3    0    0 -0.56387791972E+00 -0.32819387859E+01 -0.20551375091E+01  0.39131408032E+01  0.51100000000E-03 0. -1.
        -11    1    3    3    0    0 -0.57196418206E+00 -0.25714701052E+01 -0.15503781694E+00  0.26388706890E+01  0.51100000000E-03 0.  1.
        -12    1    3    3    0    0  0.93369146649E+01 -0.27726584701E+02 -0.26673036516E+02  0.39590306283E+02  0.00000000000E+00 0.  1.
</event>
<event>
 7    1  0.3846293E-008  0.4614232E+02  0.7816164E-02  0.1320468E+00
        -11   -1    0    0    0    0  0.00000000000E+00  0.00000000000E+00  0.45593999997E+02  0.45594000000E+02  0.51100000000E-03 0.  1.
         11   -1    0    0    0    0 -0.00000000000E+00 -0.00000000000E+00 -0.45593999997E+02  0.45594000000E+02  0.51100000000E-03 0. -1.
    9900012    2    1    2    0    0  0.17407213962E+02  0.17917869360E+02 -0.37484028197E+02  0.46142317519E+02  0.99999977908E+01 0.  0.
        -12    1    1    2    0    0 -0.17407213962E+02 -0.17917869360E+02  0.37484028197E+02  0.45045682481E+02  0.00000000000E+00 0.  1.
         11    1    3    3    0    0  0.27139942439E+01  0.41588788323E+01 -0.85210129950E+01  0.98625402722E+01  0.51100000000E-03 0. -1.
        -11    1    3    3    0    0  0.73919226446E+01  0.14663058223E+01 -0.10647086390E+02  0.13044194954E+02  0.51100000000E-03 0.  1.
        -12    1    3    3    0    0  0.73012970739E+01  0.12292684705E+02 -0.18315928812E+02  0.23235582292E+02  0.00000000000E+00 0.  1.
</event>
<event>
 7    1  0.3846293E-008  0.4614232E+02  0.7816164E-02  0.1320468E+00
        -11   -1    0    0    0    0  0.00000000000E+00  0.00000000000E+00  0.45593999997E+02  0.45594000000E+02  0.51100000000E-03 0.  1.
         11   -1    0    0    0    0 -0.00000000000E+00 -0.00000000000E+00 -0.45593999997E+02  0.45594000000E+02  0.51100000000E-03 0. -1.
    9900012    2    1    2    0    0  0.56300139979E+01  0.24565161014E+01 -0.44624902674E+02  0.46142317992E+02  0.10000002101E+02 0.  0.
        -12    1    1    2    0    0 -0.56300139979E+01 -0.24565161014E+01  0.44624902674E+02  0.45045682008E+02  0.00000000000E+00 0.  1.
         11    1    3    3    0    0  0.17890029434E+01  0.14010211778E+01 -0.11440457934E+02  0.11663938866E+02  0.51100000000E-03 0. -1.
        -11    1    3    3    0    0  0.55916242034E+01 -0.36573682969E+00 -0.12841668431E+02  0.14011012562E+02  0.51100000000E-03 0.  1.
        -12    1    3    3    0    0 -0.17506131488E+01  0.14212317534E+01 -0.20342776309E+02  0.20467366564E+02  0.00000000000E+00 0.  1.
</event>
<event>
 7    1  0.3846293E-008  0.4614232E+02  0.7816164E-02  0.1320468E+00
        -11   -1    0    0    0    0  0.00000000000E+00  0.00000000000E+00  0.45593999997E+02  0.45594000000E+02  0.51100000000E-03 0.  1.
         11   -1    0    0    0    0 -0.00000000000E+00 -0.00000000000E+00 -0.45593999997E+02  0.45594000000E+02  0.51100000000E-03 0. -1.
    9900012    2    1    2    0    0 -0.39497074352E+02  0.21586930763E+02  0.17604096711E+01  0.46142317584E+02  0.99999983833E+01 0.  0.
        -12    1    1    2    0    0  0.39497074352E+02 -0.21586930763E+02 -0.17604096711E+01  0.45045682416E+02  0.00000000000E+00 0.  1.
         11    1    3    3    0    0 -0.12355103034E+02  0.61550108189E+01  0.35609291176E+01  0.14255277816E+02  0.51100000000E-03 0. -1.
        -11    1    3    3    0    0 -0.18208124167E+01 -0.53632532317E+00 -0.16476659769E-01  0.18982292935E+01  0.51100000000E-03 0.  1.
         12    1    3    3    0    0 -0.25321158901E+02  0.15968245268E+02 -0.17840427867E+01  0.29988810474E+02  0.00000000000E+00 0. -1.
</event>
<event>
 7    1  0.3846293E-008  0.4614232E+02  0.7816164E-02  0.1320468E+00
        -11   -1    0    0    0    0  0.00000000000E+00  0.00000000000E+00  0.45593999997E+02  0.45594000000E+02  0.51100000000E-03 0. -1.
         11   -1    0    0    0    0 -0.00000000000E+00 -0.00000000000E+00 -0.45593999997E+02  0.45594000000E+02  0.51100000000E-03 0.  1.
    9900012    2    1    2    0    0 -0.24149788858E+02 -0.30054379301E+02  0.23294536614E+02  0.46142318152E+02  0.10000003563E+02 0.  0.
        -12    1    1    2    0    0  0.24149788858E+02  0.30054379301E+02 -0.23294536614E+02  0.45045681848E+02  0.00000000000E+00 0.  1.
         11    1    3    3    0    0 -0.42742495566E+01 -0.58901344410E+01  0.65168957700E+01  0.97689725019E+01  0.51100000000E-03 0. -1.
        -11    1    3    3    0    0 -0.24285228533E+01 -0.59943450445E+01  0.64930653428E+01  0.91645945665E+01  0.51100000000E-03 0.  1.
         12    1    3    3    0    0 -0.17447016449E+02 -0.18169899816E+02  0.10284575502E+02  0.27208751083E+02  0.00000000000E+00 0. -1.
</event>
<event>
 7    1  0.3846293E-008  0.4614232E+02  0.7816164E-02  0.1320468E+00
        -11   -1    0    0    0    0  0.00000000000E+00  0.00000000000E+00  0.45593999997E+02  0.45594000000E+02  0.51100000000E-03 0.  1.
         11   -1    0    0    0    0 -0.00000000000E+00 -0.00000000000E+00 -0.45593999997E+02  0.45594000000E+02  0.51100000000E-03 0. -1.
    9900012    2    1    2    0    0  0.40746482037E+02 -0.16900763245E+02  0.91214914672E+01  0.46142320926E+02  0.10000028864E+02 0.  0.
        -12    1    1    2    0    0 -0.40746482037E+02  0.16900763245E+02 -0.91214914672E+01  0.45045679074E+02  0.00000000000E+00 0.  1.
         11    1    3    3    0    0  0.40437637451E+02 -0.16142260166E+02  0.95121901361E+01  0.44567441561E+02  0.51100000000E-03 0. -1.
        -11    1    3    3    0    0  0.76144549729E+00 -0.16493085174E+00 -0.20864267082E+00  0.80655654259E+00  0.51100000000E-03 0.  1.
         12    1    3    3    0    0 -0.45260091138E+00 -0.59357222648E+00 -0.18205599815E+00  0.76832282245E+00  0.00000000000E+00 0. -1.
</event>
<event>
 7    1  0.3846293E-008  0.4614232E+02  0.7816164E-02  0.1320468E+00
        -11   -1    0    0    0    0  0.00000000000E+00  0.00000000000E+00  0.45593999997E+02  0.45594000000E+02  0.51100000000E-03 0. -1.
         11   -1    0    0    0    0 -0.00000000000E+00 -0.00000000000E+00 -0.45593999997E+02  0.45594000000E+02  0.51100000000E-03 0.  1.
    9900012    2    1    2    0    0 -0.27195068788E+02  0.34584319305E+02  0.96678040551E+01  0.46142319370E+02  0.10000014672E+02 0.  0.
        -12    1    1    2    0    0  0.27195068788E+02 -0.34584319305E+02 -0.96678040551E+01  0.45045680630E+02  0.00000000000E+00 0.  1.
         11    1    3    3    0    0 -0.24520069424E+01  0.22055214732E+01  0.24937641236E+01  0.41346732374E+01  0.51100000000E-03 0. -1.
        -11    1    3    3    0    0 -0.15910064545E+02  0.21517148402E+02  0.12025112751E+01  0.26787382530E+02  0.51100000000E-03 0.  1.
        -12    1    3    3    0    0 -0.88329973010E+01  0.10861649430E+02  0.59715286564E+01  0.15220263603E+02  0.00000000000E+00 0.  1.
</event>
<event>
 7    1  0.3846293E-008  0.4614232E+02  0.7816164E-02  0.1320468E+00
        -11   -1    0    0    0    0  0.00000000000E+00  0.00000000000E+00  0.45593999997E+02  0.45594000000E+02  0.51100000000E-03 0.  1.
         11   -1    0    0    0    0 -0.00000000000E+00 -0.00000000000E+00 -0.45593999997E+02  0.45594000000E+02  0.51100000000E-03 0. -1.
    9900012    2    1    2    0    0  0.24665596965E+02  0.31055934343E+02 -0.21360028127E+02  0.46142317264E+02  0.99999954675E+01 0.  0.
        -12    1    1    2    0    0 -0.24665596965E+02 -0.31055934343E+02  0.21360028127E+02  0.45045682736E+02  0.00000000000E+00 0.  1.
         11    1    3    3    0    0  0.14252240055E+02  0.11542217759E+02 -0.11002428776E+02  0.21386972124E+02  0.51100000000E-03 0. -1.
        -11    1    3    3    0    0  0.23783883971E+01  0.47399688988E+01 -0.66495111584E+00  0.53447354262E+01  0.51100000000E-03 0.  1.
         12    1    3    3    0    0  0.80349685127E+01  0.14773747685E+02 -0.96926482352E+01  0.19410609714E+02  0.00000000000E+00 0. -1.
</event>
<event>
 7    1  0.3975563E-008  0.4614232E+02  0.7816164E-02  0.1320468E+00
        -11   -1    0    0    0    0  0.00000000000E+00  0.00000000000E+00  0.45593999997E+02  0.45594000000E+02  0.51100000000E-03 0.  1.
         11   -1    0    0    0    0 -0.00000000000E+00 -0.00000000000E+00 -0.45593999997E+02  0.45594000000E+02  0.51100000000E-03 0. -1.
    9900012    2    1    2    0    0 -0.38539160543E+02  0.93683675444E+01 -0.21356037090E+02  0.46142317343E+02  0.99999961900E+01 0.  0.
        -12    1    1    2    0    0  0.38539160543E+02 -0.93683675444E+01  0.21356037090E+02  0.45045682657E+02  0.00000000000E+00 0.  1.
         11    1    3    3    0    0 -0.18970215553E+02  0.64980628582E+01 -0.11435750151E+02  0.23083983210E+02  0.51100000000E-03 0. -1.
        -11    1    3    3    0    0 -0.12264053845E+02  0.42023181692E+01 -0.84895280595E+01  0.15496405443E+02  0.51100000000E-03 0.  1.
        -12    1    3    3    0    0 -0.73048911444E+01 -0.13320134830E+01 -0.14307588796E+01  0.75619286906E+01  0.00000000000E+00 0.  1.
</event>
<event>
 7    1  0.3846293E-008  0.4614232E+02  0.7816164E-02  0.1320468E+00
        -11   -1    0    0    0    0  0.00000000000E+00  0.00000000000E+00  0.45593999997E+02  0.45594000000E+02  0.51100000000E-03 0.  1.
         11   -1    0    0    0    0 -0.00000000000E+00 -0.00000000000E+00 -0.45593999997E+02  0.45594000000E+02  0.51100000000E-03 0. -1.
    9900012    2    1    2    0    0  0.11938271386E+02  0.43100889669E+02 -0.53762874978E+01  0.46142317841E+02  0.10000000724E+02 0.  0.
        -12    1    1    2    0    0 -0.11938271386E+02 -0.43100889669E+02  0.53762874978E+01  0.45045682159E+02  0.00000000000E+00 0.  1.
         11    1    3    3    0    0  0.26649125391E+01  0.16896871071E+02  0.11358915629E+01  0.17143402834E+02  0.51100000000E-03 0. -1.
        -11    1    3    3    0    0  0.36686486054E+01  0.52594458309E+01 -0.28202309162E+01  0.70053162470E+01  0.51100000000E-03 0.  1.
        -12    1    3    3    0    0  0.56047102418E+01  0.20944572767E+02 -0.36919481445E+01  0.21993598759E+02  0.00000000000E+00 0.  1.
</event>
<event>
 7    1  0.3846293E-008  0.4614232E+02  0.7816164E-02  0.1320468E+00
        -11   -1    0    0    0    0  0.00000000000E+00  0.00000000000E+00  0.45593999997E+02  0.45594000000E+02  0.51100000000E-03 0.  1.
         11   -1    0    0    0    0 -0.00000000000E+00 -0.00000000000E+00 -0.45593999997E+02  0.45594000000E+02  0.51100000000E-03 0. -1.
    9900012    2    1    2    0    0  0.20390970028E+02 -0.33161766291E+02 -0.22663170747E+02  0.46142315296E+02  0.99999775168E+01 0.  0.
        -12    1    1    2    0    0 -0.20390970028E+02  0.33161766291E+02  0.22663170747E+02  0.45045684704E+02  0.00000000000E+00 0.  1.
         11    1    3    3    0    0  0.39277134532E+01 -0.41803954783E+01 -0.46232972429E+01  0.73673276690E+01  0.51100000000E-03 0. -1.
        -11    1    3    3    0    0  0.15005893991E+02 -0.25994557102E+02 -0.12934609769E+02  0.32683298235E+02  0.51100000000E-03 0.  1.
        -12    1    3    3    0    0  0.14573625844E+01 -0.29868137107E+01 -0.51052637346E+01  0.60916893916E+01  0.00000000000E+00 0.  1.
</event>
<event>
 7    1  0.3846293E-008  0.4614233E+02  0.7816164E-02  0.1320468E+00
        -11   -1    0    0    0    0  0.00000000000E+00  0.00000000000E+00  0.45593999997E+02  0.45594000000E+02  0.51100000000E-03 0. -1.
         11   -1    0    0    0    0 -0.00000000000E+00 -0.00000000000E+00 -0.45593999997E+02  0.45594000000E+02  0.51100000000E-03 0.  1.
    9900012    2    1    2    0    0  0.19846697539E+02  0.40183806390E+02  0.45258227856E+01  0.46142325723E+02  0.10000072602E+02 0.  0.
        -12    1    1    2    0    0 -0.19846697539E+02 -0.40183806390E+02 -0.45258227856E+01  0.45045674277E+02  0.00000000000E+00 0.  1.
         11    1    3    3    0    0  0.17332312621E+02  0.36780343019E+02  0.67874839771E+01  0.41222234685E+02  0.51100000000E-03 0. -1.
        -11    1    3    3    0    0  0.48868247340E+00  0.10756012444E+00 -0.28121003437E+00  0.57398526526E+00  0.51100000000E-03 0.  1.
         12    1    3    3    0    0  0.20257024452E+01  0.32959032460E+01 -0.19804511572E+01  0.43461057730E+01  0.00000000000E+00 0. -1.
</event>
<event>
 7    1  0.3846293E-008  0.4614232E+02  0.7816164E-02  0.1320468E+00
        -11   -1    0    0    0    0  0.00000000000E+00  0.00000000000E+00  0.45593999997E+02  0.45594000000E+02  0.51100000000E-03 0.  1.
         11   -1    0    0    0    0 -0.00000000000E+00 -0.00000000000E+00 -0.45593999997E+02  0.45594000000E+02  0.51100000000E-03 0. -1.
    9900012    2    1    2    0    0 -0.20515790392E+02  0.37132676738E+02 -0.15145303687E+02  0.46142316956E+02  0.99999926549E+01 0.  0.
        -12    1    1    2    0    0  0.20515790392E+02 -0.37132676738E+02  0.15145303687E+02  0.45045683044E+02  0.00000000000E+00 0.  1.
         11    1    3    3    0    0 -0.30303215483E+01  0.87073587154E+01 -0.20701653289E+01  0.94491549483E+01  0.51100000000E-03 0. -1.
        -11    1    3    3    0    0 -0.68617905773E+01  0.54860380738E+01 -0.15958474486E+01  0.89290264315E+01  0.51100000000E-03 0.  1.
        -12    1    3    3    0    0 -0.10623678267E+02  0.22939279949E+02 -0.11479290910E+02  0.27764135576E+02  0.00000000000E+00 0.  1.
</event>
<event>
 7    1  0.3846293E-008  0.4614232E+02  0.7816164E-02  0.1320468E+00
        -11   -1    0    0    0    0  0.00000000000E+00  0.00000000000E+00  0.45593999997E+02  0.45594000000E+02  0.51100000000E-03 0. -1.
         11   -1    0    0    0    0 -0.00000000000E+00 -0.00000000000E+00 -0.45593999997E+02  0.45594000000E+02  0.51100000000E-03 0.  1.
    9900012    2    1    2    0    0  0.38153225855E+02  0.23898372870E+02  0.15207126294E+01  0.46142318344E+02  0.10000005313E+02 0.  0.
        -12    1    1    2    0    0 -0.38153225855E+02 -0.23898372870E+02 -0.15207126294E+01  0.45045681656E+02  0.00000000000E+00 0.  1.
         11    1    3    3    0    0  0.11269639435E+02  0.51959544892E+01 -0.27664208109E+01  0.12714393434E+02  0.51100000000E-03 0. -1.
        -11    1    3    3    0    0  0.26767672229E+01  0.33250065290E+01  0.18313426272E+01  0.46448430827E+01  0.51100000000E-03 0.  1.
         12    1    3    3    0    0  0.24206819197E+02  0.15377411852E+02  0.24557908131E+01  0.28783081827E+02  0.00000000000E+00 0. -1.
</event>
<event>
 7    1  0.3846293E-008  0.4614232E+02  0.7816164E-02  0.1320468E+00
        -11   -1    0    0    0    0  0.00000000000E+00  0.00000000000E+00  0.45593999997E+02  0.45594000000E+02  0.51100000000E-03 0. -1.
         11   -1    0    0    0    0 -0.00000000000E+00 -0.00000000000E+00 -0.45593999997E+02  0.45594000000E+02  0.51100000000E-03 0.  1.
    9900012    2    1    2    0    0 -0.21545061598E+02 -0.32593175214E+02 -0.22418938406E+02  0.46142317087E+02  0.99999938552E+01 0.  0.
        -12    1    1    2    0    0  0.21545061598E+02  0.32593175214E+02  0.22418938406E+02  0.45045682913E+02  0.00000000000E+00 0.  1.
         11    1    3    3    0    0 -0.30487332796E+01 -0.51750698486E+01 -0.13082934270E+00  0.60077649027E+01  0.51100000000E-03 0. -1.
        -11    1    3    3    0    0 -0.17764647788E+02 -0.23898946488E+02 -0.19684639565E+02  0.35696321790E+02  0.51100000000E-03 0.  1.
        -12    1    3    3    0    0 -0.73168053034E+00 -0.35191588776E+01 -0.26034694991E+01  0.44382303948E+01  0.00000000000E+00 0.  1.
</event>
<event>
 7    1  0.3846293E-008  0.4614232E+02  0.7816164E-02  0.1320468E+00
        -11   -1    0    0    0    0  0.00000000000E+00  0.00000000000E+00  0.45593999997E+02  0.45594000000E+02  0.51100000000E-03 0.  1.
         11   -1    0    0    0    0 -0.00000000000E+00 -0.00000000000E+00 -0.45593999997E+02  0.45594000000E+02  0.51100000000E-03 0. -1.
    9900012    2    1    2    0    0  0.35037342166E+02  0.13986702560E+02 -0.24614434099E+02  0.46142316960E+02  0.99999926920E+01 0.  0.
        -12    1    1    2    0    0 -0.35037342166E+02 -0.13986702560E+02  0.24614434099E+02  0.45045683040E+02  0.00000000000E+00 0.  1.
         11    1    3    3    0    0  0.22227751765E+02  0.11624106358E+02 -0.16583733425E+02  0.30070134881E+02  0.51100000000E-03 0. -1.
        -11    1    3    3    0    0  0.13264738947E+02  0.22781483467E+01 -0.77495491030E+01  0.15530575353E+02  0.51100000000E-03 0.  1.
        -12    1    3    3    0    0 -0.45514854676E+00  0.84447854666E-01 -0.28115157084E+00  0.54160672592E+00  0.00000000000E+00 0.  1.
</event>
<event>
 7    1  0.3846293E-008  0.4614231E+02  0.7816164E-02  0.1320468E+00
        -11   -1    0    0    0    0  0.00000000000E+00  0.00000000000E+00  0.45593999997E+02  0.45594000000E+02  0.51100000000E-03 0.  1.
         11   -1    0    0    0    0 -0.00000000000E+00 -0.00000000000E+00 -0.45593999997E+02  0.45594000000E+02  0.51100000000E-03 0. -1.
    9900012    2    1    2    0    0  0.63310978846E+01  0.26906121887E+02 -0.35568136855E+02  0.46142305924E+02  0.99998920608E+01 0.  0.
        -12    1    1    2    0    0 -0.63310978846E+01 -0.26906121887E+02  0.35568136855E+02  0.45045694076E+02  0.00000000000E+00 0.  1.
         11    1    3    3    0    0  0.16814007775E+01  0.48189673385E+01 -0.13576525634E+02  0.14504192612E+02  0.51100000000E-03 0. -1.
        -11    1    3    3    0    0 -0.37719695686E+00  0.18582912272E+01 -0.16577726339E+01  0.25186770726E+01  0.51100000000E-03 0.  1.
         12    1    3    3    0    0  0.50268940639E+01  0.20228863321E+02 -0.20333838588E+02  0.29119436240E+02  0.00000000000E+00 0. -1.
</event>
<event>
 7    1  0.3846293E-008  0.4614232E+02  0.7816164E-02  0.1320468E+00
        -11   -1    0    0    0    0  0.00000000000E+00  0.00000000000E+00  0.45593999997E+02  0.45594000000E+02  0.51100000000E-03 0. -1.
         11   -1    0    0    0    0 -0.00000000000E+00 -0.00000000000E+00 -0.45593999997E+02  0.45594000000E+02  0.51100000000E-03 0.  1.
    9900012    2    1    2    0    0 -0.16689830446E+02  0.41604253247E+02  0.44327396823E+01  0.46142317525E+02  0.99999978471E+01 0.  0.
        -12    1    1    2    0    0  0.16689830446E+02 -0.41604253247E+02 -0.44327396823E+01  0.45045682475E+02  0.00000000000E+00 0.  1.
         11    1    3    3    0    0 -0.32342016221E+01  0.14307133095E+02  0.18858044564E+01  0.14788859869E+02  0.51100000000E-03 0.  1.
        -11    1    3    3    0    0 -0.30791409744E+01  0.10545461430E+02  0.37590985016E+01  0.11611144979E+02  0.51100000000E-03 0. -1.
         12    1    3    3    0    0 -0.10376487849E+02  0.16751658722E+02 -0.12121632757E+01  0.19742312677E+02  0.00000000000E+00 0. -1.
</event>
<event>
 7    1  0.3846293E-008  0.4614232E+02  0.7816164E-02  0.1320468E+00
        -11   -1    0    0    0    0  0.00000000000E+00  0.00000000000E+00  0.45593999997E+02  0.45594000000E+02  0.51100000000E-03 0.  1.
         11   -1    0    0    0    0 -0.00000000000E+00 -0.00000000000E+00 -0.45593999997E+02  0.45594000000E+02  0.51100000000E-03 0. -1.
    9900012    2    1    2    0    0  0.12661712520E+02 -0.12983021039E+02 -0.41233916379E+02  0.46142315865E+02  0.99999827093E+01 0.  0.
        -12    1    1    2    0    0 -0.12661712520E+02  0.12983021039E+02  0.41233916379E+02  0.45045684135E+02  0.00000000000E+00 0.  1.
         11    1    3    3    0    0  0.73831903538E+01 -0.67189653643E+01 -0.19128395770E+02  0.21576642935E+02  0.51100000000E-03 0.  1.
        -11    1    3    3    0    0  0.77304914731E+00 -0.30963925469E+01 -0.16115591550E+02  0.16428558764E+02  0.51100000000E-03 0. -1.
        -12    1    3    3    0    0  0.45054730189E+01 -0.31676631276E+01 -0.59899290596E+01  0.81371141662E+01  0.00000000000E+00 0.  1.
</event>
<event>
 7    1  0.3846293E-008  0.4614232E+02  0.7816164E-02  0.1320468E+00
        -11   -1    0    0    0    0  0.00000000000E+00  0.00000000000E+00  0.45593999997E+02  0.45594000000E+02  0.51100000000E-03 0. -1.
         11   -1    0    0    0    0 -0.00000000000E+00 -0.00000000000E+00 -0.45593999997E+02  0.45594000000E+02  0.51100000000E-03 0.  1.
    9900012    2    1    2    0    0  0.67397333674E+01 -0.38122244294E+02  0.23030066482E+02  0.46142317876E+02  0.10000001047E+02 0.  0.
        -12    1    1    2    0    0 -0.67397333674E+01  0.38122244294E+02 -0.23030066482E+02  0.45045682124E+02  0.00000000000E+00 0.  1.
         11    1    3    3    0    0  0.45258939133E+01 -0.10377671423E+02  0.71027826912E+01  0.13365227350E+02  0.51100000000E-03 0. -1.
        -11    1    3    3    0    0  0.39711285491E+01 -0.10656345103E+02  0.76717104341E+01  0.13717969753E+02  0.51100000000E-03 0.  1.
        -12    1    3    3    0    0 -0.17572890950E+01 -0.17088227768E+02  0.82555733564E+01  0.19059120773E+02  0.00000000000E+00 0.  1.
</event>
<event>
 7    1  0.3846293E-008  0.4614232E+02  0.7816164E-02  0.1320468E+00
        -11   -1    0    0    0    0  0.00000000000E+00  0.00000000000E+00  0.45593999997E+02  0.45594000000E+02  0.51100000000E-03 0.  1.
         11   -1    0    0    0    0 -0.00000000000E+00 -0.00000000000E+00 -0.45593999997E+02  0.45594000000E+02  0.51100000000E-03 0. -1.
    9900012    2    1    2    0    0 -0.39840710913E+02  0.12256627216E+02 -0.17076483780E+02  0.46142318131E+02  0.10000003372E+02 0.  0.
        -12    1    1    2    0    0  0.39840710913E+02 -0.12256627216E+02  0.17076483780E+02  0.45045681869E+02  0.00000000000E+00 0.  1.
         11    1    3    3    0    0 -0.16506490628E+02  0.36681417517E+01 -0.10949584291E+02  0.20144798167E+02  0.51100000000E-03 0. -1.
        -11    1    3    3    0    0 -0.13444356328E+02  0.68621145123E+01 -0.49707894022E+01  0.15891761394E+02  0.51100000000E-03 0.  1.
        -12    1    3    3    0    0 -0.98898639570E+01  0.17263709519E+01 -0.11561100863E+01  0.10105758570E+02  0.00000000000E+00 0.  1.
</event>
<event>
 7    1  0.3846293E-008  0.4614232E+02  0.7816164E-02  0.1320468E+00
        -11   -1    0    0    0    0  0.00000000000E+00  0.00000000000E+00  0.45593999997E+02  0.45594000000E+02  0.51100000000E-03 0.  1.
         11   -1    0    0    0    0 -0.00000000000E+00 -0.00000000000E+00 -0.45593999997E+02  0.45594000000E+02  0.51100000000E-03 0. -1.
    9900012    2    1    2    0    0  0.41771824484E+02 -0.16550406952E+02  0.32112597843E+01  0.46142317849E+02  0.10000000803E+02 0.  0.
        -12    1    1    2    0    0 -0.41771824484E+02  0.16550406952E+02 -0.32112597843E+01  0.45045682151E+02  0.00000000000E+00 0.  1.
         11    1    3    3    0    0  0.44200761939E+01 -0.15638531708E+01 -0.18885093438E+01  0.50546194815E+01  0.51100000000E-03 0. -1.
        -11    1    3    3    0    0  0.22169591456E+01 -0.26724183569E+01  0.11043970767E+01  0.36436823258E+01  0.51100000000E-03 0.  1.
         12    1    3    3    0    0  0.35134789145E+02 -0.12314135424E+02  0.39953720514E+01  0.37444016042E+02  0.00000000000E+00 0. -1.
</event>
<event>
 7    1  0.3846293E-008  0.4614232E+02  0.7816164E-02  0.1320468E+00
        -11   -1    0    0    0    0  0.00000000000E+00  0.00000000000E+00  0.45593999997E+02  0.45594000000E+02  0.51100000000E-03 0.  1.
         11   -1    0    0    0    0 -0.00000000000E+00 -0.00000000000E+00 -0.45593999997E+02  0.45594000000E+02  0.51100000000E-03 0. -1.
    9900012    2    1    2    0    0 -0.14929643418E+02  0.19416953038E+02 -0.37804777438E+02  0.46142317466E+02  0.99999973083E+01 0.  0.
        -12    1    1    2    0    0  0.14929643418E+02 -0.19416953038E+02  0.37804777438E+02  0.45045682534E+02  0.00000000000E+00 0.  1.
         11    1    3    3    0    0 -0.24214772302E+01  0.36358343547E+01 -0.10155822978E+02  0.11055477559E+02  0.51100000000E-03 0.  1.
        -11    1    3    3    0    0 -0.10430782956E+02  0.13673423287E+02 -0.27070569233E+02  0.32071474184E+02  0.51100000000E-03 0. -1.
        -12    1    3    3    0    0 -0.20773832316E+01  0.21076953963E+01 -0.57838522626E+00  0.30153657232E+01  0.00000000000E+00 0.  1.
</event>
<event>
 7    1  0.3846293E-008  0.4614232E+02  0.7816164E-02  0.1320468E+00
        -11   -1    0    0    0    0  0.00000000000E+00  0.00000000000E+00  0.45593999997E+02  0.45594000000E+02  0.51100000000E-03 0.  1.
         11   -1    0    0    0    0 -0.00000000000E+00 -0.00000000000E+00 -0.45593999997E+02  0.45594000000E+02  0.51100000000E-03 0. -1.
    9900012    2    1    2    0    0  0.10061172883E+02  0.22816240771E+02 -0.37514069650E+02  0.46142318026E+02  0.10000002420E+02 0.  0.
        -12    1    1    2    0    0 -0.10061172883E+02 -0.22816240771E+02  0.37514069650E+02  0.45045681974E+02  0.00000000000E+00 0.  1.
         11    1    3    3    0    0  0.68623162162E+01  0.15828589542E+02 -0.28264566460E+02  0.33113763728E+02  0.51100000000E-03 0. -1.
        -11    1    3    3    0    0 -0.34054321300E+00  0.24202297796E+01 -0.58122311444E+01  0.63051973009E+01  0.51100000000E-03 0.  1.
        -12    1    3    3    0    0  0.35393998799E+01  0.45674214494E+01 -0.34372720458E+01  0.67233569980E+01  0.00000000000E+00 0.  1.
</event>
<event>
 7    1  0.3846293E-008  0.4614232E+02  0.7816164E-02  0.1320468E+00
        -11   -1    0    0    0    0  0.00000000000E+00  0.00000000000E+00  0.45593999997E+02  0.45594000000E+02  0.51100000000E-03 0.  1.
         11   -1    0    0    0    0 -0.00000000000E+00 -0.00000000000E+00 -0.45593999997E+02  0.45594000000E+02  0.51100000000E-03 0. -1.
    9900012    2    1    2    0    0  0.45022056974E+01 -0.23379931361E+02 -0.38239017328E+02  0.46142317712E+02  0.99999995501E+01 0.  0.
        -12    1    1    2    0    0 -0.45022056974E+01  0.23379931361E+02  0.38239017328E+02  0.45045682288E+02  0.00000000000E+00 0.  1.
         11    1    3    3    0    0 -0.15971502159E+01 -0.11710748154E+02 -0.22888674550E+02  0.25760122943E+02  0.51100000000E-03 0. -1.
        -11    1    3    3    0    0  0.17628533733E+01 -0.21297421299E+01 -0.20086859102E+01  0.34173488119E+01  0.51100000000E-03 0.  1.
         12    1    3    3    0    0  0.43365025400E+01 -0.95394410776E+01 -0.13341656868E+02  0.16964845957E+02  0.00000000000E+00 0. -1.
</event>
<event>
 7    1  0.3846293E-008  0.4614232E+02  0.7816164E-02  0.1320468E+00
        -11   -1    0    0    0    0  0.00000000000E+00  0.00000000000E+00  0.45593999997E+02  0.45594000000E+02  0.51100000000E-03 0.  1.
         11   -1    0    0    0    0 -0.00000000000E+00 -0.00000000000E+00 -0.45593999997E+02  0.45594000000E+02  0.51100000000E-03 0. -1.
    9900012    2    1    2    0    0  0.20740738835E+02  0.17030630790E+02 -0.36178624260E+02  0.46142317789E+02  0.10000000250E+02 0.  0.
        -12    1    1    2    0    0 -0.20740738835E+02 -0.17030630790E+02  0.36178624260E+02  0.45045682211E+02  0.00000000000E+00 0.  1.
         11    1    3    3    0    0  0.28628765545E+01  0.47072719774E+01 -0.62326927354E+01  0.83187096734E+01  0.51100000000E-03 0.  1.
        -11    1    3    3    0    0  0.11376867061E+02  0.68978587681E+01 -0.24117885317E+02  0.27544254431E+02  0.51100000000E-03 0. -1.
         12    1    3    3    0    0  0.65009952194E+01  0.54255000440E+01 -0.58280462082E+01  0.10279353685E+02  0.00000000000E+00 0. -1.
</event>
<event>
 7    1  0.3846293E-008  0.4614231E+02  0.7816164E-02  0.1320468E+00
        -11   -1    0    0    0    0  0.00000000000E+00  0.00000000000E+00  0.45593999997E+02  0.45594000000E+02  0.51100000000E-03 0.  1.
         11   -1    0    0    0    0 -0.00000000000E+00 -0.00000000000E+00 -0.45593999997E+02  0.45594000000E+02  0.51100000000E-03 0. -1.
    9900012    2    1    2    0    0 -0.29175554918E+02 -0.21491782798E+02 -0.26758251606E+02  0.46142314728E+02  0.99999723424E+01 0.  0.
        -12    1    1    2    0    0  0.29175554918E+02  0.21491782798E+02  0.26758251606E+02  0.45045685272E+02  0.00000000000E+00 0.  1.
         11    1    3    3    0    0 -0.14663833983E+02 -0.93611366361E+01 -0.97711790539E+01  0.19953316681E+02  0.51100000000E-03 0. -1.
        -11    1    3    3    0    0 -0.12618058913E+02 -0.69804868605E+01 -0.12881085528E+02  0.19335588230E+02  0.51100000000E-03 0.  1.
        -12    1    3    3    0    0 -0.18936620210E+01 -0.51501593012E+01 -0.41059870246E+01  0.68534098173E+01  0.00000000000E+00 0.  1.
</event>
<event>
 7    1  0.3846293E-008  0.4614232E+02  0.7816164E-02  0.1320468E+00
        -11   -1    0    0    0    0  0.00000000000E+00  0.00000000000E+00  0.45593999997E+02  0.45594000000E+02  0.51100000000E-03 0. -1.
         11   -1    0    0    0    0 -0.00000000000E+00 -0.00000000000E+00 -0.45593999997E+02  0.45594000000E+02  0.51100000000E-03 0.  1.
    9900012    2    1    2    0    0 -0.12153521066E+00  0.23750926258E+02  0.38275218130E+02  0.46142316613E+02  0.99999895296E+01 0.  0.
        -12    1    1    2    0    0  0.12153521066E+00 -0.23750926258E+02 -0.38275218130E+02  0.45045683387E+02  0.00000000000E+00 0.  1.
         11    1    3    3    0    0 -0.30182011963E+01  0.91240000981E+01  0.18187440447E+02  0.20570364764E+02  0.51100000000E-03 0. -1.
        -11    1    3    3    0    0 -0.27795789229E+00 -0.74256250037E-01 -0.17548376241E+00  0.33700058241E+00  0.51100000000E-03 0.  1.
         12    1    3    3    0    0  0.31746238780E+01  0.14701182410E+02  0.20263261445E+02  0.25234951266E+02  0.00000000000E+00 0. -1.
</event>
<event>
 7    1  0.3846293E-008  0.4614232E+02  0.7816164E-02  0.1320468E+00
        -11   -1    0    0    0    0  0.00000000000E+00  0.00000000000E+00  0.45593999997E+02  0.45594000000E+02  0.51100000000E-03 0.  1.
         11   -1    0    0    0    0 -0.00000000000E+00 -0.00000000000E+00 -0.45593999997E+02  0.45594000000E+02  0.51100000000E-03 0. -1.
    9900012    2    1    2    0    0  0.41205066951E+02 -0.10517549661E+02 -0.14853863787E+02  0.46142315827E+02  0.99999823592E+01 0.  0.
        -12    1    1    2    0    0 -0.41205066951E+02  0.10517549661E+02  0.14853863787E+02  0.45045684173E+02  0.00000000000E+00 0.  1.
         11    1    3    3    0    0  0.19223518180E+02 -0.17412054446E+01 -0.92807050325E+01  0.21417444614E+02  0.51100000000E-03 0. -1.
        -11    1    3    3    0    0  0.16031983411E+02 -0.43851935483E+01 -0.29616361975E+01  0.16882704279E+02  0.51100000000E-03 0.  1.
        -12    1    3    3    0    0  0.59495653593E+01 -0.43911506677E+01 -0.26115225565E+01  0.78421669336E+01  0.00000000000E+00 0.  1.
</event>
<event>
 7    1  0.3846293E-008  0.4614232E+02  0.7816164E-02  0.1320468E+00
        -11   -1    0    0    0    0  0.00000000000E+00  0.00000000000E+00  0.45593999997E+02  0.45594000000E+02  0.51100000000E-03 0.  1.
         11   -1    0    0    0    0 -0.00000000000E+00 -0.00000000000E+00 -0.45593999997E+02  0.45594000000E+02  0.51100000000E-03 0. -1.
    9900012    2    1    2    0    0  0.11975527334E+01  0.44781328428E+02  0.47235429667E+01  0.46142319114E+02  0.10000012339E+02 0.  0.
        -12    1    1    2    0    0 -0.11975527334E+01 -0.44781328428E+02 -0.47235429667E+01  0.45045680886E+02  0.00000000000E+00 0.  1.
         11    1    3    3    0    0  0.26940097788E+01  0.18316228840E+02 -0.81468602710E+00  0.18531207224E+02  0.51100000000E-03 0. -1.
        -11    1    3    3    0    0  0.28765752824E+00  0.23211927057E+02  0.38341758054E+01  0.23528221542E+02  0.51100000000E-03 0.  1.
        -12    1    3    3    0    0 -0.17841145736E+01  0.32531725309E+01  0.17040531885E+01  0.40828903483E+01  0.00000000000E+00 0.  1.
</event>
<event>
 7    1  0.3846293E-008  0.4614232E+02  0.7816164E-02  0.1320468E+00
        -11   -1    0    0    0    0  0.00000000000E+00  0.00000000000E+00  0.45593999997E+02  0.45594000000E+02  0.51100000000E-03 0.  1.
         11   -1    0    0    0    0 -0.00000000000E+00 -0.00000000000E+00 -0.45593999997E+02  0.45594000000E+02  0.51100000000E-03 0. -1.
    9900012    2    1    2    0    0 -0.11751822694E+02  0.42367184888E+02 -0.97994810190E+01  0.46142317407E+02  0.99999967752E+01 0.  0.
        -12    1    1    2    0    0  0.11751822694E+02 -0.42367184888E+02  0.97994810190E+01  0.45045682593E+02  0.00000000000E+00 0.  1.
         11    1    3    3    0    0 -0.10477731893E+02  0.22834502821E+02 -0.47138781801E+01  0.25562042807E+02  0.51100000000E-03 0. -1.
        -11    1    3    3    0    0 -0.11736202834E+01  0.45089364290E+01 -0.26499331804E+01  0.53600408965E+01  0.51100000000E-03 0.  1.
        -12    1    3    3    0    0 -0.10047051807E+00  0.15023745638E+02 -0.24356696585E+01  0.15220233704E+02  0.00000000000E+00 0.  1.
</event>
<event>
 7    1  0.3846293E-008  0.4614232E+02  0.7816164E-02  0.1320468E+00
        -11   -1    0    0    0    0  0.00000000000E+00  0.00000000000E+00  0.45593999997E+02  0.45594000000E+02  0.51100000000E-03 0.  1.
         11   -1    0    0    0    0 -0.00000000000E+00 -0.00000000000E+00 -0.45593999997E+02  0.45594000000E+02  0.51100000000E-03 0. -1.
    9900012    2    1    2    0    0 -0.14784010262E+02  0.35663362531E+02 -0.23209288644E+02  0.46142318011E+02  0.10000002279E+02 0.  0.
        -12    1    1    2    0    0  0.14784010262E+02 -0.35663362531E+02  0.23209288644E+02  0.45045681989E+02  0.00000000000E+00 0.  1.
         11    1    3    3    0    0 -0.28272638510E+01  0.42484685546E+01 -0.49936624301E+01  0.71399979461E+01  0.51100000000E-03 0. -1.
        -11    1    3    3    0    0 -0.30346054756E+01  0.17509917844E+01 -0.20930569874E+01  0.40811383749E+01  0.51100000000E-03 0.  1.
         12    1    3    3    0    0 -0.89221409355E+01  0.29663902192E+02 -0.16122569227E+02  0.34921181690E+02  0.00000000000E+00 0. -1.
</event>
<event>
 7    1  0.3846293E-008  0.4614232E+02  0.7816164E-02  0.1320468E+00
        -11   -1    0    0    0    0  0.00000000000E+00  0.00000000000E+00  0.45593999997E+02  0.45594000000E+02  0.51100000000E-03 0. -1.
         11   -1    0    0    0    0 -0.00000000000E+00 -0.00000000000E+00 -0.45593999997E+02  0.45594000000E+02  0.51100000000E-03 0.  1.
    9900012    2    1    2    0    0 -0.14839639278E+02 -0.40788637916E+02 -0.12049295861E+02  0.46142318657E+02  0.10000008169E+02 0.  0.
        -12    1    1    2    0    0  0.14839639278E+02  0.40788637916E+02  0.12049295861E+02  0.45045681343E+02  0.00000000000E+00 0.  1.
         11    1    3    3    0    0 -0.52802779685E+01 -0.80029839724E+01 -0.51798239654E+01  0.10897690786E+02  0.51100000000E-03 0.  1.
        -11    1    3    3    0    0 -0.73423580158E+01 -0.21834254212E+02 -0.22204714736E+01  0.23142501421E+02  0.51100000000E-03 0. -1.
        -12    1    3    3    0    0 -0.22170032938E+01 -0.10951399732E+02 -0.46490004221E+01  0.12102126450E+02  0.00000000000E+00 0.  1.
</event>
<event>
 7    1  0.3846293E-008  0.4614232E+02  0.7816164E-02  0.1320468E+00
        -11   -1    0    0    0    0  0.00000000000E+00  0.00000000000E+00  0.45593999997E+02  0.45594000000E+02  0.51100000000E-03 0.  1.
         11   -1    0    0    0    0 -0.00000000000E+00 -0.00000000000E+00 -0.45593999997E+02  0.45594000000E+02  0.51100000000E-03 0. -1.
    9900012    2    1    2    0    0  0.32051136543E+02  0.31117525972E+02 -0.57911819279E+01  0.46142316917E+02  0.99999923040E+01 0.  0.
        -12    1    1    2    0    0 -0.32051136543E+02 -0.31117525972E+02  0.57911819279E+01  0.45045683083E+02  0.00000000000E+00 0.  1.
         11    1    3    3    0    0  0.94164519515E+01  0.81983706699E+01 -0.32968753504E+00  0.12489657446E+02  0.51100000000E-03 0. -1.
        -11    1    3    3    0    0  0.19392772461E+02  0.21508869302E+02 -0.25496740429E+01  0.29072528620E+02  0.51100000000E-03 0.  1.
         12    1    3    3    0    0  0.32419121303E+01  0.14102860003E+01 -0.29118203500E+01  0.45801308512E+01  0.00000000000E+00 0. -1.
</event>
<event>
 7    1  0.3846293E-008  0.4614232E+02  0.7816164E-02  0.1320468E+00
        -11   -1    0    0    0    0  0.00000000000E+00  0.00000000000E+00  0.45593999997E+02  0.45594000000E+02  0.51100000000E-03 0.  1.
         11   -1    0    0    0    0 -0.00000000000E+00 -0.00000000000E+00 -0.45593999997E+02  0.45594000000E+02  0.51100000000E-03 0. -1.
    9900012    2    1    2    0    0 -0.14520355465E+02 -0.29169257697E+02 -0.31103495133E+02  0.46142315113E+02  0.99999758541E+01 0.  0.
        -12    1    1    2    0    0  0.14520355465E+02  0.29169257697E+02  0.31103495133E+02  0.45045684887E+02  0.00000000000E+00 0.  1.
         11    1    3    3    0    0 -0.18539703273E+01 -0.15467406874E+01 -0.68560223268E+00  0.25099130286E+01  0.51100000000E-03 0.  1.
        -11    1    3    3    0    0 -0.11763690247E+00 -0.78953396752E+01 -0.73361792567E+01  0.10778207336E+02  0.51100000000E-03 0. -1.
         12    1    3    3    0    0 -0.12548748235E+02 -0.19727177334E+02 -0.23081713644E+02  0.32854194749E+02  0.00000000000E+00 0. -1.
</event>
<event>
 7    1  0.3846293E-008  0.4614232E+02  0.7816164E-02  0.1320468E+00
        -11   -1    0    0    0    0  0.00000000000E+00  0.00000000000E+00  0.45593999997E+02  0.45594000000E+02  0.51100000000E-03 0.  1.
         11   -1    0    0    0    0 -0.00000000000E+00 -0.00000000000E+00 -0.45593999997E+02  0.45594000000E+02  0.51100000000E-03 0. -1.
    9900012    2    1    2    0    0  0.41378204221E+02  0.53588900762E+01  0.16977629934E+02  0.46142318680E+02  0.10000008382E+02 0.  0.
        -12    1    1    2    0    0 -0.41378204221E+02 -0.53588900762E+01 -0.16977629934E+02  0.45045681320E+02  0.00000000000E+00 0.  1.
         11    1    3    3    0    0  0.74354723240E+01  0.71680650192E+00  0.85930636605E+00  0.75192066027E+01  0.51100000000E-03 0. -1.
        -11    1    3    3    0    0  0.24378572256E+02 -0.19323595253E+00  0.10973001981E+02  0.26734975184E+02  0.51100000000E-03 0.  1.
        -12    1    3    3    0    0  0.95641596412E+01  0.48353195268E+01  0.51453215866E+01  0.11888136893E+02  0.00000000000E+00 0.  1.
</event>
<event>
 7    1  0.3846293E-008  0.4614232E+02  0.7816164E-02  0.1320468E+00
        -11   -1    0    0    0    0  0.00000000000E+00  0.00000000000E+00  0.45593999997E+02  0.45594000000E+02  0.51100000000E-03 0. -1.
         11   -1    0    0    0    0 -0.00000000000E+00 -0.00000000000E+00 -0.45593999997E+02  0.45594000000E+02  0.51100000000E-03 0.  1.
    9900012    2    1    2    0    0 -0.32076447957E+02 -0.17419329069E+01  0.31578160986E+02  0.46142322127E+02  0.10000039812E+02 0.  0.
        -12    1    1    2    0    0  0.32076447957E+02  0.17419329069E+01 -0.31578160986E+02  0.45045677873E+02  0.00000000000E+00 0.  1.
         11    1    3    3    0    0 -0.10947404227E+02 -0.17480622532E+01  0.81069663816E+01  0.13734055669E+02  0.51100000000E-03 0. -1.
        -11    1    3    3    0    0 -0.17627945195E+02  0.27993631083E+01  0.18207334490E+02  0.25496821667E+02  0.51100000000E-03 0.  1.
        -12    1    3    3    0    0 -0.35010985354E+01 -0.27932337620E+01  0.52638601135E+01  0.69114447909E+01  0.00000000000E+00 0.  1.
</event>
<event>
 7    1  0.3846293E-008  0.4614232E+02  0.7816164E-02  0.1320468E+00
        -11   -1    0    0    0    0  0.00000000000E+00  0.00000000000E+00  0.45593999997E+02  0.45594000000E+02  0.51100000000E-03 0. -1.
         11   -1    0    0    0    0 -0.00000000000E+00 -0.00000000000E+00 -0.45593999997E+02  0.45594000000E+02  0.51100000000E-03 0.  1.
    9900012    2    1    2    0    0  0.35717411128E+02  0.13935396875E+02  0.23647087295E+02  0.46142317840E+02  0.10000000719E+02 0.  0.
        -12    1    1    2    0    0 -0.35717411128E+02 -0.13935396875E+02 -0.23647087295E+02  0.45045682160E+02  0.00000000000E+00 0.  1.
         11    1    3    3    0    0  0.27916400601E+02  0.12306614193E+02  0.19638431615E+02  0.36282863338E+02  0.51100000000E-03 0. -1.
        -11    1    3    3    0    0  0.42118163752E+01  0.10546686634E+01  0.44267923439E+01  0.62006623747E+01  0.51100000000E-03 0.  1.
        -12    1    3    3    0    0  0.35891941517E+01  0.57411401824E+00 -0.41813666399E+00  0.36587921278E+01  0.00000000000E+00 0.  1.
</event>
<event>
 7    1  0.3846293E-008  0.4614232E+02  0.7816164E-02  0.1320468E+00
        -11   -1    0    0    0    0  0.00000000000E+00  0.00000000000E+00  0.45593999997E+02  0.45594000000E+02  0.51100000000E-03 0.  1.
         11   -1    0    0    0    0 -0.00000000000E+00 -0.00000000000E+00 -0.45593999997E+02  0.45594000000E+02  0.51100000000E-03 0. -1.
    9900012    2    1    2    0    0  0.43508131060E+02  0.24281264748E+01 -0.11413163614E+02  0.46142316852E+02  0.99999917144E+01 0.  0.
        -12    1    1    2    0    0 -0.43508131060E+02 -0.24281264748E+01  0.11413163614E+02  0.45045683148E+02  0.00000000000E+00 0.  1.
         11    1    3    3    0    0  0.17926458770E+02 -0.28271958363E+00 -0.34639750256E+01  0.18260256779E+02  0.51100000000E-03 0. -1.
        -11    1    3    3    0    0  0.87801474183E-01  0.33534287858E+00  0.76143401105E+00  0.83662773047E+00  0.51100000000E-03 0.  1.
         12    1    3    3    0    0  0.25493870816E+02  0.23755031799E+01 -0.87106225993E+01  0.27045432343E+02  0.00000000000E+00 0. -1.
</event>
<event>
 7    1  0.3846293E-008  0.4614232E+02  0.7816164E-02  0.1320468E+00
        -11   -1    0    0    0    0  0.00000000000E+00  0.00000000000E+00  0.45593999997E+02  0.45594000000E+02  0.51100000000E-03 0.  1.
         11   -1    0    0    0    0 -0.00000000000E+00 -0.00000000000E+00 -0.45593999997E+02  0.45594000000E+02  0.51100000000E-03 0. -1.
    9900012    2    1    2    0    0  0.85931076583E+01  0.43229006316E+02 -0.93018767055E+01  0.46142318781E+02  0.10000009297E+02 0.  0.
        -12    1    1    2    0    0 -0.85931076583E+01 -0.43229006316E+02  0.93018767055E+01  0.45045681219E+02  0.00000000000E+00 0.  1.
         11    1    3    3    0    0  0.30615886386E+00  0.44072517834E+01 -0.35371534645E+00  0.44320104174E+01  0.51100000000E-03 0. -1.
        -11    1    3    3    0    0  0.50235307416E+01  0.28710774583E+02 -0.24355435555E+01  0.29248526646E+02  0.51100000000E-03 0.  1.
         12    1    3    3    0    0  0.32634180528E+01  0.10110979949E+02 -0.65126178035E+01  0.12461781717E+02  0.00000000000E+00 0. -1.
</event>
<event>
 7    1  0.3846293E-008  0.4614232E+02  0.7816164E-02  0.1320468E+00
        -11   -1    0    0    0    0  0.00000000000E+00  0.00000000000E+00  0.45593999997E+02  0.45594000000E+02  0.51100000000E-03 0.  1.
         11   -1    0    0    0    0 -0.00000000000E+00 -0.00000000000E+00 -0.45593999997E+02  0.45594000000E+02  0.51100000000E-03 0. -1.
    9900012    2    1    2    0    0  0.15379501959E+02  0.14999970767E+02 -0.39592743938E+02  0.46142316787E+02  0.99999911196E+01 0.  0.
        -12    1    1    2    0    0 -0.15379501959E+02 -0.14999970767E+02  0.39592743938E+02  0.45045683213E+02  0.00000000000E+00 0.  1.
         11    1    3    3    0    0  0.43973866705E+01  0.45939496535E-01 -0.52815123729E+01  0.68726627427E+01  0.51100000000E-03 0. -1.
        -11    1    3    3    0    0  0.23598806870E+01  0.21679084211E+01 -0.31112726677E+01  0.44664170935E+01  0.51100000000E-03 0.  1.
         12    1    3    3    0    0  0.86222346015E+01  0.12786122850E+02 -0.31199958898E+02  0.34803236951E+02  0.00000000000E+00 0. -1.
</event>
<event>
 7    1  0.3846293E-008  0.4614232E+02  0.7816164E-02  0.1320468E+00
        -11   -1    0    0    0    0  0.00000000000E+00  0.00000000000E+00  0.45593999997E+02  0.45594000000E+02  0.51100000000E-03 0.  1.
         11   -1    0    0    0    0 -0.00000000000E+00 -0.00000000000E+00 -0.45593999997E+02  0.45594000000E+02  0.51100000000E-03 0. -1.
    9900012    2    1    2    0    0  0.20311096454E+02  0.26462675462E+02 -0.30270442425E+02  0.46142317450E+02  0.99999971601E+01 0.  0.
        -12    1    1    2    0    0 -0.20311096454E+02 -0.26462675462E+02  0.30270442425E+02  0.45045682550E+02  0.00000000000E+00 0.  1.
         11    1    3    3    0    0  0.86697035806E+00  0.63691170071E+01 -0.52931792498E+01  0.83267662321E+01  0.51100000000E-03 0. -1.
        -11    1    3    3    0    0  0.60919158592E+01  0.40019876111E+01 -0.46015692937E+01  0.86198482528E+01  0.51100000000E-03 0.  1.
         12    1    3    3    0    0  0.13352210237E+02  0.16091570844E+02 -0.20375693882E+02  0.29195702965E+02  0.00000000000E+00 0. -1.
</event>
<event>
 7    1  0.3846293E-008  0.4614232E+02  0.7816164E-02  0.1320468E+00
        -11   -1    0    0    0    0  0.00000000000E+00  0.00000000000E+00  0.45593999997E+02  0.45594000000E+02  0.51100000000E-03 0. -1.
         11   -1    0    0    0    0 -0.00000000000E+00 -0.00000000000E+00 -0.45593999997E+02  0.45594000000E+02  0.51100000000E-03 0.  1.
    9900012    2    1    2    0    0 -0.29651418769E+02 -0.29845964527E+02  0.16097367551E+02  0.46142317902E+02  0.10000001286E+02 0.  0.
        -12    1    1    2    0    0  0.29651418769E+02  0.29845964527E+02 -0.16097367551E+02  0.45045682098E+02  0.00000000000E+00 0.  1.
         11    1    3    3    0    0 -0.14159836417E+01  0.93391001635E-01  0.22565490503E+00  0.14368896792E+01  0.51100000000E-03 0. -1.
        -11    1    3    3    0    0 -0.13796516631E+01 -0.57421376049E+00 -0.63529257105E+00  0.16238094303E+01  0.51100000000E-03 0.  1.
         12    1    3    3    0    0 -0.26855783464E+02 -0.29365141768E+02  0.16507005217E+02  0.43081618793E+02  0.00000000000E+00 0. -1.
</event>
<event>
 7    1  0.3846293E-008  0.4614232E+02  0.7816164E-02  0.1320468E+00
        -11   -1    0    0    0    0  0.00000000000E+00  0.00000000000E+00  0.45593999997E+02  0.45594000000E+02  0.51100000000E-03 0. -1.
         11   -1    0    0    0    0 -0.00000000000E+00 -0.00000000000E+00 -0.45593999997E+02  0.45594000000E+02  0.51100000000E-03 0.  1.
    9900012    2    1    2    0    0 -0.22626601015E+02  0.36658920155E+02 -0.13163357779E+02  0.46142317761E+02  0.99999999959E+01 0.  0.
        -12    1    1    2    0    0  0.22626601015E+02 -0.36658920155E+02  0.13163357779E+02  0.45045682239E+02  0.00000000000E+00 0.  1.
         11    1    3    3    0    0 -0.47315497771E+01  0.31503153587E+01 -0.41618340650E+00  0.56995841113E+01  0.51100000000E-03 0. -1.
        -11    1    3    3    0    0 -0.27652776702E+01  0.69388922691E+01 -0.47027722091E+01  0.88267238105E+01  0.51100000000E-03 0.  1.
        -12    1    3    3    0    0 -0.15129773568E+02  0.26569712527E+02 -0.80444021631E+01  0.31616009839E+02  0.00000000000E+00 0.  1.
</event>
<event>
 7    1  0.3846293E-008  0.4614232E+02  0.7816164E-02  0.1320468E+00
        -11   -1    0    0    0    0  0.00000000000E+00  0.00000000000E+00  0.45593999997E+02  0.45594000000E+02  0.51100000000E-03 0.  1.
         11   -1    0    0    0    0 -0.00000000000E+00 -0.00000000000E+00 -0.45593999997E+02  0.45594000000E+02  0.51100000000E-03 0. -1.
    9900012    2    1    2    0    0  0.13762537447E+02  0.13281504926E+02 -0.40783669009E+02  0.46142317988E+02  0.10000002071E+02 0.  0.
        -12    1    1    2    0    0 -0.13762537447E+02 -0.13281504926E+02  0.40783669009E+02  0.45045682012E+02  0.00000000000E+00 0.  1.
         11    1    3    3    0    0  0.74721602511E+01  0.25255200571E+01 -0.12260524811E+02  0.14578473832E+02  0.51100000000E-03 0. -1.
        -11    1    3    3    0    0  0.20431353615E+01  0.84143541079E+01 -0.17754929280E+02  0.19753816623E+02  0.51100000000E-03 0.  1.
        -12    1    3    3    0    0  0.42472418340E+01  0.23416307610E+01 -0.10768214918E+02  0.11810027533E+02  0.00000000000E+00 0.  1.
</event>
<event>
 7    1  0.3846293E-008  0.4614232E+02  0.7816164E-02  0.1320468E+00
        -11   -1    0    0    0    0  0.00000000000E+00  0.00000000000E+00  0.45593999997E+02  0.45594000000E+02  0.51100000000E-03 0.  1.
         11   -1    0    0    0    0 -0.00000000000E+00 -0.00000000000E+00 -0.45593999997E+02  0.45594000000E+02  0.51100000000E-03 0. -1.
    9900012    2    1    2    0    0 -0.72776934870E+01 -0.24940429412E+02 -0.36798419877E+02  0.46142317108E+02  0.99999940432E+01 0.  0.
        -12    1    1    2    0    0  0.72776934870E+01  0.24940429412E+02  0.36798419877E+02  0.45045682892E+02  0.00000000000E+00 0.  1.
         11    1    3    3    0    0 -0.30626089018E+01 -0.22139957821E+02 -0.29099081590E+02  0.36692149777E+02  0.51100000000E-03 0. -1.
        -11    1    3    3    0    0 -0.10685773520E+01 -0.96401494742E+00 -0.79643264330E+00  0.16448366462E+01  0.51100000000E-03 0.  1.
         12    1    3    3    0    0 -0.31465072331E+01 -0.18364566441E+01 -0.69029056440E+01  0.78053306851E+01  0.00000000000E+00 0. -1.
</event>
<event>
 7    1  0.3846293E-008  0.4614232E+02  0.7816164E-02  0.1320468E+00
        -11   -1    0    0    0    0  0.00000000000E+00  0.00000000000E+00  0.45593999997E+02  0.45594000000E+02  0.51100000000E-03 0.  1.
         11   -1    0    0    0    0 -0.00000000000E+00 -0.00000000000E+00 -0.45593999997E+02  0.45594000000E+02  0.51100000000E-03 0. -1.
    9900012    2    1    2    0    0 -0.88546710013E+01  0.65072011734E+01 -0.43684833093E+02  0.46142317543E+02  0.99999980150E+01 0.  0.
        -12    1    1    2    0    0  0.88546710013E+01 -0.65072011734E+01  0.43684833093E+02  0.45045682457E+02  0.00000000000E+00 0.  1.
         11    1    3    3    0    0 -0.10033238662E+02  0.34320908845E+01 -0.30899301439E+02  0.32668210168E+02  0.51100000000E-03 0. -1.
        -11    1    3    3    0    0 -0.16144919655E+00  0.84867593654E+00 -0.78398083736E+01  0.78872626610E+01  0.51100000000E-03 0.  1.
         12    1    3    3    0    0  0.13400168572E+01  0.22264343523E+01 -0.49457232800E+01  0.55868447146E+01  0.00000000000E+00 0. -1.
</event>
<event>
 7    1  0.3846293E-008  0.4614232E+02  0.7816164E-02  0.1320468E+00
        -11   -1    0    0    0    0  0.00000000000E+00  0.00000000000E+00  0.45593999997E+02  0.45594000000E+02  0.51100000000E-03 0.  1.
         11   -1    0    0    0    0 -0.00000000000E+00 -0.00000000000E+00 -0.45593999997E+02  0.45594000000E+02  0.51100000000E-03 0. -1.
    9900012    2    1    2    0    0 -0.11971775860E+02  0.33166244711E+02 -0.28031950337E+02  0.46142318241E+02  0.10000004372E+02 0.  0.
        -12    1    1    2    0    0  0.11971775860E+02 -0.33166244711E+02  0.28031950337E+02  0.45045681759E+02  0.00000000000E+00 0.  1.
         11    1    3    3    0    0 -0.45123593699E+01  0.11866273523E+02 -0.13261758191E+02  0.18358759897E+02  0.51100000000E-03 0. -1.
        -11    1    3    3    0    0 -0.21447551340E+01  0.14026569081E+01 -0.34026448786E+01  0.42597433512E+01  0.51100000000E-03 0.  1.
        -12    1    3    3    0    0 -0.53146613558E+01  0.19897314280E+02 -0.11367547268E+02  0.23523814992E+02  0.00000000000E+00 0.  1.
</event>
<event>
 7    1  0.3846293E-008  0.4614232E+02  0.7816164E-02  0.1320468E+00
        -11   -1    0    0    0    0  0.00000000000E+00  0.00000000000E+00  0.45593999997E+02  0.45594000000E+02  0.51100000000E-03 0.  1.
         11   -1    0    0    0    0 -0.00000000000E+00 -0.00000000000E+00 -0.45593999997E+02  0.45594000000E+02  0.51100000000E-03 0. -1.
    9900012    2    1    2    0    0  0.36668195287E+02 -0.25511164147E+02 -0.58084130105E+01  0.46142315374E+02  0.99999782301E+01 0.  0.
        -12    1    1    2    0    0 -0.36668195287E+02  0.25511164147E+02  0.58084130105E+01  0.45045684626E+02  0.00000000000E+00 0.  1.
         11    1    3    3    0    0  0.22292901183E+02 -0.12893116419E+02 -0.62770792815E+01  0.26506746664E+02  0.51100000000E-03 0. -1.
        -11    1    3    3    0    0  0.24472599439E+01 -0.26388104185E+01 -0.16149202774E+01  0.39446634104E+01  0.51100000000E-03 0.  1.
         12    1    3    3    0    0  0.11928034160E+02 -0.99792373091E+01  0.20835865485E+01  0.15690905299E+02  0.00000000000E+00 0. -1.
</event>
<event>
 7    1  0.3846293E-008  0.4614232E+02  0.7816164E-02  0.1320468E+00
        -11   -1    0    0    0    0  0.00000000000E+00  0.00000000000E+00  0.45593999997E+02  0.45594000000E+02  0.51100000000E-03 0.  1.
         11   -1    0    0    0    0 -0.00000000000E+00 -0.00000000000E+00 -0.45593999997E+02  0.45594000000E+02  0.51100000000E-03 0. -1.
    9900012    2    1    2    0    0 -0.10329532195E+02 -0.23817574739E+02 -0.36812189184E+02  0.46142319027E+02  0.10000011543E+02 0.  0.
        -12    1    1    2    0    0  0.10329532195E+02  0.23817574739E+02  0.36812189184E+02  0.45045680973E+02  0.00000000000E+00 0.  1.
         11    1    3    3    0    0 -0.18521444952E+01 -0.90575968330E+01 -0.79143439401E+01  0.12169935903E+02  0.51100000000E-03 0. -1.
        -11    1    3    3    0    0 -0.77711909125E+01 -0.95075266336E+01 -0.17236085947E+02  0.21162871495E+02  0.51100000000E-03 0.  1.
         12    1    3    3    0    0 -0.70619678684E+00 -0.52524512722E+01 -0.11661759297E+02  0.12809511629E+02  0.00000000000E+00 0. -1.
</event>
<event>
 7    1  0.3846293E-008  0.4614232E+02  0.7816164E-02  0.1320468E+00
        -11   -1    0    0    0    0  0.00000000000E+00  0.00000000000E+00  0.45593999997E+02  0.45594000000E+02  0.51100000000E-03 0. -1.
         11   -1    0    0    0    0 -0.00000000000E+00 -0.00000000000E+00 -0.45593999997E+02  0.45594000000E+02  0.51100000000E-03 0.  1.
    9900012    2    1    2    0    0  0.44013674677E+02 -0.66507236269E+01  0.69049109564E+01  0.46142317869E+02  0.10000000984E+02 0.  0.
        -12    1    1    2    0    0 -0.44013674677E+02  0.66507236269E+01 -0.69049109564E+01  0.45045682131E+02  0.00000000000E+00 0.  1.
         11    1    3    3    0    0  0.36201732060E+02 -0.77332298324E+01  0.64215788211E+01  0.37571331126E+02  0.51100000000E-03 0. -1.
        -11    1    3    3    0    0  0.73744242115E+01  0.81521192172E+00  0.13718926815E+01  0.75451171441E+01  0.51100000000E-03 0.  1.
         12    1    3    3    0    0  0.43751840537E+00  0.26729428372E+00 -0.88856054615E+00  0.10258695986E+01  0.00000000000E+00 0. -1.
</event>
<event>
 7    1  0.3846293E-008  0.4614232E+02  0.7816164E-02  0.1320468E+00
        -11   -1    0    0    0    0  0.00000000000E+00  0.00000000000E+00  0.45593999997E+02  0.45594000000E+02  0.51100000000E-03 0.  1.
         11   -1    0    0    0    0 -0.00000000000E+00 -0.00000000000E+00 -0.45593999997E+02  0.45594000000E+02  0.51100000000E-03 0. -1.
    9900012    2    1    2    0    0 -0.58218778323E+01 -0.13692625437E+02 -0.42517421035E+02  0.46142319360E+02  0.10000014578E+02 0.  0.
        -12    1    1    2    0    0  0.58218778323E+01  0.13692625437E+02  0.42517421035E+02  0.45045680640E+02  0.00000000000E+00 0.  1.
         11    1    3    3    0    0 -0.36604317260E+01 -0.30080275265E+01 -0.14643640694E+02  0.15391010462E+02  0.51100000000E-03 0. -1.
        -11    1    3    3    0    0 -0.44750495165E+01 -0.90413658844E+01 -0.20431869978E+02  0.22786699548E+02  0.51100000000E-03 0.  1.
        -12    1    3    3    0    0  0.23136034102E+01 -0.16432320261E+01 -0.74419103641E+01  0.79646093500E+01  0.00000000000E+00 0.  1.
</event>
<event>
 7    1  0.3846293E-008  0.4614232E+02  0.7816164E-02  0.1320468E+00
        -11   -1    0    0    0    0  0.00000000000E+00  0.00000000000E+00  0.45593999997E+02  0.45594000000E+02  0.51100000000E-03 0. -1.
         11   -1    0    0    0    0 -0.00000000000E+00 -0.00000000000E+00 -0.45593999997E+02  0.45594000000E+02  0.51100000000E-03 0.  1.
    9900012    2    1    2    0    0 -0.45103641996E+00  0.43719250312E+02  0.10841465901E+02  0.46142315805E+02  0.99999821664E+01 0.  0.
        -12    1    1    2    0    0  0.45103641996E+00 -0.43719250312E+02 -0.10841465901E+02  0.45045684195E+02  0.00000000000E+00 0.  1.
         11    1    3    3    0    0 -0.17618507042E+01  0.13616618567E+02  0.58344477818E+01  0.14918351125E+02  0.51100000000E-03 0. -1.
        -11    1    3    3    0    0 -0.17906439321E+01  0.26987764733E+01  0.64334737473E+00  0.33020745374E+01  0.51100000000E-03 0.  1.
         12    1    3    3    0    0  0.31014582163E+01  0.27403855271E+02  0.43636707442E+01  0.27921890143E+02  0.00000000000E+00 0. -1.
</event>
<event>
 7    1  0.3846293E-008  0.4614232E+02  0.7816164E-02  0.1320468E+00
        -11   -1    0    0    0    0  0.00000000000E+00  0.00000000000E+00  0.45593999997E+02  0.45594000000E+02  0.51100000000E-03 0.  1.
         11   -1    0    0    0    0 -0.00000000000E+00 -0.00000000000E+00 -0.45593999997E+02  0.45594000000E+02  0.51100000000E-03 0. -1.
    9900012    2    1    2    0    0  0.10735699904E+02  0.42997831791E+02 -0.80650312399E+01  0.46142317409E+02  0.99999967885E+01 0.  0.
        -12    1    1    2    0    0 -0.10735699904E+02 -0.42997831791E+02  0.80650312399E+01  0.45045682591E+02  0.00000000000E+00 0.  1.
         11    1    3    3    0    0  0.91485043951E+00  0.14607593747E+02 -0.22518414086E+01  0.14808427884E+02  0.51100000000E-03 0. -1.
        -11    1    3    3    0    0  0.25303331787E+01  0.93620320078E+01 -0.50700479282E+01  0.10943290893E+02  0.51100000000E-03 0.  1.
        -12    1    3    3    0    0  0.72905162859E+01  0.19028206036E+02 -0.74314190311E+00  0.20390598632E+02  0.00000000000E+00 0.  1.
</event>
<event>
 7    1  0.3846293E-008  0.4614232E+02  0.7816164E-02  0.1320468E+00
        -11   -1    0    0    0    0  0.00000000000E+00  0.00000000000E+00  0.45593999997E+02  0.45594000000E+02  0.51100000000E-03 0. -1.
         11   -1    0    0    0    0 -0.00000000000E+00 -0.00000000000E+00 -0.45593999997E+02  0.45594000000E+02  0.51100000000E-03 0.  1.
    9900012    2    1    2    0    0 -0.95656253709E+01  0.43924600162E+02  0.28708650903E+01  0.46142317027E+02  0.99999933057E+01 0.  0.
        -12    1    1    2    0    0  0.95656253709E+01 -0.43924600162E+02 -0.28708650903E+01  0.45045682973E+02  0.00000000000E+00 0.  1.
         11    1    3    3    0    0  0.29531072100E+00  0.73926746386E+01  0.18015806385E+01  0.76147580258E+01  0.51100000000E-03 0. -1.
        -11    1    3    3    0    0 -0.74050080160E+01  0.16732686194E+02  0.27603659478E+01  0.18505041243E+02  0.51100000000E-03 0.  1.
         12    1    3    3    0    0 -0.24559280759E+01  0.19799239330E+02 -0.16910814960E+01  0.20022517758E+02  0.00000000000E+00 0. -1.
</event>
<event>
 7    1  0.3846293E-008  0.4614232E+02  0.7816164E-02  0.1320468E+00
        -11   -1    0    0    0    0  0.00000000000E+00  0.00000000000E+00  0.45593999997E+02  0.45594000000E+02  0.51100000000E-03 0.  1.
         11   -1    0    0    0    0 -0.00000000000E+00 -0.00000000000E+00 -0.45593999997E+02  0.45594000000E+02  0.51100000000E-03 0. -1.
    9900012    2    1    2    0    0  0.14379862144E+02  0.36087740472E+02 -0.22803683888E+02  0.46142318225E+02  0.10000004233E+02 0.  0.
        -12    1    1    2    0    0 -0.14379862144E+02 -0.36087740472E+02  0.22803683888E+02  0.45045681775E+02  0.00000000000E+00 0.  1.
         11    1    3    3    0    0  0.75247125441E+00  0.12147767538E+02 -0.60369265589E+01  0.13585983648E+02  0.51100000000E-03 0. -1.
        -11    1    3    3    0    0  0.64496899702E+01  0.13536606174E+02 -0.11347329438E+02  0.18804257312E+02  0.51100000000E-03 0.  1.
        -12    1    3    3    0    0  0.71777009194E+01  0.10403366761E+02 -0.54194278910E+01  0.13752077266E+02  0.00000000000E+00 0.  1.
</event>
<event>
 7    1  0.3846293E-008  0.4614232E+02  0.7816164E-02  0.1320468E+00
        -11   -1    0    0    0    0  0.00000000000E+00  0.00000000000E+00  0.45593999997E+02  0.45594000000E+02  0.51100000000E-03 0.  1.
         11   -1    0    0    0    0 -0.00000000000E+00 -0.00000000000E+00 -0.45593999997E+02  0.45594000000E+02  0.51100000000E-03 0. -1.
    9900012    2    1    2    0    0  0.12635695121E+02  0.28691038024E+02 -0.32346203300E+02  0.46142319608E+02  0.10000016839E+02 0.  0.
        -12    1    1    2    0    0 -0.12635695121E+02 -0.28691038024E+02  0.32346203300E+02  0.45045680392E+02  0.00000000000E+00 0.  1.
         11    1    3    3    0    0  0.51562201980E+01  0.13919530790E+02 -0.12436739370E+02  0.19365237684E+02  0.51100000000E-03 0. -1.
        -11    1    3    3    0    0  0.13046487898E+01  0.35872954431E+01 -0.96973499639E+01  0.10421583068E+02  0.51100000000E-03 0.  1.
        -12    1    3    3    0    0  0.61748261328E+01  0.11184211791E+02 -0.10212113966E+02  0.16355498855E+02  0.00000000000E+00 0.  1.
</event>
<event>
 7    1  0.3846293E-008  0.4614232E+02  0.7816164E-02  0.1320468E+00
        -11   -1    0    0    0    0  0.00000000000E+00  0.00000000000E+00  0.45593999997E+02  0.45594000000E+02  0.51100000000E-03 0.  1.
         11   -1    0    0    0    0 -0.00000000000E+00 -0.00000000000E+00 -0.45593999997E+02  0.45594000000E+02  0.51100000000E-03 0. -1.
    9900012    2    1    2    0    0 -0.26829062750E+02 -0.32117432700E+02 -0.16666893460E+02  0.46142318421E+02  0.10000006014E+02 0.  0.
        -12    1    1    2    0    0  0.26829062750E+02  0.32117432700E+02  0.16666893460E+02  0.45045681579E+02  0.00000000000E+00 0.  1.
         11    1    3    3    0    0 -0.93712891539E+01 -0.62626030136E+01 -0.43262073804E+01  0.12072999937E+02  0.51100000000E-03 0. -1.
        -11    1    3    3    0    0  0.24305615214E+00 -0.13350741082E+00 -0.68887250656E+00  0.74259417803E+00  0.51100000000E-03 0.  1.
         12    1    3    3    0    0 -0.17700829749E+02 -0.25721322276E+02 -0.11651813573E+02  0.33326724306E+02  0.00000000000E+00 0. -1.
</event>
<event>
 7    1  0.3846293E-008  0.4614231E+02  0.7816164E-02  0.1320468E+00
        -11   -1    0    0    0    0  0.00000000000E+00  0.00000000000E+00  0.45593999997E+02  0.45594000000E+02  0.51100000000E-03 0.  1.
         11   -1    0    0    0    0 -0.00000000000E+00 -0.00000000000E+00 -0.45593999997E+02  0.45594000000E+02  0.51100000000E-03 0. -1.
    9900012    2    1    2    0    0 -0.20038900387E+02  0.16818447793E+01 -0.40307910530E+02  0.46142314503E+02  0.99999702876E+01 0.  0.
        -12    1    1    2    0    0  0.20038900387E+02 -0.16818447793E+01  0.40307910530E+02  0.45045685497E+02  0.00000000000E+00 0.  1.
         11    1    3    3    0    0 -0.89681211940E+01 -0.29911705044E+01 -0.14586115473E+02  0.17381860188E+02  0.51100000000E-03 0. -1.
        -11    1    3    3    0    0 -0.93946793008E+01  0.46745948860E+01 -0.17795962039E+02  0.20659334492E+02  0.51100000000E-03 0.  1.
        -12    1    3    3    0    0 -0.16760998925E+01 -0.15796023006E-02 -0.79258330180E+01  0.81011198222E+01  0.00000000000E+00 0.  1.
</event>
<event>
 7    1  0.3846293E-008  0.4614232E+02  0.7816164E-02  0.1320468E+00
        -11   -1    0    0    0    0  0.00000000000E+00  0.00000000000E+00  0.45593999997E+02  0.45594000000E+02  0.51100000000E-03 0. -1.
         11   -1    0    0    0    0 -0.00000000000E+00 -0.00000000000E+00 -0.45593999997E+02  0.45594000000E+02  0.51100000000E-03 0.  1.
    9900012    2    1    2    0    0  0.14517280100E+02  0.93046889388E+00  0.42632102056E+02  0.46142319635E+02  0.10000017088E+02 0.  0.
        -12    1    1    2    0    0 -0.14517280100E+02 -0.93046889388E+00 -0.42632102056E+02  0.45045680365E+02  0.00000000000E+00 0.  1.
         11    1    3    3    0    0  0.34006920815E+01  0.32317891896E+01  0.11838479895E+02  0.12734157784E+02  0.51100000000E-03 0. -1.
        -11    1    3    3    0    0  0.11686402429E+02 -0.12530285117E+01  0.27567354333E+02  0.29968335079E+02  0.51100000000E-03 0.  1.
        -12    1    3    3    0    0 -0.56981441049E+00 -0.10482917840E+01  0.32262678276E+01  0.34398267721E+01  0.00000000000E+00 0.  1.
</event>
<event>
 7    1  0.3846293E-008  0.4614232E+02  0.7816164E-02  0.1320468E+00
        -11   -1    0    0    0    0  0.00000000000E+00  0.00000000000E+00  0.45593999997E+02  0.45594000000E+02  0.51100000000E-03 0. -1.
         11   -1    0    0    0    0 -0.00000000000E+00 -0.00000000000E+00 -0.45593999997E+02  0.45594000000E+02  0.51100000000E-03 0.  1.
    9900012    2    1    2    0    0  0.25525089684E+02  0.35304097245E+02  0.11454433752E+02  0.46142317208E+02  0.99999949530E+01 0.  0.
        -12    1    1    2    0    0 -0.25525089684E+02 -0.35304097245E+02 -0.11454433752E+02  0.45045682792E+02  0.00000000000E+00 0.  1.
         11    1    3    3    0    0  0.17495109945E+02  0.27536811911E+02  0.97377831486E+01  0.34046722355E+02  0.51100000000E-03 0. -1.
        -11    1    3    3    0    0  0.63862448718E+01  0.76022375643E+01  0.32241986160E+00  0.99338861668E+01  0.51100000000E-03 0.  1.
         12    1    3    3    0    0  0.16437348669E+01  0.16504776933E+00  0.13942307421E+01  0.21617086856E+01  0.00000000000E+00 0. -1.
</event>
<event>
 7    1  0.3846293E-008  0.4614232E+02  0.7816164E-02  0.1320468E+00
        -11   -1    0    0    0    0  0.00000000000E+00  0.00000000000E+00  0.45593999997E+02  0.45594000000E+02  0.51100000000E-03 0.  1.
         11   -1    0    0    0    0 -0.00000000000E+00 -0.00000000000E+00 -0.45593999997E+02  0.45594000000E+02  0.51100000000E-03 0. -1.
    9900012    2    1    2    0    0 -0.22335292193E+02  0.32041210016E+01 -0.38986946349E+02  0.46142315919E+02  0.99999832031E+01 0.  0.
        -12    1    1    2    0    0  0.22335292193E+02 -0.32041210016E+01  0.38986946349E+02  0.45045684081E+02  0.00000000000E+00 0.  1.
         11    1    3    3    0    0 -0.85785706972E+01 -0.19830857703E+01 -0.14155967849E+02  0.16670810729E+02  0.51100000000E-03 0. -1.
        -11    1    3    3    0    0 -0.31017756743E+01 -0.20250165990E+00 -0.97635556623E+01  0.10246415895E+02  0.51100000000E-03 0.  1.
         12    1    3    3    0    0 -0.10654945821E+02  0.53897084318E+01 -0.15067422838E+02  0.19225089295E+02  0.00000000000E+00 0. -1.
</event>
<event>
 7    1  0.3846293E-008  0.4614232E+02  0.7816164E-02  0.1320468E+00
        -11   -1    0    0    0    0  0.00000000000E+00  0.00000000000E+00  0.45593999997E+02  0.45594000000E+02  0.51100000000E-03 0.  1.
         11   -1    0    0    0    0 -0.00000000000E+00 -0.00000000000E+00 -0.45593999997E+02  0.45594000000E+02  0.51100000000E-03 0. -1.
    9900012    2    1    2    0    0  0.40339153942E+02 -0.38125760264E+01 -0.19680713096E+02  0.46142317136E+02  0.99999943039E+01 0.  0.
        -12    1    1    2    0    0 -0.40339153942E+02  0.38125760264E+01  0.19680713096E+02  0.45045682864E+02  0.00000000000E+00 0.  1.
         11    1    3    3    0    0  0.28613980039E+02 -0.14639018025E+01 -0.14232997722E+02  0.31991890950E+02  0.51100000000E-03 0. -1.
        -11    1    3    3    0    0  0.64278440131E+01 -0.12549191048E+01 -0.57746738166E+01  0.87314866183E+01  0.51100000000E-03 0.  1.
        -12    1    3    3    0    0  0.52973298892E+01 -0.10937551191E+01  0.32695844245E+00  0.54189395677E+01  0.00000000000E+00 0.  1.
</event>
<event>
 7    1  0.3846293E-008  0.4614232E+02  0.7816164E-02  0.1320468E+00
        -11   -1    0    0    0    0  0.00000000000E+00  0.00000000000E+00  0.45593999997E+02  0.45594000000E+02  0.51100000000E-03 0. -1.
         11   -1    0    0    0    0 -0.00000000000E+00 -0.00000000000E+00 -0.45593999997E+02  0.45594000000E+02  0.51100000000E-03 0.  1.
    9900012    2    1    2    0    0  0.33688665063E+02 -0.22026948374E+02  0.20223762154E+02  0.46142321360E+02  0.10000032821E+02 0.  0.
        -12    1    1    2    0    0 -0.33688665063E+02  0.22026948374E+02 -0.20223762154E+02  0.45045678640E+02  0.00000000000E+00 0.  1.
         11    1    3    3    0    0  0.14011624285E+02 -0.89893751681E+01  0.71129849890E+01  0.18103288009E+02  0.51100000000E-03 0. -1.
        -11    1    3    3    0    0  0.71554551059E+01 -0.51258935346E+01  0.91728436539E+01  0.12712843241E+02  0.51100000000E-03 0.  1.
        -12    1    3    3    0    0  0.12521585673E+02 -0.79116796711E+01  0.39379335116E+01  0.15326190111E+02  0.00000000000E+00 0.  1.
</event>
<event>
 7    1  0.3846293E-008  0.4614232E+02  0.7816164E-02  0.1320468E+00
        -11   -1    0    0    0    0  0.00000000000E+00  0.00000000000E+00  0.45593999997E+02  0.45594000000E+02  0.51100000000E-03 0.  1.
         11   -1    0    0    0    0 -0.00000000000E+00 -0.00000000000E+00 -0.45593999997E+02  0.45594000000E+02  0.51100000000E-03 0. -1.
    9900012    2    1    2    0    0 -0.12612819245E+02  0.30800840293E+01 -0.43134015709E+02  0.46142318319E+02  0.10000005084E+02 0.  0.
        -12    1    1    2    0    0  0.12612819245E+02 -0.30800840293E+01  0.43134015709E+02  0.45045681681E+02  0.00000000000E+00 0.  1.
         11    1    3    3    0    0  0.85438110057E+00  0.23578655915E+00 -0.22688051348E+01  0.24357831117E+01  0.51100000000E-03 0. -1.
        -11    1    3    3    0    0 -0.63896677974E+01 -0.22109544332E+01 -0.19493372404E+02  0.20632686253E+02  0.51100000000E-03 0.  1.
         12    1    3    3    0    0 -0.70775325481E+01  0.50552519033E+01 -0.21371838171E+02  0.23073848954E+02  0.00000000000E+00 0. -1.
</event>
<event>
 7    1  0.3846293E-008  0.4614232E+02  0.7816164E-02  0.1320468E+00
        -11   -1    0    0    0    0  0.00000000000E+00  0.00000000000E+00  0.45593999997E+02  0.45594000000E+02  0.51100000000E-03 0. -1.
         11   -1    0    0    0    0 -0.00000000000E+00 -0.00000000000E+00 -0.45593999997E+02  0.45594000000E+02  0.51100000000E-03 0.  1.
    9900012    2    1    2    0    0 -0.40424991104E+02 -0.96664198129E+01 -0.17363579400E+02  0.46142317994E+02  0.10000002128E+02 0.  0.
        -12    1    1    2    0    0  0.40424991104E+02  0.96664198129E+01  0.17363579400E+02  0.45045682006E+02  0.00000000000E+00 0.  1.
         11    1    3    3    0    0 -0.26475408084E+02 -0.76948581334E+01 -0.14108099861E+02  0.30970898548E+02  0.51100000000E-03 0. -1.
        -11    1    3    3    0    0 -0.62134688108E+01 -0.30883378948E+01 -0.83391073748E+00  0.69885930626E+01  0.51100000000E-03 0.  1.
         12    1    3    3    0    0 -0.77361142094E+01  0.11167762152E+01 -0.24215688018E+01  0.81828263844E+01  0.00000000000E+00 0. -1.
</event>
<event>
 7    1  0.3846293E-008  0.4614232E+02  0.7816164E-02  0.1320468E+00
        -11   -1    0    0    0    0  0.00000000000E+00  0.00000000000E+00  0.45593999997E+02  0.45594000000E+02  0.51100000000E-03 0.  1.
         11   -1    0    0    0    0 -0.00000000000E+00 -0.00000000000E+00 -0.45593999997E+02  0.45594000000E+02  0.51100000000E-03 0. -1.
    9900012    2    1    2    0    0  0.13303233980E+01 -0.15720118055E+02 -0.42192672816E+02  0.46142317506E+02  0.99999976724E+01 0.  0.
        -12    1    1    2    0    0 -0.13303233980E+01  0.15720118055E+02  0.42192672816E+02  0.45045682494E+02  0.00000000000E+00 0.  1.
         11    1    3    3    0    0 -0.16905064812E+01 -0.44192654620E+01 -0.57544441803E+01  0.74499226487E+01  0.51100000000E-03 0. -1.
        -11    1    3    3    0    0  0.35631232213E+01 -0.68632734473E+01 -0.15997851010E+02  0.17768838080E+02  0.51100000000E-03 0.  1.
        -12    1    3    3    0    0 -0.54229334206E+00 -0.44375791462E+01 -0.20440377626E+02  0.20923556778E+02  0.00000000000E+00 0.  1.
</event>
<event>
 7    1  0.3846293E-008  0.4614232E+02  0.7816164E-02  0.1320468E+00
        -11   -1    0    0    0    0  0.00000000000E+00  0.00000000000E+00  0.45593999997E+02  0.45594000000E+02  0.51100000000E-03 0.  1.
         11   -1    0    0    0    0 -0.00000000000E+00 -0.00000000000E+00 -0.45593999997E+02  0.45594000000E+02  0.51100000000E-03 0. -1.
    9900012    2    1    2    0    0 -0.27113306500E+01 -0.41894034671E+02 -0.16329481533E+02  0.46142318497E+02  0.10000006710E+02 0.  0.
        -12    1    1    2    0    0  0.27113306500E+01  0.41894034671E+02  0.16329481533E+02  0.45045681503E+02  0.00000000000E+00 0.  1.
         11    1    3    3    0    0 -0.46865808645E+01 -0.38068512116E+02 -0.13327406809E+02  0.40605362053E+02  0.51100000000E-03 0. -1.
        -11    1    3    3    0    0 -0.90875618052E-02 -0.18579089143E+01 -0.11853996082E+01  0.22038785379E+01  0.51100000000E-03 0.  1.
         12    1    3    3    0    0  0.19843377763E+01 -0.19676136408E+01 -0.18166751166E+01  0.33330779063E+01  0.00000000000E+00 0. -1.
</event>
<event>
 7    1  0.3846293E-008  0.4614232E+02  0.7816164E-02  0.1320468E+00
        -11   -1    0    0    0    0  0.00000000000E+00  0.00000000000E+00  0.45593999997E+02  0.45594000000E+02  0.51100000000E-03 0.  1.
         11   -1    0    0    0    0 -0.00000000000E+00 -0.00000000000E+00 -0.45593999997E+02  0.45594000000E+02  0.51100000000E-03 0. -1.
    9900012    2    1    2    0    0  0.11583342152E+01 -0.26821519960E+02 -0.36171508131E+02  0.46142315728E+02  0.99999814584E+01 0.  0.
        -12    1    1    2    0    0 -0.11583342152E+01  0.26821519960E+02  0.36171508131E+02  0.45045684272E+02  0.00000000000E+00 0.  1.
         11    1    3    3    0    0  0.80260502875E+00 -0.26228328241E+02 -0.32609846090E+02  0.41856557902E+02  0.51100000000E-03 0. -1.
        -11    1    3    3    0    0 -0.56372744014E-01 -0.62644167763E+00 -0.37704755827E+01  0.38225768066E+01  0.51100000000E-03 0.  1.
        -12    1    3    3    0    0  0.41210193042E+00  0.33249958919E-01  0.20881354210E+00  0.46318101881E+00  0.00000000000E+00 0.  1.
</event>
<event>
 7    1  0.3846293E-008  0.4614232E+02  0.7816164E-02  0.1320468E+00
        -11   -1    0    0    0    0  0.00000000000E+00  0.00000000000E+00  0.45593999997E+02  0.45594000000E+02  0.51100000000E-03 0. -1.
         11   -1    0    0    0    0 -0.00000000000E+00 -0.00000000000E+00 -0.45593999997E+02  0.45594000000E+02  0.51100000000E-03 0.  1.
    9900012    2    1    2    0    0 -0.34436359481E+02  0.16895644232E+02  0.23617531014E+02  0.46142318525E+02  0.10000006964E+02 0.  0.
        -12    1    1    2    0    0  0.34436359481E+02 -0.16895644232E+02 -0.23617531014E+02  0.45045681475E+02  0.00000000000E+00 0.  1.
         11    1    3    3    0    0 -0.82306268457E+01  0.68982484538E+01  0.90505726752E+01  0.14044284105E+02  0.51100000000E-03 0. -1.
        -11    1    3    3    0    0 -0.13254219967E+02  0.77112139901E+01  0.92785985049E+01  0.17922878079E+02  0.51100000000E-03 0.  1.
        -12    1    3    3    0    0 -0.12951512669E+02  0.22861817884E+01  0.52883598341E+01  0.14175156342E+02  0.00000000000E+00 0.  1.
</event>
<event>
 7    1  0.3846293E-008  0.4614232E+02  0.7816164E-02  0.1320468E+00
        -11   -1    0    0    0    0  0.00000000000E+00  0.00000000000E+00  0.45593999997E+02  0.45594000000E+02  0.51100000000E-03 0.  1.
         11   -1    0    0    0    0 -0.00000000000E+00 -0.00000000000E+00 -0.45593999997E+02  0.45594000000E+02  0.51100000000E-03 0. -1.
    9900012    2    1    2    0    0  0.12130288572E+02 -0.20457316985E+01 -0.43333411792E+02  0.46142317670E+02  0.99999991716E+01 0.  0.
        -12    1    1    2    0    0 -0.12130288572E+02  0.20457316985E+01  0.43333411792E+02  0.45045682330E+02  0.00000000000E+00 0.  1.
         11    1    3    3    0    0  0.73283128728E+01  0.43338203799E+00 -0.16410950051E+02  0.17978077522E+02  0.51100000000E-03 0. -1.
        -11    1    3    3    0    0  0.83724428582E-02  0.18088585501E+01 -0.49664920802E+01  0.52856487962E+01  0.51100000000E-03 0.  1.
         12    1    3    3    0    0  0.47936032559E+01 -0.42879722866E+01 -0.21955969661E+02  0.22878591352E+02  0.00000000000E+00 0. -1.
</event>
<event>
 7    1  0.3846293E-008  0.4614231E+02  0.7816164E-02  0.1320468E+00
        -11   -1    0    0    0    0  0.00000000000E+00  0.00000000000E+00  0.45593999997E+02  0.45594000000E+02  0.51100000000E-03 0. -1.
         11   -1    0    0    0    0 -0.00000000000E+00 -0.00000000000E+00 -0.45593999997E+02  0.45594000000E+02  0.51100000000E-03 0.  1.
    9900012    2    1    2    0    0 -0.26299539083E+02 -0.29795739254E+02  0.21205243715E+02  0.46142309921E+02  0.99999285089E+01 0.  0.
        -12    1    1    2    0    0  0.26299539083E+02  0.29795739254E+02 -0.21205243715E+02  0.45045690079E+02  0.00000000000E+00 0.  1.
         11    1    3    3    0    0 -0.28078062871E+01 -0.57218258708E+01  0.59608058110E+01  0.87266416003E+01  0.51100000000E-03 0. -1.
        -11    1    3    3    0    0 -0.15251783542E+01 -0.10224606457E+00  0.57842692581E-01  0.15296958221E+01  0.51100000000E-03 0.  1.
        -12    1    3    3    0    0 -0.21966554442E+02 -0.23971667318E+02  0.15186595211E+02  0.35885972499E+02  0.00000000000E+00 0.  1.
</event>
<event>
 7    1  0.3846293E-008  0.4614232E+02  0.7816164E-02  0.1320468E+00
        -11   -1    0    0    0    0  0.00000000000E+00  0.00000000000E+00  0.45593999997E+02  0.45594000000E+02  0.51100000000E-03 0.  1.
         11   -1    0    0    0    0 -0.00000000000E+00 -0.00000000000E+00 -0.45593999997E+02  0.45594000000E+02  0.51100000000E-03 0. -1.
    9900012    2    1    2    0    0  0.37948434260E+02 -0.12681851801E+02 -0.20693006875E+02  0.46142316950E+02  0.99999926038E+01 0.  0.
        -12    1    1    2    0    0 -0.37948434260E+02  0.12681851801E+02  0.20693006875E+02  0.45045683050E+02  0.00000000000E+00 0.  1.
         11    1    3    3    0    0  0.37407117481E-01 -0.33449406160E+00 -0.56551684084E+00  0.65809963385E+00  0.51100000000E-03 0. -1.
        -11    1    3    3    0    0  0.23048067164E+02 -0.11027805365E+02 -0.15396146823E+02  0.29830642440E+02  0.51100000000E-03 0.  1.
         12    1    3    3    0    0  0.14862959979E+02 -0.13195523743E+01 -0.47313432111E+01  0.15653574876E+02  0.00000000000E+00 0. -1.
</event>
<event>
 7    1  0.3846293E-008  0.4614232E+02  0.7816164E-02  0.1320468E+00
        -11   -1    0    0    0    0  0.00000000000E+00  0.00000000000E+00  0.45593999997E+02  0.45594000000E+02  0.51100000000E-03 0.  1.
         11   -1    0    0    0    0 -0.00000000000E+00 -0.00000000000E+00 -0.45593999997E+02  0.45594000000E+02  0.51100000000E-03 0. -1.
    9900012    2    1    2    0    0 -0.16544364203E+02  0.20550115656E+02 -0.36511508370E+02  0.46142317812E+02  0.10000000461E+02 0.  0.
        -12    1    1    2    0    0  0.16544364203E+02 -0.20550115656E+02  0.36511508370E+02  0.45045682188E+02  0.00000000000E+00 0.  1.
         11    1    3    3    0    0 -0.15909621358E+01  0.38500648298E+01 -0.30824249923E+01  0.51822296172E+01  0.51100000000E-03 0. -1.
        -11    1    3    3    0    0 -0.90872416482E+01  0.14222203323E+02 -0.27459428862E+02  0.32231494874E+02  0.51100000000E-03 0.  1.
         12    1    3    3    0    0 -0.58661604192E+01  0.24778475024E+01 -0.59696545157E+01  0.87285933200E+01  0.00000000000E+00 0. -1.
</event>
<event>
 7    1  0.3846293E-008  0.4614232E+02  0.7816164E-02  0.1320468E+00
        -11   -1    0    0    0    0  0.00000000000E+00  0.00000000000E+00  0.45593999997E+02  0.45594000000E+02  0.51100000000E-03 0.  1.
         11   -1    0    0    0    0 -0.00000000000E+00 -0.00000000000E+00 -0.45593999997E+02  0.45594000000E+02  0.51100000000E-03 0. -1.
    9900012    2    1    2    0    0  0.49690264003E+01 -0.26306431279E+02 -0.36226977675E+02  0.46142318059E+02  0.10000002719E+02 0.  0.
        -12    1    1    2    0    0 -0.49690264003E+01  0.26306431279E+02  0.36226977675E+02  0.45045681941E+02  0.00000000000E+00 0.  1.
         11    1    3    3    0    0  0.24606644716E+01 -0.75822270373E+01 -0.65213147336E+01  0.10299154461E+02  0.51100000000E-03 0. -1.
        -11    1    3    3    0    0  0.23258664846E+01 -0.14045529830E+01 -0.45964742090E+01  0.53394755736E+01  0.51100000000E-03 0.  1.
         12    1    3    3    0    0  0.18249544410E+00 -0.17319651259E+02 -0.25109188733E+02  0.30503688025E+02  0.00000000000E+00 0. -1.
</event>
<event>
 7    1  0.3846293E-008  0.4614231E+02  0.7816164E-02  0.1320468E+00
        -11   -1    0    0    0    0  0.00000000000E+00  0.00000000000E+00  0.45593999997E+02  0.45594000000E+02  0.51100000000E-03 0. -1.
         11   -1    0    0    0    0 -0.00000000000E+00 -0.00000000000E+00 -0.45593999997E+02  0.45594000000E+02  0.51100000000E-03 0.  1.
    9900012    2    1    2    0    0  0.19759242687E+01  0.33567375429E+02  0.29974001714E+02  0.46142314872E+02  0.99999736563E+01 0.  0.
        -12    1    1    2    0    0 -0.19759242687E+01 -0.33567375429E+02 -0.29974001714E+02  0.45045685128E+02  0.00000000000E+00 0.  1.
         11    1    3    3    0    0  0.21073048410E+01  0.54336586199E+01  0.43088276040E+01  0.72478531492E+01  0.51100000000E-03 0. -1.
        -11    1    3    3    0    0  0.57471252199E+00  0.77181489851E+01  0.12132349140E+02  0.14390761417E+02  0.51100000000E-03 0.  1.
        -12    1    3    3    0    0 -0.70609309425E+00  0.20415567824E+02  0.13532824969E+02  0.24503700306E+02  0.00000000000E+00 0.  1.
</event>
<event>
 7    1  0.3846293E-008  0.4614232E+02  0.7816164E-02  0.1320468E+00
        -11   -1    0    0    0    0  0.00000000000E+00  0.00000000000E+00  0.45593999997E+02  0.45594000000E+02  0.51100000000E-03 0. -1.
         11   -1    0    0    0    0 -0.00000000000E+00 -0.00000000000E+00 -0.45593999997E+02  0.45594000000E+02  0.51100000000E-03 0.  1.
    9900012    2    1    2    0    0 -0.12544392412E+02  0.40177819905E+02  0.16046634009E+02  0.46142318117E+02  0.10000003243E+02 0.  0.
        -12    1    1    2    0    0  0.12544392412E+02 -0.40177819905E+02 -0.16046634009E+02  0.45045681883E+02  0.00000000000E+00 0.  1.
         11    1    3    3    0    0 -0.68384278208E+01  0.26349005786E+02  0.82153686434E+01  0.28434600106E+02  0.51100000000E-03 0. -1.
        -11    1    3    3    0    0  0.46143238657E+00  0.54171284581E+01  0.23234714857E+01  0.59124208735E+01  0.51100000000E-03 0.  1.
         12    1    3    3    0    0 -0.61673969776E+01  0.84116856608E+01  0.55077938797E+01  0.11795297137E+02  0.00000000000E+00 0. -1.
</event>
<event>
 7    1  0.3846293E-008  0.4614232E+02  0.7816164E-02  0.1320468E+00
        -11   -1    0    0    0    0  0.00000000000E+00  0.00000000000E+00  0.45593999997E+02  0.45594000000E+02  0.51100000000E-03 0.  1.
         11   -1    0    0    0    0 -0.00000000000E+00 -0.00000000000E+00 -0.45593999997E+02  0.45594000000E+02  0.51100000000E-03 0. -1.
    9900012    2    1    2    0    0 -0.20933745909E+02  0.22536899032E+02 -0.32908662055E+02  0.46142316811E+02  0.99999913353E+01 0.  0.
        -12    1    1    2    0    0  0.20933745909E+02 -0.22536899032E+02  0.32908662055E+02  0.45045683189E+02  0.00000000000E+00 0.  1.
         11    1    3    3    0    0 -0.11062508243E+02  0.77330707016E+01 -0.10590685336E+02  0.17156400767E+02  0.51100000000E-03 0. -1.
        -11    1    3    3    0    0  0.55670077218E+00  0.93462329095E+00 -0.84061392824E+00  0.13747976154E+01  0.51100000000E-03 0.  1.
         12    1    3    3    0    0 -0.10427938438E+02  0.13869205039E+02 -0.21477362790E+02  0.27611118429E+02  0.00000000000E+00 0. -1.
</event>
<event>
 7    1  0.3846293E-008  0.4614232E+02  0.7816164E-02  0.1320468E+00
        -11   -1    0    0    0    0  0.00000000000E+00  0.00000000000E+00  0.45593999997E+02  0.45594000000E+02  0.51100000000E-03 0.  1.
         11   -1    0    0    0    0 -0.00000000000E+00 -0.00000000000E+00 -0.45593999997E+02  0.45594000000E+02  0.51100000000E-03 0. -1.
    9900012    2    1    2    0    0  0.25499254589E+02  0.93495000379E+01 -0.35937282549E+02  0.46142318603E+02  0.10000007678E+02 0.  0.
        -12    1    1    2    0    0 -0.25499254589E+02 -0.93495000379E+01  0.35937282549E+02  0.45045681397E+02  0.00000000000E+00 0.  1.
         11    1    3    3    0    0  0.66462659395E+00  0.13976234205E+01 -0.26625987357E+01  0.30796934951E+01  0.51100000000E-03 0. -1.
        -11    1    3    3    0    0  0.14790453176E+01  0.31649509140E+01 -0.42911332740E+01  0.55333818209E+01  0.51100000000E-03 0.  1.
        -12    1    3    3    0    0  0.23355582677E+02  0.47869257035E+01 -0.28983550539E+02  0.37529243287E+02  0.00000000000E+00 0.  1.
</event>
<event>
 7    1  0.3846293E-008  0.4614233E+02  0.7816164E-02  0.1320468E+00
        -11   -1    0    0    0    0  0.00000000000E+00  0.00000000000E+00  0.45593999997E+02  0.45594000000E+02  0.51100000000E-03 0.  1.
         11   -1    0    0    0    0 -0.00000000000E+00 -0.00000000000E+00 -0.45593999997E+02  0.45594000000E+02  0.51100000000E-03 0. -1.
    9900012    2    1    2    0    0 -0.39712493199E+01 -0.17380164515E+02 -0.41367521967E+02  0.46142325253E+02  0.10000068317E+02 0.  0.
        -12    1    1    2    0    0  0.39712493199E+01  0.17380164515E+02  0.41367521967E+02  0.45045674747E+02  0.00000000000E+00 0.  1.
         11    1    3    3    0    0 -0.34821113129E+01 -0.86404929541E+01 -0.12931672226E+02  0.15937733983E+02  0.51100000000E-03 0. -1.
        -11    1    3    3    0    0 -0.98444991741E-03 -0.51472632955E+01 -0.84631368694E+01  0.99055038405E+01  0.51100000000E-03 0.  1.
        -12    1    3    3    0    0 -0.48815355709E+00 -0.35924082657E+01 -0.19972712871E+02  0.20299087429E+02  0.00000000000E+00 0.  1.
</event>
<event>
 7    1  0.3846293E-008  0.4614232E+02  0.7816164E-02  0.1320468E+00
        -11   -1    0    0    0    0  0.00000000000E+00  0.00000000000E+00  0.45593999997E+02  0.45594000000E+02  0.51100000000E-03 0. -1.
         11   -1    0    0    0    0 -0.00000000000E+00 -0.00000000000E+00 -0.45593999997E+02  0.45594000000E+02  0.51100000000E-03 0.  1.
    9900012    2    1    2    0    0  0.44634441383E+02  0.60080804275E+01  0.88494745721E+00  0.46142317410E+02  0.99999968015E+01 0.  0.
        -12    1    1    2    0    0 -0.44634441383E+02 -0.60080804275E+01 -0.88494745721E+00  0.45045682590E+02  0.00000000000E+00 0.  1.
         11    1    3    3    0    0  0.81694689176E+01 -0.43110957387E+00  0.20692987179E+01  0.84384877381E+01  0.51100000000E-03 0. -1.
        -11    1    3    3    0    0 -0.10447460952E+00 -0.44876494904E+00 -0.11999842075E+00  0.47613528081E+00  0.51100000000E-03 0.  1.
        -12    1    3    3    0    0  0.36569447075E+02  0.68879549505E+01 -0.10643528399E+01  0.37227694391E+02  0.00000000000E+00 0.  1.
</event>
<event>
 7    1  0.3846293E-008  0.4614231E+02  0.7816164E-02  0.1320468E+00
        -11   -1    0    0    0    0  0.00000000000E+00  0.00000000000E+00  0.45593999997E+02  0.45594000000E+02  0.51100000000E-03 0.  1.
         11   -1    0    0    0    0 -0.00000000000E+00 -0.00000000000E+00 -0.45593999997E+02  0.45594000000E+02  0.51100000000E-03 0. -1.
    9900012    2    1    2    0    0  0.19494814020E+02  0.26959121728E+02 -0.30368928704E+02  0.46142313762E+02  0.99999635349E+01 0.  0.
        -12    1    1    2    0    0 -0.19494814020E+02 -0.26959121728E+02  0.30368928704E+02  0.45045686238E+02  0.00000000000E+00 0.  1.
         11    1    3    3    0    0  0.77520923262E+01  0.67709237337E+01 -0.90002234046E+01  0.13672759971E+02  0.51100000000E-03 0. -1.
        -11    1    3    3    0    0  0.44529820244E+01  0.67866160249E+01 -0.31499540585E+01  0.87068603303E+01  0.51100000000E-03 0.  1.
         12    1    3    3    0    0  0.72897396695E+01  0.13401581969E+02 -0.18218751241E+02  0.23762693461E+02  0.00000000000E+00 0. -1.
</event>
<event>
 7    1  0.3846293E-008  0.4614232E+02  0.7816164E-02  0.1320468E+00
        -11   -1    0    0    0    0  0.00000000000E+00  0.00000000000E+00  0.45593999997E+02  0.45594000000E+02  0.51100000000E-03 0.  1.
         11   -1    0    0    0    0 -0.00000000000E+00 -0.00000000000E+00 -0.45593999997E+02  0.45594000000E+02  0.51100000000E-03 0. -1.
    9900012    2    1    2    0    0 -0.25482086504E+02 -0.34613007889E+02 -0.13480226020E+02  0.46142317174E+02  0.99999946439E+01 0.  0.
        -12    1    1    2    0    0  0.25482086504E+02  0.34613007889E+02  0.13480226020E+02  0.45045682826E+02  0.00000000000E+00 0.  1.
         11    1    3    3    0    0 -0.19251880301E+02 -0.21797033540E+02 -0.61446432367E+01  0.29723765021E+02  0.51100000000E-03 0. -1.
        -11    1    3    3    0    0 -0.30257394176E+01 -0.97102114298E+01 -0.44311457486E+01  0.11094068593E+02  0.51100000000E-03 0.  1.
         12    1    3    3    0    0 -0.32044667857E+01 -0.31057629193E+01 -0.29044370344E+01  0.53244835598E+01  0.00000000000E+00 0. -1.
</event>
<event>
 7    1  0.3846293E-008  0.4614232E+02  0.7816164E-02  0.1320468E+00
        -11   -1    0    0    0    0  0.00000000000E+00  0.00000000000E+00  0.45593999997E+02  0.45594000000E+02  0.51100000000E-03 0. -1.
         11   -1    0    0    0    0 -0.00000000000E+00 -0.00000000000E+00 -0.45593999997E+02  0.45594000000E+02  0.51100000000E-03 0.  1.
    9900012    2    1    2    0    0  0.21367531726E+01 -0.29761536672E+01  0.44896440459E+02  0.46142316847E+02  0.99999916685E+01 0.  0.
        -12    1    1    2    0    0 -0.21367531726E+01  0.29761536672E+01 -0.44896440459E+02  0.45045683153E+02  0.00000000000E+00 0.  1.
         11    1    3    3    0    0  0.19155805005E+01  0.31373381503E+01  0.14268386411E+02  0.14734286219E+02  0.51100000000E-03 0. -1.
        -11    1    3    3    0    0  0.44984643015E+00  0.21562259813E+00  0.43053922052E+01  0.43341962596E+01  0.51100000000E-03 0.  1.
         12    1    3    3    0    0 -0.22867375803E+00 -0.63291144157E+01  0.26322661843E+02  0.27073834369E+02  0.00000000000E+00 0. -1.
</event>
<event>
 7    1  0.3846293E-008  0.4614232E+02  0.7816164E-02  0.1320468E+00
        -11   -1    0    0    0    0  0.00000000000E+00  0.00000000000E+00  0.45593999997E+02  0.45594000000E+02  0.51100000000E-03 0.  1.
         11   -1    0    0    0    0 -0.00000000000E+00 -0.00000000000E+00 -0.45593999997E+02  0.45594000000E+02  0.51100000000E-03 0. -1.
    9900012    2    1    2    0    0 -0.38383449356E+02 -0.95330189898E+01 -0.21562604497E+02  0.46142317097E+02  0.99999939417E+01 0.  0.
        -12    1    1    2    0    0  0.38383449356E+02  0.95330189898E+01  0.21562604497E+02  0.45045682903E+02  0.00000000000E+00 0.  1.
         11    1    3    3    0    0 -0.10923930484E+02 -0.44694263777E+01 -0.75882114366E+01  0.14031713453E+02  0.51100000000E-03 0. -1.
        -11    1    3    3    0    0 -0.87448437400E+01  0.18164573916E+00 -0.77949150349E+01  0.11716056840E+02  0.51100000000E-03 0.  1.
         12    1    3    3    0    0 -0.18714675132E+02 -0.52452383512E+01 -0.61794780253E+01  0.20394546804E+02  0.00000000000E+00 0. -1.
</event>
<event>
 7    1  0.3846293E-008  0.4614232E+02  0.7816164E-02  0.1320468E+00
        -11   -1    0    0    0    0  0.00000000000E+00  0.00000000000E+00  0.45593999997E+02  0.45594000000E+02  0.51100000000E-03 0.  1.
         11   -1    0    0    0    0 -0.00000000000E+00 -0.00000000000E+00 -0.45593999997E+02  0.45594000000E+02  0.51100000000E-03 0. -1.
    9900012    2    1    2    0    0  0.27862385825E+02  0.29743156539E+02 -0.19187119338E+02  0.46142318152E+02  0.10000003560E+02 0.  0.
        -12    1    1    2    0    0 -0.27862385825E+02 -0.29743156539E+02  0.19187119338E+02  0.45045681848E+02  0.00000000000E+00 0.  1.
         11    1    3    3    0    0  0.16195229105E+02  0.13881106592E+02 -0.91293328050E+01  0.23201622437E+02  0.51100000000E-03 0. -1.
        -11    1    3    3    0    0  0.55260711155E+01  0.64476428495E+01 -0.10900837598E+01  0.85614159549E+01  0.51100000000E-03 0.  1.
         12    1    3    3    0    0  0.61410856045E+01  0.94144070971E+01 -0.89677027728E+01  0.14379279760E+02  0.00000000000E+00 0. -1.
</event>
<event>
 7    1  0.3846293E-008  0.4614232E+02  0.7816164E-02  0.1320468E+00
        -11   -1    0    0    0    0  0.00000000000E+00  0.00000000000E+00  0.45593999997E+02  0.45594000000E+02  0.51100000000E-03 0.  1.
         11   -1    0    0    0    0 -0.00000000000E+00 -0.00000000000E+00 -0.45593999997E+02  0.45594000000E+02  0.51100000000E-03 0. -1.
    9900012    2    1    2    0    0  0.68034165095E+01  0.86764269582E+01 -0.43675469386E+02  0.46142317775E+02  0.10000000129E+02 0.  0.
        -12    1    1    2    0    0 -0.68034165095E+01 -0.86764269582E+01  0.43675469386E+02  0.45045682225E+02  0.00000000000E+00 0.  1.
         11    1    3    3    0    0  0.32648496731E+01  0.85620557060E+01 -0.23092654446E+02  0.24844289705E+02  0.51100000000E-03 0. -1.
        -11    1    3    3    0    0  0.10931491846E+01  0.97266641521E+00 -0.15717772090E+02  0.15785734536E+02  0.51100000000E-03 0.  1.
        -12    1    3    3    0    0  0.24454176519E+01 -0.85829516303E+00 -0.48650428502E+01  0.55122935347E+01  0.00000000000E+00 0.  1.
</event>
<event>
 7    1  0.3846293E-008  0.4614232E+02  0.7816164E-02  0.1320468E+00
        -11   -1    0    0    0    0  0.00000000000E+00  0.00000000000E+00  0.45593999997E+02  0.45594000000E+02  0.51100000000E-03 0.  1.
         11   -1    0    0    0    0 -0.00000000000E+00 -0.00000000000E+00 -0.45593999997E+02  0.45594000000E+02  0.51100000000E-03 0. -1.
    9900012    2    1    2    0    0  0.24397457973E+02 -0.15922618153E+02 -0.34356188423E+02  0.46142318660E+02  0.10000008199E+02 0.  0.
        -12    1    1    2    0    0 -0.24397457973E+02  0.15922618153E+02  0.34356188423E+02  0.45045681340E+02  0.00000000000E+00 0.  1.
         11    1    3    3    0    0  0.91613039843E+01 -0.40796147703E+01 -0.10355113081E+02  0.14415308340E+02  0.51100000000E-03 0. -1.
        -11    1    3    3    0    0  0.15046355796E+02 -0.92285783051E+01 -0.18160400480E+02  0.25325078995E+02  0.51100000000E-03 0.  1.
        -12    1    3    3    0    0  0.18979819318E+00 -0.26144250773E+01 -0.58406748621E+01  0.64019313245E+01  0.00000000000E+00 0.  1.
</event>
<event>
 7    1  0.3846293E-008  0.4614232E+02  0.7816164E-02  0.1320468E+00
        -11   -1    0    0    0    0  0.00000000000E+00  0.00000000000E+00  0.45593999997E+02  0.45594000000E+02  0.51100000000E-03 0.  1.
         11   -1    0    0    0    0 -0.00000000000E+00 -0.00000000000E+00 -0.45593999997E+02  0.45594000000E+02  0.51100000000E-03 0. -1.
    9900012    2    1    2    0    0 -0.25363461830E+02 -0.37151023550E+02 -0.23684933770E+01  0.46142317546E+02  0.99999980396E+01 0.  0.
        -12    1    1    2    0    0  0.25363461830E+02  0.37151023550E+02  0.23684933770E+01  0.45045682454E+02  0.00000000000E+00 0.  1.
         11    1    3    3    0    0 -0.50853394788E+01 -0.98730743814E+01  0.17650827033E+01  0.11245167521E+02  0.51100000000E-03 0. -1.
        -11    1    3    3    0    0 -0.16508856302E+02 -0.21793149594E+02 -0.56573923412E+00  0.27346000928E+02  0.51100000000E-03 0.  1.
         12    1    3    3    0    0 -0.37692660501E+01 -0.54847995752E+01 -0.35678368462E+01  0.75511490978E+01  0.00000000000E+00 0. -1.
</event>
<event>
 7    1  0.3846293E-008  0.4614231E+02  0.7816164E-02  0.1320468E+00
        -11   -1    0    0    0    0  0.00000000000E+00  0.00000000000E+00  0.45593999997E+02  0.45594000000E+02  0.51100000000E-03 0.  1.
         11   -1    0    0    0    0 -0.00000000000E+00 -0.00000000000E+00 -0.45593999997E+02  0.45594000000E+02  0.51100000000E-03 0. -1.
    9900012    2    1    2    0    0  0.12064355811E+01 -0.17010795808E+02 -0.41692820763E+02  0.46142312482E+02  0.99999518583E+01 0.  0.
        -12    1    1    2    0    0 -0.12064355811E+01  0.17010795808E+02  0.41692820763E+02  0.45045687518E+02  0.00000000000E+00 0.  1.
         11    1    3    3    0    0 -0.38992494521E+00 -0.30816656662E+01 -0.12527609090E+02  0.12906963024E+02  0.51100000000E-03 0. -1.
        -11    1    3    3    0    0 -0.21505978717E+01 -0.33826986416E+01 -0.38569712005E+01  0.55627285040E+01  0.51100000000E-03 0.  1.
         12    1    3    3    0    0  0.37469583980E+01 -0.10546431500E+02 -0.25308240472E+02  0.27672620953E+02  0.00000000000E+00 0. -1.
</event>
<event>
 7    1  0.3846293E-008  0.4614232E+02  0.7816164E-02  0.1320468E+00
        -11   -1    0    0    0    0  0.00000000000E+00  0.00000000000E+00  0.45593999997E+02  0.45594000000E+02  0.51100000000E-03 0.  1.
         11   -1    0    0    0    0 -0.00000000000E+00 -0.00000000000E+00 -0.45593999997E+02  0.45594000000E+02  0.51100000000E-03 0. -1.
    9900012    2    1    2    0    0 -0.38695513925E+02 -0.20788785268E+02 -0.99798343808E+01  0.46142317797E+02  0.10000000329E+02 0.  0.
        -12    1    1    2    0    0  0.38695513925E+02  0.20788785268E+02  0.99798343808E+01  0.45045682203E+02  0.00000000000E+00 0.  1.
         11    1    3    3    0    0 -0.15226002891E+02 -0.62173226964E+01 -0.14577841104E+01  0.16510947893E+02  0.51100000000E-03 0. -1.
        -11    1    3    3    0    0 -0.33674822758E+01 -0.50095020304E+01 -0.90338911426E+00  0.61033728072E+01  0.51100000000E-03 0.  1.
        -12    1    3    3    0    0 -0.20102028759E+02 -0.95619605408E+01 -0.76186611562E+01  0.23527997097E+02  0.00000000000E+00 0.  1.
</event>
<event>
 7    1  0.3846293E-008  0.4614232E+02  0.7816164E-02  0.1320468E+00
        -11   -1    0    0    0    0  0.00000000000E+00  0.00000000000E+00  0.45593999997E+02  0.45594000000E+02  0.51100000000E-03 0.  1.
         11   -1    0    0    0    0 -0.00000000000E+00 -0.00000000000E+00 -0.45593999997E+02  0.45594000000E+02  0.51100000000E-03 0. -1.
    9900012    2    1    2    0    0 -0.26981942027E+02 -0.16458738819E+02 -0.32096697651E+02  0.46142320083E+02  0.10000021176E+02 0.  0.
        -12    1    1    2    0    0  0.26981942027E+02  0.16458738819E+02  0.32096697651E+02  0.45045679917E+02  0.00000000000E+00 0.  1.
         11    1    3    3    0    0 -0.14356853558E+02 -0.10934946522E+02 -0.12565163813E+02  0.21990353372E+02  0.51100000000E-03 0. -1.
        -11    1    3    3    0    0 -0.18431058045E+01 -0.37069358043E+00 -0.49759873797E+01  0.53192953858E+01  0.51100000000E-03 0.  1.
         12    1    3    3    0    0 -0.10781982665E+02 -0.51530987172E+01 -0.14555546458E+02  0.18832671326E+02  0.00000000000E+00 0. -1.
</event>
<event>
 7    1  0.3846293E-008  0.4614232E+02  0.7816164E-02  0.1320468E+00
        -11   -1    0    0    0    0  0.00000000000E+00  0.00000000000E+00  0.45593999997E+02  0.45594000000E+02  0.51100000000E-03 0.  1.
         11   -1    0    0    0    0 -0.00000000000E+00 -0.00000000000E+00 -0.45593999997E+02  0.45594000000E+02  0.51100000000E-03 0. -1.
    9900012    2    1    2    0    0 -0.42175957893E+02 -0.26088306617E+01 -0.15604360130E+02  0.46142317891E+02  0.10000001180E+02 0.  0.
        -12    1    1    2    0    0  0.42175957893E+02  0.26088306617E+01  0.15604360130E+02  0.45045682109E+02  0.00000000000E+00 0.  1.
         11    1    3    3    0    0 -0.43854599363E+01 -0.98613063673E+00 -0.59515536236E-01  0.44953592566E+01  0.51100000000E-03 0. -1.
        -11    1    3    3    0    0 -0.87654083558E+01  0.26054055961E+01 -0.21079401384E+01  0.93842385867E+01  0.51100000000E-03 0.  1.
        -12    1    3    3    0    0 -0.29025089601E+02 -0.42281056210E+01 -0.13436904456E+02  0.32262720047E+02  0.00000000000E+00 0.  1.
</event>
<event>
 7    1  0.3846293E-008  0.4614232E+02  0.7816164E-02  0.1320468E+00
        -11   -1    0    0    0    0  0.00000000000E+00  0.00000000000E+00  0.45593999997E+02  0.45594000000E+02  0.51100000000E-03 0. -1.
         11   -1    0    0    0    0 -0.00000000000E+00 -0.00000000000E+00 -0.45593999997E+02  0.45594000000E+02  0.51100000000E-03 0.  1.
    9900012    2    1    2    0    0 -0.24612136136E+02  0.26134872617E+02  0.27208907672E+02  0.46142317981E+02  0.10000002006E+02 0.  0.
        -12    1    1    2    0    0  0.24612136136E+02 -0.26134872617E+02 -0.27208907672E+02  0.45045682019E+02  0.00000000000E+00 0.  1.
         11    1    3    3    0    0 -0.14972734455E+02  0.13819119137E+02  0.18501688126E+02  0.27522051060E+02  0.51100000000E-03 0. -1.
        -11    1    3    3    0    0 -0.57079329707E+01  0.33237227640E+01  0.28710119905E+01  0.72021067696E+01  0.51100000000E-03 0.  1.
         12    1    3    3    0    0 -0.39314687099E+01  0.89920307160E+01  0.58362075550E+01  0.11418160151E+02  0.00000000000E+00 0. -1.
</event>
<event>
 7    1  0.3846293E-008  0.4614232E+02  0.7816164E-02  0.1320468E+00
        -11   -1    0    0    0    0  0.00000000000E+00  0.00000000000E+00  0.45593999997E+02  0.45594000000E+02  0.51100000000E-03 0.  1.
         11   -1    0    0    0    0 -0.00000000000E+00 -0.00000000000E+00 -0.45593999997E+02  0.45594000000E+02  0.51100000000E-03 0. -1.
    9900012    2    1    2    0    0  0.23811657057E+02  0.23304074087E+02 -0.30315649916E+02  0.46142317513E+02  0.99999977393E+01 0.  0.
        -12    1    1    2    0    0 -0.23811657057E+02 -0.23304074087E+02  0.30315649916E+02  0.45045682487E+02  0.00000000000E+00 0.  1.
         11    1    3    3    0    0  0.13976628235E+02  0.98837957211E+01 -0.16505020790E+02  0.23779219209E+02  0.51100000000E-03 0. -1.
        -11    1    3    3    0    0 -0.25803607718E+00 -0.31562486205E+00  0.26222413863E-01  0.40852117054E+00  0.51100000000E-03 0.  1.
         12    1    3    3    0    0  0.10093064899E+02  0.13735903228E+02 -0.13836851540E+02  0.21954577133E+02  0.00000000000E+00 0. -1.
</event>
<event>
 7    1  0.3846293E-008  0.4614232E+02  0.7816164E-02  0.1320468E+00
        -11   -1    0    0    0    0  0.00000000000E+00  0.00000000000E+00  0.45593999997E+02  0.45594000000E+02  0.51100000000E-03 0.  1.
         11   -1    0    0    0    0 -0.00000000000E+00 -0.00000000000E+00 -0.45593999997E+02  0.45594000000E+02  0.51100000000E-03 0. -1.
    9900012    2    1    2    0    0 -0.91062797569E+00 -0.20468750371E+02 -0.40116261191E+02  0.46142318775E+02  0.10000009243E+02 0.  0.
        -12    1    1    2    0    0  0.91062797569E+00  0.20468750371E+02  0.40116261191E+02  0.45045681225E+02  0.00000000000E+00 0.  1.
         11    1    3    3    0    0  0.15701727097E+01 -0.44434753896E+01 -0.10064588352E+02  0.11113318804E+02  0.51100000000E-03 0.  1.
        -11    1    3    3    0    0  0.24229226654E+01 -0.74588125307E+01 -0.16443109834E+02  0.18217582164E+02  0.51100000000E-03 0. -1.
        -12    1    3    3    0    0 -0.49037233507E+01 -0.85664624510E+01 -0.13608563005E+02  0.16811417807E+02  0.00000000000E+00 0.  1.
</event>
<event>
 7    1  0.3846293E-008  0.4614232E+02  0.7816164E-02  0.1320468E+00
        -11   -1    0    0    0    0  0.00000000000E+00  0.00000000000E+00  0.45593999997E+02  0.45594000000E+02  0.51100000000E-03 0. -1.
         11   -1    0    0    0    0 -0.00000000000E+00 -0.00000000000E+00 -0.45593999997E+02  0.45594000000E+02  0.51100000000E-03 0.  1.
    9900012    2    1    2    0    0 -0.20123628794E+02 -0.31951252674E+02  0.24561558458E+02  0.46142321659E+02  0.10000035548E+02 0.  0.
        -12    1    1    2    0    0  0.20123628794E+02  0.31951252674E+02 -0.24561558458E+02  0.45045678341E+02  0.00000000000E+00 0.  1.
         11    1    3    3    0    0 -0.16965454178E+01 -0.27430270199E+01  0.72762391198E+00  0.33063424513E+01  0.51100000000E-03 0. -1.
        -11    1    3    3    0    0 -0.62724780121E+01 -0.47514943442E+01  0.27565142287E+01  0.83378084572E+01  0.51100000000E-03 0.  1.
         12    1    3    3    0    0 -0.12154605364E+02 -0.24456731310E+02  0.21077420317E+02  0.34498170751E+02  0.00000000000E+00 0. -1.
</event>
<event>
 7    1  0.3846293E-008  0.4614232E+02  0.7816164E-02  0.1320468E+00
        -11   -1    0    0    0    0  0.00000000000E+00  0.00000000000E+00  0.45593999997E+02  0.45594000000E+02  0.51100000000E-03 0. -1.
         11   -1    0    0    0    0 -0.00000000000E+00 -0.00000000000E+00 -0.45593999997E+02  0.45594000000E+02  0.51100000000E-03 0.  1.
    9900012    2    1    2    0    0 -0.10422477552E+02 -0.15653347047E+02  0.40932359675E+02  0.46142318957E+02  0.10000010901E+02 0.  0.
        -12    1    1    2    0    0  0.10422477552E+02  0.15653347047E+02 -0.40932359675E+02  0.45045681043E+02  0.00000000000E+00 0.  1.
         11    1    3    3    0    0 -0.38791617808E+01 -0.86431882807E+01  0.24021909952E+02  0.25822562959E+02  0.51100000000E-03 0. -1.
        -11    1    3    3    0    0 -0.34849590354E+01 -0.25390758791E+00  0.79796369419E+01  0.87111431241E+01  0.51100000000E-03 0.  1.
         12    1    3    3    0    0 -0.30583567360E+01 -0.67562511782E+01  0.89308127811E+01  0.11608612873E+02  0.00000000000E+00 0. -1.
</event>
<event>
 7    1  0.3846293E-008  0.4614232E+02  0.7816164E-02  0.1320468E+00
        -11   -1    0    0    0    0  0.00000000000E+00  0.00000000000E+00  0.45593999997E+02  0.45594000000E+02  0.51100000000E-03 0.  1.
         11   -1    0    0    0    0 -0.00000000000E+00 -0.00000000000E+00 -0.45593999997E+02  0.45594000000E+02  0.51100000000E-03 0. -1.
    9900012    2    1    2    0    0 -0.29635794334E+02  0.33128372603E+02 -0.73037132204E+01  0.46142316479E+02  0.99999883053E+01 0.  0.
        -12    1    1    2    0    0  0.29635794334E+02 -0.33128372603E+02  0.73037132204E+01  0.45045683521E+02  0.00000000000E+00 0.  1.
         11    1    3    3    0    0 -0.15507899604E+02  0.15362413730E+02 -0.29805867489E+01  0.22031400395E+02  0.51100000000E-03 0. -1.
        -11    1    3    3    0    0 -0.92598877466E+01  0.77132726423E+01  0.21849397703E+00  0.12053540385E+02  0.51100000000E-03 0.  1.
        -12    1    3    3    0    0 -0.48680069833E+01  0.10052686231E+02 -0.45416204485E+01  0.12057375699E+02  0.00000000000E+00 0.  1.
</event>
<event>
 7    1  0.3846293E-008  0.4614232E+02  0.7816164E-02  0.1320468E+00
        -11   -1    0    0    0    0  0.00000000000E+00  0.00000000000E+00  0.45593999997E+02  0.45594000000E+02  0.51100000000E-03 0.  1.
         11   -1    0    0    0    0 -0.00000000000E+00 -0.00000000000E+00 -0.45593999997E+02  0.45594000000E+02  0.51100000000E-03 0. -1.
    9900012    2    1    2    0    0 -0.70960048403E+01  0.28589832459E+02 -0.34079049871E+02  0.46142318244E+02  0.10000004407E+02 0.  0.
        -12    1    1    2    0    0  0.70960048403E+01 -0.28589832459E+02  0.34079049871E+02  0.45045681756E+02  0.00000000000E+00 0.  1.
         11    1    3    3    0    0 -0.24161370534E+00 -0.29293416778E+00 -0.10393333403E+01  0.11065268467E+01  0.51100000000E-03 0. -1.
        -11    1    3    3    0    0 -0.35513164821E+01  0.37824703915E+01 -0.43273980951E+01  0.67561309604E+01  0.51100000000E-03 0.  1.
         12    1    3    3    0    0 -0.33030746529E+01  0.25100296235E+02 -0.28712318436E+02  0.38279660437E+02  0.00000000000E+00 0. -1.
</event>
<event>
 7    1  0.3846293E-008  0.4614232E+02  0.7816164E-02  0.1320468E+00
        -11   -1    0    0    0    0  0.00000000000E+00  0.00000000000E+00  0.45593999997E+02  0.45594000000E+02  0.51100000000E-03 0. -1.
         11   -1    0    0    0    0 -0.00000000000E+00 -0.00000000000E+00 -0.45593999997E+02  0.45594000000E+02  0.51100000000E-03 0.  1.
    9900012    2    1    2    0    0  0.22230135662E+02 -0.36203096534E+02  0.14975658580E+02  0.46142317852E+02  0.10000000833E+02 0.  0.
        -12    1    1    2    0    0 -0.22230135662E+02  0.36203096534E+02 -0.14975658580E+02  0.45045682148E+02  0.00000000000E+00 0.  1.
         11    1    3    3    0    0  0.60099005685E+01 -0.14943569780E+02  0.62413155277E+01  0.17273772095E+02  0.51100000000E-03 0. -1.
        -11    1    3    3    0    0 -0.53283227545E+00 -0.63839005912E+00  0.76617441789E+00  0.11306969537E+01  0.51100000000E-03 0.  1.
         12    1    3    3    0    0  0.16753067369E+02 -0.20621136695E+02  0.79681686349E+01  0.27737848804E+02  0.00000000000E+00 0. -1.
</event>
<event>
 7    1  0.3846293E-008  0.4614232E+02  0.7816164E-02  0.1320468E+00
        -11   -1    0    0    0    0  0.00000000000E+00  0.00000000000E+00  0.45593999997E+02  0.45594000000E+02  0.51100000000E-03 0.  1.
         11   -1    0    0    0    0 -0.00000000000E+00 -0.00000000000E+00 -0.45593999997E+02  0.45594000000E+02  0.51100000000E-03 0. -1.
    9900012    2    1    2    0    0  0.27108964034E+02 -0.71505484818E+01 -0.35257442365E+02  0.46142317446E+02  0.99999971267E+01 0.  0.
        -12    1    1    2    0    0 -0.27108964034E+02  0.71505484818E+01  0.35257442365E+02  0.45045682554E+02  0.00000000000E+00 0.  1.
         11    1    3    3    0    0  0.11824962878E+02 -0.12642980917E+01 -0.16955530133E+02  0.20710340391E+02  0.51100000000E-03 0. -1.
        -11    1    3    3    0    0  0.15825144896E+02 -0.52679258472E+01 -0.18041675385E+02  0.24570069285E+02  0.51100000000E-03 0.  1.
        -12    1    3    3    0    0 -0.54114373997E+00 -0.61832454291E+00 -0.26023684687E+00  0.86190777010E+00  0.00000000000E+00 0.  1.
</event>
<event>
 7    1  0.3846293E-008  0.4614232E+02  0.7816164E-02  0.1320468E+00
        -11   -1    0    0    0    0  0.00000000000E+00  0.00000000000E+00  0.45593999997E+02  0.45594000000E+02  0.51100000000E-03 0.  1.
         11   -1    0    0    0    0 -0.00000000000E+00 -0.00000000000E+00 -0.45593999997E+02  0.45594000000E+02  0.51100000000E-03 0. -1.
    9900012    2    1    2    0    0 -0.15825792941E-01 -0.38217897666E+02 -0.23843353800E+02  0.46142317933E+02  0.10000001563E+02 0.  0.
        -12    1    1    2    0    0  0.15825792941E-01  0.38217897666E+02  0.23843353800E+02  0.45045682067E+02  0.00000000000E+00 0.  1.
         11    1    3    3    0    0  0.33259575640E+01 -0.22000368594E+02 -0.13470500071E+02  0.26010239991E+02  0.51100000000E-03 0. -1.
        -11    1    3    3    0    0 -0.22753729553E+01 -0.12800848340E+02 -0.55753257924E+01  0.14146494204E+02  0.51100000000E-03 0.  1.
         12    1    3    3    0    0 -0.10664104016E+01 -0.34166807327E+01 -0.47975279369E+01  0.59855837375E+01  0.00000000000E+00 0. -1.
</event>
<event>
 7    1  0.3846293E-008  0.4614232E+02  0.7816164E-02  0.1320468E+00
        -11   -1    0    0    0    0  0.00000000000E+00  0.00000000000E+00  0.45593999997E+02  0.45594000000E+02  0.51100000000E-03 0.  1.
         11   -1    0    0    0    0 -0.00000000000E+00 -0.00000000000E+00 -0.45593999997E+02  0.45594000000E+02  0.51100000000E-03 0. -1.
    9900012    2    1    2    0    0 -0.40086705223E+02 -0.82527932856E+00 -0.20530173336E+02  0.46142322751E+02  0.10000045503E+02 0.  0.
        -12    1    1    2    0    0  0.40086705223E+02  0.82527932856E+00  0.20530173336E+02  0.45045677249E+02  0.00000000000E+00 0.  1.
         11    1    3    3    0    0 -0.12017899198E+02  0.21755089238E+01 -0.80534887797E+01  0.14629471009E+02  0.51100000000E-03 0.  1.
        -11    1    3    3    0    0 -0.11415118926E+02  0.17176259647E+01 -0.38171629566E+01  0.12158367997E+02  0.51100000000E-03 0. -1.
        -12    1    3    3    0    0 -0.16653687099E+02 -0.47184142171E+01 -0.86595215998E+01  0.19354483745E+02  0.00000000000E+00 0.  1.
</event>
<event>
 7    1  0.3846293E-008  0.4614232E+02  0.7816164E-02  0.1320468E+00
        -11   -1    0    0    0    0  0.00000000000E+00  0.00000000000E+00  0.45593999997E+02  0.45594000000E+02  0.51100000000E-03 0.  1.
         11   -1    0    0    0    0 -0.00000000000E+00 -0.00000000000E+00 -0.45593999997E+02  0.45594000000E+02  0.51100000000E-03 0. -1.
    9900012    2    1    2    0    0  0.19435497029E+02  0.31417257931E+02 -0.25774608340E+02  0.46142322341E+02  0.10000041764E+02 0.  0.
        -12    1    1    2    0    0 -0.19435497029E+02 -0.31417257931E+02  0.25774608340E+02  0.45045677659E+02  0.00000000000E+00 0.  1.
         11    1    3    3    0    0  0.87898672522E+01  0.21970378841E+02 -0.16325753765E+02  0.28748731258E+02  0.51100000000E-03 0. -1.
        -11    1    3    3    0    0  0.90745908363E+01  0.92876892905E+01 -0.88023924974E+01  0.15687303310E+02  0.51100000000E-03 0.  1.
        -12    1    3    3    0    0  0.15710389404E+01  0.15918979961E+00 -0.64646207817E+00  0.17062877727E+01  0.00000000000E+00 0.  1.
</event>
<event>
 7    1  0.3846293E-008  0.4614232E+02  0.7816164E-02  0.1320468E+00
        -11   -1    0    0    0    0  0.00000000000E+00  0.00000000000E+00  0.45593999997E+02  0.45594000000E+02  0.51100000000E-03 0.  1.
         11   -1    0    0    0    0 -0.00000000000E+00 -0.00000000000E+00 -0.45593999997E+02  0.45594000000E+02  0.51100000000E-03 0. -1.
    9900012    2    1    2    0    0 -0.19726643750E+02  0.20248474857E+02 -0.35070960606E+02  0.46142317792E+02  0.10000000286E+02 0.  0.
        -12    1    1    2    0    0  0.19726643750E+02 -0.20248474857E+02  0.35070960606E+02  0.45045682208E+02  0.00000000000E+00 0.  1.
         11    1    3    3    0    0 -0.10802346577E+02  0.90262219393E+01 -0.13173563215E+02  0.19279682106E+02  0.51100000000E-03 0. -1.
        -11    1    3    3    0    0 -0.93909186674E+01  0.11468347544E+02 -0.21739559730E+02  0.26311989783E+02  0.51100000000E-03 0.  1.
        -12    1    3    3    0    0  0.46662149416E+00 -0.24609462647E+00 -0.15783766175E+00  0.55064590388E+00  0.00000000000E+00 0.  1.
</event>
<event>
 7    1  0.3846293E-008  0.4614232E+02  0.7816164E-02  0.1320468E+00
        -11   -1    0    0    0    0  0.00000000000E+00  0.00000000000E+00  0.45593999997E+02  0.45594000000E+02  0.51100000000E-03 0.  1.
         11   -1    0    0    0    0 -0.00000000000E+00 -0.00000000000E+00 -0.45593999997E+02  0.45594000000E+02  0.51100000000E-03 0. -1.
    9900012    2    1    2    0    0  0.30066984146E+02  0.91098936775E+01 -0.32281569124E+02  0.46142318703E+02  0.10000008588E+02 0.  0.
        -12    1    1    2    0    0 -0.30066984146E+02 -0.91098936775E+01  0.32281569124E+02  0.45045681297E+02  0.00000000000E+00 0.  1.
         11    1    3    3    0    0  0.23417038387E+01  0.13036905456E+01 -0.26438884089E+01  0.37647486087E+01  0.51100000000E-03 0. -1.
        -11    1    3    3    0    0  0.11920928440E+01  0.70120464105E+00 -0.59430948955E+01  0.61018972865E+01  0.51100000000E-03 0.  1.
         12    1    3    3    0    0  0.26533187463E+02  0.71049984908E+01 -0.23694585819E+02  0.36275672808E+02  0.00000000000E+00 0. -1.
</event>
<event>
 7    1  0.3846293E-008  0.4614232E+02  0.7816164E-02  0.1320468E+00
        -11   -1    0    0    0    0  0.00000000000E+00  0.00000000000E+00  0.45593999997E+02  0.45594000000E+02  0.51100000000E-03 0. -1.
         11   -1    0    0    0    0 -0.00000000000E+00 -0.00000000000E+00 -0.45593999997E+02  0.45594000000E+02  0.51100000000E-03 0.  1.
    9900012    2    1    2    0    0  0.83256753097E+01  0.43886162447E+02 -0.58138946487E+01  0.46142317691E+02  0.99999993616E+01 0.  0.
        -12    1    1    2    0    0 -0.83256753097E+01 -0.43886162447E+02  0.58138946487E+01  0.45045682309E+02  0.00000000000E+00 0.  1.
         11    1    3    3    0    0  0.49941730226E+01  0.27591813447E+02 -0.19644931268E+01  0.28108880572E+02  0.51100000000E-03 0. -1.
        -11    1    3    3    0    0 -0.13834760749E+01  0.14017472985E+01 -0.75189178850E+00  0.21081373440E+01  0.51100000000E-03 0.  1.
        -12    1    3    3    0    0  0.47149783621E+01  0.14892601701E+02 -0.30975097334E+01  0.15925299775E+02  0.00000000000E+00 0.  1.
</event>
<event>
 7    1  0.3846293E-008  0.4614232E+02  0.7816164E-02  0.1320468E+00
        -11   -1    0    0    0    0  0.00000000000E+00  0.00000000000E+00  0.45593999997E+02  0.45594000000E+02  0.51100000000E-03 0.  1.
         11   -1    0    0    0    0 -0.00000000000E+00 -0.00000000000E+00 -0.45593999997E+02  0.45594000000E+02  0.51100000000E-03 0. -1.
    9900012    2    1    2    0    0  0.17274868585E+02 -0.87933524176E+01 -0.40661644314E+02  0.46142318191E+02  0.10000003917E+02 0.  0.
        -12    1    1    2    0    0 -0.17274868585E+02  0.87933524176E+01  0.40661644314E+02  0.45045681809E+02  0.00000000000E+00 0.  1.
         11    1    3    3    0    0  0.11788567665E+02 -0.51002882581E+01 -0.29571269983E+02  0.32240398207E+02  0.51100000000E-03 0. -1.
        -11    1    3    3    0    0 -0.31932488025E+00  0.88163928032E+00 -0.18031579183E+01  0.20323963539E+01  0.51100000000E-03 0.  1.
         12    1    3    3    0    0  0.58056258010E+01 -0.45747034397E+01 -0.92872164124E+01  0.11869523630E+02  0.00000000000E+00 0. -1.
</event>
<event>
 7    1  0.3846293E-008  0.4614232E+02  0.7816164E-02  0.1320468E+00
        -11   -1    0    0    0    0  0.00000000000E+00  0.00000000000E+00  0.45593999997E+02  0.45594000000E+02  0.51100000000E-03 0.  1.
         11   -1    0    0    0    0 -0.00000000000E+00 -0.00000000000E+00 -0.45593999997E+02  0.45594000000E+02  0.51100000000E-03 0. -1.
    9900012    2    1    2    0    0  0.13834758421E+02  0.12976240994E+02 -0.40857436528E+02  0.46142317737E+02  0.99999997818E+01 0.  0.
        -12    1    1    2    0    0 -0.13834758421E+02 -0.12976240994E+02  0.40857436528E+02  0.45045682263E+02  0.00000000000E+00 0.  1.
         11    1    3    3    0    0  0.90546487556E+01  0.63082256009E+01 -0.25589531220E+02  0.27867624274E+02  0.51100000000E-03 0. -1.
        -11    1    3    3    0    0  0.28058049930E+01  0.89980501906E+00 -0.92507992512E+01  0.97087320376E+01  0.51100000000E-03 0.  1.
        -12    1    3    3    0    0  0.19743046724E+01  0.57682103740E+01 -0.60171060563E+01  0.85659614260E+01  0.00000000000E+00 0.  1.
</event>
<event>
 7    1  0.3846293E-008  0.4614232E+02  0.7816164E-02  0.1320468E+00
        -11   -1    0    0    0    0  0.00000000000E+00  0.00000000000E+00  0.45593999997E+02  0.45594000000E+02  0.51100000000E-03 0.  1.
         11   -1    0    0    0    0 -0.00000000000E+00 -0.00000000000E+00 -0.45593999997E+02  0.45594000000E+02  0.51100000000E-03 0. -1.
    9900012    2    1    2    0    0  0.21815280151E+02 -0.10395067561E+02 -0.38015123334E+02  0.46142317856E+02  0.10000000870E+02 0.  0.
        -12    1    1    2    0    0 -0.21815280151E+02  0.10395067561E+02  0.38015123334E+02  0.45045682144E+02  0.00000000000E+00 0.  1.
         11    1    3    3    0    0  0.16991214227E+02 -0.10128929318E+02 -0.29310445574E+02  0.35360978352E+02  0.51100000000E-03 0.  1.
        -11    1    3    3    0    0  0.46834119988E+01 -0.15477329863E+01 -0.77106054842E+01  0.91533197553E+01  0.51100000000E-03 0. -1.
        -12    1    3    3    0    0  0.14065392553E+00  0.12815947434E+01 -0.99407227617E+00  0.16280197491E+01  0.00000000000E+00 0.  1.
</event>
<event>
 7    1  0.3846293E-008  0.4614232E+02  0.7816164E-02  0.1320468E+00
        -11   -1    0    0    0    0  0.00000000000E+00  0.00000000000E+00  0.45593999997E+02  0.45594000000E+02  0.51100000000E-03 0.  1.
         11   -1    0    0    0    0 -0.00000000000E+00 -0.00000000000E+00 -0.45593999997E+02  0.45594000000E+02  0.51100000000E-03 0. -1.
    9900012    2    1    2    0    0  0.15561450377E+02  0.47371174590E-01 -0.42272361029E+02  0.46142317755E+02  0.99999999488E+01 0.  0.
        -12    1    1    2    0    0 -0.15561450377E+02 -0.47371174590E-01  0.42272361029E+02  0.45045682245E+02  0.00000000000E+00 0.  1.
         11    1    3    3    0    0  0.15032255617E+01  0.79808195633E+00 -0.60996661739E+01  0.63326573879E+01  0.51100000000E-03 0. -1.
        -11    1    3    3    0    0  0.52448917437E+01 -0.37847895165E+01 -0.21274055501E+02  0.22235533697E+02  0.51100000000E-03 0.  1.
        -12    1    3    3    0    0  0.88133330719E+01  0.30340787347E+01 -0.14898639355E+02  0.17574126670E+02  0.00000000000E+00 0.  1.
</event>
<event>
 7    1  0.3846293E-008  0.4614232E+02  0.7816164E-02  0.1320468E+00
        -11   -1    0    0    0    0  0.00000000000E+00  0.00000000000E+00  0.45593999997E+02  0.45594000000E+02  0.51100000000E-03 0.  1.
         11   -1    0    0    0    0 -0.00000000000E+00 -0.00000000000E+00 -0.45593999997E+02  0.45594000000E+02  0.51100000000E-03 0. -1.
    9900012    2    1    2    0    0 -0.80351378301E+00 -0.44708243572E+02 -0.54443352481E+01  0.46142318032E+02  0.10000002467E+02 0.  0.
        -12    1    1    2    0    0  0.80351378301E+00  0.44708243572E+02  0.54443352481E+01  0.45045681968E+02  0.00000000000E+00 0.  1.
         11    1    3    3    0    0 -0.95058208425E-01 -0.21072118718E+02 -0.51833153615E+01  0.21700460404E+02  0.51100000000E-03 0. -1.
        -11    1    3    3    0    0 -0.34424975403E+01 -0.13617600747E+02  0.18840298429E+00  0.14047253659E+02  0.51100000000E-03 0.  1.
        -12    1    3    3    0    0  0.27340419657E+01 -0.10018524107E+02 -0.44942287091E+00  0.10394603968E+02  0.00000000000E+00 0.  1.
</event>
<event>
 7    1  0.3846293E-008  0.4614232E+02  0.7816164E-02  0.1320468E+00
        -11   -1    0    0    0    0  0.00000000000E+00  0.00000000000E+00  0.45593999997E+02  0.45594000000E+02  0.51100000000E-03 0.  1.
         11   -1    0    0    0    0 -0.00000000000E+00 -0.00000000000E+00 -0.45593999997E+02  0.45594000000E+02  0.51100000000E-03 0. -1.
    9900012    2    1    2    0    0 -0.21658921375E+02  0.36337825390E+02  0.15477950544E+02  0.46142318939E+02  0.10000010741E+02 0.  0.
        -12    1    1    2    0    0  0.21658921375E+02 -0.36337825390E+02 -0.15477950544E+02  0.45045681061E+02  0.00000000000E+00 0.  1.
         11    1    3    3    0    0 -0.13115357805E+01  0.61704248243E+01 -0.35692167280E-01  0.63083708521E+01  0.51100000000E-03 0. -1.
        -11    1    3    3    0    0 -0.11996527740E+02  0.16426754209E+02  0.62618290803E+01  0.21282984644E+02  0.51100000000E-03 0.  1.
         12    1    3    3    0    0 -0.83508578544E+01  0.13740646357E+02  0.92518136305E+01  0.18550963443E+02  0.00000000000E+00 0. -1.
</event>
<event>
 7    1  0.3846293E-008  0.4614232E+02  0.7816164E-02  0.1320468E+00
        -11   -1    0    0    0    0  0.00000000000E+00  0.00000000000E+00  0.45593999997E+02  0.45594000000E+02  0.51100000000E-03 0.  1.
         11   -1    0    0    0    0 -0.00000000000E+00 -0.00000000000E+00 -0.45593999997E+02  0.45594000000E+02  0.51100000000E-03 0. -1.
    9900012    2    1    2    0    0 -0.14057326859E+02  0.28885002522E+02 -0.31577866208E+02  0.46142318261E+02  0.10000004557E+02 0.  0.
        -12    1    1    2    0    0  0.14057326859E+02 -0.28885002522E+02  0.31577866208E+02  0.45045681739E+02  0.00000000000E+00 0.  1.
         11    1    3    3    0    0 -0.88438770846E+01  0.17850520077E+02 -0.23285539935E+02  0.30644275146E+02  0.51100000000E-03 0. -1.
        -11    1    3    3    0    0 -0.80590839380E+00 -0.34203981037E+00 -0.36624643277E+00  0.94900805144E+00  0.51100000000E-03 0.  1.
         12    1    3    3    0    0 -0.44075413802E+01  0.11376522255E+02 -0.79260798400E+01  0.14549035063E+02  0.00000000000E+00 0. -1.
</event>
<event>
 7    1  0.3846293E-008  0.4614233E+02  0.7816164E-02  0.1320468E+00
        -11   -1    0    0    0    0  0.00000000000E+00  0.00000000000E+00  0.45593999997E+02  0.45594000000E+02  0.51100000000E-03 0. -1.
         11   -1    0    0    0    0 -0.00000000000E+00 -0.00000000000E+00 -0.45593999997E+02  0.45594000000E+02  0.51100000000E-03 0.  1.
    9900012    2    1    2    0    0 -0.38241329198E+02 -0.65567434067E+01  0.22884975606E+02  0.46142331491E+02  0.10000125199E+02 0.  0.
        -12    1    1    2    0    0  0.38241329198E+02  0.65567434067E+01 -0.22884975606E+02  0.45045668509E+02  0.00000000000E+00 0.  1.
         11    1    3    3    0    0 -0.80035286998E+01 -0.24494087802E+01  0.96674265833E+01  0.12787306676E+02  0.51100000000E-03 0. -1.
        -11    1    3    3    0    0 -0.72310403762E+01 -0.17270716268E+01  0.41275063998E+01  0.85033540834E+01  0.51100000000E-03 0.  1.
        -12    1    3    3    0    0 -0.23006760122E+02 -0.23802629996E+01  0.90900426233E+01  0.24851670732E+02  0.00000000000E+00 0.  1.
</event>
<event>
 7    1  0.3846293E-008  0.4614231E+02  0.7816164E-02  0.1320468E+00
        -11   -1    0    0    0    0  0.00000000000E+00  0.00000000000E+00  0.45593999997E+02  0.45594000000E+02  0.51100000000E-03 0.  1.
         11   -1    0    0    0    0 -0.00000000000E+00 -0.00000000000E+00 -0.45593999997E+02  0.45594000000E+02  0.51100000000E-03 0. -1.
    9900012    2    1    2    0    0 -0.18033537512E+02 -0.35367749080E+02 -0.21284461864E+02  0.46142306899E+02  0.99999009459E+01 0.  0.
        -12    1    1    2    0    0  0.18033537512E+02  0.35367749080E+02  0.21284461864E+02  0.45045693101E+02  0.00000000000E+00 0.  1.
         11    1    3    3    0    0 -0.28017659523E+01 -0.11629768371E+02 -0.99951799798E+01  0.15588618538E+02  0.51100000000E-03 0. -1.
        -11    1    3    3    0    0 -0.20186357369E+01 -0.41767356951E+01 -0.30481122422E+01  0.55507656956E+01  0.51100000000E-03 0.  1.
        -12    1    3    3    0    0 -0.13213135823E+02 -0.19561245013E+02 -0.82411696416E+01  0.25002922665E+02  0.00000000000E+00 0.  1.
</event>
<event>
 7    1  0.3846293E-008  0.4614232E+02  0.7816164E-02  0.1320468E+00
        -11   -1    0    0    0    0  0.00000000000E+00  0.00000000000E+00  0.45593999997E+02  0.45594000000E+02  0.51100000000E-03 0.  1.
         11   -1    0    0    0    0 -0.00000000000E+00 -0.00000000000E+00 -0.45593999997E+02  0.45594000000E+02  0.51100000000E-03 0. -1.
    9900012    2    1    2    0    0  0.33398098425E+02  0.17300524126E+02 -0.24786540504E+02  0.46142315372E+02  0.99999782116E+01 0.  0.
        -12    1    1    2    0    0 -0.33398098425E+02 -0.17300524126E+02  0.24786540504E+02  0.45045684628E+02  0.00000000000E+00 0.  1.
         11    1    3    3    0    0  0.13381892060E+02  0.89143952708E+01 -0.10095341274E+02  0.18985715522E+02  0.51100000000E-03 0. -1.
        -11    1    3    3    0    0  0.61633370924E+01  0.59267064529E+01 -0.37651193539E+01  0.93428420463E+01  0.51100000000E-03 0.  1.
        -12    1    3    3    0    0  0.13852869273E+02  0.24594224024E+01 -0.10926079876E+02  0.17813757804E+02  0.00000000000E+00 0.  1.
</event>
<event>
 7    1  0.3846293E-008  0.4614232E+02  0.7816164E-02  0.1320468E+00
        -11   -1    0    0    0    0  0.00000000000E+00  0.00000000000E+00  0.45593999997E+02  0.45594000000E+02  0.51100000000E-03 0.  1.
         11   -1    0    0    0    0 -0.00000000000E+00 -0.00000000000E+00 -0.45593999997E+02  0.45594000000E+02  0.51100000000E-03 0. -1.
    9900012    2    1    2    0    0  0.29901996792E+02 -0.32744458387E+02 -0.79236687688E+01  0.46142317699E+02  0.99999994295E+01 0.  0.
        -12    1    1    2    0    0 -0.29901996792E+02  0.32744458387E+02  0.79236687688E+01  0.45045682301E+02  0.00000000000E+00 0.  1.
         11    1    3    3    0    0  0.51169265161E+01 -0.10588921382E+02 -0.20539387150E+01  0.11938461270E+02  0.51100000000E-03 0. -1.
        -11    1    3    3    0    0  0.35304437599E+01 -0.54718941728E+01 -0.24947320032E+01  0.69734745291E+01  0.51100000000E-03 0.  1.
        -12    1    3    3    0    0  0.21254626516E+02 -0.16683642833E+02 -0.33749980506E+01  0.27230381899E+02  0.00000000000E+00 0.  1.
</event>
<event>
 7    1  0.3846293E-008  0.4614232E+02  0.7816164E-02  0.1320468E+00
        -11   -1    0    0    0    0  0.00000000000E+00  0.00000000000E+00  0.45593999997E+02  0.45594000000E+02  0.51100000000E-03 0.  1.
         11   -1    0    0    0    0 -0.00000000000E+00 -0.00000000000E+00 -0.45593999997E+02  0.45594000000E+02  0.51100000000E-03 0. -1.
    9900012    2    1    2    0    0  0.31722891662E+02  0.14188212925E+00 -0.31980486768E+02  0.46142317411E+02  0.99999968116E+01 0.  0.
        -12    1    1    2    0    0 -0.31722891662E+02 -0.14188212925E+00  0.31980486768E+02  0.45045682589E+02  0.00000000000E+00 0.  1.
         11    1    3    3    0    0  0.75340089235E+01 -0.26863742953E+01 -0.66591667338E+01  0.10407804724E+02  0.51100000000E-03 0. -1.
        -11    1    3    3    0    0  0.42350873913E-01 -0.11478473863E+00  0.34882491735E+00  0.36965959589E+00  0.51100000000E-03 0.  1.
         12    1    3    3    0    0  0.24146531865E+02  0.29430411632E+01 -0.25670144952E+02  0.35364853092E+02  0.00000000000E+00 0. -1.
</event>
<event>
 7    1  0.3846293E-008  0.4614232E+02  0.7816164E-02  0.1320468E+00
        -11   -1    0    0    0    0  0.00000000000E+00  0.00000000000E+00  0.45593999997E+02  0.45594000000E+02  0.51100000000E-03 0.  1.
         11   -1    0    0    0    0 -0.00000000000E+00 -0.00000000000E+00 -0.45593999997E+02  0.45594000000E+02  0.51100000000E-03 0. -1.
    9900012    2    1    2    0    0  0.33453867097E+02 -0.25707410932E+02 -0.15782314253E+02  0.46142316036E+02  0.99999842708E+01 0.  0.
        -12    1    1    2    0    0 -0.33453867097E+02  0.25707410932E+02  0.15782314253E+02  0.45045683964E+02  0.00000000000E+00 0.  1.
         11    1    3    3    0    0  0.11222588499E+02 -0.13285275037E+02 -0.64687651974E+01  0.18555051842E+02  0.51100000000E-03 0. -1.
        -11    1    3    3    0    0  0.94831816286E+01 -0.34407813447E+01 -0.56728834171E+01  0.11573733909E+02  0.51100000000E-03 0.  1.
         12    1    3    3    0    0  0.12748096970E+02 -0.89813545503E+01 -0.36406656385E+01  0.16013530286E+02  0.00000000000E+00 0. -1.
</event>
<event>
 7    1  0.3846293E-008  0.4614231E+02  0.7816164E-02  0.1320468E+00
        -11   -1    0    0    0    0  0.00000000000E+00  0.00000000000E+00  0.45593999997E+02  0.45594000000E+02  0.51100000000E-03 0.  1.
         11   -1    0    0    0    0 -0.00000000000E+00 -0.00000000000E+00 -0.45593999997E+02  0.45594000000E+02  0.51100000000E-03 0. -1.
    9900012    2    1    2    0    0  0.58836349967E+01 -0.38593724146E+01 -0.44492720662E+02  0.46142310882E+02  0.99999372661E+01 0.  0.
        -12    1    1    2    0    0 -0.58836349967E+01  0.38593724146E+01  0.44492720662E+02  0.45045689118E+02  0.00000000000E+00 0.  1.
         11    1    3    3    0    0  0.59783847074E+01 -0.33712685517E+00 -0.20092283830E+02  0.20965557660E+02  0.51100000000E-03 0. -1.
        -11    1    3    3    0    0 -0.16101031547E+01 -0.11416350984E+01 -0.30000675238E+01  0.35911235394E+01  0.51100000000E-03 0.  1.
         12    1    3    3    0    0  0.15153534440E+01 -0.23806104611E+01 -0.21400369309E+02  0.21585629682E+02  0.00000000000E+00 0. -1.
</event>
<event>
 7    1  0.3846293E-008  0.4614232E+02  0.7816164E-02  0.1320468E+00
        -11   -1    0    0    0    0  0.00000000000E+00  0.00000000000E+00  0.45593999997E+02  0.45594000000E+02  0.51100000000E-03 0.  1.
         11   -1    0    0    0    0 -0.00000000000E+00 -0.00000000000E+00 -0.45593999997E+02  0.45594000000E+02  0.51100000000E-03 0. -1.
    9900012    2    1    2    0    0  0.26635775194E+02  0.28373326433E+02 -0.22684868849E+02  0.46142318212E+02  0.10000004111E+02 0.  0.
        -12    1    1    2    0    0 -0.26635775194E+02 -0.28373326433E+02  0.22684868849E+02  0.45045681788E+02  0.00000000000E+00 0.  1.
         11    1    3    3    0    0  0.64554038577E+00  0.39808367072E+01 -0.19662345372E+01  0.44866314531E+01  0.51100000000E-03 0. -1.
        -11    1    3    3    0    0  0.63778152375E+01  0.69603021689E+01 -0.85293099286E+01  0.12722871594E+02  0.51100000000E-03 0.  1.
        -12    1    3    3    0    0  0.19612419570E+02  0.17432187557E+02 -0.12189324384E+02  0.28932815165E+02  0.00000000000E+00 0.  1.
</event>
<event>
 7    1  0.3846293E-008  0.4614232E+02  0.7816164E-02  0.1320468E+00
        -11   -1    0    0    0    0  0.00000000000E+00  0.00000000000E+00  0.45593999997E+02  0.45594000000E+02  0.51100000000E-03 0.  1.
         11   -1    0    0    0    0 -0.00000000000E+00 -0.00000000000E+00 -0.45593999997E+02  0.45594000000E+02  0.51100000000E-03 0. -1.
    9900012    2    1    2    0    0  0.90337257976E+01 -0.12392359001E+02 -0.42354865360E+02  0.46142318930E+02  0.10000010658E+02 0.  0.
        -12    1    1    2    0    0 -0.90337257976E+01  0.12392359001E+02  0.42354865360E+02  0.45045681070E+02  0.00000000000E+00 0.  1.
         11    1    3    3    0    0  0.30676442013E+01 -0.14345674307E+01 -0.43760390160E+01  0.55333662801E+01  0.51100000000E-03 0. -1.
        -11    1    3    3    0    0  0.29454741904E+01 -0.17413208407E+01 -0.18890997435E+02  0.19198380162E+02  0.51100000000E-03 0.  1.
        -12    1    3    3    0    0  0.30206074059E+01 -0.92164707296E+01 -0.19087828909E+02  0.21410572488E+02  0.00000000000E+00 0.  1.
</event>
<event>
 7    1  0.3846293E-008  0.4614232E+02  0.7816164E-02  0.1320468E+00
        -11   -1    0    0    0    0  0.00000000000E+00  0.00000000000E+00  0.45593999997E+02  0.45594000000E+02  0.51100000000E-03 0. -1.
         11   -1    0    0    0    0 -0.00000000000E+00 -0.00000000000E+00 -0.45593999997E+02  0.45594000000E+02  0.51100000000E-03 0.  1.
    9900012    2    1    2    0    0 -0.40839506753E+02  0.18991191399E+02 -0.76331658829E+00  0.46142319687E+02  0.10000017564E+02 0.  0.
        -12    1    1    2    0    0  0.40839506753E+02 -0.18991191399E+02  0.76331658829E+00  0.45045680313E+02  0.00000000000E+00 0.  1.
         11    1    3    3    0    0 -0.14054245776E+01  0.73948371150E-01 -0.62642799927E+00  0.15404865804E+01  0.51100000000E-03 0. -1.
        -11    1    3    3    0    0 -0.55958368323E+01 -0.32620493368E-01 -0.15046260593E+01  0.57946832347E+01  0.51100000000E-03 0.  1.
         12    1    3    3    0    0 -0.33838245343E+02  0.18949863522E+02  0.13677374703E+01  0.38807149872E+02  0.00000000000E+00 0. -1.
</event>
<event>
 7    1  0.3846293E-008  0.4614232E+02  0.7816164E-02  0.1320468E+00
        -11   -1    0    0    0    0  0.00000000000E+00  0.00000000000E+00  0.45593999997E+02  0.45594000000E+02  0.51100000000E-03 0. -1.
         11   -1    0    0    0    0 -0.00000000000E+00 -0.00000000000E+00 -0.45593999997E+02  0.45594000000E+02  0.51100000000E-03 0.  1.
    9900012    2    1    2    0    0  0.13644261928E+02 -0.41833566072E+02  0.96384836835E+01  0.46142317615E+02  0.99999986671E+01 0.  0.
        -12    1    1    2    0    0 -0.13644261928E+02  0.41833566072E+02 -0.96384836835E+01  0.45045682385E+02  0.00000000000E+00 0.  1.
         11    1    3    3    0    0 -0.78879494996E+00 -0.40094629045E+01 -0.57606410478E+00  0.41267227154E+01  0.51100000000E-03 0. -1.
        -11    1    3    3    0    0  0.11375822784E+01 -0.11752746497E+01  0.11215721381E+01  0.19832519417E+01  0.51100000000E-03 0.  1.
         12    1    3    3    0    0  0.13295474599E+02 -0.36648828517E+02  0.90929756502E+01  0.40032342958E+02  0.00000000000E+00 0. -1.
</event>
<event>
 7    1  0.3846293E-008  0.4614232E+02  0.7816164E-02  0.1320468E+00
        -11   -1    0    0    0    0  0.00000000000E+00  0.00000000000E+00  0.45593999997E+02  0.45594000000E+02  0.51100000000E-03 0.  1.
         11   -1    0    0    0    0 -0.00000000000E+00 -0.00000000000E+00 -0.45593999997E+02  0.45594000000E+02  0.51100000000E-03 0. -1.
    9900012    2    1    2    0    0  0.31315232193E+02  0.28971945278E+02 -0.14460154268E+02  0.46142318276E+02  0.10000004695E+02 0.  0.
        -12    1    1    2    0    0 -0.31315232193E+02 -0.28971945278E+02  0.14460154268E+02  0.45045681724E+02  0.00000000000E+00 0.  1.
         11    1    3    3    0    0  0.20987447770E+02  0.17295481201E+02 -0.86704393583E+01  0.28544406682E+02  0.51100000000E-03 0. -1.
        -11    1    3    3    0    0  0.88449567177E+01  0.11591071615E+02 -0.64855498763E+01  0.15957711552E+02  0.51100000000E-03 0.  1.
         12    1    3    3    0    0  0.14828277055E+01  0.85392461880E-01  0.69583496689E+00  0.16402000420E+01  0.00000000000E+00 0. -1.
</event>
<event>
 7    1  0.3846293E-008  0.4614232E+02  0.7816164E-02  0.1320468E+00
        -11   -1    0    0    0    0  0.00000000000E+00  0.00000000000E+00  0.45593999997E+02  0.45594000000E+02  0.51100000000E-03 0.  1.
         11   -1    0    0    0    0 -0.00000000000E+00 -0.00000000000E+00 -0.45593999997E+02  0.45594000000E+02  0.51100000000E-03 0. -1.
    9900012    2    1    2    0    0  0.23979766915E+02  0.37798020945E+02  0.50392321919E+01  0.46142317967E+02  0.10000001880E+02 0.  0.
        -12    1    1    2    0    0 -0.23979766915E+02 -0.37798020945E+02 -0.50392321919E+01  0.45045682033E+02  0.00000000000E+00 0.  1.
         11    1    3    3    0    0  0.19655529873E+02  0.30428141027E+02  0.21965378217E+01  0.36290996123E+02  0.51100000000E-03 0. -1.
        -11    1    3    3    0    0  0.38600310137E+01  0.57418845927E+01  0.38132066181E+01  0.78999761440E+01  0.51100000000E-03 0.  1.
         12    1    3    3    0    0  0.46420602872E+00  0.16279953255E+01 -0.97051224789E+00  0.19513456998E+01  0.00000000000E+00 0. -1.
</event>
<event>
 7    1  0.3846293E-008  0.4614232E+02  0.7816164E-02  0.1320468E+00
        -11   -1    0    0    0    0  0.00000000000E+00  0.00000000000E+00  0.45593999997E+02  0.45594000000E+02  0.51100000000E-03 0.  1.
         11   -1    0    0    0    0 -0.00000000000E+00 -0.00000000000E+00 -0.45593999997E+02  0.45594000000E+02  0.51100000000E-03 0. -1.
    9900012    2    1    2    0    0  0.81846082446E+00  0.11462767679E+02 -0.43555121051E+02  0.46142317735E+02  0.99999997592E+01 0.  0.
        -12    1    1    2    0    0 -0.81846082446E+00 -0.11462767679E+02  0.43555121051E+02  0.45045682265E+02  0.00000000000E+00 0.  1.
         11    1    3    3    0    0  0.65540725693E+00  0.11467914880E+01 -0.94670187528E+00  0.16250951022E+01  0.51100000000E-03 0. -1.
        -11    1    3    3    0    0  0.91069205802E+00  0.90707779641E+01 -0.21422516729E+02  0.23281593506E+02  0.51100000000E-03 0.  1.
         12    1    3    3    0    0 -0.74763849049E+00  0.12451982272E+01 -0.21185902446E+02  0.21235629127E+02  0.00000000000E+00 0. -1.
</event>
<event>
 7    1  0.3846293E-008  0.4614232E+02  0.7816164E-02  0.1320468E+00
        -11   -1    0    0    0    0  0.00000000000E+00  0.00000000000E+00  0.45593999997E+02  0.45594000000E+02  0.51100000000E-03 0.  1.
         11   -1    0    0    0    0 -0.00000000000E+00 -0.00000000000E+00 -0.45593999997E+02  0.45594000000E+02  0.51100000000E-03 0. -1.
    9900012    2    1    2    0    0 -0.10012219611E+02 -0.40443451295E+02 -0.17122974039E+02  0.46142317253E+02  0.99999953690E+01 0.  0.
        -12    1    1    2    0    0  0.10012219611E+02  0.40443451295E+02  0.17122974039E+02  0.45045682747E+02  0.00000000000E+00 0.  1.
         11    1    3    3    0    0 -0.55931169766E+01 -0.13706931473E+02 -0.97869446459E+01  0.17746752201E+02  0.51100000000E-03 0. -1.
        -11    1    3    3    0    0 -0.80150480263E+00 -0.11072900697E+02 -0.49037882009E+01  0.12136666708E+02  0.51100000000E-03 0.  1.
        -12    1    3    3    0    0 -0.36175978321E+01 -0.15663619125E+02 -0.24322411925E+01  0.16258898345E+02  0.00000000000E+00 0.  1.
</event>
<event>
 7    1  0.3846293E-008  0.4614232E+02  0.7816164E-02  0.1320468E+00
        -11   -1    0    0    0    0  0.00000000000E+00  0.00000000000E+00  0.45593999997E+02  0.45594000000E+02  0.51100000000E-03 0. -1.
         11   -1    0    0    0    0 -0.00000000000E+00 -0.00000000000E+00 -0.45593999997E+02  0.45594000000E+02  0.51100000000E-03 0.  1.
    9900012    2    1    2    0    0  0.42442847488E+02 -0.14769319218E+02  0.30960217475E+01  0.46142318257E+02  0.10000004520E+02 0.  0.
        -12    1    1    2    0    0 -0.42442847488E+02  0.14769319218E+02 -0.30960217475E+01  0.45045681743E+02  0.00000000000E+00 0.  1.
         11    1    3    3    0    0  0.35697194848E+01 -0.15652298071E+01 -0.24125480909E+00  0.39052587230E+01  0.51100000000E-03 0. -1.
        -11    1    3    3    0    0  0.29709174037E+02 -0.10758562508E+02 -0.14141774983E+01  0.31628809453E+02  0.51100000000E-03 0.  1.
        -12    1    3    3    0    0  0.91639539667E+01 -0.24455269030E+01  0.47514540549E+01  0.10608250081E+02  0.00000000000E+00 0.  1.
</event>
<event>
 7    1  0.3846293E-008  0.4614232E+02  0.7816164E-02  0.1320468E+00
        -11   -1    0    0    0    0  0.00000000000E+00  0.00000000000E+00  0.45593999997E+02  0.45594000000E+02  0.51100000000E-03 0. -1.
         11   -1    0    0    0    0 -0.00000000000E+00 -0.00000000000E+00 -0.45593999997E+02  0.45594000000E+02  0.51100000000E-03 0.  1.
    9900012    2    1    2    0    0 -0.26512170325E+02  0.15606870731E+02  0.32903549940E+02  0.46142321096E+02  0.10000030408E+02 0.  0.
        -12    1    1    2    0    0  0.26512170325E+02 -0.15606870731E+02 -0.32903549940E+02  0.45045678904E+02  0.00000000000E+00 0.  1.
         11    1    3    3    0    0 -0.48008788211E+01  0.29865400256E+01  0.97566336841E+01  0.11276513641E+02  0.51100000000E-03 0. -1.
        -11    1    3    3    0    0 -0.62402113108E+00  0.23236712891E+01  0.35706921321E+01  0.43056582766E+01  0.51100000000E-03 0.  1.
         12    1    3    3    0    0 -0.21087270372E+02  0.10296659416E+02  0.19576224123E+02  0.30560149179E+02  0.00000000000E+00 0. -1.
</event>
<event>
 7    1  0.3846293E-008  0.4614232E+02  0.7816164E-02  0.1320468E+00
        -11   -1    0    0    0    0  0.00000000000E+00  0.00000000000E+00  0.45593999997E+02  0.45594000000E+02  0.51100000000E-03 0.  1.
         11   -1    0    0    0    0 -0.00000000000E+00 -0.00000000000E+00 -0.45593999997E+02  0.45594000000E+02  0.51100000000E-03 0. -1.
    9900012    2    1    2    0    0 -0.43046747480E+02  0.50922147411E+01 -0.12253983734E+02  0.46142320552E+02  0.10000025450E+02 0.  0.
        -12    1    1    2    0    0  0.43046747480E+02 -0.50922147411E+01  0.12253983734E+02  0.45045679448E+02  0.00000000000E+00 0.  1.
         11    1    3    3    0    0 -0.26067414913E+02  0.91523532071E+00 -0.51569203514E+01  0.26588373469E+02  0.51100000000E-03 0. -1.
        -11    1    3    3    0    0 -0.16548020238E+02  0.42649552248E+01 -0.77519651614E+01  0.18764854942E+02  0.51100000000E-03 0.  1.
         12    1    3    3    0    0 -0.43131232935E+00 -0.87975804404E-01  0.65490177912E+00  0.78909214158E+00  0.00000000000E+00 0. -1.
</event>
<event>
 7    1  0.3846293E-008  0.4614232E+02  0.7816164E-02  0.1320468E+00
        -11   -1    0    0    0    0  0.00000000000E+00  0.00000000000E+00  0.45593999997E+02  0.45594000000E+02  0.51100000000E-03 0.  1.
         11   -1    0    0    0    0 -0.00000000000E+00 -0.00000000000E+00 -0.45593999997E+02  0.45594000000E+02  0.51100000000E-03 0. -1.
    9900012    2    1    2    0    0 -0.20294810977E+02  0.37984719514E+02 -0.13205879067E+02  0.46142317509E+02  0.99999976976E+01 0.  0.
        -12    1    1    2    0    0  0.20294810977E+02 -0.37984719514E+02  0.13205879067E+02  0.45045682491E+02  0.00000000000E+00 0.  1.
         11    1    3    3    0    0 -0.47054337459E+01  0.52367807835E+01 -0.13912766092E+01  0.71763939814E+01  0.51100000000E-03 0. -1.
        -11    1    3    3    0    0 -0.26052976195E+01  0.20807005688E+01 -0.30748036807E+01  0.45355604372E+01  0.51100000000E-03 0.  1.
         12    1    3    3    0    0 -0.12984079612E+02  0.30667238162E+02 -0.87397987773E+01  0.34430363090E+02  0.00000000000E+00 0. -1.
</event>
<event>
 7    1  0.3846293E-008  0.4614232E+02  0.7816164E-02  0.1320468E+00
        -11   -1    0    0    0    0  0.00000000000E+00  0.00000000000E+00  0.45593999997E+02  0.45594000000E+02  0.51100000000E-03 0. -1.
         11   -1    0    0    0    0 -0.00000000000E+00 -0.00000000000E+00 -0.45593999997E+02  0.45594000000E+02  0.51100000000E-03 0.  1.
    9900012    2    1    2    0    0  0.42316196948E+02 -0.12289571813E+02 -0.93498330736E+01  0.46142317876E+02  0.10000001052E+02 0.  0.
        -12    1    1    2    0    0 -0.42316196948E+02  0.12289571813E+02  0.93498330736E+01  0.45045682124E+02  0.00000000000E+00 0.  1.
         11    1    3    3    0    0  0.11184759651E+02 -0.22780702298E+01 -0.63080496138E+01  0.13041470109E+02  0.51100000000E-03 0. -1.
        -11    1    3    3    0    0  0.17270676880E+02 -0.34336034393E+01 -0.20258813606E+01  0.17724844373E+02  0.51100000000E-03 0.  1.
         12    1    3    3    0    0  0.13860760417E+02 -0.65778981439E+01 -0.10159020992E+01  0.15376003395E+02  0.00000000000E+00 0. -1.
</event>
<event>
 7    1  0.3846293E-008  0.4614232E+02  0.7816164E-02  0.1320468E+00
        -11   -1    0    0    0    0  0.00000000000E+00  0.00000000000E+00  0.45593999997E+02  0.45594000000E+02  0.51100000000E-03 0. -1.
         11   -1    0    0    0    0 -0.00000000000E+00 -0.00000000000E+00 -0.45593999997E+02  0.45594000000E+02  0.51100000000E-03 0.  1.
    9900012    2    1    2    0    0 -0.32876393674E+02  0.12665371191E+02  0.28068572681E+02  0.46142315848E+02  0.99999825507E+01 0.  0.
        -12    1    1    2    0    0  0.32876393674E+02 -0.12665371191E+02 -0.28068572681E+02  0.45045684152E+02  0.00000000000E+00 0.  1.
         11    1    3    3    0    0 -0.26287263281E+02  0.11184305641E+02  0.24932127350E+02  0.37917276774E+02  0.51100000000E-03 0. -1.
        -11    1    3    3    0    0 -0.33665213388E+01  0.41536726643E+00  0.34226212899E+01  0.48187480372E+01  0.51100000000E-03 0.  1.
        -12    1    3    3    0    0 -0.32226090538E+01  0.10656982833E+01 -0.28617595890E+00  0.34062910363E+01  0.00000000000E+00 0.  1.
</event>
<event>
 7    1  0.3846293E-008  0.4614232E+02  0.7816164E-02  0.1320468E+00
        -11   -1    0    0    0    0  0.00000000000E+00  0.00000000000E+00  0.45593999997E+02  0.45594000000E+02  0.51100000000E-03 0.  1.
         11   -1    0    0    0    0 -0.00000000000E+00 -0.00000000000E+00 -0.45593999997E+02  0.45594000000E+02  0.51100000000E-03 0. -1.
    9900012    2    1    2    0    0  0.27431956202E+02 -0.24626087012E+02 -0.25887392838E+02  0.46142317737E+02  0.99999997776E+01 0.  0.
        -12    1    1    2    0    0 -0.27431956202E+02  0.24626087012E+02  0.25887392838E+02  0.45045682263E+02  0.00000000000E+00 0.  1.
         11    1    3    3    0    0  0.67899298412E+00  0.47499717803E+00  0.32988613091E-01  0.82930229792E+00  0.51100000000E-03 0. -1.
        -11    1    3    3    0    0  0.11901551782E+02 -0.72141195668E+01 -0.95350228148E+01  0.16870302792E+02  0.51100000000E-03 0.  1.
         12    1    3    3    0    0  0.14851411436E+02 -0.17886964623E+02 -0.16385358637E+02  0.28442712647E+02  0.00000000000E+00 0. -1.
</event>
<event>
 7    1  0.3846293E-008  0.4614232E+02  0.7816164E-02  0.1320468E+00
        -11   -1    0    0    0    0  0.00000000000E+00  0.00000000000E+00  0.45593999997E+02  0.45594000000E+02  0.51100000000E-03 0.  1.
         11   -1    0    0    0    0 -0.00000000000E+00 -0.00000000000E+00 -0.45593999997E+02  0.45594000000E+02  0.51100000000E-03 0. -1.
    9900012    2    1    2    0    0 -0.21490137111E+02 -0.33576032722E+02 -0.20974691167E+02  0.46142316123E+02  0.99999850605E+01 0.  0.
        -12    1    1    2    0    0  0.21490137111E+02  0.33576032722E+02  0.20974691167E+02  0.45045683877E+02  0.00000000000E+00 0.  1.
         11    1    3    3    0    0 -0.12601521404E+02 -0.16331300577E+02 -0.80664921442E+01  0.22148995824E+02  0.51100000000E-03 0. -1.
        -11    1    3    3    0    0 -0.71266554761E+01 -0.10249928405E+02 -0.54632717771E+01  0.13627090275E+02  0.51100000000E-03 0.  1.
        -12    1    3    3    0    0 -0.17619602308E+01 -0.69948037404E+01 -0.74449272459E+01  0.10366230024E+02  0.00000000000E+00 0.  1.
</event>
<event>
 7    1  0.3846293E-008  0.4614232E+02  0.7816164E-02  0.1320468E+00
        -11   -1    0    0    0    0  0.00000000000E+00  0.00000000000E+00  0.45593999997E+02  0.45594000000E+02  0.51100000000E-03 0.  1.
         11   -1    0    0    0    0 -0.00000000000E+00 -0.00000000000E+00 -0.45593999997E+02  0.45594000000E+02  0.51100000000E-03 0. -1.
    9900012    2    1    2    0    0 -0.14496872556E+02 -0.42395508260E+02  0.46448949675E+01  0.46142317812E+02  0.10000000463E+02 0.  0.
        -12    1    1    2    0    0  0.14496872556E+02  0.42395508260E+02 -0.46448949675E+01  0.45045682188E+02  0.00000000000E+00 0.  1.
         11    1    3    3    0    0 -0.61908451198E+01 -0.29495590478E+02  0.12540590321E+01  0.30164367808E+02  0.51100000000E-03 0. -1.
        -11    1    3    3    0    0 -0.45342294167E+01 -0.55663613927E+01  0.34798662373E+00  0.71878168110E+01  0.51100000000E-03 0.  1.
         12    1    3    3    0    0 -0.37717980193E+01 -0.73335563897E+01  0.30428493117E+01  0.87901331931E+01  0.00000000000E+00 0. -1.
</event>
<event>
 7    1  0.3846293E-008  0.4614232E+02  0.7816164E-02  0.1320468E+00
        -11   -1    0    0    0    0  0.00000000000E+00  0.00000000000E+00  0.45593999997E+02  0.45594000000E+02  0.51100000000E-03 0.  1.
         11   -1    0    0    0    0 -0.00000000000E+00 -0.00000000000E+00 -0.45593999997E+02  0.45594000000E+02  0.51100000000E-03 0. -1.
    9900012    2    1    2    0    0 -0.34176795588E+02 -0.29343387409E+02  0.16010518217E+00  0.46142319020E+02  0.10000011476E+02 0.  0.
        -12    1    1    2    0    0  0.34176795588E+02  0.29343387409E+02 -0.16010518217E+00  0.45045680980E+02  0.00000000000E+00 0.  1.
         11    1    3    3    0    0 -0.62451552395E+00 -0.21818995469E+01  0.67015368511E+00  0.23663920840E+01  0.51100000000E-03 0. -1.
        -11    1    3    3    0    0 -0.12777425584E+02 -0.75820146555E+01  0.25141271398E+01  0.15068854844E+02  0.51100000000E-03 0.  1.
         12    1    3    3    0    0 -0.20774854481E+02 -0.19579473207E+02 -0.30241756427E+01  0.28707072091E+02  0.00000000000E+00 0. -1.
</event>
<event>
 7    1  0.3964459E-008  0.4614232E+02  0.7816164E-02  0.1320468E+00
        -11   -1    0    0    0    0  0.00000000000E+00  0.00000000000E+00  0.45593999997E+02  0.45594000000E+02  0.51100000000E-03 0.  1.
         11   -1    0    0    0    0 -0.00000000000E+00 -0.00000000000E+00 -0.45593999997E+02  0.45594000000E+02  0.51100000000E-03 0. -1.
    9900012    2    1    2    0    0 -0.38327121543E+02  0.23533405425E+02 -0.25147844681E+01  0.46142316993E+02  0.99999929944E+01 0.  0.
        -12    1    1    2    0    0  0.38327121543E+02 -0.23533405425E+02  0.25147844681E+01  0.45045683007E+02  0.00000000000E+00 0.  1.
         11    1    3    3    0    0 -0.23994135682E+02  0.10917538767E+02 -0.19794172908E+01  0.26435379569E+02  0.51100000000E-03 0.  1.
        -11    1    3    3    0    0 -0.88127819132E+01  0.62864699042E+01 -0.24364880773E+01  0.11096003935E+02  0.51100000000E-03 0. -1.
        -12    1    3    3    0    0 -0.55202039477E+01  0.63293967533E+01  0.19011209000E+01  0.86109334895E+01  0.00000000000E+00 0.  1.
</event>
<event>
 7    1  0.3846293E-008  0.4614232E+02  0.7816164E-02  0.1320468E+00
        -11   -1    0    0    0    0  0.00000000000E+00  0.00000000000E+00  0.45593999997E+02  0.45594000000E+02  0.51100000000E-03 0.  1.
         11   -1    0    0    0    0 -0.00000000000E+00 -0.00000000000E+00 -0.45593999997E+02  0.45594000000E+02  0.51100000000E-03 0. -1.
    9900012    2    1    2    0    0  0.22440325404E+01  0.24864906899E+02 -0.37494190330E+02  0.46142316681E+02  0.99999901532E+01 0.  0.
        -12    1    1    2    0    0 -0.22440325404E+01 -0.24864906899E+02  0.37494190330E+02  0.45045683319E+02  0.00000000000E+00 0.  1.
         11    1    3    3    0    0  0.17206527555E+01  0.16446870276E+02 -0.20060947344E+02  0.25998111400E+02  0.51100000000E-03 0. -1.
        -11    1    3    3    0    0  0.26736817065E+01  0.22526712875E+01 -0.50062525537E+01  0.61061990378E+01  0.51100000000E-03 0.  1.
         12    1    3    3    0    0 -0.21503019216E+01  0.61653653354E+01 -0.12426990433E+02  0.14038006244E+02  0.00000000000E+00 0. -1.
</event>
<event>
 7    1  0.3846293E-008  0.4614232E+02  0.7816164E-02  0.1320468E+00
        -11   -1    0    0    0    0  0.00000000000E+00  0.00000000000E+00  0.45593999997E+02  0.45594000000E+02  0.51100000000E-03 0.  1.
         11   -1    0    0    0    0 -0.00000000000E+00 -0.00000000000E+00 -0.45593999997E+02  0.45594000000E+02  0.51100000000E-03 0. -1.
    9900012    2    1    2    0    0  0.10339113288E+02  0.38914790165E+02 -0.20195428538E+02  0.46142317732E+02  0.99999997351E+01 0.  0.
        -12    1    1    2    0    0 -0.10339113288E+02 -0.38914790165E+02  0.20195428538E+02  0.45045682268E+02  0.00000000000E+00 0.  1.
         11    1    3    3    0    0  0.17354467176E+01  0.10398253016E+02 -0.75016721740E+01  0.12938721991E+02  0.51100000000E-03 0. -1.
        -11    1    3    3    0    0  0.31756154694E+01  0.21715690192E+02 -0.97811233067E+01  0.24027611357E+02  0.51100000000E-03 0.  1.
        -12    1    3    3    0    0  0.54280511013E+01  0.68008469562E+01 -0.29126330573E+01  0.91759843835E+01  0.00000000000E+00 0.  1.
</event>
<event>
 7    1  0.3846293E-008  0.4614231E+02  0.7816164E-02  0.1320468E+00
        -11   -1    0    0    0    0  0.00000000000E+00  0.00000000000E+00  0.45593999997E+02  0.45594000000E+02  0.51100000000E-03 0.  1.
         11   -1    0    0    0    0 -0.00000000000E+00 -0.00000000000E+00 -0.45593999997E+02  0.45594000000E+02  0.51100000000E-03 0. -1.
    9900012    2    1    2    0    0  0.79295566877E+01 -0.35488171154E+02 -0.26586206125E+02  0.46142306340E+02  0.99998958565E+01 0.  0.
        -12    1    1    2    0    0 -0.79295566877E+01  0.35488171154E+02  0.26586206125E+02  0.45045693660E+02  0.00000000000E+00 0.  1.
         11    1    3    3    0    0  0.26982020356E+01 -0.42407390340E+01 -0.40793707682E+01  0.64734401909E+01  0.51100000000E-03 0. -1.
        -11    1    3    3    0    0 -0.11277439002E+01 -0.91493749399E+01 -0.95561578618E+01  0.13277914800E+02  0.51100000000E-03 0.  1.
         12    1    3    3    0    0  0.63590985523E+01 -0.22098057181E+02 -0.12950677495E+02  0.26390951349E+02  0.00000000000E+00 0. -1.
</event>
<event>
 7    1  0.3846293E-008  0.4614232E+02  0.7816164E-02  0.1320468E+00
        -11   -1    0    0    0    0  0.00000000000E+00  0.00000000000E+00  0.45593999997E+02  0.45594000000E+02  0.51100000000E-03 0.  1.
         11   -1    0    0    0    0 -0.00000000000E+00 -0.00000000000E+00 -0.45593999997E+02  0.45594000000E+02  0.51100000000E-03 0. -1.
    9900012    2    1    2    0    0  0.22044838980E+02 -0.17753972807E+02 -0.35041904348E+02  0.46142317228E+02  0.99999951358E+01 0.  0.
        -12    1    1    2    0    0 -0.22044838980E+02  0.17753972807E+02  0.35041904348E+02  0.45045682772E+02  0.00000000000E+00 0.  1.
         11    1    3    3    0    0  0.23656132287E+01 -0.32985537511E+01 -0.84542915321E+01  0.93782529486E+01  0.51100000000E-03 0. -1.
        -11    1    3    3    0    0  0.26484485201E+01  0.27971580160E+00 -0.15215217855E+01  0.30671728510E+01  0.51100000000E-03 0.  1.
        -12    1    3    3    0    0  0.17030777231E+02 -0.14735134857E+02 -0.25066091031E+02  0.33696891428E+02  0.00000000000E+00 0.  1.
</event>
<event>
 7    1  0.3846293E-008  0.4614232E+02  0.7816164E-02  0.1320468E+00
        -11   -1    0    0    0    0  0.00000000000E+00  0.00000000000E+00  0.45593999997E+02  0.45594000000E+02  0.51100000000E-03 0.  1.
         11   -1    0    0    0    0 -0.00000000000E+00 -0.00000000000E+00 -0.45593999997E+02  0.45594000000E+02  0.51100000000E-03 0. -1.
    9900012    2    1    2    0    0 -0.28039590078E+02 -0.18850759661E+02 -0.29791671670E+02  0.46142318159E+02  0.10000003632E+02 0.  0.
        -12    1    1    2    0    0  0.28039590078E+02  0.18850759661E+02  0.29791671670E+02  0.45045681841E+02  0.00000000000E+00 0.  1.
         11    1    3    3    0    0 -0.49360126344E+01 -0.49292953374E+01 -0.55619190876E+01  0.89217216639E+01  0.51100000000E-03 0. -1.
        -11    1    3    3    0    0 -0.15141802504E+02 -0.13191931686E+02 -0.15387650941E+02  0.25299823051E+02  0.51100000000E-03 0.  1.
        -12    1    3    3    0    0 -0.79617749403E+01 -0.72953263775E+00 -0.88421016415E+01  0.11920773444E+02  0.00000000000E+00 0.  1.
</event>
<event>
 7    1  0.3846293E-008  0.4614232E+02  0.7816164E-02  0.1320468E+00
        -11   -1    0    0    0    0  0.00000000000E+00  0.00000000000E+00  0.45593999997E+02  0.45594000000E+02  0.51100000000E-03 0.  1.
         11   -1    0    0    0    0 -0.00000000000E+00 -0.00000000000E+00 -0.45593999997E+02  0.45594000000E+02  0.51100000000E-03 0. -1.
    9900012    2    1    2    0    0  0.22121002055E+02 -0.19962895981E+02 -0.33782503875E+02  0.46142317455E+02  0.99999972100E+01 0.  0.
        -12    1    1    2    0    0 -0.22121002055E+02  0.19962895981E+02  0.33782503875E+02  0.45045682545E+02  0.00000000000E+00 0.  1.
         11    1    3    3    0    0  0.15359238466E+02 -0.12191458359E+02 -0.26207040047E+02  0.32731434607E+02  0.51100000000E-03 0. -1.
        -11    1    3    3    0    0  0.21374999338E+01 -0.55267904826E+01 -0.41104593779E+01  0.72118094515E+01  0.51100000000E-03 0.  1.
         12    1    3    3    0    0  0.46242636550E+01 -0.22446471398E+01 -0.34650044499E+01  0.61990733962E+01  0.00000000000E+00 0. -1.
</event>
<event>
 7    1  0.3846293E-008  0.4614232E+02  0.7816164E-02  0.1320468E+00
        -11   -1    0    0    0    0  0.00000000000E+00  0.00000000000E+00  0.45593999997E+02  0.45594000000E+02  0.51100000000E-03 0.  1.
         11   -1    0    0    0    0 -0.00000000000E+00 -0.00000000000E+00 -0.45593999997E+02  0.45594000000E+02  0.51100000000E-03 0. -1.
    9900012    2    1    2    0    0  0.32625355236E+02  0.25793577516E+01 -0.30952323023E+02  0.46142321060E+02  0.10000030078E+02 0.  0.
        -12    1    1    2    0    0 -0.32625355236E+02 -0.25793577516E+01  0.30952323023E+02  0.45045678940E+02  0.00000000000E+00 0.  1.
         11    1    3    3    0    0  0.11031696658E+02 -0.17102395794E+01 -0.91063266109E+01  0.14406541402E+02  0.51100000000E-03 0.  1.
        -11    1    3    3    0    0  0.91814681704E+01  0.17049941004E+01 -0.48234573572E+01  0.10510571049E+02  0.51100000000E-03 0. -1.
         12    1    3    3    0    0  0.12412190408E+02  0.25846032306E+01 -0.17022539054E+02  0.21225208608E+02  0.00000000000E+00 0. -1.
</event>
<event>
 7    1  0.3846293E-008  0.4614231E+02  0.7816164E-02  0.1320468E+00
        -11   -1    0    0    0    0  0.00000000000E+00  0.00000000000E+00  0.45593999997E+02  0.45594000000E+02  0.51100000000E-03 0.  1.
         11   -1    0    0    0    0 -0.00000000000E+00 -0.00000000000E+00 -0.45593999997E+02  0.45594000000E+02  0.51100000000E-03 0. -1.
    9900012    2    1    2    0    0  0.26607448021E+02  0.27315655535E+01 -0.36244945163E+02  0.46142314408E+02  0.99999694258E+01 0.  0.
        -12    1    1    2    0    0 -0.26607448021E+02 -0.27315655535E+01  0.36244945163E+02  0.45045685592E+02  0.00000000000E+00 0.  1.
         11    1    3    3    0    0  0.40265212101E+01 -0.30006094386E+00 -0.10640387827E+02  0.11380718914E+02  0.51100000000E-03 0. -1.
        -11    1    3    3    0    0  0.90629644545E+01  0.25715041447E+01 -0.14348838505E+02  0.17165055344E+02  0.51100000000E-03 0.  1.
        -12    1    3    3    0    0  0.13517962356E+02  0.46012235263E+00 -0.11255718831E+02  0.17596540150E+02  0.00000000000E+00 0.  1.
</event>
<event>
 7    1  0.3846293E-008  0.4614233E+02  0.7816164E-02  0.1320468E+00
        -11   -1    0    0    0    0  0.00000000000E+00  0.00000000000E+00  0.45593999997E+02  0.45594000000E+02  0.51100000000E-03 0. -1.
         11   -1    0    0    0    0 -0.00000000000E+00 -0.00000000000E+00 -0.45593999997E+02  0.45594000000E+02  0.51100000000E-03 0.  1.
    9900012    2    1    2    0    0 -0.44934720933E+02  0.25733936989E+01  0.18333739645E+01  0.46142325840E+02  0.10000073665E+02 0.  0.
        -12    1    1    2    0    0  0.44934720933E+02 -0.25733936989E+01 -0.18333739645E+01  0.45045674160E+02  0.00000000000E+00 0.  1.
         11    1    3    3    0    0 -0.33131361638E+02  0.31891581454E+01  0.20519529392E+01  0.33347689047E+02  0.51100000000E-03 0. -1.
        -11    1    3    3    0    0 -0.72852356548E+01 -0.21224990906E+01  0.14931502337E+01  0.77336381359E+01  0.51100000000E-03 0.  1.
        -12    1    3    3    0    0 -0.45181236407E+01  0.15067346440E+01 -0.17117292084E+01  0.50609986567E+01  0.00000000000E+00 0.  1.
</event>
<event>
 7    1  0.3846293E-008  0.4614232E+02  0.7816164E-02  0.1320468E+00
        -11   -1    0    0    0    0  0.00000000000E+00  0.00000000000E+00  0.45593999997E+02  0.45594000000E+02  0.51100000000E-03 0.  1.
         11   -1    0    0    0    0 -0.00000000000E+00 -0.00000000000E+00 -0.45593999997E+02  0.45594000000E+02  0.51100000000E-03 0. -1.
    9900012    2    1    2    0    0  0.97633706480E+01 -0.43749913278E+02 -0.44424317532E+01  0.46142317431E+02  0.99999969875E+01 0.  0.
        -12    1    1    2    0    0 -0.97633706480E+01  0.43749913278E+02  0.44424317532E+01  0.45045682569E+02  0.00000000000E+00 0.  1.
         11    1    3    3    0    0  0.66413512458E+01 -0.15924117915E+02 -0.26673314861E+01  0.17458514692E+02  0.51100000000E-03 0. -1.
        -11    1    3    3    0    0  0.28958593797E+01 -0.11591502607E+02 -0.32476797755E+01  0.12381290661E+02  0.51100000000E-03 0.  1.
         12    1    3    3    0    0  0.22616002249E+00 -0.16234292756E+02  0.14725795083E+01  0.16302512078E+02  0.00000000000E+00 0. -1.
</event>
<event>
 7    1  0.3846293E-008  0.4614232E+02  0.7816164E-02  0.1320468E+00
        -11   -1    0    0    0    0  0.00000000000E+00  0.00000000000E+00  0.45593999997E+02  0.45594000000E+02  0.51100000000E-03 0.  1.
         11   -1    0    0    0    0 -0.00000000000E+00 -0.00000000000E+00 -0.45593999997E+02  0.45594000000E+02  0.51100000000E-03 0. -1.
    9900012    2    1    2    0    0 -0.25790684208E+02  0.30057869114E+02 -0.21458765154E+02  0.46142317748E+02  0.99999998823E+01 0.  0.
        -12    1    1    2    0    0  0.25790684208E+02 -0.30057869114E+02  0.21458765154E+02  0.45045682252E+02  0.00000000000E+00 0.  1.
         11    1    3    3    0    0 -0.17507803688E+02  0.22882922283E+02 -0.18671229794E+02  0.34333163916E+02  0.51100000000E-03 0. -1.
        -11    1    3    3    0    0 -0.55834780348E+01  0.33010261746E+01 -0.28554681615E+01  0.70870092037E+01  0.51100000000E-03 0.  1.
         12    1    3    3    0    0 -0.26994024852E+01  0.38739206561E+01  0.67932801395E-01  0.47221446284E+01  0.00000000000E+00 0. -1.
</event>
<event>
 7    1  0.3846293E-008  0.4614232E+02  0.7816164E-02  0.1320468E+00
        -11   -1    0    0    0    0  0.00000000000E+00  0.00000000000E+00  0.45593999997E+02  0.45594000000E+02  0.51100000000E-03 0. -1.
         11   -1    0    0    0    0 -0.00000000000E+00 -0.00000000000E+00 -0.45593999997E+02  0.45594000000E+02  0.51100000000E-03 0.  1.
    9900012    2    1    2    0    0  0.44433023570E+02 -0.60657951624E+01  0.42457196786E+01  0.46142316631E+02  0.99999896988E+01 0.  0.
        -12    1    1    2    0    0 -0.44433023570E+02  0.60657951624E+01 -0.42457196786E+01  0.45045683369E+02  0.00000000000E+00 0.  1.
         11    1    3    3    0    0  0.24595422059E+02 -0.22847191458E+01 -0.93878638842E+00  0.24719143350E+02  0.51100000000E-03 0. -1.
        -11    1    3    3    0    0  0.16582520278E+02 -0.49747375138E+01  0.41159105109E+01  0.17795187881E+02  0.51100000000E-03 0.  1.
        -12    1    3    3    0    0  0.32550812334E+01  0.11936614972E+01  0.10685955560E+01  0.36279854007E+01  0.00000000000E+00 0.  1.
</event>
<event>
 7    1  0.3846293E-008  0.4614232E+02  0.7816164E-02  0.1320468E+00
        -11   -1    0    0    0    0  0.00000000000E+00  0.00000000000E+00  0.45593999997E+02  0.45594000000E+02  0.51100000000E-03 0.  1.
         11   -1    0    0    0    0 -0.00000000000E+00 -0.00000000000E+00 -0.45593999997E+02  0.45594000000E+02  0.51100000000E-03 0. -1.
    9900012    2    1    2    0    0  0.32950927195E+02  0.88118931766E+01 -0.29422786308E+02  0.46142318537E+02  0.10000007073E+02 0.  0.
        -12    1    1    2    0    0 -0.32950927195E+02 -0.88118931766E+01  0.29422786308E+02  0.45045681463E+02  0.00000000000E+00 0.  1.
         11    1    3    3    0    0  0.11574404218E+01  0.17909054299E+01 -0.39285583503E+01  0.44699643804E+01  0.51100000000E-03 0. -1.
        -11    1    3    3    0    0  0.31499253364E+01 -0.26040159326E+00 -0.10868742774E+01  0.33423247254E+01  0.51100000000E-03 0.  1.
         12    1    3    3    0    0  0.28643561436E+02  0.72813893400E+01 -0.24407353681E+02  0.38330029431E+02  0.00000000000E+00 0. -1.
</event>
<event>
 7    1  0.3846293E-008  0.4614232E+02  0.7816164E-02  0.1320468E+00
        -11   -1    0    0    0    0  0.00000000000E+00  0.00000000000E+00  0.45593999997E+02  0.45594000000E+02  0.51100000000E-03 0.  1.
         11   -1    0    0    0    0 -0.00000000000E+00 -0.00000000000E+00 -0.45593999997E+02  0.45594000000E+02  0.51100000000E-03 0. -1.
    9900012    2    1    2    0    0 -0.68948214715E+01  0.34216495074E+01 -0.44383181941E+02  0.46142322208E+02  0.10000040553E+02 0.  0.
        -12    1    1    2    0    0  0.68948214715E+01 -0.34216495074E+01  0.44383181941E+02  0.45045677792E+02  0.00000000000E+00 0.  1.
         11    1    3    3    0    0 -0.51444301434E+01  0.20335643583E+01 -0.30594170743E+02  0.31090252962E+02  0.51100000000E-03 0.  1.
        -11    1    3    3    0    0  0.19154753573E+01 -0.37509646529E+00 -0.49942546833E+01  0.53621192923E+01  0.51100000000E-03 0. -1.
        -12    1    3    3    0    0 -0.36658666853E+01  0.17631816144E+01 -0.87947565147E+01  0.96899499541E+01  0.00000000000E+00 0.  1.
</event>
<event>
 7    1  0.3846293E-008  0.4614232E+02  0.7816164E-02  0.1320468E+00
        -11   -1    0    0    0    0  0.00000000000E+00  0.00000000000E+00  0.45593999997E+02  0.45594000000E+02  0.51100000000E-03 0.  1.
         11   -1    0    0    0    0 -0.00000000000E+00 -0.00000000000E+00 -0.45593999997E+02  0.45594000000E+02  0.51100000000E-03 0. -1.
    9900012    2    1    2    0    0 -0.35711735786E+02  0.10910274256E+02 -0.25194269025E+02  0.46142319309E+02  0.10000014114E+02 0.  0.
        -12    1    1    2    0    0  0.35711735786E+02 -0.10910274256E+02  0.25194269025E+02  0.45045680691E+02  0.00000000000E+00 0.  1.
         11    1    3    3    0    0 -0.35497424183E+02  0.11308662765E+02 -0.22855802685E+02  0.43707444375E+02  0.51100000000E-03 0. -1.
        -11    1    3    3    0    0 -0.30439960316E+00 -0.10804344626E+00 -0.16640485690E+01  0.16951077859E+01  0.51100000000E-03 0.  1.
         12    1    3    3    0    0  0.90087999892E-01 -0.29034506268E+00 -0.67441777107E+00  0.73976714788E+00  0.00000000000E+00 0. -1.
</event>
<event>
 7    1  0.3846293E-008  0.4614232E+02  0.7816164E-02  0.1320468E+00
        -11   -1    0    0    0    0  0.00000000000E+00  0.00000000000E+00  0.45593999997E+02  0.45594000000E+02  0.51100000000E-03 0. -1.
         11   -1    0    0    0    0 -0.00000000000E+00 -0.00000000000E+00 -0.45593999997E+02  0.45594000000E+02  0.51100000000E-03 0.  1.
    9900012    2    1    2    0    0 -0.36876497868E+02 -0.22056830553E+02  0.13517903072E+02  0.46142316827E+02  0.99999914839E+01 0.  0.
        -12    1    1    2    0    0  0.36876497868E+02  0.22056830553E+02 -0.13517903072E+02  0.45045683173E+02  0.00000000000E+00 0.  1.
         11    1    3    3    0    0 -0.20335725860E+02 -0.12632508890E+02  0.11308014227E+02  0.26476276421E+02  0.51100000000E-03 0. -1.
        -11    1    3    3    0    0 -0.38072093386E+01 -0.43705492958E+01  0.46169986898E-01  0.57964364936E+01  0.51100000000E-03 0.  1.
         12    1    3    3    0    0 -0.12733562670E+02 -0.50537723668E+01  0.21637188579E+01  0.13869603913E+02  0.00000000000E+00 0. -1.
</event>
<event>
 7    1  0.3846293E-008  0.4614232E+02  0.7816164E-02  0.1320468E+00
        -11   -1    0    0    0    0  0.00000000000E+00  0.00000000000E+00  0.45593999997E+02  0.45594000000E+02  0.51100000000E-03 0. -1.
         11   -1    0    0    0    0 -0.00000000000E+00 -0.00000000000E+00 -0.45593999997E+02  0.45594000000E+02  0.51100000000E-03 0.  1.
    9900012    2    1    2    0    0 -0.19281979687E+02 -0.35147290159E+02  0.20542315494E+02  0.46142317943E+02  0.10000001656E+02 0.  0.
        -12    1    1    2    0    0  0.19281979687E+02  0.35147290159E+02 -0.20542315494E+02  0.45045682057E+02  0.00000000000E+00 0.  1.
         11    1    3    3    0    0 -0.25834929598E+01 -0.79477565169E+01  0.51225462131E+01  0.98021298447E+01  0.51100000000E-03 0. -1.
        -11    1    3    3    0    0 -0.90752733178E+01 -0.16967810486E+02  0.13335767278E+02  0.23411746360E+02  0.51100000000E-03 0.  1.
        -12    1    3    3    0    0 -0.76232134091E+01 -0.10231723156E+02  0.20840020034E+01  0.12928441738E+02  0.00000000000E+00 0.  1.
</event>
<event>
 7    1  0.3846293E-008  0.4614230E+02  0.7816164E-02  0.1320468E+00
        -11   -1    0    0    0    0  0.00000000000E+00  0.00000000000E+00  0.45593999997E+02  0.45594000000E+02  0.51100000000E-03 0.  1.
         11   -1    0    0    0    0 -0.00000000000E+00 -0.00000000000E+00 -0.45593999997E+02  0.45594000000E+02  0.51100000000E-03 0. -1.
    9900012    2    1    2    0    0  0.11811037110E+02  0.67344440118E+01 -0.42944866456E+02  0.46142302218E+02  0.99998582636E+01 0.  0.
        -12    1    1    2    0    0 -0.11811037110E+02 -0.67344440118E+01  0.42944866456E+02  0.45045697782E+02  0.00000000000E+00 0.  1.
         11    1    3    3    0    0  0.22999835706E+01  0.17915367011E+01 -0.16764298001E+02  0.17015910669E+02  0.51100000000E-03 0. -1.
        -11    1    3    3    0    0  0.16996964984E+01  0.28520106326E+01 -0.26588847605E+01  0.42535398513E+01  0.51100000000E-03 0.  1.
        -12    1    3    3    0    0  0.78113570413E+01  0.20908966781E+01 -0.23521683694E+02  0.24872851697E+02  0.00000000000E+00 0.  1.
</event>
<event>
 7    1  0.3846293E-008  0.4614232E+02  0.7816164E-02  0.1320468E+00
        -11   -1    0    0    0    0  0.00000000000E+00  0.00000000000E+00  0.45593999997E+02  0.45594000000E+02  0.51100000000E-03 0.  1.
         11   -1    0    0    0    0 -0.00000000000E+00 -0.00000000000E+00 -0.45593999997E+02  0.45594000000E+02  0.51100000000E-03 0. -1.
    9900012    2    1    2    0    0  0.43547873637E+02 -0.11528049590E+00 -0.11518810295E+02  0.46142316761E+02  0.99999908807E+01 0.  0.
        -12    1    1    2    0    0 -0.43547873637E+02  0.11528049590E+00  0.11518810295E+02  0.45045683239E+02  0.00000000000E+00 0.  1.
         11    1    3    3    0    0  0.23683527675E+00 -0.15405856018E+00  0.35577900180E+00  0.45431701214E+00  0.51100000000E-03 0. -1.
        -11    1    3    3    0    0  0.69614266748E+01 -0.24013039585E+01 -0.41281579632E+01  0.84421212074E+01  0.51100000000E-03 0.  1.
         12    1    3    3    0    0  0.36349611685E+02  0.24400820228E+01 -0.77464313333E+01  0.37245878541E+02  0.00000000000E+00 0. -1.
</event>
<event>
 7    1  0.3846293E-008  0.4614232E+02  0.7816164E-02  0.1320468E+00
        -11   -1    0    0    0    0  0.00000000000E+00  0.00000000000E+00  0.45593999997E+02  0.45594000000E+02  0.51100000000E-03 0.  1.
         11   -1    0    0    0    0 -0.00000000000E+00 -0.00000000000E+00 -0.45593999997E+02  0.45594000000E+02  0.51100000000E-03 0. -1.
    9900012    2    1    2    0    0  0.29213767589E+02  0.11386324593E+02 -0.32342244418E+02  0.46142318981E+02  0.10000011124E+02 0.  0.
        -12    1    1    2    0    0 -0.29213767589E+02 -0.11386324593E+02  0.32342244418E+02  0.45045681019E+02  0.00000000000E+00 0.  1.
         11    1    3    3    0    0  0.17195243970E+02  0.96314503326E+01 -0.20241631643E+02  0.28251812376E+02  0.51100000000E-03 0. -1.
        -11    1    3    3    0    0  0.72248930672E-01  0.11853026459E+01 -0.76750019734E+00  0.14139374401E+01  0.51100000000E-03 0.  1.
        -12    1    3    3    0    0  0.11946274688E+02  0.56957161469E+00 -0.11333112578E+02  0.16476569165E+02  0.00000000000E+00 0.  1.
</event>
<event>
 7    1  0.3846293E-008  0.4614232E+02  0.7816164E-02  0.1320468E+00
        -11   -1    0    0    0    0  0.00000000000E+00  0.00000000000E+00  0.45593999997E+02  0.45594000000E+02  0.51100000000E-03 0.  1.
         11   -1    0    0    0    0 -0.00000000000E+00 -0.00000000000E+00 -0.45593999997E+02  0.45594000000E+02  0.51100000000E-03 0. -1.
    9900012    2    1    2    0    0 -0.51822301424E-01 -0.12855267434E+02 -0.43172363544E+02  0.46142316963E+02  0.99999927185E+01 0.  0.
        -12    1    1    2    0    0  0.51822301424E-01  0.12855267434E+02  0.43172363544E+02  0.45045683037E+02  0.00000000000E+00 0.  1.
         11    1    3    3    0    0 -0.21175782805E+01 -0.15529011661E+01 -0.15790477136E+02  0.16007336076E+02  0.51100000000E-03 0. -1.
        -11    1    3    3    0    0  0.30550183702E+01 -0.10765774574E+02 -0.22554898308E+02  0.25178532073E+02  0.51100000000E-03 0.  1.
        -12    1    3    3    0    0 -0.98926239117E+00 -0.53659169422E+00 -0.48269880995E+01  0.49564488131E+01  0.00000000000E+00 0.  1.
</event>
<event>
 7    1  0.3846293E-008  0.4614232E+02  0.7816164E-02  0.1320468E+00
        -11   -1    0    0    0    0  0.00000000000E+00  0.00000000000E+00  0.45593999997E+02  0.45594000000E+02  0.51100000000E-03 0. -1.
         11   -1    0    0    0    0 -0.00000000000E+00 -0.00000000000E+00 -0.45593999997E+02  0.45594000000E+02  0.51100000000E-03 0.  1.
    9900012    2    1    2    0    0  0.16684056239E+02 -0.15942176269E+02  0.38685948626E+02  0.46142319432E+02  0.10000015236E+02 0.  0.
        -12    1    1    2    0    0 -0.16684056239E+02  0.15942176269E+02 -0.38685948626E+02  0.45045680568E+02  0.00000000000E+00 0.  1.
         11    1    3    3    0    0  0.67410146234E+01 -0.10130480077E+02  0.24321455732E+02  0.27195608357E+02  0.51100000000E-03 0. -1.
        -11    1    3    3    0    0  0.35808536105E+01 -0.19411061064E+01  0.86458680609E+01  0.95572715920E+01  0.51100000000E-03 0.  1.
        -12    1    3    3    0    0  0.63621880051E+01 -0.38705900850E+01  0.57186248332E+01  0.93894394828E+01  0.00000000000E+00 0.  1.
</event>
<event>
 7    1  0.3846293E-008  0.4614232E+02  0.7816164E-02  0.1320468E+00
        -11   -1    0    0    0    0  0.00000000000E+00  0.00000000000E+00  0.45593999997E+02  0.45594000000E+02  0.51100000000E-03 0.  1.
         11   -1    0    0    0    0 -0.00000000000E+00 -0.00000000000E+00 -0.45593999997E+02  0.45594000000E+02  0.51100000000E-03 0. -1.
    9900012    2    1    2    0    0  0.21348843311E+02 -0.18125533508E+02 -0.35281798017E+02  0.46142319331E+02  0.10000014315E+02 0.  0.
        -12    1    1    2    0    0 -0.21348843311E+02  0.18125533508E+02  0.35281798017E+02  0.45045680669E+02  0.00000000000E+00 0.  1.
         11    1    3    3    0    0  0.64422311848E+00 -0.12329044502E+01 -0.55321363579E+01  0.57043500728E+01  0.51100000000E-03 0. -1.
        -11    1    3    3    0    0  0.11425729254E+02 -0.84948710596E+01 -0.20115732902E+02  0.24644529490E+02  0.51100000000E-03 0.  1.
         12    1    3    3    0    0  0.92788909383E+01 -0.83977579979E+01 -0.96339287565E+01  0.15793439768E+02  0.00000000000E+00 0. -1.
</event>
<event>
 7    1  0.3846293E-008  0.4614232E+02  0.7816164E-02  0.1320468E+00
        -11   -1    0    0    0    0  0.00000000000E+00  0.00000000000E+00  0.45593999997E+02  0.45594000000E+02  0.51100000000E-03 0.  1.
         11   -1    0    0    0    0 -0.00000000000E+00 -0.00000000000E+00 -0.45593999997E+02  0.45594000000E+02  0.51100000000E-03 0. -1.
    9900012    2    1    2    0    0 -0.20316665672E+02  0.28078414542E+02 -0.28774105788E+02  0.46142318396E+02  0.10000005791E+02 0.  0.
        -12    1    1    2    0    0  0.20316665672E+02 -0.28078414542E+02  0.28774105788E+02  0.45045681604E+02  0.00000000000E+00 0.  1.
         11    1    3    3    0    0 -0.59621102335E+01  0.94777973829E+01 -0.96281366920E+01  0.14767410676E+02  0.51100000000E-03 0. -1.
        -11    1    3    3    0    0 -0.65658436497E+01  0.11785536501E+02 -0.63309533350E+01  0.14902689148E+02  0.51100000000E-03 0.  1.
        -12    1    3    3    0    0 -0.77887117891E+01  0.68150806578E+01 -0.12815015761E+02  0.16472218571E+02  0.00000000000E+00 0.  1.
</event>
<event>
 7    1  0.3846293E-008  0.4614232E+02  0.7816164E-02  0.1320468E+00
        -11   -1    0    0    0    0  0.00000000000E+00  0.00000000000E+00  0.45593999997E+02  0.45594000000E+02  0.51100000000E-03 0. -1.
         11   -1    0    0    0    0 -0.00000000000E+00 -0.00000000000E+00 -0.45593999997E+02  0.45594000000E+02  0.51100000000E-03 0.  1.
    9900012    2    1    2    0    0 -0.84830865650E+01 -0.37609995556E+02 -0.23294612532E+02  0.46142317672E+02  0.99999991877E+01 0.  0.
        -12    1    1    2    0    0  0.84830865650E+01  0.37609995556E+02  0.23294612532E+02  0.45045682328E+02  0.00000000000E+00 0.  1.
         11    1    3    3    0    0 -0.83204279330E+01 -0.23800125395E+02 -0.14019578207E+02  0.28848293939E+02  0.51100000000E-03 0. -1.
        -11    1    3    3    0    0  0.55509588713E+00 -0.62934624639E+01 -0.15783373216E+01  0.65120619001E+01  0.51100000000E-03 0.  1.
        -12    1    3    3    0    0 -0.71775451909E+00 -0.75164076970E+01 -0.76966970029E+01  0.10781961833E+02  0.00000000000E+00 0.  1.
</event>
<event>
 7    1  0.3846293E-008  0.4614232E+02  0.7816164E-02  0.1320468E+00
        -11   -1    0    0    0    0  0.00000000000E+00  0.00000000000E+00  0.45593999997E+02  0.45594000000E+02  0.51100000000E-03 0.  1.
         11   -1    0    0    0    0 -0.00000000000E+00 -0.00000000000E+00 -0.45593999997E+02  0.45594000000E+02  0.51100000000E-03 0. -1.
    9900012    2    1    2    0    0 -0.39997126357E+02 -0.20356197022E+02 -0.38689228628E+01  0.46142318319E+02  0.10000005087E+02 0.  0.
        -12    1    1    2    0    0  0.39997126357E+02  0.20356197022E+02  0.38689228628E+01  0.45045681681E+02  0.00000000000E+00 0.  1.
         11    1    3    3    0    0 -0.14924796732E+00 -0.69326518842E+00  0.64631394091E+00  0.95948608565E+00  0.51100000000E-03 0. -1.
        -11    1    3    3    0    0 -0.22590579618E+01  0.48210814089E+00 -0.22371637820E+00  0.23207370410E+01  0.51100000000E-03 0.  1.
         12    1    3    3    0    0 -0.37588820427E+02 -0.20145039975E+02 -0.42915204255E+01  0.42862095192E+02  0.00000000000E+00 0. -1.
</event>
<event>
 7    1  0.3846293E-008  0.4614231E+02  0.7816164E-02  0.1320468E+00
        -11   -1    0    0    0    0  0.00000000000E+00  0.00000000000E+00  0.45593999997E+02  0.45594000000E+02  0.51100000000E-03 0. -1.
         11   -1    0    0    0    0 -0.00000000000E+00 -0.00000000000E+00 -0.45593999997E+02  0.45594000000E+02  0.51100000000E-03 0.  1.
    9900012    2    1    2    0    0 -0.37593754413E+02  0.72528138741E+01  0.23732259430E+02  0.46142314106E+02  0.99999666739E+01 0.  0.
        -12    1    1    2    0    0  0.37593754413E+02 -0.72528138741E+01 -0.23732259430E+02  0.45045685894E+02  0.00000000000E+00 0.  1.
         11    1    3    3    0    0 -0.17944514593E+02  0.28563994425E+01  0.10676330968E+02  0.21074834874E+02  0.51100000000E-03 0. -1.
        -11    1    3    3    0    0 -0.13819739501E+02  0.28118967837E+01  0.12760907232E+02  0.19019272253E+02  0.51100000000E-03 0.  1.
         12    1    3    3    0    0 -0.58295003187E+01  0.15845176479E+01  0.29502123084E+00  0.60482069797E+01  0.00000000000E+00 0. -1.
</event>
<event>
 7    1  0.3846293E-008  0.4614232E+02  0.7816164E-02  0.1320468E+00
        -11   -1    0    0    0    0  0.00000000000E+00  0.00000000000E+00  0.45593999997E+02  0.45594000000E+02  0.51100000000E-03 0.  1.
         11   -1    0    0    0    0 -0.00000000000E+00 -0.00000000000E+00 -0.45593999997E+02  0.45594000000E+02  0.51100000000E-03 0. -1.
    9900012    2    1    2    0    0  0.12536805207E+02  0.48647428884E+01 -0.42991583242E+02  0.46142318322E+02  0.10000005118E+02 0.  0.
        -12    1    1    2    0    0 -0.12536805207E+02 -0.48647428884E+01  0.42991583242E+02  0.45045681678E+02  0.00000000000E+00 0.  1.
         11    1    3    3    0    0  0.13814484198E+01 -0.20518171504E+00 -0.45137400030E+00  0.14677322719E+01  0.51100000000E-03 0. -1.
        -11    1    3    3    0    0  0.10404219662E+02  0.31116256788E+01 -0.28879044961E+02  0.30853350535E+02  0.51100000000E-03 0.  1.
         12    1    3    3    0    0  0.75113712435E+00  0.19582989246E+01 -0.13661164281E+02  0.13821235515E+02  0.00000000000E+00 0. -1.
</event>
<event>
 7    1  0.3846293E-008  0.4614232E+02  0.7816164E-02  0.1320468E+00
        -11   -1    0    0    0    0  0.00000000000E+00  0.00000000000E+00  0.45593999997E+02  0.45594000000E+02  0.51100000000E-03 0.  1.
         11   -1    0    0    0    0 -0.00000000000E+00 -0.00000000000E+00 -0.45593999997E+02  0.45594000000E+02  0.51100000000E-03 0. -1.
    9900012    2    1    2    0    0 -0.29774638584E+02  0.17711141486E+01 -0.33755704165E+02  0.46142317501E+02  0.99999976274E+01 0.  0.
        -12    1    1    2    0    0  0.29774638584E+02 -0.17711141486E+01  0.33755704165E+02  0.45045682499E+02  0.00000000000E+00 0.  1.
         11    1    3    3    0    0 -0.39012429271E+01  0.18180706708E+01 -0.46021851901E+01  0.63012051328E+01  0.51100000000E-03 0.  1.
        -11    1    3    3    0    0 -0.84319554942E+01  0.20673077516E+01 -0.14781438051E+02  0.17142419488E+02  0.51100000000E-03 0. -1.
        -12    1    3    3    0    0 -0.17441440163E+02 -0.21142642738E+01 -0.14372080924E+02  0.22698692880E+02  0.00000000000E+00 0.  1.
</event>
<event>
 7    1  0.3846293E-008  0.4614232E+02  0.7816164E-02  0.1320468E+00
        -11   -1    0    0    0    0  0.00000000000E+00  0.00000000000E+00  0.45593999997E+02  0.45594000000E+02  0.51100000000E-03 0.  1.
         11   -1    0    0    0    0 -0.00000000000E+00 -0.00000000000E+00 -0.45593999997E+02  0.45594000000E+02  0.51100000000E-03 0. -1.
    9900012    2    1    2    0    0 -0.41517534149E+02  0.17339838129E+02 -0.21767164304E+01  0.46142315161E+02  0.99999762941E+01 0.  0.
        -12    1    1    2    0    0  0.41517534149E+02 -0.17339838129E+02  0.21767164304E+01  0.45045684839E+02  0.00000000000E+00 0.  1.
         11    1    3    3    0    0 -0.27212145250E+02  0.13030447526E+02  0.53345486383E+00  0.30175784765E+02  0.51100000000E-03 0. -1.
        -11    1    3    3    0    0 -0.10134308461E+02  0.48244042378E+01 -0.33546711256E+01  0.11714644803E+02  0.51100000000E-03 0.  1.
         12    1    3    3    0    0 -0.41710804383E+01 -0.51501363566E+00  0.64449983137E+00  0.42518855935E+01  0.00000000000E+00 0. -1.
</event>
<event>
 7    1  0.3846293E-008  0.4614232E+02  0.7816164E-02  0.1320468E+00
        -11   -1    0    0    0    0  0.00000000000E+00  0.00000000000E+00  0.45593999997E+02  0.45594000000E+02  0.51100000000E-03 0.  1.
         11   -1    0    0    0    0 -0.00000000000E+00 -0.00000000000E+00 -0.45593999997E+02  0.45594000000E+02  0.51100000000E-03 0. -1.
    9900012    2    1    2    0    0 -0.41211689754E+02 -0.16492879052E+02  0.76612357628E+01  0.46142323568E+02  0.10000052952E+02 0.  0.
        -12    1    1    2    0    0  0.41211689754E+02  0.16492879052E+02 -0.76612357628E+01  0.45045676432E+02  0.00000000000E+00 0.  1.
         11    1    3    3    0    0 -0.28091603259E+02 -0.99652432369E+01  0.58159512644E+01  0.30368890921E+02  0.51100000000E-03 0. -1.
        -11    1    3    3    0    0 -0.65990871041E+01 -0.25958502802E+00  0.42767635191E+00  0.66180240494E+01  0.51100000000E-03 0.  1.
        -12    1    3    3    0    0 -0.65209993911E+01 -0.62680507872E+01  0.14176081465E+01  0.91554085975E+01  0.00000000000E+00 0.  1.
</event>
<event>
 7    1  0.3846293E-008  0.4614232E+02  0.7816164E-02  0.1320468E+00
        -11   -1    0    0    0    0  0.00000000000E+00  0.00000000000E+00  0.45593999997E+02  0.45594000000E+02  0.51100000000E-03 0.  1.
         11   -1    0    0    0    0 -0.00000000000E+00 -0.00000000000E+00 -0.45593999997E+02  0.45594000000E+02  0.51100000000E-03 0. -1.
    9900012    2    1    2    0    0  0.42329114756E+02 -0.15277156686E+02 -0.19919719494E+01  0.46142318468E+02  0.10000006448E+02 0.  0.
        -12    1    1    2    0    0 -0.42329114756E+02  0.15277156686E+02  0.19919719494E+01  0.45045681532E+02  0.00000000000E+00 0.  1.
         11    1    3    3    0    0  0.23909085165E+02 -0.83056458001E+01 -0.13803414968E+01  0.25348243499E+02  0.51100000000E-03 0. -1.
        -11    1    3    3    0    0  0.92004863544E+01 -0.31328159802E+01  0.30041057767E+01  0.10172911918E+02  0.51100000000E-03 0.  1.
        -12    1    3    3    0    0  0.92195432368E+01 -0.38386949059E+01 -0.36157362293E+01  0.10621163051E+02  0.00000000000E+00 0.  1.
</event>
<event>
 7    1  0.3846293E-008  0.4614232E+02  0.7816164E-02  0.1320468E+00
        -11   -1    0    0    0    0  0.00000000000E+00  0.00000000000E+00  0.45593999997E+02  0.45594000000E+02  0.51100000000E-03 0. -1.
         11   -1    0    0    0    0 -0.00000000000E+00 -0.00000000000E+00 -0.45593999997E+02  0.45594000000E+02  0.51100000000E-03 0.  1.
    9900012    2    1    2    0    0  0.44771159494E+02  0.49390289571E+01  0.51257972103E+00  0.46142317993E+02  0.10000002119E+02 0.  0.
        -12    1    1    2    0    0 -0.44771159494E+02 -0.49390289571E+01 -0.51257972103E+00  0.45045682007E+02  0.00000000000E+00 0.  1.
         11    1    3    3    0    0  0.33023502150E+02  0.59472873608E+01  0.24810976984E+01  0.33646363359E+02  0.51100000000E-03 0. -1.
        -11    1    3    3    0    0  0.98614688599E+01 -0.17888737077E+01 -0.60406678335E+00  0.10040594313E+02  0.51100000000E-03 0.  1.
         12    1    3    3    0    0  0.18861884839E+01  0.78061530404E+00 -0.13644511940E+01  0.24553603219E+01  0.00000000000E+00 0. -1.
</event>
<event>
 7    1  0.3846293E-008  0.4614232E+02  0.7816164E-02  0.1320468E+00
        -11   -1    0    0    0    0  0.00000000000E+00  0.00000000000E+00  0.45593999997E+02  0.45594000000E+02  0.51100000000E-03 0.  1.
         11   -1    0    0    0    0 -0.00000000000E+00 -0.00000000000E+00 -0.45593999997E+02  0.45594000000E+02  0.51100000000E-03 0. -1.
    9900012    2    1    2    0    0  0.13456486169E+01 -0.28182890474E+01 -0.44937288809E+02  0.46142318200E+02  0.10000004003E+02 0.  0.
        -12    1    1    2    0    0 -0.13456486169E+01  0.28182890474E+01  0.44937288809E+02  0.45045681800E+02  0.00000000000E+00 0.  1.
         11    1    3    3    0    0  0.24032148349E+01 -0.48356841209E+01 -0.25723982133E+02  0.26284644558E+02  0.51100000000E-03 0. -1.
        -11    1    3    3    0    0 -0.12433924943E+01 -0.99356801276E+00 -0.10866650630E+02  0.10982590699E+02  0.51100000000E-03 0.  1.
        -12    1    3    3    0    0  0.18582627630E+00  0.30109630863E+01 -0.83466560450E+01  0.88750829430E+01  0.00000000000E+00 0.  1.
</event>
<event>
 7    1  0.3846293E-008  0.4614232E+02  0.7816164E-02  0.1320468E+00
        -11   -1    0    0    0    0  0.00000000000E+00  0.00000000000E+00  0.45593999997E+02  0.45594000000E+02  0.51100000000E-03 0.  1.
         11   -1    0    0    0    0 -0.00000000000E+00 -0.00000000000E+00 -0.45593999997E+02  0.45594000000E+02  0.51100000000E-03 0. -1.
    9900012    2    1    2    0    0 -0.43019732647E+02  0.30920087464E+01 -0.12994442592E+02  0.46142318149E+02  0.10000003538E+02 0.  0.
        -12    1    1    2    0    0  0.43019732647E+02 -0.30920087464E+01  0.12994442592E+02  0.45045681851E+02  0.00000000000E+00 0.  1.
         11    1    3    3    0    0 -0.18665867725E+02 -0.92867016016E+00 -0.90194279461E+01  0.20751557217E+02  0.51100000000E-03 0. -1.
        -11    1    3    3    0    0 -0.28611184676E+01 -0.49625173712E+00  0.57980661432E+00  0.29611552886E+01  0.51100000000E-03 0.  1.
        -12    1    3    3    0    0 -0.21492746455E+02  0.45169306437E+01 -0.45548212598E+01  0.22429605644E+02  0.00000000000E+00 0.  1.
</event>
<event>
 7    1  0.3846293E-008  0.4614232E+02  0.7816164E-02  0.1320468E+00
        -11   -1    0    0    0    0  0.00000000000E+00  0.00000000000E+00  0.45593999997E+02  0.45594000000E+02  0.51100000000E-03 0.  1.
         11   -1    0    0    0    0 -0.00000000000E+00 -0.00000000000E+00 -0.45593999997E+02  0.45594000000E+02  0.51100000000E-03 0. -1.
    9900012    2    1    2    0    0  0.34439439084E+01  0.36791201607E+02 -0.25761604755E+02  0.46142317133E+02  0.99999942754E+01 0.  0.
        -12    1    1    2    0    0 -0.34439439084E+01 -0.36791201607E+02  0.25761604755E+02  0.45045682867E+02  0.00000000000E+00 0.  1.
         11    1    3    3    0    0 -0.19083208897E+00  0.73113433900E+01 -0.44199342981E+01  0.85456409071E+01  0.51100000000E-03 0. -1.
        -11    1    3    3    0    0  0.31309564392E+01  0.13503017549E+02 -0.49958769533E+01  0.14734081510E+02  0.51100000000E-03 0.  1.
         12    1    3    3    0    0  0.50381955823E+00  0.15976840669E+02 -0.16345793504E+02  0.22862594717E+02  0.00000000000E+00 0. -1.
</event>
<event>
 7    1  0.3846293E-008  0.4614232E+02  0.7816164E-02  0.1320468E+00
        -11   -1    0    0    0    0  0.00000000000E+00  0.00000000000E+00  0.45593999997E+02  0.45594000000E+02  0.51100000000E-03 0. -1.
         11   -1    0    0    0    0 -0.00000000000E+00 -0.00000000000E+00 -0.45593999997E+02  0.45594000000E+02  0.51100000000E-03 0.  1.
    9900012    2    1    2    0    0 -0.15037976512E+02 -0.26469205795E+02  0.33201713361E+02  0.46142319151E+02  0.10000012676E+02 0.  0.
        -12    1    1    2    0    0  0.15037976512E+02  0.26469205795E+02 -0.33201713361E+02  0.45045680849E+02  0.00000000000E+00 0.  1.
         11    1    3    3    0    0 -0.57345871348E+00 -0.43297252672E+01  0.74851013916E+01  0.86661478691E+01  0.51100000000E-03 0. -1.
        -11    1    3    3    0    0 -0.33407738993E+01 -0.71637563517E+01  0.11796924000E+02  0.14200267302E+02  0.51100000000E-03 0.  1.
        -12    1    3    3    0    0 -0.11123743899E+02 -0.14975724176E+02  0.13919687970E+02  0.23275903980E+02  0.00000000000E+00 0.  1.
</event>
<event>
 7    1  0.3846293E-008  0.4614232E+02  0.7816164E-02  0.1320468E+00
        -11   -1    0    0    0    0  0.00000000000E+00  0.00000000000E+00  0.45593999997E+02  0.45594000000E+02  0.51100000000E-03 0.  1.
         11   -1    0    0    0    0 -0.00000000000E+00 -0.00000000000E+00 -0.45593999997E+02  0.45594000000E+02  0.51100000000E-03 0. -1.
    9900012    2    1    2    0    0  0.48665849822E+00  0.14393624411E+02 -0.42681381023E+02  0.46142317119E+02  0.99999941469E+01 0.  0.
        -12    1    1    2    0    0 -0.48665849822E+00 -0.14393624411E+02  0.42681381023E+02  0.45045682881E+02  0.00000000000E+00 0.  1.
         11    1    3    3    0    0  0.15615168542E+01  0.10716891273E+02 -0.38388907831E+02  0.39887320519E+02  0.51100000000E-03 0. -1.
        -11    1    3    3    0    0 -0.67432297168E+00 -0.80649009045E-01 -0.11714171856E+01  0.13540436538E+01  0.51100000000E-03 0.  1.
         12    1    3    3    0    0 -0.40053538433E+00  0.37573821466E+01 -0.31210560062E+01  0.49009529465E+01  0.00000000000E+00 0. -1.
</event>
<event>
 7    1  0.3846293E-008  0.4614232E+02  0.7816164E-02  0.1320468E+00
        -11   -1    0    0    0    0  0.00000000000E+00  0.00000000000E+00  0.45593999997E+02  0.45594000000E+02  0.51100000000E-03 0. -1.
         11   -1    0    0    0    0 -0.00000000000E+00 -0.00000000000E+00 -0.45593999997E+02  0.45594000000E+02  0.51100000000E-03 0.  1.
    9900012    2    1    2    0    0 -0.42318400511E+02  0.13031651307E+02 -0.82730005229E+01  0.46142317685E+02  0.99999993029E+01 0.  0.
        -12    1    1    2    0    0  0.42318400511E+02 -0.13031651307E+02  0.82730005229E+01  0.45045682315E+02  0.00000000000E+00 0.  1.
         11    1    3    3    0    0 -0.12060512385E+02  0.33930678019E+01 -0.23061076679E+01  0.12739191534E+02  0.51100000000E-03 0. -1.
        -11    1    3    3    0    0 -0.55696361170E+01  0.13358452710E+01  0.21544662326E+01  0.61193998131E+01  0.51100000000E-03 0.  1.
        -12    1    3    3    0    0 -0.24688252009E+02  0.83027382337E+01 -0.81213590876E+01  0.27283726338E+02  0.00000000000E+00 0.  1.
</event>
<event>
 7    1  0.3846293E-008  0.4614232E+02  0.7816164E-02  0.1320468E+00
        -11   -1    0    0    0    0  0.00000000000E+00  0.00000000000E+00  0.45593999997E+02  0.45594000000E+02  0.51100000000E-03 0.  1.
         11   -1    0    0    0    0 -0.00000000000E+00 -0.00000000000E+00 -0.45593999997E+02  0.45594000000E+02  0.51100000000E-03 0. -1.
    9900012    2    1    2    0    0 -0.23785714832E+02 -0.37539379953E+02  0.73585451534E+01  0.46142318031E+02  0.10000002461E+02 0.  0.
        -12    1    1    2    0    0  0.23785714832E+02  0.37539379953E+02 -0.73585451534E+01  0.45045681969E+02  0.00000000000E+00 0.  1.
         11    1    3    3    0    0 -0.72780732265E+01 -0.10066610988E+02  0.52496775288E+01  0.13485774768E+02  0.51100000000E-03 0. -1.
        -11    1    3    3    0    0 -0.14298300557E+02 -0.21334220792E+02  0.36831772872E+01  0.25945253339E+02  0.51100000000E-03 0.  1.
        -12    1    3    3    0    0 -0.22093410478E+01 -0.61385481724E+01 -0.15743096627E+01  0.67112899240E+01  0.00000000000E+00 0.  1.
</event>
<event>
 7    1  0.3846293E-008  0.4614232E+02  0.7816164E-02  0.1320468E+00
        -11   -1    0    0    0    0  0.00000000000E+00  0.00000000000E+00  0.45593999997E+02  0.45594000000E+02  0.51100000000E-03 0.  1.
         11   -1    0    0    0    0 -0.00000000000E+00 -0.00000000000E+00 -0.45593999997E+02  0.45594000000E+02  0.51100000000E-03 0. -1.
    9900012    2    1    2    0    0  0.39397403300E+02 -0.21795372680E+02 -0.13855880589E+01  0.46142317507E+02  0.99999976796E+01 0.  0.
        -12    1    1    2    0    0 -0.39397403300E+02  0.21795372680E+02  0.13855880589E+01  0.45045682493E+02  0.00000000000E+00 0.  1.
         11    1    3    3    0    0  0.87732308443E+01 -0.55637759792E+01  0.30642979400E+01  0.10831209753E+02  0.51100000000E-03 0.  1.
        -11    1    3    3    0    0  0.20268187159E+02 -0.13382319936E+02 -0.29488149992E+01  0.24465923398E+02  0.51100000000E-03 0. -1.
        -12    1    3    3    0    0  0.10355985297E+02 -0.28492767647E+01 -0.15010709997E+01  0.10845184355E+02  0.00000000000E+00 0.  1.
</event>
<event>
 7    1  0.3846293E-008  0.4614231E+02  0.7816164E-02  0.1320468E+00
        -11   -1    0    0    0    0  0.00000000000E+00  0.00000000000E+00  0.45593999997E+02  0.45594000000E+02  0.51100000000E-03 0.  1.
         11   -1    0    0    0    0 -0.00000000000E+00 -0.00000000000E+00 -0.45593999997E+02  0.45594000000E+02  0.51100000000E-03 0. -1.
    9900012    2    1    2    0    0  0.53459591055E+00 -0.15508592950E+02 -0.42288433104E+02  0.46142314052E+02  0.99999661804E+01 0.  0.
        -12    1    1    2    0    0 -0.53459591055E+00  0.15508592950E+02  0.42288433104E+02  0.45045685948E+02  0.00000000000E+00 0.  1.
         11    1    3    3    0    0  0.24786101432E+01 -0.86362798902E+01 -0.17821177233E+02  0.19958035896E+02  0.51100000000E-03 0. -1.
        -11    1    3    3    0    0  0.42486046850E+00 -0.59379654069E+01 -0.21321628216E+02  0.22137112947E+02  0.51100000000E-03 0.  1.
        -12    1    3    3    0    0 -0.23688747011E+01 -0.93434765261E+00 -0.31456276549E+01  0.40471652090E+01  0.00000000000E+00 0.  1.
</event>
<event>
 7    1  0.3846293E-008  0.4614232E+02  0.7816164E-02  0.1320468E+00
        -11   -1    0    0    0    0  0.00000000000E+00  0.00000000000E+00  0.45593999997E+02  0.45594000000E+02  0.51100000000E-03 0.  1.
         11   -1    0    0    0    0 -0.00000000000E+00 -0.00000000000E+00 -0.45593999997E+02  0.45594000000E+02  0.51100000000E-03 0. -1.
    9900012    2    1    2    0    0  0.34538423475E+02  0.18690440352E+02  0.22065316476E+02  0.46142318210E+02  0.10000004097E+02 0.  0.
        -12    1    1    2    0    0 -0.34538423475E+02 -0.18690440352E+02 -0.22065316476E+02  0.45045681790E+02  0.00000000000E+00 0.  1.
         11    1    3    3    0    0  0.84292539443E+01  0.28843515559E+01  0.81877151540E+01  0.12100020069E+02  0.51100000000E-03 0. -1.
        -11    1    3    3    0    0  0.62201965531E+01  0.11715970822E+01  0.19759680563E+01  0.66308321425E+01  0.51100000000E-03 0.  1.
         12    1    3    3    0    0  0.19888972978E+02  0.14634491714E+02  0.11901633266E+02  0.27411465999E+02  0.00000000000E+00 0. -1.
</event>
<event>
 7    1  0.3846293E-008  0.4614232E+02  0.7816164E-02  0.1320468E+00
        -11   -1    0    0    0    0  0.00000000000E+00  0.00000000000E+00  0.45593999997E+02  0.45594000000E+02  0.51100000000E-03 0.  1.
         11   -1    0    0    0    0 -0.00000000000E+00 -0.00000000000E+00 -0.45593999997E+02  0.45594000000E+02  0.51100000000E-03 0. -1.
    9900012    2    1    2    0    0 -0.98855993102E+01  0.97628235525E+01 -0.42849453853E+02  0.46142317710E+02  0.99999995355E+01 0.  0.
        -12    1    1    2    0    0  0.98855993102E+01 -0.97628235525E+01  0.42849453853E+02  0.45045682290E+02  0.00000000000E+00 0.  1.
         11    1    3    3    0    0 -0.44091449186E+01  0.53593447327E+01 -0.28868603934E+02  0.29691066472E+02  0.51100000000E-03 0. -1.
        -11    1    3    3    0    0  0.85815825660E+00  0.27351920865E-01 -0.23598025976E+01  0.25111456114E+01  0.51100000000E-03 0.  1.
         12    1    3    3    0    0 -0.63346126482E+01  0.43761268989E+01 -0.11621047322E+02  0.13940105627E+02  0.00000000000E+00 0. -1.
</event>
<event>
 7    1  0.3846293E-008  0.4614232E+02  0.7816164E-02  0.1320468E+00
        -11   -1    0    0    0    0  0.00000000000E+00  0.00000000000E+00  0.45593999997E+02  0.45594000000E+02  0.51100000000E-03 0.  1.
         11   -1    0    0    0    0 -0.00000000000E+00 -0.00000000000E+00 -0.45593999997E+02  0.45594000000E+02  0.51100000000E-03 0. -1.
    9900012    2    1    2    0    0 -0.41641799690E+00 -0.32523864377E+02 -0.31163095750E+02  0.46142315471E+02  0.99999791142E+01 0.  0.
        -12    1    1    2    0    0  0.41641799690E+00  0.32523864377E+02  0.31163095750E+02  0.45045684529E+02  0.00000000000E+00 0.  1.
         11    1    3    3    0    0 -0.12895370732E+00 -0.25123394902E+02 -0.26595097664E+02  0.36585527473E+02  0.51100000000E-03 0. -1.
        -11    1    3    3    0    0  0.11444786987E+00 -0.85830455880E+00  0.72708179149E+00  0.11306782138E+01  0.51100000000E-03 0.  1.
         12    1    3    3    0    0 -0.40191215945E+00 -0.65421649169E+01 -0.52950798775E+01  0.84261097840E+01  0.00000000000E+00 0. -1.
</event>
<event>
 7    1  0.3846293E-008  0.4614232E+02  0.7816164E-02  0.1320468E+00
        -11   -1    0    0    0    0  0.00000000000E+00  0.00000000000E+00  0.45593999997E+02  0.45594000000E+02  0.51100000000E-03 0. -1.
         11   -1    0    0    0    0 -0.00000000000E+00 -0.00000000000E+00 -0.45593999997E+02  0.45594000000E+02  0.51100000000E-03 0.  1.
    9900012    2    1    2    0    0 -0.30352857441E+02  0.33089396360E+02  0.35929598869E+01  0.46142317998E+02  0.10000002160E+02 0.  0.
        -12    1    1    2    0    0  0.30352857441E+02 -0.33089396360E+02 -0.35929598869E+01  0.45045682002E+02  0.00000000000E+00 0.  1.
         11    1    3    3    0    0 -0.22845164585E+02  0.25182230411E+02  0.45496439956E+00  0.34003724300E+02  0.51100000000E-03 0. -1.
        -11    1    3    3    0    0 -0.22488159263E+01  0.46684448360E+01 -0.62924975625E-01  0.51822302217E+01  0.51100000000E-03 0.  1.
         12    1    3    3    0    0 -0.52588769293E+01  0.32387211128E+01  0.32009204629E+01  0.69563634763E+01  0.00000000000E+00 0. -1.
</event>
<event>
 7    1  0.3846293E-008  0.4614232E+02  0.7816164E-02  0.1320468E+00
        -11   -1    0    0    0    0  0.00000000000E+00  0.00000000000E+00  0.45593999997E+02  0.45594000000E+02  0.51100000000E-03 0.  1.
         11   -1    0    0    0    0 -0.00000000000E+00 -0.00000000000E+00 -0.45593999997E+02  0.45594000000E+02  0.51100000000E-03 0. -1.
    9900012    2    1    2    0    0  0.29804503843E+02  0.13595370829E+02 -0.30918779319E+02  0.46142317944E+02  0.10000001670E+02 0.  0.
        -12    1    1    2    0    0 -0.29804503843E+02 -0.13595370829E+02  0.30918779319E+02  0.45045682056E+02  0.00000000000E+00 0.  1.
         11    1    3    3    0    0  0.15702495844E+02  0.11211836690E+02 -0.17823506894E+02  0.26266919423E+02  0.51100000000E-03 0. -1.
        -11    1    3    3    0    0 -0.18411249389E+00 -0.14658645203E+00 -0.87537919008E+00  0.90646234664E+00  0.51100000000E-03 0.  1.
         12    1    3    3    0    0  0.14286120493E+02  0.25301205910E+01 -0.12219893235E+02  0.18968936175E+02  0.00000000000E+00 0. -1.
</event>
<event>
 7    1  0.3846293E-008  0.4614232E+02  0.7816164E-02  0.1320468E+00
        -11   -1    0    0    0    0  0.00000000000E+00  0.00000000000E+00  0.45593999997E+02  0.45594000000E+02  0.51100000000E-03 0. -1.
         11   -1    0    0    0    0 -0.00000000000E+00 -0.00000000000E+00 -0.45593999997E+02  0.45594000000E+02  0.51100000000E-03 0.  1.
    9900012    2    1    2    0    0  0.22381641186E+02  0.36488142840E+02  0.14028223936E+02  0.46142317666E+02  0.99999991372E+01 0.  0.
        -12    1    1    2    0    0 -0.22381641186E+02 -0.36488142840E+02 -0.14028223936E+02  0.45045682334E+02  0.00000000000E+00 0.  1.
         11    1    3    3    0    0  0.12338933908E+02  0.20463232565E+02  0.10864038802E+02  0.26249200299E+02  0.51100000000E-03 0. -1.
        -11    1    3    3    0    0  0.70920907583E+01  0.86539596045E+01  0.40611744821E+01  0.11903020902E+02  0.51100000000E-03 0.  1.
        -12    1    3    3    0    0  0.29506165191E+01  0.73709506709E+01 -0.89698934782E+00  0.79900964654E+01  0.00000000000E+00 0.  1.
</event>
<event>
 7    1  0.3846293E-008  0.4614232E+02  0.7816164E-02  0.1320468E+00
        -11   -1    0    0    0    0  0.00000000000E+00  0.00000000000E+00  0.45593999997E+02  0.45594000000E+02  0.51100000000E-03 0.  1.
         11   -1    0    0    0    0 -0.00000000000E+00 -0.00000000000E+00 -0.45593999997E+02  0.45594000000E+02  0.51100000000E-03 0. -1.
    9900012    2    1    2    0    0 -0.52889447747E+01 -0.41109380936E+02 -0.17639712992E+02  0.46142316387E+02  0.99999874686E+01 0.  0.
        -12    1    1    2    0    0  0.52889447747E+01  0.41109380936E+02  0.17639712992E+02  0.45045683613E+02  0.00000000000E+00 0.  1.
         11    1    3    3    0    0 -0.26091969002E+01 -0.73826463563E+01 -0.29010569584E+01  0.83502998403E+01  0.51100000000E-03 0. -1.
        -11    1    3    3    0    0  0.29397595014E+00 -0.25196194201E+02 -0.13746566765E+02  0.28703705722E+02  0.51100000000E-03 0.  1.
        -12    1    3    3    0    0 -0.29737238246E+01 -0.85305403779E+01 -0.99208926826E+00  0.90883108244E+01  0.00000000000E+00 0.  1.
</event>
<event>
 7    1  0.3846293E-008  0.4614231E+02  0.7816164E-02  0.1320468E+00
        -11   -1    0    0    0    0  0.00000000000E+00  0.00000000000E+00  0.45593999997E+02  0.45594000000E+02  0.51100000000E-03 0. -1.
         11   -1    0    0    0    0 -0.00000000000E+00 -0.00000000000E+00 -0.45593999997E+02  0.45594000000E+02  0.51100000000E-03 0.  1.
    9900012    2    1    2    0    0 -0.20565449405E+02  0.29390321932E+02 -0.27246744742E+02  0.46142313952E+02  0.99999652641E+01 0.  0.
        -12    1    1    2    0    0  0.20565449405E+02 -0.29390321932E+02  0.27246744742E+02  0.45045686048E+02  0.00000000000E+00 0.  1.
         11    1    3    3    0    0 -0.15349443116E+02  0.26924313112E+02 -0.24242634009E+02  0.39347545597E+02  0.51100000000E-03 0. -1.
        -11    1    3    3    0    0 -0.13486746629E+01  0.56922397161E-01 -0.14490902934E+01  0.19804106759E+01  0.51100000000E-03 0.  1.
         12    1    3    3    0    0 -0.38673316256E+01  0.24090864230E+01 -0.15550204403E+01  0.48143576795E+01  0.00000000000E+00 0. -1.
</event>
<event>
 7    1  0.3846293E-008  0.4614232E+02  0.7816164E-02  0.1320468E+00
        -11   -1    0    0    0    0  0.00000000000E+00  0.00000000000E+00  0.45593999997E+02  0.45594000000E+02  0.51100000000E-03 0.  1.
         11   -1    0    0    0    0 -0.00000000000E+00 -0.00000000000E+00 -0.45593999997E+02  0.45594000000E+02  0.51100000000E-03 0. -1.
    9900012    2    1    2    0    0  0.29126426770E+02 -0.10310813224E+02 -0.32778832779E+02  0.46142317808E+02  0.10000000432E+02 0.  0.
        -12    1    1    2    0    0 -0.29126426770E+02  0.10310813224E+02  0.32778832779E+02  0.45045682192E+02  0.00000000000E+00 0.  1.
         11    1    3    3    0    0  0.96470715243E+01 -0.33614994102E+01 -0.14324285603E+02  0.17594056541E+02  0.51100000000E-03 0. -1.
        -11    1    3    3    0    0  0.63989402618E+01  0.63384530416E+00 -0.74892485990E+01  0.98710202706E+01  0.51100000000E-03 0.  1.
        -12    1    3    3    0    0  0.13080414984E+02 -0.75831591176E+01 -0.10965298577E+02  0.18677240996E+02  0.00000000000E+00 0.  1.
</event>
<event>
 7    1  0.3846293E-008  0.4614232E+02  0.7816164E-02  0.1320468E+00
        -11   -1    0    0    0    0  0.00000000000E+00  0.00000000000E+00  0.45593999997E+02  0.45594000000E+02  0.51100000000E-03 0.  1.
         11   -1    0    0    0    0 -0.00000000000E+00 -0.00000000000E+00 -0.45593999997E+02  0.45594000000E+02  0.51100000000E-03 0. -1.
    9900012    2    1    2    0    0  0.11736611213E+02  0.41375184251E+01 -0.43292567711E+02  0.46142317404E+02  0.99999967438E+01 0.  0.
        -12    1    1    2    0    0 -0.11736611213E+02 -0.41375184251E+01  0.43292567711E+02  0.45045682596E+02  0.00000000000E+00 0.  1.
         11    1    3    3    0    0  0.63534288375E+01  0.67653208088E+01 -0.24839801315E+02  0.26517001212E+02  0.51100000000E-03 0. -1.
        -11    1    3    3    0    0  0.15610595743E+01 -0.14939977196E+01 -0.10605722057E+02  0.10823598145E+02  0.51100000000E-03 0.  1.
         12    1    3    3    0    0  0.38221228017E+01 -0.11338046642E+01 -0.78470443391E+01  0.88017180475E+01  0.00000000000E+00 0. -1.
</event>
<event>
 7    1  0.3846293E-008  0.4614232E+02  0.7816164E-02  0.1320468E+00
        -11   -1    0    0    0    0  0.00000000000E+00  0.00000000000E+00  0.45593999997E+02  0.45594000000E+02  0.51100000000E-03 0.  1.
         11   -1    0    0    0    0 -0.00000000000E+00 -0.00000000000E+00 -0.45593999997E+02  0.45594000000E+02  0.51100000000E-03 0. -1.
    9900012    2    1    2    0    0 -0.10202338557E+02  0.34242508047E+02 -0.27431305957E+02  0.46142316346E+02  0.99999870922E+01 0.  0.
        -12    1    1    2    0    0  0.10202338557E+02 -0.34242508047E+02  0.27431305957E+02  0.45045683654E+02  0.00000000000E+00 0.  1.
         11    1    3    3    0    0 -0.46279968577E+01  0.17856843202E+02 -0.18844926316E+02  0.26370749935E+02  0.51100000000E-03 0. -1.
        -11    1    3    3    0    0 -0.23492490069E+01  0.35413904323E+01 -0.37668045968E+01  0.56788409224E+01  0.51100000000E-03 0.  1.
        -12    1    3    3    0    0 -0.32250926922E+01  0.12844274413E+02 -0.48195750448E+01  0.14092725488E+02  0.00000000000E+00 0.  1.
</event>
