<event>
 7    1  0.1360399E-013  0.7246164E+02  0.7816164E-02  0.1226708E+00
        -11   -1    0    0    0    0  0.00000000000E+00  0.00000000000E+00  0.45593999997E+02  0.45594000000E+02  0.51100000000E-03 0.  1.
         11   -1    0    0    0    0 -0.00000000000E+00 -0.00000000000E+00 -0.45593999997E+02  0.45594000000E+02  0.51100000000E-03 0. -1.
    9900012    2    1    2    0    0  0.15725332418E+02  0.14222192621E+01  0.10068156050E+02  0.72461640142E+02  0.70000090989E+02 0.  0.
         12    1    1    2    0    0 -0.15725332418E+02 -0.14222192621E+01 -0.10068156050E+02  0.18726359858E+02  0.00000000000E+00 0. -1.
         11    1    3    3    0    0  0.32684685209E+02 -0.21324291404E+02 -0.22707998392E+00  0.39026473280E+02  0.51100000000E-03 0.  1.
        -11    1    3    3    0    0 -0.17567387247E+02  0.16695632208E+02  0.37899113989E+01  0.24529995071E+02  0.51100000000E-03 0. -1.
        -12    1    3    3    0    0  0.60803445685E+00  0.60508784582E+01  0.65053246350E+01  0.89051717908E+01  0.00000000000E+00 0.  1.
</event>
<event>
 8    1  0.1360399E-013  0.7246154E+02  0.7816164E-02  0.1226708E+00
        -11   -1    0    0    0    0  0.00000000000E+00  0.00000000000E+00  0.45593999997E+02  0.45594000000E+02  0.51100000000E-03 0.  1.
         11   -1    0    0    0    0 -0.00000000000E+00 -0.00000000000E+00 -0.45593999997E+02  0.45594000000E+02  0.51100000000E-03 0. -1.
    9900012    2    1    2    0    0  0.11513566159E+02  0.13860944444E+02  0.50982820106E+01  0.72461535678E+02  0.69999954905E+02 0.  0.
         24    2    3    3    0    0  0.14044681324E+02  0.14862559642E+02  0.17009431086E+02  0.60243301372E+02  0.54053546245E+02 0.  0.
         12    1    1    2    0    0 -0.11513566159E+02 -0.13860944444E+02 -0.50982820106E+01  0.18726464322E+02  0.00000000000E+00 0. -1.
         11    1    3    3    0    0 -0.25311151659E+01 -0.10016151984E+01 -0.11911149076E+02  0.12218234306E+02  0.51100000000E-03 0. -1.
        -11    1    4    4    0    0  0.16020352112E+02  0.34476352039E+02  0.12522813093E+02  0.40026133710E+02  0.51100000000E-03 0.  1.
         12    1    4    4    0    0 -0.19756707880E+01 -0.19613792397E+02  0.44866179936E+01  0.20217167662E+02  0.00000000000E+00 0. -1.
</event>
<event>
 7    1  0.1360399E-013  0.7246157E+02  0.7816164E-02  0.1226708E+00
        -11   -1    0    0    0    0  0.00000000000E+00  0.00000000000E+00  0.45593999997E+02  0.45594000000E+02  0.51100000000E-03 0.  1.
         11   -1    0    0    0    0 -0.00000000000E+00 -0.00000000000E+00 -0.45593999997E+02  0.45594000000E+02  0.51100000000E-03 0. -1.
    9900012    2    1    2    0    0 -0.64586905607E+01 -0.17575643724E+02  0.24718309256E+00  0.72461573871E+02  0.70000004660E+02 0.  0.
         12    1    1    2    0    0  0.64586905607E+01  0.17575643724E+02 -0.24718309256E+00  0.18726426129E+02  0.00000000000E+00 0. -1.
         11    1    3    3    0    0 -0.28867784948E+02 -0.23378822389E+02 -0.30447407538E+01  0.37271823012E+02  0.51100000000E-03 0. -1.
        -11    1    3    3    0    0  0.19431267021E+01  0.70230425338E+01  0.11077197248E+02  0.13259078661E+02  0.51100000000E-03 0.  1.
         12    1    3    3    0    0  0.20465967685E+02 -0.12198638687E+01 -0.77852734015E+01  0.21930672199E+02  0.00000000000E+00 0. -1.
</event>
<event>
 7    1  0.1360399E-013  0.7246172E+02  0.7816164E-02  0.1226708E+00
        -11   -1    0    0    0    0  0.00000000000E+00  0.00000000000E+00  0.45593999997E+02  0.45594000000E+02  0.51100000000E-03 0.  1.
         11   -1    0    0    0    0 -0.00000000000E+00 -0.00000000000E+00 -0.45593999997E+02  0.45594000000E+02  0.51100000000E-03 0. -1.
    9900012    2    1    2    0    0 -0.16572549711E+02 -0.68620548140E+01  0.53792512499E+01  0.72461720492E+02  0.70000195660E+02 0.  0.
         12    1    1    2    0    0  0.16572549711E+02  0.68620548140E+01 -0.53792512499E+01  0.18726279508E+02  0.00000000000E+00 0. -1.
         11    1    3    3    0    0  0.22789907610E+02  0.50852696019E+01  0.19427992200E+01  0.23431054711E+02  0.51100000000E-03 0. -1.
        -11    1    3    3    0    0 -0.24180618829E+02 -0.12360158159E+02 -0.98140103462E+01  0.28875433088E+02  0.51100000000E-03 0.  1.
         12    1    3    3    0    0 -0.15181838493E+02  0.41283374310E+00  0.13250462376E+02  0.20155232693E+02  0.00000000000E+00 0. -1.
</event>
<event>
 7    1  0.1360399E-013  0.7246143E+02  0.7816164E-02  0.1226708E+00
        -11   -1    0    0    0    0  0.00000000000E+00  0.00000000000E+00  0.45593999997E+02  0.45594000000E+02  0.51100000000E-03 0. -1.
         11   -1    0    0    0    0 -0.00000000000E+00 -0.00000000000E+00 -0.45593999997E+02  0.45594000000E+02  0.51100000000E-03 0.  1.
    9900012    2    1    2    0    0  0.12484536538E+02  0.92116452555E+01 -0.10486493364E+02  0.72461425194E+02  0.69999810980E+02 0.  0.
         12    1    1    2    0    0 -0.12484536538E+02 -0.92116452555E+01  0.10486493364E+02  0.18726574806E+02  0.00000000000E+00 0. -1.
         11    1    3    3    0    0  0.64557922843E+01  0.16030398017E+02  0.23351062073E+02  0.29050353093E+02  0.51100000000E-03 0.  1.
        -11    1    3    3    0    0  0.45067805781E+01 -0.16485031367E+02 -0.24603769503E+02  0.29956849040E+02  0.51100000000E-03 0. -1.
        -12    1    3    3    0    0  0.15219636760E+01  0.96662786057E+01 -0.92337859340E+01  0.13454223062E+02  0.00000000000E+00 0.  1.
</event>
<event>
 7    1  0.1360399E-013  0.7246161E+02  0.7816164E-02  0.1226708E+00
        -11   -1    0    0    0    0  0.00000000000E+00  0.00000000000E+00  0.45593999997E+02  0.45594000000E+02  0.51100000000E-03 0. -1.
         11   -1    0    0    0    0 -0.00000000000E+00 -0.00000000000E+00 -0.45593999997E+02  0.45594000000E+02  0.51100000000E-03 0.  1.
    9900012    2    1    2    0    0  0.12637279185E+02  0.58847079748E+01 -0.12503882539E+02  0.72461609753E+02  0.70000051402E+02 0.  0.
         12    1    1    2    0    0 -0.12637279185E+02 -0.58847079748E+01  0.12503882539E+02  0.18726390247E+02  0.00000000000E+00 0. -1.
         11    1    3    3    0    0  0.19425250462E+02 -0.13463688228E+01  0.15340362031E+02  0.24788702508E+02  0.51100000000E-03 0. -1.
        -11    1    3    3    0    0 -0.22079273779E+02  0.37267821085E+01 -0.12120023598E+02  0.25461308053E+02  0.51100000000E-03 0.  1.
         12    1    3    3    0    0  0.15291302502E+02  0.35042946891E+01 -0.15724220972E+02  0.22211599192E+02  0.00000000000E+00 0. -1.
</event>
<event>
 7    1  0.1360399E-013  0.7246153E+02  0.7816164E-02  0.1226708E+00
        -11   -1    0    0    0    0  0.00000000000E+00  0.00000000000E+00  0.45593999997E+02  0.45594000000E+02  0.51100000000E-03 0. -1.
         11   -1    0    0    0    0 -0.00000000000E+00 -0.00000000000E+00 -0.45593999997E+02  0.45594000000E+02  0.51100000000E-03 0.  1.
    9900012    2    1    2    0    0 -0.18367378047E+02  0.29741979547E+01  0.21152410396E+01  0.72461530112E+02  0.69999947656E+02 0.  0.
         12    1    1    2    0    0  0.18367378047E+02 -0.29741979547E+01 -0.21152410396E+01  0.18726469888E+02  0.00000000000E+00 0. -1.
         11    1    3    3    0    0 -0.30243803018E+02 -0.60042460053E+01  0.24291281238E+02  0.39253088229E+02  0.51100000000E-03 0. -1.
        -11    1    3    3    0    0  0.77326933880E+01  0.10479650739E+02 -0.27788957967E+01  0.13316902371E+02  0.51100000000E-03 0.  1.
         12    1    3    3    0    0  0.41437315835E+01 -0.15012067794E+01 -0.19397144401E+02  0.19891539512E+02  0.00000000000E+00 0. -1.
</event>
<event>
 7    1  0.1360399E-013  0.7246163E+02  0.7816164E-02  0.1226708E+00
        -11   -1    0    0    0    0  0.00000000000E+00  0.00000000000E+00  0.45593999997E+02  0.45594000000E+02  0.51100000000E-03 0.  1.
         11   -1    0    0    0    0 -0.00000000000E+00 -0.00000000000E+00 -0.45593999997E+02  0.45594000000E+02  0.51100000000E-03 0. -1.
    9900012    2    1    2    0    0 -0.77949695033E+01  0.71496163039E+01  0.15453101961E+02  0.72461630275E+02  0.70000078136E+02 0.  0.
         12    1    1    2    0    0  0.77949695033E+01 -0.71496163039E+01 -0.15453101961E+02  0.18726369725E+02  0.00000000000E+00 0. -1.
         11    1    3    3    0    0 -0.20545953511E+02 -0.24210633054E+02  0.17215026666E+02  0.36119912817E+02  0.51100000000E-03 0.  1.
        -11    1    3    3    0    0  0.97712195581E+01  0.31148372374E+02  0.41120373105E+00  0.32647617401E+02  0.51100000000E-03 0. -1.
        -12    1    3    3    0    0  0.29797644492E+01  0.21187698427E+00 -0.21731284356E+01  0.36941000565E+01  0.00000000000E+00 0.  1.
</event>
<event>
 7    1  0.1360399E-013  0.7246156E+02  0.7816164E-02  0.1226708E+00
        -11   -1    0    0    0    0  0.00000000000E+00  0.00000000000E+00  0.45593999997E+02  0.45594000000E+02  0.51100000000E-03 0.  1.
         11   -1    0    0    0    0 -0.00000000000E+00 -0.00000000000E+00 -0.45593999997E+02  0.45594000000E+02  0.51100000000E-03 0. -1.
    9900012    2    1    2    0    0 -0.48860080811E+00 -0.12724087320E+02  0.13730930169E+02  0.72461559543E+02  0.69999985995E+02 0.  0.
         12    1    1    2    0    0  0.48860080811E+00  0.12724087320E+02 -0.13730930169E+02  0.18726440457E+02  0.00000000000E+00 0. -1.
         11    1    3    3    0    0  0.67233258978E+01  0.12332105145E+02 -0.61813899320E+01  0.15345797802E+02  0.51100000000E-03 0. -1.
        -11    1    3    3    0    0 -0.22865025976E+02 -0.28841514164E+02  0.97566201254E+01  0.38076685631E+02  0.51100000000E-03 0.  1.
        -12    1    3    3    0    0  0.15653099270E+02  0.37853216995E+01  0.10155699976E+02  0.19039076110E+02  0.00000000000E+00 0.  1.
</event>
<event>
 7    1  0.1360399E-013  0.7246155E+02  0.7816164E-02  0.1226708E+00
        -11   -1    0    0    0    0  0.00000000000E+00  0.00000000000E+00  0.45593999997E+02  0.45594000000E+02  0.51100000000E-03 0.  1.
         11   -1    0    0    0    0 -0.00000000000E+00 -0.00000000000E+00 -0.45593999997E+02  0.45594000000E+02  0.51100000000E-03 0. -1.
    9900012    2    1    2    0    0  0.18373208168E+02  0.25242574385E+01  0.25948399697E+01  0.72461552166E+02  0.69999976385E+02 0.  0.
         12    1    1    2    0    0 -0.18373208168E+02 -0.25242574385E+01 -0.25948399697E+01  0.18726447834E+02  0.00000000000E+00 0. -1.
         11    1    3    3    0    0 -0.75302855193E+01 -0.72671777543E+01 -0.95968286448E+01  0.14199161694E+02  0.51100000000E-03 0. -1.
        -11    1    3    3    0    0  0.40591344095E+02  0.33508134723E+01  0.10954438077E+02  0.42176828712E+02  0.51100000000E-03 0.  1.
        -12    1    3    3    0    0 -0.14687850408E+02  0.64406217205E+01  0.12372305370E+01  0.16085561760E+02  0.00000000000E+00 0.  1.
</event>
<event>
 7    1  0.1360399E-013  0.7246154E+02  0.7816164E-02  0.1226708E+00
        -11   -1    0    0    0    0  0.00000000000E+00  0.00000000000E+00  0.45593999997E+02  0.45594000000E+02  0.51100000000E-03 0.  1.
         11   -1    0    0    0    0 -0.00000000000E+00 -0.00000000000E+00 -0.45593999997E+02  0.45594000000E+02  0.51100000000E-03 0. -1.
    9900012    2    1    2    0    0 -0.62846668137E+01  0.14443391318E+02  0.10127765427E+02  0.72461542186E+02  0.69999963383E+02 0.  0.
         12    1    1    2    0    0  0.62846668137E+01 -0.14443391318E+02 -0.10127765427E+02  0.18726457814E+02  0.00000000000E+00 0. -1.
         11    1    3    3    0    0  0.14168355676E+01 -0.82760881680E+01 -0.23293293882E+02  0.24760424038E+02  0.51100000000E-03 0. -1.
        -11    1    3    3    0    0 -0.14242328896E+02  0.55524276882E+01  0.18745078595E+02  0.24187834906E+02  0.51100000000E-03 0.  1.
         12    1    3    3    0    0  0.65408265152E+01  0.17167051798E+02  0.14675980714E+02  0.23513283243E+02  0.00000000000E+00 0. -1.
</event>
<event>
 7    1  0.1360399E-013  0.7246157E+02  0.7816164E-02  0.1226708E+00
        -11   -1    0    0    0    0  0.00000000000E+00  0.00000000000E+00  0.45593999997E+02  0.45594000000E+02  0.51100000000E-03 0.  1.
         11   -1    0    0    0    0 -0.00000000000E+00 -0.00000000000E+00 -0.45593999997E+02  0.45594000000E+02  0.51100000000E-03 0. -1.
    9900012    2    1    2    0    0  0.10642431924E+02  0.96387743811E+01  0.12021310701E+02  0.72461568418E+02  0.69999997556E+02 0.  0.
         12    1    1    2    0    0 -0.10642431924E+02 -0.96387743811E+01 -0.12021310701E+02  0.18726431582E+02  0.00000000000E+00 0. -1.
         11    1    3    3    0    0 -0.24878521787E+02 -0.13124549850E+02  0.71504322447E+01  0.29022807180E+02  0.51100000000E-03 0. -1.
        -11    1    3    3    0    0  0.71119971336E+01  0.18062397204E+01 -0.16945910725E+01  0.75309125822E+01  0.51100000000E-03 0.  1.
         12    1    3    3    0    0  0.28408956577E+02  0.20957084511E+02  0.65654695287E+01  0.35907848656E+02  0.00000000000E+00 0. -1.
</event>
<event>
 7    1  0.1360399E-013  0.7246158E+02  0.7816164E-02  0.1226708E+00
        -11   -1    0    0    0    0  0.00000000000E+00  0.00000000000E+00  0.45593999997E+02  0.45594000000E+02  0.51100000000E-03 0. -1.
         11   -1    0    0    0    0 -0.00000000000E+00 -0.00000000000E+00 -0.45593999997E+02  0.45594000000E+02  0.51100000000E-03 0.  1.
    9900012    2    1    2    0    0 -0.10365549933E+02  0.76687998304E+01 -0.13580264479E+02  0.72461582843E+02  0.70000016346E+02 0.  0.
         12    1    1    2    0    0  0.10365549933E+02 -0.76687998304E+01  0.13580264479E+02  0.18726417157E+02  0.00000000000E+00 0. -1.
         11    1    3    3    0    0  0.22527206893E+02  0.16612832596E+02  0.40010106995E+01  0.28274888933E+02  0.51100000000E-03 0. -1.
        -11    1    3    3    0    0 -0.21111208099E+02 -0.14611969533E+02 -0.52320416806E+01  0.26202423962E+02  0.51100000000E-03 0.  1.
        -12    1    3    3    0    0 -0.11781548726E+02  0.56679367674E+01 -0.12349233498E+02  0.17984269948E+02  0.00000000000E+00 0.  1.
</event>
<event>
 7    1  0.1360399E-013  0.7246153E+02  0.7816164E-02  0.1226708E+00
        -11   -1    0    0    0    0  0.00000000000E+00  0.00000000000E+00  0.45593999997E+02  0.45594000000E+02  0.51100000000E-03 0.  1.
         11   -1    0    0    0    0 -0.00000000000E+00 -0.00000000000E+00 -0.45593999997E+02  0.45594000000E+02  0.51100000000E-03 0. -1.
    9900012    2    1    2    0    0  0.55217841777E+01 -0.86038256490E+01  0.15689644113E+02  0.72461525460E+02  0.69999941595E+02 0.  0.
         12    1    1    2    0    0 -0.55217841777E+01  0.86038256490E+01 -0.15689644113E+02  0.18726474540E+02  0.00000000000E+00 0. -1.
         11    1    3    3    0    0 -0.18220752743E+02 -0.10888355799E+02 -0.67820040778E+01  0.22283350334E+02  0.51100000000E-03 0. -1.
        -11    1    3    3    0    0  0.29696578598E+02 -0.46483955202E+01  0.26611446531E+02  0.40145528369E+02  0.51100000000E-03 0.  1.
        -12    1    3    3    0    0 -0.59540416767E+01  0.69329256704E+01 -0.41397983402E+01  0.10032646756E+02  0.00000000000E+00 0.  1.
</event>
<event>
 7    1  0.1360399E-013  0.7246159E+02  0.7816164E-02  0.1226708E+00
        -11   -1    0    0    0    0  0.00000000000E+00  0.00000000000E+00  0.45593999997E+02  0.45594000000E+02  0.51100000000E-03 0.  1.
         11   -1    0    0    0    0 -0.00000000000E+00 -0.00000000000E+00 -0.45593999997E+02  0.45594000000E+02  0.51100000000E-03 0. -1.
    9900012    2    1    2    0    0 -0.17372353203E+02  0.59477688021E+01  0.36747528752E+01  0.72461590354E+02  0.70000026132E+02 0.  0.
         12    1    1    2    0    0  0.17372353203E+02 -0.59477688021E+01 -0.36747528752E+01  0.18726409646E+02  0.00000000000E+00 0. -1.
         11    1    3    3    0    0 -0.33954101384E+01  0.11061584577E+02  0.23891821829E+02  0.26546310740E+02  0.51100000000E-03 0.  1.
        -11    1    3    3    0    0 -0.23508460540E+02 -0.12419084950E+02 -0.21000521939E+02  0.33880721804E+02  0.51100000000E-03 0. -1.
         12    1    3    3    0    0  0.95315174751E+01  0.73052691754E+01  0.78345298571E+00  0.12034557810E+02  0.00000000000E+00 0. -1.
</event>
<event>
 7    1  0.1360399E-013  0.7246155E+02  0.7816164E-02  0.1226708E+00
        -11   -1    0    0    0    0  0.00000000000E+00  0.00000000000E+00  0.45593999997E+02  0.45594000000E+02  0.51100000000E-03 0.  1.
         11   -1    0    0    0    0 -0.00000000000E+00 -0.00000000000E+00 -0.45593999997E+02  0.45594000000E+02  0.51100000000E-03 0. -1.
    9900012    2    1    2    0    0 -0.16259476360E+02 -0.23872160374E+01  0.89783293949E+01  0.72461554245E+02  0.69999979092E+02 0.  0.
         12    1    1    2    0    0  0.16259476360E+02  0.23872160374E+01 -0.89783293949E+01  0.18726445755E+02  0.00000000000E+00 0. -1.
         11    1    3    3    0    0  0.97234657504E+01 -0.26900878798E+02 -0.28241132648E+01  0.28743324135E+02  0.51100000000E-03 0. -1.
        -11    1    3    3    0    0 -0.15164551629E+02  0.26369525347E+02  0.50616883471E+01  0.30837253157E+02  0.51100000000E-03 0.  1.
        -12    1    3    3    0    0 -0.10818390481E+02 -0.18558625857E+01  0.67407543126E+01  0.12880976952E+02  0.00000000000E+00 0.  1.
</event>
<event>
 7    1  0.1360399E-013  0.7246159E+02  0.7816164E-02  0.1226708E+00
        -11   -1    0    0    0    0  0.00000000000E+00  0.00000000000E+00  0.45593999997E+02  0.45594000000E+02  0.51100000000E-03 0.  1.
         11   -1    0    0    0    0 -0.00000000000E+00 -0.00000000000E+00 -0.45593999997E+02  0.45594000000E+02  0.51100000000E-03 0. -1.
    9900012    2    1    2    0    0  0.14696848570E+02  0.12447332053E+01  0.11538275436E+02  0.72461587671E+02  0.70000022637E+02 0.  0.
         12    1    1    2    0    0 -0.14696848570E+02 -0.12447332053E+01 -0.11538275436E+02  0.18726412329E+02  0.00000000000E+00 0. -1.
         11    1    3    3    0    0  0.79180579736E+01 -0.12780224992E+02  0.62266169256E+01  0.16272693432E+02  0.51100000000E-03 0. -1.
        -11    1    3    3    0    0  0.55820024351E+00  0.20522598303E+02  0.26294036501E+02  0.33359631059E+02  0.51100000000E-03 0.  1.
        -12    1    3    3    0    0  0.62205903534E+01 -0.64976401053E+01 -0.20982377990E+02  0.22829263181E+02  0.00000000000E+00 0.  1.
</event>
<event>
 7    1  0.1360399E-013  0.7246158E+02  0.7816164E-02  0.1226708E+00
        -11   -1    0    0    0    0  0.00000000000E+00  0.00000000000E+00  0.45593999997E+02  0.45594000000E+02  0.51100000000E-03 0.  1.
         11   -1    0    0    0    0 -0.00000000000E+00 -0.00000000000E+00 -0.45593999997E+02  0.45594000000E+02  0.51100000000E-03 0. -1.
    9900012    2    1    2    0    0  0.34106548223E+01  0.18369153382E+02 -0.12729840052E+01  0.72461578811E+02  0.70000011094E+02 0.  0.
         12    1    1    2    0    0 -0.34106548223E+01 -0.18369153382E+02  0.12729840052E+01  0.18726421189E+02  0.00000000000E+00 0. -1.
         11    1    3    3    0    0  0.84970984375E+01  0.25520970084E+02  0.22360488880E+02  0.34978737243E+02  0.51100000000E-03 0.  1.
        -11    1    3    3    0    0 -0.21989621702E+01  0.98844588737E+01 -0.15177738985E+02  0.18245594614E+02  0.51100000000E-03 0. -1.
         12    1    3    3    0    0 -0.28874814451E+01 -0.17036275576E+02 -0.84557338998E+01  0.19237246954E+02  0.00000000000E+00 0. -1.
</event>
<event>
 7    1  0.1360399E-013  0.7246156E+02  0.7816164E-02  0.1226708E+00
        -11   -1    0    0    0    0  0.00000000000E+00  0.00000000000E+00  0.45593999997E+02  0.45594000000E+02  0.51100000000E-03 0.  1.
         11   -1    0    0    0    0 -0.00000000000E+00 -0.00000000000E+00 -0.45593999997E+02  0.45594000000E+02  0.51100000000E-03 0. -1.
    9900012    2    1    2    0    0  0.15410331644E+02  0.64514517705E+01 -0.84604987326E+01  0.72461559064E+02  0.69999985371E+02 0.  0.
         12    1    1    2    0    0 -0.15410331644E+02 -0.64514517705E+01  0.84604987326E+01  0.18726440936E+02  0.00000000000E+00 0. -1.
         11    1    3    3    0    0 -0.19218926727E+02  0.19066636767E+02 -0.16580242092E+02  0.31745995184E+02  0.51100000000E-03 0. -1.
        -11    1    3    3    0    0  0.20697011778E+02 -0.68289833853E+01 -0.29646216996E+01  0.21995233409E+02  0.51100000000E-03 0.  1.
        -12    1    3    3    0    0  0.13932246593E+02 -0.57862016110E+01  0.11084365059E+02  0.18720330471E+02  0.00000000000E+00 0.  1.
</event>
<event>
 7    1  0.1360399E-013  0.7246157E+02  0.7816164E-02  0.1226708E+00
        -11   -1    0    0    0    0  0.00000000000E+00  0.00000000000E+00  0.45593999997E+02  0.45594000000E+02  0.51100000000E-03 0. -1.
         11   -1    0    0    0    0 -0.00000000000E+00 -0.00000000000E+00 -0.45593999997E+02  0.45594000000E+02  0.51100000000E-03 0.  1.
    9900012    2    1    2    0    0  0.84648091434E+01 -0.15467623378E+02  0.63070364507E+01  0.72461572803E+02  0.70000003267E+02 0.  0.
         12    1    1    2    0    0 -0.84648091434E+01  0.15467623378E+02 -0.63070364507E+01  0.18726427197E+02  0.00000000000E+00 0. -1.
         11    1    3    3    0    0 -0.16481254711E+02  0.16222662933E+02  0.75599095927E+01  0.24330203098E+02  0.51100000000E-03 0.  1.
        -11    1    3    3    0    0  0.25138911607E+02 -0.19506054594E+02  0.80252591238E+01  0.32815481513E+02  0.51100000000E-03 0. -1.
        -12    1    3    3    0    0 -0.19284775301E+00 -0.12184231716E+02 -0.92781322657E+01  0.15315888192E+02  0.00000000000E+00 0.  1.
</event>
<event>
 7    1  0.1360399E-013  0.7246161E+02  0.7816164E-02  0.1226708E+00
        -11   -1    0    0    0    0  0.00000000000E+00  0.00000000000E+00  0.45593999997E+02  0.45594000000E+02  0.51100000000E-03 0.  1.
         11   -1    0    0    0    0 -0.00000000000E+00 -0.00000000000E+00 -0.45593999997E+02  0.45594000000E+02  0.51100000000E-03 0. -1.
    9900012    2    1    2    0    0  0.16498499868E+01 -0.12312818968E+02  0.14012503119E+02  0.72461607940E+02  0.70000049041E+02 0.  0.
         12    1    1    2    0    0 -0.16498499868E+01  0.12312818968E+02 -0.14012503119E+02  0.18726392060E+02  0.00000000000E+00 0. -1.
         11    1    3    3    0    0 -0.20129435425E+02 -0.11933083989E+02  0.89099631950E+01  0.25039570851E+02  0.51100000000E-03 0. -1.
        -11    1    3    3    0    0  0.17827705617E+02 -0.87904067967E+01  0.21058127085E+02  0.28957607909E+02  0.51100000000E-03 0.  1.
        -12    1    3    3    0    0  0.39515797951E+01  0.84106718174E+01 -0.15955587161E+02  0.18464429180E+02  0.00000000000E+00 0.  1.
</event>
<event>
 7    1  0.1360399E-013  0.7246157E+02  0.7816164E-02  0.1226708E+00
        -11   -1    0    0    0    0  0.00000000000E+00  0.00000000000E+00  0.45593999997E+02  0.45594000000E+02  0.51100000000E-03 0.  1.
         11   -1    0    0    0    0 -0.00000000000E+00 -0.00000000000E+00 -0.45593999997E+02  0.45594000000E+02  0.51100000000E-03 0. -1.
    9900012    2    1    2    0    0  0.14346770060E+02  0.11909873668E+02  0.17332961414E+01  0.72461569014E+02  0.69999998333E+02 0.  0.
         12    1    1    2    0    0 -0.14346770060E+02 -0.11909873668E+02 -0.17332961414E+01  0.18726430986E+02  0.00000000000E+00 0. -1.
         11    1    3    3    0    0 -0.35827586282E+01  0.19796005514E+02  0.62365240800E+01  0.21062104039E+02  0.51100000000E-03 0.  1.
        -11    1    3    3    0    0  0.25071091621E+02 -0.17284462536E+02  0.10588213816E+02  0.32240076804E+02  0.51100000000E-03 0. -1.
        -12    1    3    3    0    0 -0.71415629329E+01  0.93983306903E+01 -0.15091441755E+02  0.19159388172E+02  0.00000000000E+00 0.  1.
</event>
<event>
 7    1  0.1360399E-013  0.7246159E+02  0.7816164E-02  0.1226708E+00
        -11   -1    0    0    0    0  0.00000000000E+00  0.00000000000E+00  0.45593999997E+02  0.45594000000E+02  0.51100000000E-03 0.  1.
         11   -1    0    0    0    0 -0.00000000000E+00 -0.00000000000E+00 -0.45593999997E+02  0.45594000000E+02  0.51100000000E-03 0. -1.
    9900012    2    1    2    0    0 -0.54506177761E+01 -0.16431421181E+02  0.71398521353E+01  0.72461592852E+02  0.70000029385E+02 0.  0.
         12    1    1    2    0    0  0.54506177761E+01  0.16431421181E+02 -0.71398521353E+01  0.18726407148E+02  0.00000000000E+00 0. -1.
         11    1    3    3    0    0 -0.78709104471E+01 -0.21322521772E+02 -0.12531156809E+02  0.25954403427E+02  0.51100000000E-03 0. -1.
        -11    1    3    3    0    0 -0.65130419192E+01  0.19517531592E+02  0.20894740988E+02  0.29324801034E+02  0.51100000000E-03 0.  1.
        -12    1    3    3    0    0  0.89333345902E+01 -0.14626431000E+02 -0.12237320436E+01  0.17182388391E+02  0.00000000000E+00 0.  1.
</event>
<event>
 7    1  0.1360399E-013  0.7246154E+02  0.7816164E-02  0.1226708E+00
        -11   -1    0    0    0    0  0.00000000000E+00  0.00000000000E+00  0.45593999997E+02  0.45594000000E+02  0.51100000000E-03 0.  1.
         11   -1    0    0    0    0 -0.00000000000E+00 -0.00000000000E+00 -0.45593999997E+02  0.45594000000E+02  0.51100000000E-03 0. -1.
    9900012    2    1    2    0    0  0.17582565066E+02  0.52657769648E+01  0.37155479955E+01  0.72461540157E+02  0.69999960740E+02 0.  0.
         12    1    1    2    0    0 -0.17582565066E+02 -0.52657769648E+01 -0.37155479955E+01  0.18726459843E+02  0.00000000000E+00 0. -1.
         11    1    3    3    0    0 -0.88514273731E+01  0.25191013566E+02  0.27946478659E+01  0.26846694172E+02  0.51100000000E-03 0. -1.
        -11    1    3    3    0    0  0.12911340931E+02 -0.64030651306E+01  0.15799385255E+02  0.21385100944E+02  0.51100000000E-03 0.  1.
         12    1    3    3    0    0  0.13522651509E+02 -0.13522171471E+02 -0.14878485125E+02  0.24229745041E+02  0.00000000000E+00 0. -1.
</event>
<event>
 7    1  0.1360399E-013  0.7246177E+02  0.7816164E-02  0.1226707E+00
        -11   -1    0    0    0    0  0.00000000000E+00  0.00000000000E+00  0.45593999997E+02  0.45594000000E+02  0.51100000000E-03 0. -1.
         11   -1    0    0    0    0 -0.00000000000E+00 -0.00000000000E+00 -0.45593999997E+02  0.45594000000E+02  0.51100000000E-03 0.  1.
    9900012    2    1    2    0    0 -0.38820031281E+01 -0.26139056957E+01 -0.18131990781E+02  0.72461773980E+02  0.70000265337E+02 0.  0.
         12    1    1    2    0    0  0.38820031281E+01  0.26139056957E+01  0.18131990781E+02  0.18726226020E+02  0.00000000000E+00 0. -1.
         11    1    3    3    0    0 -0.27663927896E+01 -0.33408357059E+02  0.12397307596E+00  0.33522926782E+02  0.51100000000E-03 0.  1.
        -11    1    3    3    0    0  0.27073328671E+01  0.26670844052E+02 -0.93217386391E+01  0.28382360458E+02  0.51100000000E-03 0. -1.
        -12    1    3    3    0    0 -0.38229432056E+01  0.41236073121E+01 -0.89342252182E+01  0.10556486739E+02  0.00000000000E+00 0.  1.
</event>
<event>
 7    1  0.1360399E-013  0.7246147E+02  0.7816164E-02  0.1226708E+00
        -11   -1    0    0    0    0  0.00000000000E+00  0.00000000000E+00  0.45593999997E+02  0.45594000000E+02  0.51100000000E-03 0. -1.
         11   -1    0    0    0    0 -0.00000000000E+00 -0.00000000000E+00 -0.45593999997E+02  0.45594000000E+02  0.51100000000E-03 0.  1.
    9900012    2    1    2    0    0 -0.28947143904E+01 -0.37161217349E+01 -0.18124399469E+02  0.72461473674E+02  0.69999874133E+02 0.  0.
         12    1    1    2    0    0  0.28947143904E+01  0.37161217349E+01  0.18124399469E+02  0.18726526326E+02  0.00000000000E+00 0. -1.
         11    1    3    3    0    0 -0.41486299007E+00  0.14928383026E+01 -0.27739600851E+02  0.27782838824E+02  0.51100000000E-03 0. -1.
        -11    1    3    3    0    0 -0.12866327586E+02 -0.16555054629E+02  0.17575328972E+02  0.27358808601E+02  0.51100000000E-03 0.  1.
         12    1    3    3    0    0  0.10386476186E+02  0.11346094592E+02 -0.79601275897E+01  0.17319826249E+02  0.00000000000E+00 0. -1.
</event>
<event>
 7    1  0.1360399E-013  0.7246159E+02  0.7816164E-02  0.1226708E+00
        -11   -1    0    0    0    0  0.00000000000E+00  0.00000000000E+00  0.45593999997E+02  0.45594000000E+02  0.51100000000E-03 0. -1.
         11   -1    0    0    0    0 -0.00000000000E+00 -0.00000000000E+00 -0.45593999997E+02  0.45594000000E+02  0.51100000000E-03 0.  1.
    9900012    2    1    2    0    0 -0.85443491947E+01  0.12148047573E+02 -0.11406035377E+02  0.72461585340E+02  0.70000019600E+02 0.  0.
         12    1    1    2    0    0  0.85443491947E+01 -0.12148047573E+02  0.11406035377E+02  0.18726414660E+02  0.00000000000E+00 0. -1.
         11    1    3    3    0    0 -0.69631164542E+01  0.28010495009E+02  0.18972301544E+02  0.34540136762E+02  0.51100000000E-03 0. -1.
        -11    1    3    3    0    0 -0.40132549219E+01 -0.15422983837E+02 -0.13566814987E+02  0.20929240661E+02  0.51100000000E-03 0.  1.
        -12    1    3    3    0    0  0.24320221814E+01 -0.43946359836E+00 -0.16811521934E+02  0.16992207917E+02  0.00000000000E+00 0.  1.
</event>
<event>
 7    1  0.1360399E-013  0.7246160E+02  0.7816164E-02  0.1226708E+00
        -11   -1    0    0    0    0  0.00000000000E+00  0.00000000000E+00  0.45593999997E+02  0.45594000000E+02  0.51100000000E-03 0.  1.
         11   -1    0    0    0    0 -0.00000000000E+00 -0.00000000000E+00 -0.45593999997E+02  0.45594000000E+02  0.51100000000E-03 0. -1.
    9900012    2    1    2    0    0  0.15306614972E+02  0.81203036849E+01  0.71025538207E+01  0.72461599796E+02  0.70000038431E+02 0.  0.
         12    1    1    2    0    0 -0.15306614972E+02 -0.81203036849E+01 -0.71025538207E+01  0.18726400204E+02  0.00000000000E+00 0. -1.
         11    1    3    3    0    0 -0.17112062520E+01 -0.13070202916E+02  0.16998619356E+02  0.21510729680E+02  0.51100000000E-03 0.  1.
        -11    1    3    3    0    0  0.21750436456E+02  0.21215977574E+02  0.88258106433E+01  0.31640071495E+02  0.51100000000E-03 0. -1.
        -12    1    3    3    0    0 -0.47326152317E+01 -0.25470972782E-01 -0.18721876179E+02  0.19310798620E+02  0.00000000000E+00 0.  1.
</event>
<event>
 7    1  0.1360399E-013  0.7246158E+02  0.7816164E-02  0.1226708E+00
        -11   -1    0    0    0    0  0.00000000000E+00  0.00000000000E+00  0.45593999997E+02  0.45594000000E+02  0.51100000000E-03 0.  1.
         11   -1    0    0    0    0 -0.00000000000E+00 -0.00000000000E+00 -0.45593999997E+02  0.45594000000E+02  0.51100000000E-03 0. -1.
    9900012    2    1    2    0    0  0.16671803325E+02  0.46035435145E+01  0.71789495058E+01  0.72461576022E+02  0.70000007461E+02 0.  0.
         12    1    1    2    0    0 -0.16671803325E+02 -0.46035435145E+01 -0.71789495058E+01  0.18726423978E+02  0.00000000000E+00 0. -1.
         11    1    3    3    0    0 -0.55713636766E-01 -0.92808995384E+01  0.28658707503E+02  0.30124072040E+02  0.51100000000E-03 0.  1.
        -11    1    3    3    0    0  0.15430363463E+02  0.31520695595E+01  0.25815842147E+01  0.15959205382E+02  0.51100000000E-03 0. -1.
         12    1    3    3    0    0  0.12971534992E+01  0.10732373493E+02 -0.24061342212E+02  0.26378298600E+02  0.00000000000E+00 0. -1.
</event>
<event>
 7    1  0.1360399E-013  0.7246163E+02  0.7816164E-02  0.1226708E+00
        -11   -1    0    0    0    0  0.00000000000E+00  0.00000000000E+00  0.45593999997E+02  0.45594000000E+02  0.51100000000E-03 0. -1.
         11   -1    0    0    0    0 -0.00000000000E+00 -0.00000000000E+00 -0.45593999997E+02  0.45594000000E+02  0.51100000000E-03 0.  1.
    9900012    2    1    2    0    0  0.96618192835E+01 -0.16039873605E+02  0.22081746050E+00  0.72461626687E+02  0.70000073462E+02 0.  0.
         12    1    1    2    0    0 -0.96618192835E+01  0.16039873605E+02 -0.22081746050E+00  0.18726373313E+02  0.00000000000E+00 0. -1.
         11    1    3    3    0    0 -0.39650107795E+01  0.22805818988E+02  0.11497854088E+01  0.23176468604E+02  0.51100000000E-03 0. -1.
        -11    1    3    3    0    0  0.17055240758E+02 -0.13733423746E+02  0.65563883390E+01  0.22857698778E+02  0.51100000000E-03 0.  1.
         12    1    3    3    0    0 -0.34284106954E+01 -0.25112268847E+02 -0.74853562873E+01  0.26427459305E+02  0.00000000000E+00 0. -1.
</event>
<event>
 7    1  0.1360399E-013  0.7246156E+02  0.7816164E-02  0.1226708E+00
        -11   -1    0    0    0    0  0.00000000000E+00  0.00000000000E+00  0.45593999997E+02  0.45594000000E+02  0.51100000000E-03 0.  1.
         11   -1    0    0    0    0 -0.00000000000E+00 -0.00000000000E+00 -0.45593999997E+02  0.45594000000E+02  0.51100000000E-03 0. -1.
    9900012    2    1    2    0    0 -0.15198751346E+02 -0.55823403750E+01  0.94082403080E+01  0.72461560076E+02  0.69999986688E+02 0.  0.
         12    1    1    2    0    0  0.15198751346E+02  0.55823403750E+01 -0.94082403080E+01  0.18726439924E+02  0.00000000000E+00 0. -1.
         11    1    3    3    0    0  0.16670336674E+02  0.53847686721E+01  0.21965300035E+02  0.28095733918E+02  0.51100000000E-03 0. -1.
        -11    1    3    3    0    0 -0.13163153539E+02 -0.16891258069E+02 -0.12395982022E+02  0.24743556349E+02  0.51100000000E-03 0.  1.
        -12    1    3    3    0    0 -0.18705934481E+02  0.59241490215E+01 -0.16107770525E+00  0.19622269809E+02  0.00000000000E+00 0.  1.
</event>
<event>
 7    1  0.1360399E-013  0.7246158E+02  0.7816164E-02  0.1226708E+00
        -11   -1    0    0    0    0  0.00000000000E+00  0.00000000000E+00  0.45593999997E+02  0.45594000000E+02  0.51100000000E-03 0.  1.
         11   -1    0    0    0    0 -0.00000000000E+00 -0.00000000000E+00 -0.45593999997E+02  0.45594000000E+02  0.51100000000E-03 0. -1.
    9900012    2    1    2    0    0  0.92924149690E+01  0.37091440366E+01  0.15829465238E+02  0.72461582960E+02  0.70000016499E+02 0.  0.
         12    1    1    2    0    0 -0.92924149690E+01 -0.37091440366E+01 -0.15829465238E+02  0.18726417040E+02  0.00000000000E+00 0. -1.
         11    1    3    3    0    0 -0.11223960259E+02 -0.31125503649E+01  0.61301589979E+01  0.13162222581E+02  0.51100000000E-03 0. -1.
        -11    1    3    3    0    0  0.10582099734E+02  0.68257801820E+01  0.32269574672E+02  0.34639537521E+02  0.51100000000E-03 0.  1.
        -12    1    3    3    0    0  0.99342754938E+01 -0.40857804304E-02 -0.22570268432E+02  0.24659822857E+02  0.00000000000E+00 0.  1.
</event>
<event>
 7    1  0.1360399E-013  0.7246124E+02  0.7816164E-02  0.1226709E+00
        -11   -1    0    0    0    0  0.00000000000E+00  0.00000000000E+00  0.45593999997E+02  0.45594000000E+02  0.51100000000E-03 0.  1.
         11   -1    0    0    0    0 -0.00000000000E+00 -0.00000000000E+00 -0.45593999997E+02  0.45594000000E+02  0.51100000000E-03 0. -1.
    9900012    2    1    2    0    0 -0.26061201353E+01  0.18278949601E+02  0.31272753202E+01  0.72461235420E+02  0.69999563763E+02 0.  0.
         12    1    1    2    0    0  0.26061201353E+01 -0.18278949601E+02 -0.31272753202E+01  0.18726764580E+02  0.00000000000E+00 0. -1.
         11    1    3    3    0    0 -0.26910330386E+02  0.25936191048E+02 -0.20965674966E+01  0.37433240350E+02  0.51100000000E-03 0. -1.
        -11    1    3    3    0    0  0.89951459506E+01  0.73514748424E+01 -0.31100589530E+01  0.12026192248E+02  0.51100000000E-03 0.  1.
         12    1    3    3    0    0  0.15309064300E+02 -0.15008716289E+02  0.83339017699E+01  0.23001802823E+02  0.00000000000E+00 0. -1.
</event>
<event>
 7    1  0.1360399E-013  0.7246093E+02  0.7816164E-02  0.1226710E+00
        -11   -1    0    0    0    0  0.00000000000E+00  0.00000000000E+00  0.45593999997E+02  0.45594000000E+02  0.51100000000E-03 0. -1.
         11   -1    0    0    0    0 -0.00000000000E+00 -0.00000000000E+00 -0.45593999997E+02  0.45594000000E+02  0.51100000000E-03 0.  1.
    9900012    2    1    2    0    0  0.76559613249E+01 -0.15925183239E+02 -0.62030727446E+01  0.72460925576E+02  0.69999160130E+02 0.  0.
         12    1    1    2    0    0 -0.76559613249E+01  0.15925183239E+02  0.62030727446E+01  0.18727074424E+02  0.00000000000E+00 0. -1.
         11    1    3    3    0    0 -0.26293651721E+02 -0.10992205316E+02 -0.14018723561E+02  0.31760184336E+02  0.51100000000E-03 0. -1.
        -11    1    3    3    0    0  0.12004672721E+02 -0.99035392849E+01 -0.28149648574E+01  0.15815065126E+02  0.51100000000E-03 0.  1.
         12    1    3    3    0    0  0.21944940324E+02  0.49705613617E+01  0.10630615673E+02  0.24885676115E+02  0.00000000000E+00 0. -1.
</event>
<event>
 7    1  0.1360399E-013  0.7246168E+02  0.7816164E-02  0.1226708E+00
        -11   -1    0    0    0    0  0.00000000000E+00  0.00000000000E+00  0.45593999997E+02  0.45594000000E+02  0.51100000000E-03 0.  1.
         11   -1    0    0    0    0 -0.00000000000E+00 -0.00000000000E+00 -0.45593999997E+02  0.45594000000E+02  0.51100000000E-03 0. -1.
    9900012    2    1    2    0    0 -0.59544133052E+01  0.89547764489E+01  0.15330750930E+02  0.72461682072E+02  0.70000145611E+02 0.  0.
         12    1    1    2    0    0  0.59544133052E+01 -0.89547764489E+01 -0.15330750930E+02  0.18726317928E+02  0.00000000000E+00 0. -1.
         11    1    3    3    0    0  0.13870400141E+01 -0.10627298820E+02 -0.15063825255E+02  0.18487352212E+02  0.51100000000E-03 0. -1.
        -11    1    3    3    0    0 -0.21004888156E+02  0.11675413092E+01  0.19096408882E+02  0.28411992391E+02  0.51100000000E-03 0.  1.
        -12    1    3    3    0    0  0.13663434837E+02  0.18414533960E+02  0.11298167303E+02  0.25562337470E+02  0.00000000000E+00 0.  1.
</event>
<event>
 7    1  0.1360399E-013  0.7246159E+02  0.7816164E-02  0.1226708E+00
        -11   -1    0    0    0    0  0.00000000000E+00  0.00000000000E+00  0.45593999997E+02  0.45594000000E+02  0.51100000000E-03 0. -1.
         11   -1    0    0    0    0 -0.00000000000E+00 -0.00000000000E+00 -0.45593999997E+02  0.45594000000E+02  0.51100000000E-03 0.  1.
    9900012    2    1    2    0    0  0.66534748581E+01 -0.90867804205E+01 -0.14961292719E+02  0.72461585877E+02  0.70000020299E+02 0.  0.
         12    1    1    2    0    0 -0.66534748581E+01  0.90867804205E+01  0.14961292719E+02  0.18726414123E+02  0.00000000000E+00 0. -1.
         11    1    3    3    0    0 -0.19214564205E+02  0.58643795436E+01 -0.36204898066E+01  0.20413191120E+02  0.51100000000E-03 0. -1.
        -11    1    3    3    0    0  0.79830743731E+01 -0.20886669943E+02 -0.21172375520E+02  0.30793699732E+02  0.51100000000E-03 0.  1.
         12    1    3    3    0    0  0.17884964690E+02  0.59355099788E+01  0.98315726082E+01  0.21254695025E+02  0.00000000000E+00 0. -1.
</event>
<event>
 7    1  0.1557377E-013  0.7246157E+02  0.7816164E-02  0.1226708E+00
        -11   -1    0    0    0    0  0.00000000000E+00  0.00000000000E+00  0.45593999997E+02  0.45594000000E+02  0.51100000000E-03 0. -1.
         11   -1    0    0    0    0 -0.00000000000E+00 -0.00000000000E+00 -0.45593999997E+02  0.45594000000E+02  0.51100000000E-03 0.  1.
    9900012    2    1    2    0    0  0.30687560610E+01  0.97387988953E+01 -0.15697699875E+02  0.72461568171E+02  0.69999997234E+02 0.  0.
         12    1    1    2    0    0 -0.30687560610E+01 -0.97387988953E+01  0.15697699875E+02  0.18726431829E+02  0.00000000000E+00 0. -1.
         11    1    3    3    0    0  0.14909422633E+01  0.28520400099E+02  0.16344141098E+01  0.28606073488E+02  0.51100000000E-03 0. -1.
        -11    1    3    3    0    0 -0.67583165159E+01 -0.16940400962E+02  0.58479475062E+01  0.19153342193E+02  0.51100000000E-03 0.  1.
        -12    1    3    3    0    0  0.83361303136E+01 -0.18412002421E+01 -0.23180061491E+02  0.24702152490E+02  0.00000000000E+00 0.  1.
</event>
<event>
 7    1  0.1360399E-013  0.7246162E+02  0.7816164E-02  0.1226708E+00
        -11   -1    0    0    0    0  0.00000000000E+00  0.00000000000E+00  0.45593999997E+02  0.45594000000E+02  0.51100000000E-03 0. -1.
         11   -1    0    0    0    0 -0.00000000000E+00 -0.00000000000E+00 -0.45593999997E+02  0.45594000000E+02  0.51100000000E-03 0.  1.
    9900012    2    1    2    0    0  0.97157394889E+01  0.15914962546E+02  0.17307775989E+01  0.72461622407E+02  0.70000067887E+02 0.  0.
         12    1    1    2    0    0 -0.97157394889E+01 -0.15914962546E+02 -0.17307775989E+01  0.18726377593E+02  0.00000000000E+00 0. -1.
         11    1    3    3    0    0 -0.17452567398E+02 -0.25211118125E+01  0.14047368360E+02  0.22544992163E+02  0.51100000000E-03 0.  1.
        -11    1    3    3    0    0  0.32700410328E+02  0.89441397474E+01 -0.17057542914E+02  0.37950945205E+02  0.51100000000E-03 0. -1.
        -12    1    3    3    0    0 -0.55321034413E+01  0.94919346106E+01  0.47409521534E+01  0.11965685039E+02  0.00000000000E+00 0.  1.
</event>
<event>
 7    1  0.1360399E-013  0.7246170E+02  0.7816164E-02  0.1226708E+00
        -11   -1    0    0    0    0  0.00000000000E+00  0.00000000000E+00  0.45593999997E+02  0.45594000000E+02  0.51100000000E-03 0. -1.
         11   -1    0    0    0    0 -0.00000000000E+00 -0.00000000000E+00 -0.45593999997E+02  0.45594000000E+02  0.51100000000E-03 0.  1.
    9900012    2    1    2    0    0  0.12502443495E+02  0.60001695424E+00  0.13928509025E+02  0.72461695576E+02  0.70000163203E+02 0.  0.
         12    1    1    2    0    0 -0.12502443495E+02 -0.60001695424E+00 -0.13928509025E+02  0.18726304424E+02  0.00000000000E+00 0. -1.
         11    1    3    3    0    0  0.25914144709E+02 -0.26257194633E+01  0.19619470834E+02  0.32609215488E+02  0.51100000000E-03 0. -1.
        -11    1    3    3    0    0 -0.17870855834E+01  0.10431784945E+02 -0.18371203161E+02  0.21201814023E+02  0.51100000000E-03 0.  1.
        -12    1    3    3    0    0 -0.11624615630E+02 -0.72060485277E+01  0.12680241352E+02  0.18650666065E+02  0.00000000000E+00 0.  1.
</event>
<event>
 7    1  0.1360399E-013  0.7246165E+02  0.7816164E-02  0.1226708E+00
        -11   -1    0    0    0    0  0.00000000000E+00  0.00000000000E+00  0.45593999997E+02  0.45594000000E+02  0.51100000000E-03 0. -1.
         11   -1    0    0    0    0 -0.00000000000E+00 -0.00000000000E+00 -0.45593999997E+02  0.45594000000E+02  0.51100000000E-03 0.  1.
    9900012    2    1    2    0    0 -0.11086207320E+02 -0.26249120336E+01 -0.14862106260E+02  0.72461645352E+02  0.70000097777E+02 0.  0.
         12    1    1    2    0    0  0.11086207320E+02  0.26249120336E+01  0.14862106260E+02  0.18726354648E+02  0.00000000000E+00 0. -1.
         11    1    3    3    0    0 -0.64948915378E+01 -0.23086732510E+02  0.10061561074E+02  0.26007995801E+02  0.51100000000E-03 0.  1.
        -11    1    3    3    0    0 -0.53604583786E+01  0.24511549420E+02 -0.43426420082E+01  0.25463878512E+02  0.51100000000E-03 0. -1.
         12    1    3    3    0    0  0.76914259651E+00 -0.40497289430E+01 -0.20581025325E+02  0.20989771039E+02  0.00000000000E+00 0. -1.
</event>
<event>
 7    1  0.1360399E-013  0.7246149E+02  0.7816164E-02  0.1226708E+00
        -11   -1    0    0    0    0  0.00000000000E+00  0.00000000000E+00  0.45593999997E+02  0.45594000000E+02  0.51100000000E-03 0.  1.
         11   -1    0    0    0    0 -0.00000000000E+00 -0.00000000000E+00 -0.45593999997E+02  0.45594000000E+02  0.51100000000E-03 0. -1.
    9900012    2    1    2    0    0 -0.55924675677E+01  0.10890853571E+02  0.14170239246E+02  0.72461492977E+02  0.69999899280E+02 0.  0.
         12    1    1    2    0    0  0.55924675677E+01 -0.10890853571E+02 -0.14170239246E+02  0.18726507023E+02  0.00000000000E+00 0. -1.
         11    1    3    3    0    0  0.17461153295E+02  0.29681483977E+01  0.13456420909E+01  0.17762672439E+02  0.51100000000E-03 0. -1.
        -11    1    3    3    0    0 -0.30015412119E+02 -0.51770620165E+01 -0.56781759873E+01  0.30983360350E+02  0.51100000000E-03 0.  1.
        -12    1    3    3    0    0  0.69617912567E+01  0.13099767190E+02  0.18502773142E+02  0.23715460187E+02  0.00000000000E+00 0.  1.
</event>
<event>
 7    1  0.1360399E-013  0.7246158E+02  0.7816164E-02  0.1226708E+00
        -11   -1    0    0    0    0  0.00000000000E+00  0.00000000000E+00  0.45593999997E+02  0.45594000000E+02  0.51100000000E-03 0. -1.
         11   -1    0    0    0    0 -0.00000000000E+00 -0.00000000000E+00 -0.45593999997E+02  0.45594000000E+02  0.51100000000E-03 0.  1.
    9900012    2    1    2    0    0  0.97855448956E+01  0.99866492547E+00 -0.15935010853E+02  0.72461580390E+02  0.70000013151E+02 0.  0.
         12    1    1    2    0    0 -0.97855448956E+01 -0.99866492547E+00  0.15935010853E+02  0.18726419610E+02  0.00000000000E+00 0. -1.
         11    1    3    3    0    0  0.15354395684E+02 -0.17973170006E+02  0.15906694617E+02  0.28492371625E+02  0.51100000000E-03 0. -1.
        -11    1    3    3    0    0 -0.11207011964E+02  0.47165922030E+01 -0.51840398055E+01  0.13218079593E+02  0.51100000000E-03 0.  1.
         12    1    3    3    0    0  0.56381611753E+01  0.14255242728E+02 -0.26657665664E+02  0.30751129172E+02  0.00000000000E+00 0. -1.
</event>
<event>
 7    1  0.1360399E-013  0.7246143E+02  0.7816164E-02  0.1226708E+00
        -11   -1    0    0    0    0  0.00000000000E+00  0.00000000000E+00  0.45593999997E+02  0.45594000000E+02  0.51100000000E-03 0.  1.
         11   -1    0    0    0    0 -0.00000000000E+00 -0.00000000000E+00 -0.45593999997E+02  0.45594000000E+02  0.51100000000E-03 0. -1.
    9900012    2    1    2    0    0  0.14610363572E+02 -0.99195226310E+01  0.62309419941E+01  0.72461433548E+02  0.69999821862E+02 0.  0.
         12    1    1    2    0    0 -0.14610363572E+02  0.99195226310E+01 -0.62309419941E+01  0.18726566452E+02  0.00000000000E+00 0. -1.
         11    1    3    3    0    0 -0.19952510667E+02 -0.46418204660E+01 -0.11861528845E+02  0.23671608437E+02  0.51100000000E-03 0. -1.
        -11    1    3    3    0    0  0.18843616013E+02  0.90165524304E+01  0.17950471348E+02  0.27542685128E+02  0.51100000000E-03 0.  1.
         12    1    3    3    0    0  0.15719258226E+02 -0.14294254595E+02  0.14199949176E+00  0.21247139984E+02  0.00000000000E+00 0. -1.
</event>
<event>
 7    1  0.1360399E-013  0.7246155E+02  0.7816164E-02  0.1226708E+00
        -11   -1    0    0    0    0  0.00000000000E+00  0.00000000000E+00  0.45593999997E+02  0.45594000000E+02  0.51100000000E-03 0. -1.
         11   -1    0    0    0    0 -0.00000000000E+00 -0.00000000000E+00 -0.45593999997E+02  0.45594000000E+02  0.51100000000E-03 0.  1.
    9900012    2    1    2    0    0  0.15358704394E+02  0.14926607268E+01 -0.10609522386E+02  0.72461553408E+02  0.69999978002E+02 0.  0.
         12    1    1    2    0    0 -0.15358704394E+02 -0.14926607268E+01  0.10609522386E+02  0.18726446592E+02  0.00000000000E+00 0. -1.
         11    1    3    3    0    0  0.12327879410E+02 -0.17888986677E+02  0.10423655509E+02  0.24096577548E+02  0.51100000000E-03 0. -1.
        -11    1    3    3    0    0  0.13994732103E+02  0.11836955574E+02 -0.27905119960E+02  0.33386550647E+02  0.51100000000E-03 0.  1.
        -12    1    3    3    0    0 -0.10963907119E+02  0.75446918298E+01  0.68719420642E+01  0.14978425213E+02  0.00000000000E+00 0.  1.
</event>
<event>
 8    1  0.1360399E-013  0.7246118E+02  0.7816164E-02  0.1226709E+00
        -11   -1    0    0    0    0  0.00000000000E+00  0.00000000000E+00  0.45593999997E+02  0.45594000000E+02  0.51100000000E-03 0.  1.
         11   -1    0    0    0    0 -0.00000000000E+00 -0.00000000000E+00 -0.45593999997E+02  0.45594000000E+02  0.51100000000E-03 0. -1.
    9900012    2    1    2    0    0  0.82527874793E+01 -0.54360685755E+01  0.15907060697E+02  0.72461176384E+02  0.69999486857E+02 0.  0.
        -24    2    3    3    0    0  0.81713443383E+01  0.11729144769E+02  0.10082073107E+02  0.54334354743E+02  0.51441522157E+02 0.  0.
         12    1    1    2    0    0 -0.82527874793E+01  0.54360685755E+01 -0.15907060697E+02  0.18726823616E+02  0.00000000000E+00 0. -1.
         11    1    4    4    0    0  0.12681876104E+02  0.18421886481E+02 -0.15695427678E+02  0.27322926880E+02  0.51100000000E-03 0. -1.
        -11    1    3    3    0    0  0.81443140965E-01 -0.17165213344E+02  0.58249875896E+01  0.18126821641E+02  0.51100000000E-03 0.  1.
        -12    1    4    4    0    0 -0.45105317661E+01 -0.66927417118E+01  0.25777500785E+02  0.27011427863E+02  0.00000000000E+00 0.  1.
</event>
<event>
 7    1  0.1360399E-013  0.7246156E+02  0.7816164E-02  0.1226708E+00
        -11   -1    0    0    0    0  0.00000000000E+00  0.00000000000E+00  0.45593999997E+02  0.45594000000E+02  0.51100000000E-03 0. -1.
         11   -1    0    0    0    0 -0.00000000000E+00 -0.00000000000E+00 -0.45593999997E+02  0.45594000000E+02  0.51100000000E-03 0.  1.
    9900012    2    1    2    0    0 -0.53543672998E+00 -0.18436372237E+02  0.32392916936E+01  0.72461560818E+02  0.69999987656E+02 0.  0.
         12    1    1    2    0    0  0.53543672998E+00  0.18436372237E+02 -0.32392916936E+01  0.18726439182E+02  0.00000000000E+00 0. -1.
         11    1    3    3    0    0  0.13195377891E+02 -0.40363039000E+01  0.73716229750E+01  0.15644506142E+02  0.51100000000E-03 0.  1.
        -11    1    3    3    0    0 -0.17769595418E+02  0.13984829794E+02 -0.13882072689E+02  0.26533863799E+02  0.51100000000E-03 0. -1.
        -12    1    3    3    0    0  0.40387807970E+01 -0.28384898131E+02  0.97497414079E+01  0.30283190878E+02  0.00000000000E+00 0.  1.
</event>
<event>
 7    1  0.1360399E-013  0.7246161E+02  0.7816164E-02  0.1226708E+00
        -11   -1    0    0    0    0  0.00000000000E+00  0.00000000000E+00  0.45593999997E+02  0.45594000000E+02  0.51100000000E-03 0. -1.
         11   -1    0    0    0    0 -0.00000000000E+00 -0.00000000000E+00 -0.45593999997E+02  0.45594000000E+02  0.51100000000E-03 0.  1.
    9900012    2    1    2    0    0 -0.65498583492E+01 -0.17518459770E+02  0.93836905282E+00  0.72461611838E+02  0.70000054119E+02 0.  0.
         12    1    1    2    0    0  0.65498583492E+01  0.17518459770E+02 -0.93836905282E+00  0.18726388162E+02  0.00000000000E+00 0. -1.
         11    1    3    3    0    0 -0.29220588791E+00  0.74875923614E+01 -0.13305728444E+02  0.15270619940E+02  0.51100000000E-03 0. -1.
        -11    1    3    3    0    0  0.12533738105E+02 -0.31537042606E+02  0.15392200055E+02  0.37263916461E+02  0.51100000000E-03 0.  1.
        -12    1    3    3    0    0 -0.18791390566E+02  0.65309904752E+01 -0.11481025576E+01  0.19927075437E+02  0.00000000000E+00 0.  1.
</event>
<event>
 7    1  0.1360399E-013  0.7246153E+02  0.7816164E-02  0.1226708E+00
        -11   -1    0    0    0    0  0.00000000000E+00  0.00000000000E+00  0.45593999997E+02  0.45594000000E+02  0.51100000000E-03 0.  1.
         11   -1    0    0    0    0 -0.00000000000E+00 -0.00000000000E+00 -0.45593999997E+02  0.45594000000E+02  0.51100000000E-03 0. -1.
    9900012    2    1    2    0    0 -0.13771726465E+02  0.12686049195E+02  0.29031960415E+00  0.72461532648E+02  0.69999950958E+02 0.  0.
         12    1    1    2    0    0  0.13771726465E+02 -0.12686049195E+02 -0.29031960415E+00  0.18726467352E+02  0.00000000000E+00 0. -1.
         11    1    3    3    0    0 -0.95244886620E+01  0.21609034756E+02  0.30353916507E+02  0.38458113772E+02  0.51100000000E-03 0.  1.
        -11    1    3    3    0    0 -0.22007181403E-01 -0.26547876039E+01 -0.24434917500E+02  0.24578721998E+02  0.51100000000E-03 0. -1.
        -12    1    3    3    0    0 -0.42252306217E+01 -0.62681979563E+01 -0.56286794027E+01  0.94246968781E+01  0.00000000000E+00 0.  1.
</event>
<event>
 7    1  0.1360399E-013  0.7246151E+02  0.7816164E-02  0.1226708E+00
        -11   -1    0    0    0    0  0.00000000000E+00  0.00000000000E+00  0.45593999997E+02  0.45594000000E+02  0.51100000000E-03 0. -1.
         11   -1    0    0    0    0 -0.00000000000E+00 -0.00000000000E+00 -0.45593999997E+02  0.45594000000E+02  0.51100000000E-03 0.  1.
    9900012    2    1    2    0    0 -0.93877201385E+01  0.28422710274E+01 -0.15952225284E+02  0.72461513797E+02  0.69999926402E+02 0.  0.
         12    1    1    2    0    0  0.93877201385E+01 -0.28422710274E+01  0.15952225284E+02  0.18726486203E+02  0.00000000000E+00 0. -1.
         11    1    3    3    0    0  0.17550265625E+02  0.52492218643E+01 -0.64188964915E+01  0.19410522562E+02  0.51100000000E-03 0. -1.
        -11    1    3    3    0    0 -0.22390969871E+02  0.13054815408E+02 -0.20928060789E+02  0.33313172556E+02  0.51100000000E-03 0.  1.
         12    1    3    3    0    0 -0.45470158925E+01 -0.15461766245E+02  0.11394731996E+02  0.19737818679E+02  0.00000000000E+00 0. -1.
</event>
<event>
 7    1  0.1360399E-013  0.7246170E+02  0.7816164E-02  0.1226708E+00
        -11   -1    0    0    0    0  0.00000000000E+00  0.00000000000E+00  0.45593999997E+02  0.45594000000E+02  0.51100000000E-03 0.  1.
         11   -1    0    0    0    0 -0.00000000000E+00 -0.00000000000E+00 -0.45593999997E+02  0.45594000000E+02  0.51100000000E-03 0. -1.
    9900012    2    1    2    0    0  0.11901902800E+02 -0.14280596127E+02  0.22546591590E+01  0.72461702878E+02  0.70000172714E+02 0.  0.
         12    1    1    2    0    0 -0.11901902800E+02  0.14280596127E+02 -0.22546591590E+01  0.18726297122E+02  0.00000000000E+00 0. -1.
         11    1    3    3    0    0  0.43951661985E+01  0.39535281914E+01 -0.16391373400E+02  0.17424838400E+02  0.51100000000E-03 0. -1.
        -11    1    3    3    0    0 -0.23712386340E+01 -0.26270574556E+02  0.28575785068E+02  0.38888833264E+02  0.51100000000E-03 0.  1.
         12    1    3    3    0    0  0.98779752353E+01  0.80364502381E+01 -0.99297525094E+01  0.16148031214E+02  0.00000000000E+00 0. -1.
</event>
<event>
 7    1  0.1360399E-013  0.7246160E+02  0.7816164E-02  0.1226708E+00
        -11   -1    0    0    0    0  0.00000000000E+00  0.00000000000E+00  0.45593999997E+02  0.45594000000E+02  0.51100000000E-03 0.  1.
         11   -1    0    0    0    0 -0.00000000000E+00 -0.00000000000E+00 -0.45593999997E+02  0.45594000000E+02  0.51100000000E-03 0. -1.
    9900012    2    1    2    0    0 -0.65263812094E+01 -0.14722541205E+02 -0.95567339087E+01  0.72461600607E+02  0.70000039488E+02 0.  0.
         12    1    1    2    0    0  0.65263812094E+01  0.14722541205E+02  0.95567339087E+01  0.18726399393E+02  0.00000000000E+00 0. -1.
         11    1    3    3    0    0 -0.24780130997E+01  0.11006371006E+01  0.26180749580E+02  0.26320782659E+02  0.51100000000E-03 0. -1.
        -11    1    3    3    0    0  0.37604855606E+01 -0.10309652102E+02 -0.21022628529E+01  0.11173615685E+02  0.51100000000E-03 0.  1.
         12    1    3    3    0    0 -0.78088536702E+01 -0.55135262036E+01 -0.33635220636E+02  0.34967202263E+02  0.00000000000E+00 0. -1.
</event>
<event>
 7    1  0.1360399E-013  0.7246153E+02  0.7816164E-02  0.1226708E+00
        -11   -1    0    0    0    0  0.00000000000E+00  0.00000000000E+00  0.45593999997E+02  0.45594000000E+02  0.51100000000E-03 0.  1.
         11   -1    0    0    0    0 -0.00000000000E+00 -0.00000000000E+00 -0.45593999997E+02  0.45594000000E+02  0.51100000000E-03 0. -1.
    9900012    2    1    2    0    0  0.15323320455E+02 -0.45120791155E+00  0.10755131960E+02  0.72461532052E+02  0.69999950182E+02 0.  0.
         12    1    1    2    0    0 -0.15323320455E+02  0.45120791155E+00 -0.10755131960E+02  0.18726467948E+02  0.00000000000E+00 0. -1.
         11    1    3    3    0    0  0.25728224630E+02  0.19687301219E+02 -0.72593989970E+01  0.33199853101E+02  0.51100000000E-03 0. -1.
        -11    1    3    3    0    0 -0.94118735264E+01 -0.65375782350E+01  0.22211367603E+02  0.24993361989E+02  0.51100000000E-03 0.  1.
         12    1    3    3    0    0 -0.99303064813E+00 -0.13600930895E+02 -0.41968366463E+01  0.14268316962E+02  0.00000000000E+00 0. -1.
</event>
<event>
 7    1  0.1360399E-013  0.7246161E+02  0.7816164E-02  0.1226708E+00
        -11   -1    0    0    0    0  0.00000000000E+00  0.00000000000E+00  0.45593999997E+02  0.45594000000E+02  0.51100000000E-03 0. -1.
         11   -1    0    0    0    0 -0.00000000000E+00 -0.00000000000E+00 -0.45593999997E+02  0.45594000000E+02  0.51100000000E-03 0.  1.
    9900012    2    1    2    0    0  0.10907158084E+02  0.60153610132E+01  0.13983093224E+02  0.72461613223E+02  0.70000055923E+02 0.  0.
         12    1    1    2    0    0 -0.10907158084E+02 -0.60153610132E+01 -0.13983093224E+02  0.18726386777E+02  0.00000000000E+00 0. -1.
         11    1    3    3    0    0 -0.98646479110E+01  0.23166388297E+02  0.20354085454E+02  0.32377177457E+02  0.51100000000E-03 0. -1.
        -11    1    3    3    0    0  0.15166931138E+02  0.13122858435E+01 -0.12649737258E+02  0.19793275303E+02  0.51100000000E-03 0.  1.
        -12    1    3    3    0    0  0.56048748576E+01 -0.18463313128E+02  0.62787450286E+01  0.20291160463E+02  0.00000000000E+00 0.  1.
</event>
<event>
 7    1  0.1360399E-013  0.7246164E+02  0.7816164E-02  0.1226708E+00
        -11   -1    0    0    0    0  0.00000000000E+00  0.00000000000E+00  0.45593999997E+02  0.45594000000E+02  0.51100000000E-03 0.  1.
         11   -1    0    0    0    0 -0.00000000000E+00 -0.00000000000E+00 -0.45593999997E+02  0.45594000000E+02  0.51100000000E-03 0. -1.
    9900012    2    1    2    0    0 -0.43708576542E-01  0.99341816818E+01  0.15874083787E+02  0.72461643915E+02  0.70000095905E+02 0.  0.
         12    1    1    2    0    0  0.43708576542E-01 -0.99341816818E+01 -0.15874083787E+02  0.18726356085E+02  0.00000000000E+00 0. -1.
         11    1    3    3    0    0 -0.36616415939E+01  0.36662131542E+02  0.13332243470E+02  0.39182498957E+02  0.51100000000E-03 0. -1.
        -11    1    3    3    0    0  0.59475707178E+01 -0.45769501203E+01  0.73372654939E+01  0.10495595983E+02  0.51100000000E-03 0.  1.
         12    1    3    3    0    0 -0.23296377005E+01 -0.22150999740E+02 -0.47954251762E+01  0.22783548975E+02  0.00000000000E+00 0. -1.
</event>
<event>
 7    1  0.1360399E-013  0.7246156E+02  0.7816164E-02  0.1226708E+00
        -11   -1    0    0    0    0  0.00000000000E+00  0.00000000000E+00  0.45593999997E+02  0.45594000000E+02  0.51100000000E-03 0.  1.
         11   -1    0    0    0    0 -0.00000000000E+00 -0.00000000000E+00 -0.45593999997E+02  0.45594000000E+02  0.51100000000E-03 0. -1.
    9900012    2    1    2    0    0 -0.14247788423E+02 -0.10947564622E+02  0.52754967780E+01  0.72461561141E+02  0.69999988076E+02 0.  0.
         12    1    1    2    0    0  0.14247788423E+02  0.10947564622E+02 -0.52754967780E+01  0.18726438859E+02  0.00000000000E+00 0. -1.
         11    1    3    3    0    0 -0.32719040569E+02 -0.47642012380E+01 -0.10093245658E+02  0.34570317288E+02  0.51100000000E-03 0. -1.
        -11    1    3    3    0    0  0.93136362457E+01 -0.99015956611E+01  0.22090878239E+02  0.25938240465E+02  0.51100000000E-03 0.  1.
         12    1    3    3    0    0  0.91576159003E+01  0.37182322772E+01 -0.67221358035E+01  0.11953003389E+02  0.00000000000E+00 0. -1.
</event>
<event>
 7    1  0.1360399E-013  0.7246196E+02  0.7816164E-02  0.1226707E+00
        -11   -1    0    0    0    0  0.00000000000E+00  0.00000000000E+00  0.45593999997E+02  0.45594000000E+02  0.51100000000E-03 0. -1.
         11   -1    0    0    0    0 -0.00000000000E+00 -0.00000000000E+00 -0.45593999997E+02  0.45594000000E+02  0.51100000000E-03 0.  1.
    9900012    2    1    2    0    0  0.38417711700E-01 -0.11897749460E+02 -0.14460516737E+02  0.72461962981E+02  0.70000511546E+02 0.  0.
         12    1    1    2    0    0 -0.38417711700E-01  0.11897749460E+02  0.14460516737E+02  0.18726037019E+02  0.00000000000E+00 0. -1.
         11    1    3    3    0    0  0.16701643249E+02  0.11063815470E+02  0.17684771833E+02  0.26722725442E+02  0.51100000000E-03 0. -1.
        -11    1    3    3    0    0 -0.56761178330E+01 -0.41102768013E+01 -0.14687456293E+00  0.70095835422E+01  0.51100000000E-03 0.  1.
         12    1    3    3    0    0 -0.10987107705E+02 -0.18851288128E+02 -0.31998414007E+02  0.38729653998E+02  0.00000000000E+00 0. -1.
</event>
<event>
 7    1  0.1360399E-013  0.7246156E+02  0.7816164E-02  0.1226708E+00
        -11   -1    0    0    0    0  0.00000000000E+00  0.00000000000E+00  0.45593999997E+02  0.45594000000E+02  0.51100000000E-03 0. -1.
         11   -1    0    0    0    0 -0.00000000000E+00 -0.00000000000E+00 -0.45593999997E+02  0.45594000000E+02  0.51100000000E-03 0.  1.
    9900012    2    1    2    0    0 -0.87059991732E+01  0.74759230755E-01 -0.16579487575E+02  0.72461563639E+02  0.69999991330E+02 0.  0.
         12    1    1    2    0    0  0.87059991732E+01 -0.74759230755E-01  0.16579487575E+02  0.18726436361E+02  0.00000000000E+00 0. -1.
         11    1    3    3    0    0  0.26025288133E+01  0.21419059997E+01  0.24387768394E+02  0.24619589051E+02  0.51100000000E-03 0. -1.
        -11    1    3    3    0    0 -0.73217775863E+01  0.96819456575E+01 -0.17517273381E+02  0.21312047431E+02  0.51100000000E-03 0.  1.
         12    1    3    3    0    0 -0.39867504002E+01 -0.11749092426E+02 -0.23449982588E+02  0.26529927157E+02  0.00000000000E+00 0. -1.
</event>
<event>
 7    1  0.1360399E-013  0.7246156E+02  0.7816164E-02  0.1226708E+00
        -11   -1    0    0    0    0  0.00000000000E+00  0.00000000000E+00  0.45593999997E+02  0.45594000000E+02  0.51100000000E-03 0.  1.
         11   -1    0    0    0    0 -0.00000000000E+00 -0.00000000000E+00 -0.45593999997E+02  0.45594000000E+02  0.51100000000E-03 0. -1.
    9900012    2    1    2    0    0 -0.55214530021E+01  0.17710092371E+02 -0.25584597670E+01  0.72461560631E+02  0.69999987412E+02 0.  0.
         12    1    1    2    0    0  0.55214530021E+01 -0.17710092371E+02  0.25584597670E+01  0.18726439369E+02  0.00000000000E+00 0. -1.
         11    1    3    3    0    0 -0.41018792137E+01 -0.15547771495E+02  0.30688930412E+01  0.16369994389E+02  0.51100000000E-03 0.  1.
        -11    1    3    3    0    0 -0.10123018317E+02  0.38971218818E+02  0.57461374364E+01  0.40672466015E+02  0.51100000000E-03 0. -1.
         12    1    3    3    0    0  0.87034445290E+01 -0.57133549522E+01 -0.11373490245E+02  0.15419100227E+02  0.00000000000E+00 0. -1.
</event>
<event>
 7    1  0.1360399E-013  0.7246157E+02  0.7816164E-02  0.1226708E+00
        -11   -1    0    0    0    0  0.00000000000E+00  0.00000000000E+00  0.45593999997E+02  0.45594000000E+02  0.51100000000E-03 0. -1.
         11   -1    0    0    0    0 -0.00000000000E+00 -0.00000000000E+00 -0.45593999997E+02  0.45594000000E+02  0.51100000000E-03 0.  1.
    9900012    2    1    2    0    0  0.14779602299E+01  0.16769727476E+02 -0.82018995443E+01  0.72461567286E+02  0.69999996081E+02 0.  0.
         12    1    1    2    0    0 -0.14779602299E+01 -0.16769727476E+02  0.82018995443E+01  0.18726432714E+02  0.00000000000E+00 0. -1.
         11    1    3    3    0    0  0.10017087023E+02 -0.38203324900E+01  0.55736136800E+01  0.12083134630E+02  0.51100000000E-03 0. -1.
        -11    1    3    3    0    0 -0.24529829869E+01  0.26140899657E+02 -0.31395975477E+02  0.40927631703E+02  0.51100000000E-03 0.  1.
        -12    1    3    3    0    0 -0.60861438066E+01 -0.55508396910E+01  0.17620462253E+02  0.19450800953E+02  0.00000000000E+00 0.  1.
</event>
<event>
 7    1  0.1360399E-013  0.7246160E+02  0.7816164E-02  0.1226708E+00
        -11   -1    0    0    0    0  0.00000000000E+00  0.00000000000E+00  0.45593999997E+02  0.45594000000E+02  0.51100000000E-03 0. -1.
         11   -1    0    0    0    0 -0.00000000000E+00 -0.00000000000E+00 -0.45593999997E+02  0.45594000000E+02  0.51100000000E-03 0.  1.
    9900012    2    1    2    0    0  0.16721733090E+02  0.74779123277E+01 -0.38913614763E+01  0.72461595528E+02  0.70000032871E+02 0.  0.
         12    1    1    2    0    0 -0.16721733090E+02 -0.74779123277E+01  0.38913614763E+01  0.18726404472E+02  0.00000000000E+00 0. -1.
         11    1    3    3    0    0 -0.23256093439E+02 -0.44943684493E+01 -0.65708336834E+01  0.24580908961E+02  0.51100000000E-03 0. -1.
        -11    1    3    3    0    0  0.10293586217E+02 -0.38847374658E+01 -0.67786035988E+01  0.12922792631E+02  0.51100000000E-03 0.  1.
         12    1    3    3    0    0  0.29684240312E+02  0.15857018243E+02  0.94580758058E+01  0.34957893936E+02  0.00000000000E+00 0. -1.
</event>
<event>
 7    1  0.1360399E-013  0.7246159E+02  0.7816164E-02  0.1226708E+00
        -11   -1    0    0    0    0  0.00000000000E+00  0.00000000000E+00  0.45593999997E+02  0.45594000000E+02  0.51100000000E-03 0.  1.
         11   -1    0    0    0    0 -0.00000000000E+00 -0.00000000000E+00 -0.45593999997E+02  0.45594000000E+02  0.51100000000E-03 0. -1.
    9900012    2    1    2    0    0  0.12383437125E+02 -0.11064476490E+02 -0.86548403112E+01  0.72461590418E+02  0.70000026215E+02 0.  0.
         12    1    1    2    0    0 -0.12383437125E+02  0.11064476490E+02  0.86548403112E+01  0.18726409582E+02  0.00000000000E+00 0. -1.
         11    1    3    3    0    0  0.29245069456E+00 -0.20052218329E+01 -0.42272262280E+01  0.46878442649E+01  0.51100000000E-03 0. -1.
        -11    1    3    3    0    0 -0.40852936951E+01 -0.31498451756E+02  0.13816362427E+02  0.34637175962E+02  0.51100000000E-03 0.  1.
        -12    1    3    3    0    0  0.16176280125E+02  0.22439197099E+02 -0.18243976510E+02  0.33136570192E+02  0.00000000000E+00 0.  1.
</event>
<event>
 7    1  0.1360399E-013  0.7246155E+02  0.7816164E-02  0.1226708E+00
        -11   -1    0    0    0    0  0.00000000000E+00  0.00000000000E+00  0.45593999997E+02  0.45594000000E+02  0.51100000000E-03 0.  1.
         11   -1    0    0    0    0 -0.00000000000E+00 -0.00000000000E+00 -0.45593999997E+02  0.45594000000E+02  0.51100000000E-03 0. -1.
    9900012    2    1    2    0    0 -0.92892776365E+00 -0.64005400658E+01  0.17574135043E+02  0.72461546988E+02  0.69999969639E+02 0.  0.
         12    1    1    2    0    0  0.92892776365E+00  0.64005400658E+01 -0.17574135043E+02  0.18726453012E+02  0.00000000000E+00 0. -1.
         11    1    3    3    0    0 -0.78692341257E+01 -0.10005798029E+02 -0.14357777231E+02  0.19188189263E+02  0.51100000000E-03 0. -1.
        -11    1    3    3    0    0 -0.43652364653E+01 -0.48575177027E+01  0.37521264091E+02  0.38085378124E+02  0.51100000000E-03 0.  1.
        -12    1    3    3    0    0  0.11305542827E+02  0.84627756663E+01 -0.55893518174E+01  0.15187979600E+02  0.00000000000E+00 0.  1.
</event>
<event>
 7    1  0.1360399E-013  0.7246160E+02  0.7816164E-02  0.1226708E+00
        -11   -1    0    0    0    0  0.00000000000E+00  0.00000000000E+00  0.45593999997E+02  0.45594000000E+02  0.51100000000E-03 0.  1.
         11   -1    0    0    0    0 -0.00000000000E+00 -0.00000000000E+00 -0.45593999997E+02  0.45594000000E+02  0.51100000000E-03 0. -1.
    9900012    2    1    2    0    0  0.31338045090E+01  0.83991451912E+01  0.16441159985E+02  0.72461598523E+02  0.70000036773E+02 0.  0.
         12    1    1    2    0    0 -0.31338045090E+01 -0.83991451912E+01 -0.16441159985E+02  0.18726401477E+02  0.00000000000E+00 0. -1.
         11    1    3    3    0    0  0.70568537650E+01  0.12615709129E+02 -0.17539429268E+02  0.22728547714E+02  0.51100000000E-03 0. -1.
        -11    1    3    3    0    0 -0.26772091102E+01 -0.18087348901E+02  0.74000493277E+01  0.19725120258E+02  0.51100000000E-03 0.  1.
        -12    1    3    3    0    0 -0.12458401457E+01  0.13870784963E+02  0.26580539925E+02  0.30007930550E+02  0.00000000000E+00 0.  1.
</event>
<event>
 7    1  0.1360399E-013  0.7246153E+02  0.7816164E-02  0.1226708E+00
        -11   -1    0    0    0    0  0.00000000000E+00  0.00000000000E+00  0.45593999997E+02  0.45594000000E+02  0.51100000000E-03 0. -1.
         11   -1    0    0    0    0 -0.00000000000E+00 -0.00000000000E+00 -0.45593999997E+02  0.45594000000E+02  0.51100000000E-03 0.  1.
    9900012    2    1    2    0    0 -0.16053526965E+02 -0.93637406277E+01 -0.22989541620E+01  0.72461533254E+02  0.69999951748E+02 0.  0.
         12    1    1    2    0    0  0.16053526965E+02  0.93637406277E+01  0.22989541620E+01  0.18726466746E+02  0.00000000000E+00 0. -1.
         11    1    3    3    0    0  0.13193792214E+02 -0.16614597068E+02  0.20985796701E+02  0.29841659675E+02  0.51100000000E-03 0. -1.
        -11    1    3    3    0    0 -0.15629189947E+02  0.79210755378E+01 -0.24100004569E+01  0.17686806340E+02  0.51100000000E-03 0.  1.
         12    1    3    3    0    0 -0.13618129232E+02 -0.67021909730E+00 -0.20874750406E+02  0.24933067239E+02  0.00000000000E+00 0. -1.
</event>
<event>
 7    1  0.1360399E-013  0.7246157E+02  0.7816164E-02  0.1226708E+00
        -11   -1    0    0    0    0  0.00000000000E+00  0.00000000000E+00  0.45593999997E+02  0.45594000000E+02  0.51100000000E-03 0.  1.
         11   -1    0    0    0    0 -0.00000000000E+00 -0.00000000000E+00 -0.45593999997E+02  0.45594000000E+02  0.51100000000E-03 0. -1.
    9900012    2    1    2    0    0  0.15666733830E+02  0.80794907505E+01 -0.63209572936E+01  0.72461568925E+02  0.69999998217E+02 0.  0.
         12    1    1    2    0    0 -0.15666733830E+02 -0.80794907505E+01  0.63209572936E+01  0.18726431075E+02  0.00000000000E+00 0. -1.
         11    1    3    3    0    0  0.12735998490E+02 -0.20049766448E+01 -0.33036626176E+01  0.13309386757E+02  0.51100000000E-03 0. -1.
        -11    1    3    3    0    0 -0.20491256188E+02  0.50520968653E+01 -0.20556414158E+02  0.29461524505E+02  0.51100000000E-03 0.  1.
        -12    1    3    3    0    0  0.23421991527E+02  0.50323705301E+01  0.17539119482E+02  0.29690657663E+02  0.00000000000E+00 0.  1.
</event>
<event>
 7    1  0.1360399E-013  0.7246160E+02  0.7816164E-02  0.1226708E+00
        -11   -1    0    0    0    0  0.00000000000E+00  0.00000000000E+00  0.45593999997E+02  0.45594000000E+02  0.51100000000E-03 0. -1.
         11   -1    0    0    0    0 -0.00000000000E+00 -0.00000000000E+00 -0.45593999997E+02  0.45594000000E+02  0.51100000000E-03 0.  1.
    9900012    2    1    2    0    0 -0.17782087721E+02 -0.11521452979E+01 -0.57574170739E+01  0.72461603287E+02  0.70000042979E+02 0.  0.
         12    1    1    2    0    0  0.17782087721E+02  0.11521452979E+01  0.57574170739E+01  0.18726396713E+02  0.00000000000E+00 0. -1.
         11    1    3    3    0    0 -0.22118406564E+02  0.19816278764E+02  0.16848907110E+02  0.34143732720E+02  0.51100000000E-03 0. -1.
        -11    1    3    3    0    0  0.57218359414E+01 -0.14682540455E+02 -0.26473687391E+02  0.30808643675E+02  0.51100000000E-03 0.  1.
         12    1    3    3    0    0 -0.13855170976E+01 -0.62858836062E+01  0.38673632073E+01  0.75092268920E+01  0.00000000000E+00 0. -1.
</event>
<event>
 7    1  0.1360399E-013  0.7246166E+02  0.7816164E-02  0.1226708E+00
        -11   -1    0    0    0    0  0.00000000000E+00  0.00000000000E+00  0.45593999997E+02  0.45594000000E+02  0.51100000000E-03 0.  1.
         11   -1    0    0    0    0 -0.00000000000E+00 -0.00000000000E+00 -0.45593999997E+02  0.45594000000E+02  0.51100000000E-03 0. -1.
    9900012    2    1    2    0    0  0.74759675111E+01  0.68171403912E+01  0.15757928560E+02  0.72461660105E+02  0.70000116995E+02 0.  0.
         12    1    1    2    0    0 -0.74759675111E+01 -0.68171403912E+01 -0.15757928560E+02  0.18726339895E+02  0.00000000000E+00 0. -1.
         11    1    3    3    0    0 -0.22719439076E+02  0.10558964706E+02 -0.56862894223E+01  0.25690436650E+02  0.51100000000E-03 0. -1.
        -11    1    3    3    0    0  0.23417370271E+02 -0.15428795617E+02  0.13941957197E+02  0.31317712805E+02  0.51100000000E-03 0.  1.
        -12    1    3    3    0    0  0.67780363162E+01  0.11686971302E+02  0.75022607857E+01  0.15453510650E+02  0.00000000000E+00 0.  1.
</event>
<event>
 7    1  0.1360399E-013  0.7246156E+02  0.7816164E-02  0.1226708E+00
        -11   -1    0    0    0    0  0.00000000000E+00  0.00000000000E+00  0.45593999997E+02  0.45594000000E+02  0.51100000000E-03 0. -1.
         11   -1    0    0    0    0 -0.00000000000E+00 -0.00000000000E+00 -0.45593999997E+02  0.45594000000E+02  0.51100000000E-03 0.  1.
    9900012    2    1    2    0    0  0.49308909955E+01 -0.15417505231E+02  0.94162786360E+01  0.72461562621E+02  0.69999990005E+02 0.  0.
         12    1    1    2    0    0 -0.49308909955E+01  0.15417505231E+02 -0.94162786360E+01  0.18726437379E+02  0.00000000000E+00 0. -1.
         11    1    3    3    0    0 -0.22344802324E+01  0.15959138413E+02  0.18261590671E+02  0.24355136930E+02  0.51100000000E-03 0. -1.
        -11    1    3    3    0    0  0.10172155287E+02 -0.19158498446E+02 -0.21300901944E+02  0.30401467560E+02  0.51100000000E-03 0.  1.
        -12    1    3    3    0    0 -0.30067840594E+01 -0.12218145198E+02  0.12455589909E+02  0.17704958132E+02  0.00000000000E+00 0.  1.
</event>
<event>
 7    1  0.1360399E-013  0.7246167E+02  0.7816164E-02  0.1226708E+00
        -11   -1    0    0    0    0  0.00000000000E+00  0.00000000000E+00  0.45593999997E+02  0.45594000000E+02  0.51100000000E-03 0.  1.
         11   -1    0    0    0    0 -0.00000000000E+00 -0.00000000000E+00 -0.45593999997E+02  0.45594000000E+02  0.51100000000E-03 0. -1.
    9900012    2    1    2    0    0 -0.47753406628E+01  0.16641730867E+02  0.71361198222E+01  0.72461673857E+02  0.70000134909E+02 0.  0.
         12    1    1    2    0    0  0.47753406628E+01 -0.16641730867E+02 -0.71361198222E+01  0.18726326143E+02  0.00000000000E+00 0. -1.
         11    1    3    3    0    0 -0.47144736000E+01  0.39167645310E+02 -0.12423244201E+01  0.39469913487E+02  0.51100000000E-03 0. -1.
        -11    1    3    3    0    0 -0.89105795812E+01 -0.27657114087E+01 -0.10258788361E+01  0.93861608614E+01  0.51100000000E-03 0.  1.
         12    1    3    3    0    0  0.88497125183E+01 -0.19760203034E+02  0.94043230784E+01  0.23605599508E+02  0.00000000000E+00 0. -1.
</event>
<event>
 7    1  0.1360399E-013  0.7246154E+02  0.7816164E-02  0.1226708E+00
        -11   -1    0    0    0    0  0.00000000000E+00  0.00000000000E+00  0.45593999997E+02  0.45594000000E+02  0.51100000000E-03 0.  1.
         11   -1    0    0    0    0 -0.00000000000E+00 -0.00000000000E+00 -0.45593999997E+02  0.45594000000E+02  0.51100000000E-03 0. -1.
    9900012    2    1    2    0    0 -0.33505364529E+00 -0.13245303621E+02  0.13233673944E+02  0.72461535971E+02  0.69999955288E+02 0.  0.
         12    1    1    2    0    0  0.33505364529E+00  0.13245303621E+02 -0.13233673944E+02  0.18726464029E+02  0.00000000000E+00 0. -1.
         11    1    3    3    0    0 -0.30069931408E+02  0.70632563344E+01  0.11507575684E+02  0.32962321874E+02  0.51100000000E-03 0. -1.
        -11    1    3    3    0    0  0.20133977630E+02 -0.57174191140E+01  0.54764116580E+01  0.21634625521E+02  0.51100000000E-03 0.  1.
        -12    1    3    3    0    0  0.96009001324E+01 -0.14591140842E+02 -0.37503133983E+01  0.17864588576E+02  0.00000000000E+00 0.  1.
</event>
<event>
 7    1  0.1360399E-013  0.7246154E+02  0.7816164E-02  0.1226708E+00
        -11   -1    0    0    0    0  0.00000000000E+00  0.00000000000E+00  0.45593999997E+02  0.45594000000E+02  0.51100000000E-03 0.  1.
         11   -1    0    0    0    0 -0.00000000000E+00 -0.00000000000E+00 -0.45593999997E+02  0.45594000000E+02  0.51100000000E-03 0. -1.
    9900012    2    1    2    0    0  0.13663845261E+02  0.12765416119E+02 -0.10118930584E+01  0.72461536277E+02  0.69999955686E+02 0.  0.
         12    1    1    2    0    0 -0.13663845261E+02 -0.12765416119E+02  0.10118930584E+01  0.18726463723E+02  0.00000000000E+00 0. -1.
         11    1    3    3    0    0 -0.10562517037E+02 -0.16785317912E+02 -0.56847226330E+01  0.20630795798E+02  0.51100000000E-03 0. -1.
        -11    1    3    3    0    0  0.23047274121E+02  0.35522640587E+02  0.10258505911E+02  0.43569160911E+02  0.51100000000E-03 0.  1.
        -12    1    3    3    0    0  0.11790881762E+01 -0.59719065551E+01 -0.55856763368E+01  0.82615795687E+01  0.00000000000E+00 0.  1.
</event>
<event>
 7    1  0.1360399E-013  0.7246155E+02  0.7816164E-02  0.1226708E+00
        -11   -1    0    0    0    0  0.00000000000E+00  0.00000000000E+00  0.45593999997E+02  0.45594000000E+02  0.51100000000E-03 0.  1.
         11   -1    0    0    0    0 -0.00000000000E+00 -0.00000000000E+00 -0.45593999997E+02  0.45594000000E+02  0.51100000000E-03 0. -1.
    9900012    2    1    2    0    0  0.95536093969E+01 -0.15705727303E+02 -0.35690973537E+01  0.72461554033E+02  0.69999978817E+02 0.  0.
         12    1    1    2    0    0 -0.95536093969E+01  0.15705727303E+02  0.35690973537E+01  0.18726445967E+02  0.00000000000E+00 0. -1.
         11    1    3    3    0    0  0.24112894538E+02 -0.31288828375E+02  0.50463993586E+01  0.39823216982E+02  0.51100000000E-03 0. -1.
        -11    1    3    3    0    0 -0.17479153043E+02  0.39877347527E+01 -0.10119033392E+02  0.20586832116E+02  0.51100000000E-03 0.  1.
        -12    1    3    3    0    0  0.29198679019E+01  0.11595366319E+02  0.15035366793E+01  0.12051504935E+02  0.00000000000E+00 0.  1.
</event>
<event>
 7    1  0.1360399E-013  0.7246153E+02  0.7816164E-02  0.1226708E+00
        -11   -1    0    0    0    0  0.00000000000E+00  0.00000000000E+00  0.45593999997E+02  0.45594000000E+02  0.51100000000E-03 0.  1.
         11   -1    0    0    0    0 -0.00000000000E+00 -0.00000000000E+00 -0.45593999997E+02  0.45594000000E+02  0.51100000000E-03 0. -1.
    9900012    2    1    2    0    0  0.99939984730E+01  0.12534974572E+02 -0.96785876386E+01  0.72461530721E+02  0.69999948448E+02 0.  0.
         12    1    1    2    0    0 -0.99939984730E+01 -0.12534974572E+02  0.96785876386E+01  0.18726469279E+02  0.00000000000E+00 0. -1.
         11    1    3    3    0    0 -0.97353399515E+00 -0.96860071651E+01 -0.27405933429E+02  0.29083529542E+02  0.51100000000E-03 0. -1.
        -11    1    3    3    0    0  0.19401123893E+02  0.91195990085E+01  0.17694441940E+02  0.27796833817E+02  0.51100000000E-03 0.  1.
        -12    1    3    3    0    0 -0.84335914248E+01  0.13101382728E+02  0.32903849574E-01  0.15581167362E+02  0.00000000000E+00 0.  1.
</event>
<event>
 7    1  0.1360399E-013  0.7246157E+02  0.7816164E-02  0.1226708E+00
        -11   -1    0    0    0    0  0.00000000000E+00  0.00000000000E+00  0.45593999997E+02  0.45594000000E+02  0.51100000000E-03 0.  1.
         11   -1    0    0    0    0 -0.00000000000E+00 -0.00000000000E+00 -0.45593999997E+02  0.45594000000E+02  0.51100000000E-03 0. -1.
    9900012    2    1    2    0    0 -0.10008623174E+02 -0.14932769245E+02  0.52458519159E+01  0.72461572217E+02  0.70000002505E+02 0.  0.
         12    1    1    2    0    0  0.10008623174E+02  0.14932769245E+02 -0.52458519159E+01  0.18726427783E+02  0.00000000000E+00 0. -1.
         11    1    3    3    0    0  0.21906658654E+02 -0.39041751657E+01  0.25263877034E+01  0.22394796543E+02  0.51100000000E-03 0.  1.
        -11    1    3    3    0    0 -0.16103202485E+02  0.13360747778E+02  0.90953754199E+00  0.20943972170E+02  0.51100000000E-03 0. -1.
        -12    1    3    3    0    0 -0.15812079343E+02 -0.24389341857E+02  0.18099266705E+01  0.29122803504E+02  0.00000000000E+00 0.  1.
</event>
<event>
 7    1  0.1360399E-013  0.7246158E+02  0.7816164E-02  0.1226708E+00
        -11   -1    0    0    0    0  0.00000000000E+00  0.00000000000E+00  0.45593999997E+02  0.45594000000E+02  0.51100000000E-03 0.  1.
         11   -1    0    0    0    0 -0.00000000000E+00 -0.00000000000E+00 -0.45593999997E+02  0.45594000000E+02  0.51100000000E-03 0. -1.
    9900012    2    1    2    0    0  0.35425406144E+01 -0.11853512447E+02 -0.14057856677E+02  0.72461583213E+02  0.70000016829E+02 0.  0.
         12    1    1    2    0    0 -0.35425406144E+01  0.11853512447E+02  0.14057856677E+02  0.18726416787E+02  0.00000000000E+00 0. -1.
         11    1    3    3    0    0 -0.51602416926E+01  0.12088084891E+02 -0.60083323955E+00  0.13157161225E+02  0.51100000000E-03 0. -1.
        -11    1    3    3    0    0  0.32172704508E+01 -0.17391669612E+02 -0.33297092919E+02  0.37703015771E+02  0.51100000000E-03 0.  1.
        -12    1    3    3    0    0  0.54855118562E+01 -0.65499277255E+01  0.19840069482E+02  0.21601406218E+02  0.00000000000E+00 0.  1.
</event>
<event>
 7    1  0.1360399E-013  0.7246151E+02  0.7816164E-02  0.1226708E+00
        -11   -1    0    0    0    0  0.00000000000E+00  0.00000000000E+00  0.45593999997E+02  0.45594000000E+02  0.51100000000E-03 0.  1.
         11   -1    0    0    0    0 -0.00000000000E+00 -0.00000000000E+00 -0.45593999997E+02  0.45594000000E+02  0.51100000000E-03 0. -1.
    9900012    2    1    2    0    0 -0.24309318146E+01 -0.13036907339E+02  0.13221618562E+02  0.72461505938E+02  0.69999916164E+02 0.  0.
         12    1    1    2    0    0  0.24309318146E+01  0.13036907339E+02 -0.13221618562E+02  0.18726494062E+02  0.00000000000E+00 0. -1.
         11    1    3    3    0    0 -0.12320161054E+02  0.94580816429E+01  0.94219340202E+01  0.18166301707E+02  0.51100000000E-03 0. -1.
        -11    1    3    3    0    0  0.10832977752E+02 -0.20713600170E+02  0.24287241302E+02  0.33708704058E+02  0.51100000000E-03 0.  1.
        -12    1    3    3    0    0 -0.94374851254E+00 -0.17813888120E+01 -0.20487556760E+02  0.20586500173E+02  0.00000000000E+00 0.  1.
</event>
<event>
 7    1  0.1360399E-013  0.7246148E+02  0.7816164E-02  0.1226708E+00
        -11   -1    0    0    0    0  0.00000000000E+00  0.00000000000E+00  0.45593999997E+02  0.45594000000E+02  0.51100000000E-03 0.  1.
         11   -1    0    0    0    0 -0.00000000000E+00 -0.00000000000E+00 -0.45593999997E+02  0.45594000000E+02  0.51100000000E-03 0. -1.
    9900012    2    1    2    0    0 -0.53579534349E+01 -0.17899530744E+02 -0.12575943806E+01  0.72461483786E+02  0.69999887307E+02 0.  0.
         12    1    1    2    0    0  0.53579534349E+01  0.17899530744E+02  0.12575943806E+01  0.18726516214E+02  0.00000000000E+00 0. -1.
         11    1    3    3    0    0 -0.26146130138E+02 -0.19156418261E+02 -0.13719603092E+02  0.35196817911E+02  0.51100000000E-03 0. -1.
        -11    1    3    3    0    0  0.17703879890E+02 -0.79022396800E+01 -0.24012982820E+01  0.19535582633E+02  0.51100000000E-03 0.  1.
        -12    1    3    3    0    0  0.30842968126E+01  0.91591271971E+01  0.14863306993E+02  0.17729083242E+02  0.00000000000E+00 0.  1.
</event>
<event>
 7    1  0.1360399E-013  0.7246156E+02  0.7816164E-02  0.1226708E+00
        -11   -1    0    0    0    0  0.00000000000E+00  0.00000000000E+00  0.45593999997E+02  0.45594000000E+02  0.51100000000E-03 0.  1.
         11   -1    0    0    0    0 -0.00000000000E+00 -0.00000000000E+00 -0.45593999997E+02  0.45594000000E+02  0.51100000000E-03 0. -1.
    9900012    2    1    2    0    0 -0.60523955027E+00 -0.69329798208E+01  0.17385255593E+02  0.72461557835E+02  0.69999983770E+02 0.  0.
         12    1    1    2    0    0  0.60523955027E+00  0.69329798208E+01 -0.17385255593E+02  0.18726442165E+02  0.00000000000E+00 0. -1.
         11    1    3    3    0    0 -0.14554139437E+02 -0.23359647809E+02  0.12869824329E+02  0.30383029786E+02  0.51100000000E-03 0. -1.
        -11    1    3    3    0    0 -0.31403633433E+01  0.23187035633E+02  0.36369181146E+01  0.23679689124E+02  0.51100000000E-03 0.  1.
         12    1    3    3    0    0  0.17089263230E+02 -0.67603676455E+01  0.87851314980E+00  0.18398838925E+02  0.00000000000E+00 0. -1.
</event>
<event>
 7    1  0.1360399E-013  0.7246152E+02  0.7816164E-02  0.1226708E+00
        -11   -1    0    0    0    0  0.00000000000E+00  0.00000000000E+00  0.45593999997E+02  0.45594000000E+02  0.51100000000E-03 0.  1.
         11   -1    0    0    0    0 -0.00000000000E+00 -0.00000000000E+00 -0.45593999997E+02  0.45594000000E+02  0.51100000000E-03 0. -1.
    9900012    2    1    2    0    0 -0.73120778445E+01 -0.17153369493E+02  0.17252043958E+01  0.72461524155E+02  0.69999939895E+02 0.  0.
         12    1    1    2    0    0  0.73120778445E+01  0.17153369493E+02 -0.17252043958E+01  0.18726475845E+02  0.00000000000E+00 0. -1.
         11    1    3    3    0    0  0.20603841587E+02  0.17537340524E+01  0.13526671179E+02  0.24709607539E+02  0.51100000000E-03 0. -1.
        -11    1    3    3    0    0 -0.34291766949E+02 -0.14330319359E+02 -0.52623609869E+01  0.37536326096E+02  0.51100000000E-03 0.  1.
         12    1    3    3    0    0  0.63758475169E+01 -0.45767841859E+01 -0.65391057967E+01  0.10215590520E+02  0.00000000000E+00 0. -1.
</event>
<event>
 7    1  0.1360399E-013  0.7246155E+02  0.7816164E-02  0.1226708E+00
        -11   -1    0    0    0    0  0.00000000000E+00  0.00000000000E+00  0.45593999997E+02  0.45594000000E+02  0.51100000000E-03 0.  1.
         11   -1    0    0    0    0 -0.00000000000E+00 -0.00000000000E+00 -0.45593999997E+02  0.45594000000E+02  0.51100000000E-03 0. -1.
    9900012    2    1    2    0    0 -0.12762095498E+02 -0.10884299554E+02  0.83271250823E+01  0.72461546240E+02  0.69999968665E+02 0.  0.
         12    1    1    2    0    0  0.12762095498E+02  0.10884299554E+02 -0.83271250823E+01  0.18726453760E+02  0.00000000000E+00 0. -1.
         11    1    3    3    0    0 -0.27608117371E+02  0.55824233742E+01 -0.15241071186E+02  0.32025955828E+02  0.51100000000E-03 0. -1.
        -11    1    3    3    0    0 -0.53303078716E+01 -0.30071713779E+01  0.12201654449E+02  0.13650481063E+02  0.51100000000E-03 0.  1.
         12    1    3    3    0    0  0.20176329745E+02 -0.13459551551E+02  0.11366541819E+02  0.26785109349E+02  0.00000000000E+00 0. -1.
</event>
<event>
 7    1  0.1360399E-013  0.7246145E+02  0.7816164E-02  0.1226708E+00
        -11   -1    0    0    0    0  0.00000000000E+00  0.00000000000E+00  0.45593999997E+02  0.45594000000E+02  0.51100000000E-03 0. -1.
         11   -1    0    0    0    0 -0.00000000000E+00 -0.00000000000E+00 -0.45593999997E+02  0.45594000000E+02  0.51100000000E-03 0.  1.
    9900012    2    1    2    0    0 -0.18266556442E+02 -0.14798818028E+01 -0.38505254882E+01  0.72461449839E+02  0.69999843084E+02 0.  0.
         12    1    1    2    0    0  0.18266556442E+02  0.14798818028E+01  0.38505254882E+01  0.18726550161E+02  0.00000000000E+00 0. -1.
         11    1    3    3    0    0 -0.33926110704E+02 -0.17094958746E+01 -0.75836776060E+01  0.34805395127E+02  0.51100000000E-03 0.  1.
        -11    1    3    3    0    0  0.58681688249E+01 -0.58966107453E+01  0.17684895416E+02  0.19543821268E+02  0.51100000000E-03 0. -1.
         12    1    3    3    0    0  0.97913854366E+01  0.61262248171E+01 -0.13951743298E+02  0.18112233444E+02  0.00000000000E+00 0. -1.
</event>
<event>
 7    1  0.1360399E-013  0.7246159E+02  0.7816164E-02  0.1226708E+00
        -11   -1    0    0    0    0  0.00000000000E+00  0.00000000000E+00  0.45593999997E+02  0.45594000000E+02  0.51100000000E-03 0.  1.
         11   -1    0    0    0    0 -0.00000000000E+00 -0.00000000000E+00 -0.45593999997E+02  0.45594000000E+02  0.51100000000E-03 0. -1.
    9900012    2    1    2    0    0 -0.92145245433E+01  0.38392654957E+01  0.15843959352E+02  0.72461588970E+02  0.70000024329E+02 0.  0.
         12    1    1    2    0    0  0.92145245433E+01 -0.38392654957E+01 -0.15843959352E+02  0.18726411030E+02  0.00000000000E+00 0. -1.
         11    1    3    3    0    0 -0.39106878512E+01 -0.55403514990E+01 -0.16128685019E+02  0.17496384053E+02  0.51100000000E-03 0. -1.
        -11    1    3    3    0    0  0.15946328420E+01  0.52606898032E+01  0.41863139373E+02  0.42222507617E+02  0.51100000000E-03 0.  1.
         12    1    3    3    0    0 -0.68984695341E+01  0.41189271915E+01 -0.98904950014E+01  0.12742697301E+02  0.00000000000E+00 0. -1.
</event>
<event>
 7    1  0.1360399E-013  0.7246151E+02  0.7816164E-02  0.1226708E+00
        -11   -1    0    0    0    0  0.00000000000E+00  0.00000000000E+00  0.45593999997E+02  0.45594000000E+02  0.51100000000E-03 0.  1.
         11   -1    0    0    0    0 -0.00000000000E+00 -0.00000000000E+00 -0.45593999997E+02  0.45594000000E+02  0.51100000000E-03 0. -1.
    9900012    2    1    2    0    0  0.10351903533E+02  0.10664798193E+02 -0.11392175624E+02  0.72461508265E+02  0.69999919195E+02 0.  0.
         12    1    1    2    0    0 -0.10351903533E+02 -0.10664798193E+02  0.11392175624E+02  0.18726491735E+02  0.00000000000E+00 0. -1.
         11    1    3    3    0    0 -0.13911648120E+02 -0.14183983028E+02  0.24702173155E+01  0.20020522017E+02  0.51100000000E-03 0. -1.
        -11    1    3    3    0    0  0.27953340975E+02  0.13349839229E+02  0.36250406529E+01  0.31188914683E+02  0.51100000000E-03 0.  1.
        -12    1    3    3    0    0 -0.36897893215E+01  0.11498941992E+02 -0.17487433592E+02  0.21252071565E+02  0.00000000000E+00 0.  1.
</event>
<event>
 7    1  0.1360399E-013  0.7246144E+02  0.7816164E-02  0.1226708E+00
        -11   -1    0    0    0    0  0.00000000000E+00  0.00000000000E+00  0.45593999997E+02  0.45594000000E+02  0.51100000000E-03 0.  1.
         11   -1    0    0    0    0 -0.00000000000E+00 -0.00000000000E+00 -0.45593999997E+02  0.45594000000E+02  0.51100000000E-03 0. -1.
    9900012    2    1    2    0    0  0.11342860823E+02 -0.29094732595E+01  0.14613641139E+02  0.72461440422E+02  0.69999830817E+02 0.  0.
         12    1    1    2    0    0 -0.11342860823E+02  0.29094732595E+01 -0.14613641139E+02  0.18726559578E+02  0.00000000000E+00 0. -1.
         11    1    3    3    0    0  0.29866821042E+02  0.10450942022E+02  0.59984345219E+01  0.32206061624E+02  0.51100000000E-03 0. -1.
        -11    1    3    3    0    0 -0.92691475086E+01 -0.21486517258E+02 -0.26680231150E+01  0.23552194527E+02  0.51100000000E-03 0.  1.
         12    1    3    3    0    0 -0.92548127108E+01  0.81261019762E+01  0.11283229732E+02  0.16703184272E+02  0.00000000000E+00 0. -1.
</event>
<event>
 7    1  0.1360399E-013  0.7246152E+02  0.7816164E-02  0.1226708E+00
        -11   -1    0    0    0    0  0.00000000000E+00  0.00000000000E+00  0.45593999997E+02  0.45594000000E+02  0.51100000000E-03 0. -1.
         11   -1    0    0    0    0 -0.00000000000E+00 -0.00000000000E+00 -0.45593999997E+02  0.45594000000E+02  0.51100000000E-03 0.  1.
    9900012    2    1    2    0    0 -0.35079064593E+01  0.35439345907E+01 -0.18050378495E+02  0.72461520248E+02  0.69999934805E+02 0.  0.
         12    1    1    2    0    0  0.35079064593E+01 -0.35439345907E+01  0.18050378495E+02  0.18726479752E+02  0.00000000000E+00 0. -1.
         11    1    3    3    0    0  0.11465479195E+02 -0.14487110318E+02  0.55009952380E+01  0.19276787269E+02  0.51100000000E-03 0. -1.
        -11    1    3    3    0    0  0.59738331735E+01  0.12153330977E+02  0.73381202258E+01  0.15402536977E+02  0.51100000000E-03 0.  1.
         12    1    3    3    0    0 -0.20947218828E+02  0.58777139313E+01 -0.30889493958E+02  0.37782196002E+02  0.00000000000E+00 0. -1.
</event>
<event>
 7    1  0.1360399E-013  0.7246157E+02  0.7816164E-02  0.1226708E+00
        -11   -1    0    0    0    0  0.00000000000E+00  0.00000000000E+00  0.45593999997E+02  0.45594000000E+02  0.51100000000E-03 0.  1.
         11   -1    0    0    0    0 -0.00000000000E+00 -0.00000000000E+00 -0.45593999997E+02  0.45594000000E+02  0.51100000000E-03 0. -1.
    9900012    2    1    2    0    0 -0.84682260392E+01  0.12002452664E+01  0.16659166469E+02  0.72461567654E+02  0.69999996561E+02 0.  0.
         12    1    1    2    0    0  0.84682260392E+01 -0.12002452664E+01 -0.16659166469E+02  0.18726432346E+02  0.00000000000E+00 0. -1.
         11    1    3    3    0    0 -0.14554604512E+02 -0.29281215349E+02  0.87618788166E+01  0.33852571623E+02  0.51100000000E-03 0. -1.
        -11    1    3    3    0    0  0.19157124673E+00  0.31711503450E+02  0.58389133737E+01  0.32245140103E+02  0.51100000000E-03 0.  1.
        -12    1    3    3    0    0  0.58948072263E+01 -0.12300428346E+01  0.20583742789E+01  0.63638559288E+01  0.00000000000E+00 0.  1.
</event>
<event>
 7    1  0.1360399E-013  0.7246158E+02  0.7816164E-02  0.1226708E+00
        -11   -1    0    0    0    0  0.00000000000E+00  0.00000000000E+00  0.45593999997E+02  0.45594000000E+02  0.51100000000E-03 0. -1.
         11   -1    0    0    0    0 -0.00000000000E+00 -0.00000000000E+00 -0.45593999997E+02  0.45594000000E+02  0.51100000000E-03 0.  1.
    9900012    2    1    2    0    0 -0.35345345504E+01 -0.18344882031E+02 -0.12849205372E+01  0.72461584113E+02  0.70000018001E+02 0.  0.
         12    1    1    2    0    0  0.35345345504E+01  0.18344882031E+02  0.12849205372E+01  0.18726415887E+02  0.00000000000E+00 0. -1.
         11    1    3    3    0    0 -0.22208760650E+02 -0.11865383642E+02  0.27092739531E+02  0.36986928963E+02  0.51100000000E-03 0. -1.
        -11    1    3    3    0    0  0.13442432622E+02 -0.23825239662E+01 -0.13592131967E+02  0.19264513151E+02  0.51100000000E-03 0.  1.
        -12    1    3    3    0    0  0.52317934774E+01 -0.40969744225E+01 -0.14785528101E+02  0.16210141999E+02  0.00000000000E+00 0.  1.
</event>
<event>
 7    1  0.1360399E-013  0.7246168E+02  0.7816164E-02  0.1226708E+00
        -11   -1    0    0    0    0  0.00000000000E+00  0.00000000000E+00  0.45593999997E+02  0.45594000000E+02  0.51100000000E-03 0.  1.
         11   -1    0    0    0    0 -0.00000000000E+00 -0.00000000000E+00 -0.45593999997E+02  0.45594000000E+02  0.51100000000E-03 0. -1.
    9900012    2    1    2    0    0 -0.10913873570E+02 -0.13870317346E+02  0.62591231828E+01  0.72461682620E+02  0.70000146325E+02 0.  0.
         12    1    1    2    0    0  0.10913873570E+02  0.13870317346E+02 -0.62591231828E+01  0.18726317380E+02  0.00000000000E+00 0. -1.
         11    1    3    3    0    0 -0.14196052833E+02 -0.22273307236E+02  0.22519282743E+02  0.34709454430E+02  0.51100000000E-03 0.  1.
        -11    1    3    3    0    0  0.30087400634E+01  0.20749243756E+02 -0.13965297676E+02  0.25191529780E+02  0.51100000000E-03 0. -1.
        -12    1    3    3    0    0  0.27343919927E+00 -0.12346253865E+02 -0.22948618839E+01  0.12560698411E+02  0.00000000000E+00 0.  1.
</event>
<event>
 7    1  0.1360399E-013  0.7246158E+02  0.7816164E-02  0.1226708E+00
        -11   -1    0    0    0    0  0.00000000000E+00  0.00000000000E+00  0.45593999997E+02  0.45594000000E+02  0.51100000000E-03 0.  1.
         11   -1    0    0    0    0 -0.00000000000E+00 -0.00000000000E+00 -0.45593999997E+02  0.45594000000E+02  0.51100000000E-03 0. -1.
    9900012    2    1    2    0    0  0.10899408977E+02 -0.14596122954E+02 -0.43399314078E+01  0.72461576797E+02  0.70000008471E+02 0.  0.
         12    1    1    2    0    0 -0.10899408977E+02  0.14596122954E+02  0.43399314078E+01  0.18726423203E+02  0.00000000000E+00 0. -1.
         11    1    3    3    0    0 -0.15682173222E+02 -0.11345093443E+02 -0.13248660780E+02  0.23455675537E+02  0.51100000000E-03 0. -1.
        -11    1    3    3    0    0  0.16647857968E+02  0.21936011817E+01  0.24519468004E+02  0.29718132050E+02  0.51100000000E-03 0.  1.
        -12    1    3    3    0    0  0.99337242306E+01 -0.54446306925E+01 -0.15610738632E+02  0.19287769210E+02  0.00000000000E+00 0.  1.
</event>
<event>
 7    1  0.1360399E-013  0.7246164E+02  0.7816164E-02  0.1226708E+00
        -11   -1    0    0    0    0  0.00000000000E+00  0.00000000000E+00  0.45593999997E+02  0.45594000000E+02  0.51100000000E-03 0. -1.
         11   -1    0    0    0    0 -0.00000000000E+00 -0.00000000000E+00 -0.45593999997E+02  0.45594000000E+02  0.51100000000E-03 0.  1.
    9900012    2    1    2    0    0  0.17439566488E+01  0.17499818688E+02  0.64336127548E+01  0.72461643922E+02  0.70000095913E+02 0.  0.
         12    1    1    2    0    0 -0.17439566488E+01 -0.17499818688E+02 -0.64336127548E+01  0.18726356078E+02  0.00000000000E+00 0. -1.
         11    1    3    3    0    0  0.14415091814E+02  0.27444277221E+02 -0.84251082072E+01  0.32124222523E+02  0.51100000000E-03 0. -1.
        -11    1    3    3    0    0  0.20745079660E+01 -0.17396481855E+02 -0.84929174661E+00  0.17540309603E+02  0.51100000000E-03 0.  1.
         12    1    3    3    0    0 -0.14745643131E+02  0.74520233225E+01  0.15708012709E+02  0.22797111795E+02  0.00000000000E+00 0. -1.
</event>
<event>
 7    1  0.1360399E-013  0.7246153E+02  0.7816164E-02  0.1226708E+00
        -11   -1    0    0    0    0  0.00000000000E+00  0.00000000000E+00  0.45593999997E+02  0.45594000000E+02  0.51100000000E-03 0. -1.
         11   -1    0    0    0    0 -0.00000000000E+00 -0.00000000000E+00 -0.45593999997E+02  0.45594000000E+02  0.51100000000E-03 0.  1.
    9900012    2    1    2    0    0 -0.12756572637E+02  0.13542165068E+02  0.21354845731E+01  0.72461530110E+02  0.69999947653E+02 0.  0.
         12    1    1    2    0    0  0.12756572637E+02 -0.13542165068E+02 -0.21354845731E+01  0.18726469890E+02  0.00000000000E+00 0. -1.
         11    1    3    3    0    0 -0.46757271487E+01 -0.19474191134E+01  0.13689337837E+02  0.14596329547E+02  0.51100000000E-03 0. -1.
        -11    1    3    3    0    0  0.17325536106E+02  0.46917134133E+01 -0.21960703466E+02  0.28362984206E+02  0.51100000000E-03 0.  1.
        -12    1    3    3    0    0 -0.25406381595E+02  0.10797870768E+02  0.10406850202E+02  0.29502216357E+02  0.00000000000E+00 0.  1.
</event>
<event>
 7    1  0.1360399E-013  0.7246155E+02  0.7816164E-02  0.1226708E+00
        -11   -1    0    0    0    0  0.00000000000E+00  0.00000000000E+00  0.45593999997E+02  0.45594000000E+02  0.51100000000E-03 0.  1.
         11   -1    0    0    0    0 -0.00000000000E+00 -0.00000000000E+00 -0.45593999997E+02  0.45594000000E+02  0.51100000000E-03 0. -1.
    9900012    2    1    2    0    0 -0.96725718420E+01  0.10109115958E+02 -0.12446973555E+02  0.72461547529E+02  0.69999970343E+02 0.  0.
         12    1    1    2    0    0  0.96725718420E+01 -0.10109115958E+02  0.12446973555E+02  0.18726452471E+02  0.00000000000E+00 0. -1.
         11    1    3    3    0    0 -0.11640533773E+02  0.15521015866E+02 -0.34801169318E+00  0.19404253977E+02  0.51100000000E-03 0. -1.
        -11    1    3    3    0    0  0.19306720031E+02 -0.15020832656E+02  0.70893081039E+01  0.25468277163E+02  0.51100000000E-03 0.  1.
        -12    1    3    3    0    0 -0.17338758099E+02  0.96089327483E+01 -0.19188269965E+02  0.27589016388E+02  0.00000000000E+00 0.  1.
</event>
<event>
 7    1  0.1360399E-013  0.7246156E+02  0.7816164E-02  0.1226708E+00
        -11   -1    0    0    0    0  0.00000000000E+00  0.00000000000E+00  0.45593999997E+02  0.45594000000E+02  0.51100000000E-03 0.  1.
         11   -1    0    0    0    0 -0.00000000000E+00 -0.00000000000E+00 -0.45593999997E+02  0.45594000000E+02  0.51100000000E-03 0. -1.
    9900012    2    1    2    0    0 -0.12101608317E+02 -0.11499853116E+02  0.84843302347E+01  0.72461564005E+02  0.69999991806E+02 0.  0.
         12    1    1    2    0    0  0.12101608317E+02  0.11499853116E+02 -0.84843302347E+01  0.18726435995E+02  0.00000000000E+00 0. -1.
         11    1    3    3    0    0 -0.41834067794E+01 -0.17722871237E+02 -0.18401958907E+02  0.25888861486E+02  0.51100000000E-03 0. -1.
        -11    1    3    3    0    0 -0.20457475075E+02 -0.46650868540E+01  0.11468316258E+02  0.23912206085E+02  0.51100000000E-03 0.  1.
         12    1    3    3    0    0  0.12539273537E+02  0.10888104975E+02  0.15417972883E+02  0.22660496433E+02  0.00000000000E+00 0. -1.
</event>
<event>
 7    1  0.1360399E-013  0.7246161E+02  0.7816164E-02  0.1226708E+00
        -11   -1    0    0    0    0  0.00000000000E+00  0.00000000000E+00  0.45593999997E+02  0.45594000000E+02  0.51100000000E-03 0. -1.
         11   -1    0    0    0    0 -0.00000000000E+00 -0.00000000000E+00 -0.45593999997E+02  0.45594000000E+02  0.51100000000E-03 0.  1.
    9900012    2    1    2    0    0  0.18419142498E+02  0.58097841425E+00 -0.33279480844E+01  0.72461612609E+02  0.70000055122E+02 0.  0.
         12    1    1    2    0    0 -0.18419142498E+02 -0.58097841425E+00  0.33279480844E+01  0.18726387391E+02  0.00000000000E+00 0. -1.
         11    1    3    3    0    0 -0.19849936939E+01 -0.13825631490E+02  0.12177129182E+02  0.18530266092E+02  0.51100000000E-03 0. -1.
        -11    1    3    3    0    0  0.17575028832E+02  0.23554272159E+02 -0.26344830703E+02  0.39468157804E+02  0.51100000000E-03 0.  1.
        -12    1    3    3    0    0  0.28291073596E+01 -0.91476622552E+01  0.10839753436E+02  0.14463188713E+02  0.00000000000E+00 0.  1.
</event>
<event>
 7    1  0.1360399E-013  0.7246160E+02  0.7816164E-02  0.1226708E+00
        -11   -1    0    0    0    0  0.00000000000E+00  0.00000000000E+00  0.45593999997E+02  0.45594000000E+02  0.51100000000E-03 0.  1.
         11   -1    0    0    0    0 -0.00000000000E+00 -0.00000000000E+00 -0.45593999997E+02  0.45594000000E+02  0.51100000000E-03 0. -1.
    9900012    2    1    2    0    0 -0.46541451455E+01 -0.13985291610E+02  0.11551135857E+02  0.72461596500E+02  0.70000034138E+02 0.  0.
         12    1    1    2    0    0  0.46541451455E+01  0.13985291610E+02 -0.11551135857E+02  0.18726403500E+02  0.00000000000E+00 0. -1.
         11    1    3    3    0    0 -0.48940427306E+01 -0.50729857450E+01 -0.25767646399E+02  0.26714386383E+02  0.51100000000E-03 0. -1.
        -11    1    3    3    0    0  0.11000099696E+02 -0.35902404453E+01  0.80038756459E+01  0.14069614259E+02  0.51100000000E-03 0.  1.
         12    1    3    3    0    0 -0.10760202111E+02 -0.53220654201E+01  0.29314906610E+02  0.31677595858E+02  0.00000000000E+00 0. -1.
</event>
<event>
 7    1  0.1360399E-013  0.7246161E+02  0.7816164E-02  0.1226708E+00
        -11   -1    0    0    0    0  0.00000000000E+00  0.00000000000E+00  0.45593999997E+02  0.45594000000E+02  0.51100000000E-03 0. -1.
         11   -1    0    0    0    0 -0.00000000000E+00 -0.00000000000E+00 -0.45593999997E+02  0.45594000000E+02  0.51100000000E-03 0.  1.
    9900012    2    1    2    0    0  0.10054019983E+02 -0.66851224228E+01 -0.14314452657E+02  0.72461608609E+02  0.70000049913E+02 0.  0.
         12    1    1    2    0    0 -0.10054019983E+02  0.66851224228E+01  0.14314452657E+02  0.18726391391E+02  0.00000000000E+00 0. -1.
         11    1    3    3    0    0  0.21130998672E+02  0.31850779400E+01 -0.33758825526E+02  0.39954000144E+02  0.51100000000E-03 0.  1.
        -11    1    3    3    0    0 -0.14415133124E+02 -0.24520578417E+01  0.19499349923E+02  0.24372798328E+02  0.51100000000E-03 0. -1.
        -12    1    3    3    0    0  0.33381544356E+01 -0.74181425211E+01 -0.54977053877E-01  0.81348101377E+01  0.00000000000E+00 0.  1.
</event>
<event>
 7    1  0.1360399E-013  0.7246157E+02  0.7816164E-02  0.1226708E+00
        -11   -1    0    0    0    0  0.00000000000E+00  0.00000000000E+00  0.45593999997E+02  0.45594000000E+02  0.51100000000E-03 0.  1.
         11   -1    0    0    0    0 -0.00000000000E+00 -0.00000000000E+00 -0.45593999997E+02  0.45594000000E+02  0.51100000000E-03 0. -1.
    9900012    2    1    2    0    0 -0.35134855618E+01 -0.17700689156E+02  0.50020136287E+01  0.72461571677E+02  0.70000001801E+02 0.  0.
         12    1    1    2    0    0  0.35134855618E+01  0.17700689156E+02 -0.50020136287E+01  0.18726428323E+02  0.00000000000E+00 0. -1.
         11    1    3    3    0    0  0.62001061618E+01 -0.11829570506E+02  0.25869840894E+02  0.29114064006E+02  0.51100000000E-03 0.  1.
        -11    1    3    3    0    0  0.11302698794E+02  0.48116665985E+00 -0.17924193581E+02  0.21195736297E+02  0.51100000000E-03 0. -1.
        -12    1    3    3    0    0 -0.21016290517E+02 -0.63522853097E+01 -0.29436336846E+01  0.22151771375E+02  0.00000000000E+00 0.  1.
</event>
<event>
 7    1  0.1360399E-013  0.7246158E+02  0.7816164E-02  0.1226708E+00
        -11   -1    0    0    0    0  0.00000000000E+00  0.00000000000E+00  0.45593999997E+02  0.45594000000E+02  0.51100000000E-03 0.  1.
         11   -1    0    0    0    0 -0.00000000000E+00 -0.00000000000E+00 -0.45593999997E+02  0.45594000000E+02  0.51100000000E-03 0. -1.
    9900012    2    1    2    0    0 -0.47849960161E+01  0.10516398836E+02  0.14737304195E+02  0.72461575721E+02  0.70000007069E+02 0.  0.
         12    1    1    2    0    0  0.47849960161E+01 -0.10516398836E+02 -0.14737304195E+02  0.18726424279E+02  0.00000000000E+00 0. -1.
         11    1    3    3    0    0 -0.13559864523E+02  0.21638788009E+02 -0.18829278627E+02  0.31727729295E+02  0.51100000000E-03 0. -1.
        -11    1    3    3    0    0 -0.30929124643E+01 -0.84725110363E+01  0.66750161729E+01  0.11220757191E+02  0.51100000000E-03 0.  1.
         12    1    3    3    0    0  0.11867780971E+02 -0.26498781365E+01  0.26891566649E+02  0.29513089234E+02  0.00000000000E+00 0. -1.
</event>
<event>
 7    1  0.1360399E-013  0.7246153E+02  0.7816164E-02  0.1226708E+00
        -11   -1    0    0    0    0  0.00000000000E+00  0.00000000000E+00  0.45593999997E+02  0.45594000000E+02  0.51100000000E-03 0. -1.
         11   -1    0    0    0    0 -0.00000000000E+00 -0.00000000000E+00 -0.45593999997E+02  0.45594000000E+02  0.51100000000E-03 0.  1.
    9900012    2    1    2    0    0 -0.55880479345E+01  0.17205721675E+02 -0.48391655069E+01  0.72461530475E+02  0.69999948128E+02 0.  0.
         12    1    1    2    0    0  0.55880479345E+01 -0.17205721675E+02  0.48391655069E+01  0.18726469525E+02  0.00000000000E+00 0. -1.
         11    1    3    3    0    0 -0.19347391588E+01 -0.22647818817E+02 -0.79245904650E+01  0.24072101011E+02  0.51100000000E-03 0. -1.
        -11    1    3    3    0    0 -0.92244774320E+01  0.41043265688E+02  0.50371189291E+01  0.42367596222E+02  0.51100000000E-03 0.  1.
        -12    1    3    3    0    0  0.55711686563E+01 -0.11897251956E+01 -0.19516939710E+01  0.60218332420E+01  0.00000000000E+00 0.  1.
</event>
<event>
 7    1  0.1360399E-013  0.7246159E+02  0.7816164E-02  0.1226708E+00
        -11   -1    0    0    0    0  0.00000000000E+00  0.00000000000E+00  0.45593999997E+02  0.45594000000E+02  0.51100000000E-03 0.  1.
         11   -1    0    0    0    0 -0.00000000000E+00 -0.00000000000E+00 -0.45593999997E+02  0.45594000000E+02  0.51100000000E-03 0. -1.
    9900012    2    1    2    0    0 -0.80608841795E+01  0.13619991026E+02 -0.10009812488E+02  0.72461592033E+02  0.70000028319E+02 0.  0.
         12    1    1    2    0    0  0.80608841795E+01 -0.13619991026E+02  0.10009812488E+02  0.18726407967E+02  0.00000000000E+00 0. -1.
         11    1    3    3    0    0 -0.74210259639E+01  0.19529434918E+02 -0.28174241307E+02  0.35075038533E+02  0.51100000000E-03 0. -1.
        -11    1    3    3    0    0 -0.57392612583E+01  0.12261457899E+02  0.52620566991E+01  0.14524865251E+02  0.51100000000E-03 0.  1.
         12    1    3    3    0    0  0.50994030427E+01 -0.18170901790E+02  0.12902372121E+02  0.22861688249E+02  0.00000000000E+00 0. -1.
</event>
<event>
 7    1  0.1360399E-013  0.7246161E+02  0.7816164E-02  0.1226708E+00
        -11   -1    0    0    0    0  0.00000000000E+00  0.00000000000E+00  0.45593999997E+02  0.45594000000E+02  0.51100000000E-03 0.  1.
         11   -1    0    0    0    0 -0.00000000000E+00 -0.00000000000E+00 -0.45593999997E+02  0.45594000000E+02  0.51100000000E-03 0. -1.
    9900012    2    1    2    0    0 -0.87445925087E+01  0.84168565145E+01 -0.14260655669E+02  0.72461610283E+02  0.70000052093E+02 0.  0.
         12    1    1    2    0    0  0.87445925087E+01 -0.84168565145E+01  0.14260655669E+02  0.18726389717E+02  0.00000000000E+00 0. -1.
         11    1    3    3    0    0 -0.13216865492E+02  0.66839204251E+01 -0.26806617904E+02  0.30626052462E+02  0.51100000000E-03 0. -1.
        -11    1    3    3    0    0 -0.65907784548E+01 -0.10267375959E+02  0.20363093140E+02  0.23738427332E+02  0.51100000000E-03 0.  1.
        -12    1    3    3    0    0  0.11063051438E+02  0.12000312048E+02 -0.78171309044E+01  0.18097130490E+02  0.00000000000E+00 0.  1.
</event>
<event>
 7    1  0.1360399E-013  0.7246140E+02  0.7816164E-02  0.1226708E+00
        -11   -1    0    0    0    0  0.00000000000E+00  0.00000000000E+00  0.45593999997E+02  0.45594000000E+02  0.51100000000E-03 0. -1.
         11   -1    0    0    0    0 -0.00000000000E+00 -0.00000000000E+00 -0.45593999997E+02  0.45594000000E+02  0.51100000000E-03 0.  1.
    9900012    2    1    2    0    0 -0.13227649619E+02  0.58204060333E+01 -0.11909569239E+02  0.72461396456E+02  0.69999773543E+02 0.  0.
         12    1    1    2    0    0  0.13227649619E+02 -0.58204060333E+01  0.11909569239E+02  0.18726603544E+02  0.00000000000E+00 0. -1.
         11    1    3    3    0    0  0.51047260267E+01 -0.10603996301E+01  0.99124287045E+00  0.53070931660E+01  0.51100000000E-03 0. -1.
        -11    1    3    3    0    0 -0.38380879813E+02  0.15026974851E+02 -0.17911727264E+02  0.44941427239E+02  0.51100000000E-03 0.  1.
        -12    1    3    3    0    0  0.20048504167E+02 -0.81461691881E+01  0.50109151543E+01  0.22212876051E+02  0.00000000000E+00 0.  1.
</event>
<event>
 7    1  0.1360399E-013  0.7246201E+02  0.7816164E-02  0.1226707E+00
        -11   -1    0    0    0    0  0.00000000000E+00  0.00000000000E+00  0.45593999997E+02  0.45594000000E+02  0.51100000000E-03 0.  1.
         11   -1    0    0    0    0 -0.00000000000E+00 -0.00000000000E+00 -0.45593999997E+02  0.45594000000E+02  0.51100000000E-03 0. -1.
    9900012    2    1    2    0    0  0.70660761865E+01 -0.11540805401E+02  0.12943846440E+02  0.72462007833E+02  0.70000569973E+02 0.  0.
         12    1    1    2    0    0 -0.70660761865E+01  0.11540805401E+02 -0.12943846440E+02  0.18725992167E+02  0.00000000000E+00 0. -1.
         11    1    3    3    0    0  0.48301340645E+01 -0.87429088028E+01  0.34515014877E+02  0.35931252436E+02  0.51100000000E-03 0.  1.
        -11    1    3    3    0    0 -0.79359484548E-01  0.11765132141E+02 -0.17754350412E+02  0.21298863609E+02  0.51100000000E-03 0. -1.
        -12    1    3    3    0    0  0.23153016065E+01 -0.14563028739E+02 -0.38168180258E+01  0.15231891788E+02  0.00000000000E+00 0.  1.
</event>
<event>
 7    1  0.1360399E-013  0.7246193E+02  0.7816164E-02  0.1226707E+00
        -11   -1    0    0    0    0  0.00000000000E+00  0.00000000000E+00  0.45593999997E+02  0.45594000000E+02  0.51100000000E-03 0. -1.
         11   -1    0    0    0    0 -0.00000000000E+00 -0.00000000000E+00 -0.45593999997E+02  0.45594000000E+02  0.51100000000E-03 0.  1.
    9900012    2    1    2    0    0  0.14579022693E+02 -0.75989000123E+01 -0.89651780162E+01  0.72461932582E+02  0.70000471945E+02 0.  0.
         12    1    1    2    0    0 -0.14579022693E+02  0.75989000123E+01  0.89651780162E+01  0.18726067418E+02  0.00000000000E+00 0. -1.
         11    1    3    3    0    0 -0.83061574638E+01 -0.23125034680E+02  0.14568570478E+02  0.28565761443E+02  0.51100000000E-03 0. -1.
        -11    1    3    3    0    0  0.13254575357E+02 -0.15121008006E+01 -0.19949497303E+02  0.23999013722E+02  0.51100000000E-03 0.  1.
         12    1    3    3    0    0  0.96306047997E+01  0.17038235468E+02 -0.35842511912E+01  0.19897157417E+02  0.00000000000E+00 0. -1.
</event>
<event>
 7    1  0.1360399E-013  0.7246158E+02  0.7816164E-02  0.1226708E+00
        -11   -1    0    0    0    0  0.00000000000E+00  0.00000000000E+00  0.45593999997E+02  0.45594000000E+02  0.51100000000E-03 0.  1.
         11   -1    0    0    0    0 -0.00000000000E+00 -0.00000000000E+00 -0.45593999997E+02  0.45594000000E+02  0.51100000000E-03 0. -1.
    9900012    2    1    2    0    0  0.75335180871E+00 -0.17830182956E+02  0.56741377709E+01  0.72461580090E+02  0.70000012761E+02 0.  0.
         12    1    1    2    0    0 -0.75335180871E+00  0.17830182956E+02 -0.56741377709E+01  0.18726419910E+02  0.00000000000E+00 0. -1.
         11    1    3    3    0    0  0.46030521333E+01 -0.27521862166E+02 -0.12647400145E+02  0.30636542180E+02  0.51100000000E-03 0. -1.
        -11    1    3    3    0    0  0.13501480934E+02  0.50163501786E+01  0.18999916721E+02  0.23842201916E+02  0.51100000000E-03 0.  1.
         12    1    3    3    0    0 -0.17351181258E+02  0.46753290318E+01 -0.67837880521E+00  0.17982835995E+02  0.00000000000E+00 0. -1.
</event>
<event>
 7    1  0.1360399E-013  0.7246157E+02  0.7816164E-02  0.1226708E+00
        -11   -1    0    0    0    0  0.00000000000E+00  0.00000000000E+00  0.45593999997E+02  0.45594000000E+02  0.51100000000E-03 0.  1.
         11   -1    0    0    0    0 -0.00000000000E+00 -0.00000000000E+00 -0.45593999997E+02  0.45594000000E+02  0.51100000000E-03 0. -1.
    9900012    2    1    2    0    0  0.89045501334E+01 -0.15588436272E+02  0.53281055963E+01  0.72461573012E+02  0.70000003540E+02 0.  0.
         12    1    1    2    0    0 -0.89045501334E+01  0.15588436272E+02 -0.53281055963E+01  0.18726426988E+02  0.00000000000E+00 0. -1.
         11    1    3    3    0    0 -0.10834934094E+02  0.43506396600E+01 -0.82118290852E+01  0.14274382630E+02  0.51100000000E-03 0. -1.
        -11    1    3    3    0    0  0.32257828018E+02 -0.81344021455E+01  0.21098358692E+02  0.39393866355E+02  0.51100000000E-03 0.  1.
        -12    1    3    3    0    0 -0.12518343790E+02 -0.11804673787E+02 -0.75584240105E+01  0.18793324027E+02  0.00000000000E+00 0.  1.
</event>
<event>
 7    1  0.1360399E-013  0.7246157E+02  0.7816164E-02  0.1226708E+00
        -11   -1    0    0    0    0  0.00000000000E+00  0.00000000000E+00  0.45593999997E+02  0.45594000000E+02  0.51100000000E-03 0.  1.
         11   -1    0    0    0    0 -0.00000000000E+00 -0.00000000000E+00 -0.45593999997E+02  0.45594000000E+02  0.51100000000E-03 0. -1.
    9900012    2    1    2    0    0 -0.10465973486E+02 -0.32006671499E+01  0.15195340636E+02  0.72461568193E+02  0.69999997262E+02 0.  0.
         12    1    1    2    0    0  0.10465973486E+02  0.32006671499E+01 -0.15195340636E+02  0.18726431807E+02  0.00000000000E+00 0. -1.
         11    1    3    3    0    0  0.49755707641E+01 -0.15998150947E+02  0.13931777677E+02  0.21789712427E+02  0.51100000000E-03 0. -1.
        -11    1    3    3    0    0 -0.27167313161E+02  0.60619836886E+01  0.14810900166E+02  0.31530514024E+02  0.51100000000E-03 0.  1.
        -12    1    3    3    0    0  0.11725768911E+02  0.67355001087E+01 -0.13547337207E+02  0.19141341742E+02  0.00000000000E+00 0.  1.
</event>
<event>
 7    1  0.1360399E-013  0.7246159E+02  0.7816164E-02  0.1226708E+00
        -11   -1    0    0    0    0  0.00000000000E+00  0.00000000000E+00  0.45593999997E+02  0.45594000000E+02  0.51100000000E-03 0. -1.
         11   -1    0    0    0    0 -0.00000000000E+00 -0.00000000000E+00 -0.45593999997E+02  0.45594000000E+02  0.51100000000E-03 0.  1.
    9900012    2    1    2    0    0  0.12180900534E+02 -0.93875612048E+01  0.10685393139E+02  0.72461594319E+02  0.70000031296E+02 0.  0.
         12    1    1    2    0    0 -0.12180900534E+02  0.93875612048E+01 -0.10685393139E+02  0.18726405681E+02  0.00000000000E+00 0. -1.
         11    1    3    3    0    0 -0.14869064617E+02  0.19128511591E+02 -0.23140573390E+01  0.24338116195E+02  0.51100000000E-03 0. -1.
        -11    1    3    3    0    0  0.18432895259E+02 -0.12648267679E+02  0.18745788629E+02  0.29174559028E+02  0.51100000000E-03 0.  1.
        -12    1    3    3    0    0  0.86170698923E+01 -0.15867805117E+02 -0.57463381509E+01  0.18948919096E+02  0.00000000000E+00 0.  1.
</event>
<event>
 7    1  0.1360399E-013  0.7246156E+02  0.7816164E-02  0.1226708E+00
        -11   -1    0    0    0    0  0.00000000000E+00  0.00000000000E+00  0.45593999997E+02  0.45594000000E+02  0.51100000000E-03 0.  1.
         11   -1    0    0    0    0 -0.00000000000E+00 -0.00000000000E+00 -0.45593999997E+02  0.45594000000E+02  0.51100000000E-03 0. -1.
    9900012    2    1    2    0    0 -0.73594414525E+01 -0.97555979617E+01  0.14189655467E+02  0.72461564345E+02  0.69999992250E+02 0.  0.
         12    1    1    2    0    0  0.73594414525E+01  0.97555979617E+01 -0.14189655467E+02  0.18726435655E+02  0.00000000000E+00 0. -1.
         11    1    3    3    0    0  0.82297671303E+01 -0.30614278259E+01  0.33292186309E+02  0.34430670583E+02  0.51100000000E-03 0. -1.
        -11    1    3    3    0    0 -0.10687850653E+02 -0.12191750597E+02  0.13727172230E+01  0.16271241103E+02  0.51100000000E-03 0.  1.
         12    1    3    3    0    0 -0.49013579294E+01  0.54975804610E+01 -0.20475248065E+02  0.21759652658E+02  0.00000000000E+00 0. -1.
</event>
<event>
 7    1  0.1360399E-013  0.7246157E+02  0.7816164E-02  0.1226708E+00
        -11   -1    0    0    0    0  0.00000000000E+00  0.00000000000E+00  0.45593999997E+02  0.45594000000E+02  0.51100000000E-03 0.  1.
         11   -1    0    0    0    0 -0.00000000000E+00 -0.00000000000E+00 -0.45593999997E+02  0.45594000000E+02  0.51100000000E-03 0. -1.
    9900012    2    1    2    0    0 -0.76940132191E+01 -0.99780407102E+01  0.13853524424E+02  0.72461567483E+02  0.69999996338E+02 0.  0.
         12    1    1    2    0    0  0.76940132191E+01  0.99780407102E+01 -0.13853524424E+02  0.18726432517E+02  0.00000000000E+00 0. -1.
         11    1    3    3    0    0 -0.25859461272E+02 -0.97234844128E+01 -0.99821440929E+01  0.29375178082E+02  0.51100000000E-03 0. -1.
        -11    1    3    3    0    0  0.12087803152E+02  0.75619654672E+00  0.31209642757E+02  0.33477285128E+02  0.51100000000E-03 0.  1.
        -12    1    3    3    0    0  0.60776449007E+01 -0.10107528442E+01 -0.73739742399E+01  0.96091042737E+01  0.00000000000E+00 0.  1.
</event>
<event>
 7    1  0.1360399E-013  0.7246156E+02  0.7816164E-02  0.1226708E+00
        -11   -1    0    0    0    0  0.00000000000E+00  0.00000000000E+00  0.45593999997E+02  0.45594000000E+02  0.51100000000E-03 0.  1.
         11   -1    0    0    0    0 -0.00000000000E+00 -0.00000000000E+00 -0.45593999997E+02  0.45594000000E+02  0.51100000000E-03 0. -1.
    9900012    2    1    2    0    0  0.12087567153E+02 -0.14300157120E+02  0.27548999846E+00  0.72461556983E+02  0.69999982659E+02 0.  0.
         12    1    1    2    0    0 -0.12087567153E+02  0.14300157120E+02 -0.27548999846E+00  0.18726443017E+02  0.00000000000E+00 0. -1.
         11    1    3    3    0    0  0.17011217168E+02  0.12007734683E+02  0.15253790284E+01  0.20878074221E+02  0.51100000000E-03 0. -1.
        -11    1    3    3    0    0 -0.23103572763E+02 -0.22531365818E+02  0.33773907773E+01  0.32447562139E+02  0.51100000000E-03 0.  1.
         12    1    3    3    0    0  0.18179922748E+02 -0.37765259848E+01 -0.46272798073E+01  0.19135920622E+02  0.00000000000E+00 0. -1.
</event>
<event>
 7    1  0.1360399E-013  0.7246153E+02  0.7816164E-02  0.1226708E+00
        -11   -1    0    0    0    0  0.00000000000E+00  0.00000000000E+00  0.45593999997E+02  0.45594000000E+02  0.51100000000E-03 0.  1.
         11   -1    0    0    0    0 -0.00000000000E+00 -0.00000000000E+00 -0.45593999997E+02  0.45594000000E+02  0.51100000000E-03 0. -1.
    9900012    2    1    2    0    0 -0.42719700016E+01  0.11059674775E+02  0.14495326591E+02  0.72461531384E+02  0.69999949312E+02 0.  0.
         12    1    1    2    0    0  0.42719700016E+01 -0.11059674775E+02 -0.14495326591E+02  0.18726468616E+02  0.00000000000E+00 0. -1.
         11    1    3    3    0    0 -0.75328335158E+01  0.24966476698E+02 -0.20461433982E+02  0.33147229452E+02  0.51100000000E-03 0. -1.
        -11    1    3    3    0    0  0.64258092501E+01 -0.49969336320E+01  0.20312300952E+02  0.21882640162E+02  0.51100000000E-03 0.  1.
        -12    1    3    3    0    0 -0.31649457359E+01 -0.89098682903E+01  0.14644459621E+02  0.17431661770E+02  0.00000000000E+00 0.  1.
</event>
<event>
 7    1  0.1360399E-013  0.7246157E+02  0.7816164E-02  0.1226708E+00
        -11   -1    0    0    0    0  0.00000000000E+00  0.00000000000E+00  0.45593999997E+02  0.45594000000E+02  0.51100000000E-03 0.  1.
         11   -1    0    0    0    0 -0.00000000000E+00 -0.00000000000E+00 -0.45593999997E+02  0.45594000000E+02  0.51100000000E-03 0. -1.
    9900012    2    1    2    0    0 -0.12984497749E+02  0.82344294945E+01  0.10690003091E+02  0.72461570095E+02  0.69999999740E+02 0.  0.
         12    1    1    2    0    0  0.12984497749E+02 -0.82344294945E+01 -0.10690003091E+02  0.18726429905E+02  0.00000000000E+00 0. -1.
         11    1    3    3    0    0 -0.15230956630E+02 -0.26661386732E+02  0.78987016618E+01  0.31704906096E+02  0.51100000000E-03 0. -1.
        -11    1    3    3    0    0 -0.45981204365E+01  0.32895511880E+02  0.34268069263E+00  0.33217086623E+02  0.51100000000E-03 0.  1.
         12    1    3    3    0    0  0.68445793169E+01  0.20003043462E+01  0.24486207364E+01  0.75395773763E+01  0.00000000000E+00 0. -1.
</event>
<event>
 7    1  0.1360399E-013  0.7246155E+02  0.7816164E-02  0.1226708E+00
        -11   -1    0    0    0    0  0.00000000000E+00  0.00000000000E+00  0.45593999997E+02  0.45594000000E+02  0.51100000000E-03 0. -1.
         11   -1    0    0    0    0 -0.00000000000E+00 -0.00000000000E+00 -0.45593999997E+02  0.45594000000E+02  0.51100000000E-03 0.  1.
    9900012    2    1    2    0    0 -0.18654494382E+02  0.15687784643E+01  0.47807824124E+00  0.72461553852E+02  0.69999978581E+02 0.  0.
         12    1    1    2    0    0  0.18654494382E+02 -0.15687784643E+01 -0.47807824124E+00  0.18726446148E+02  0.00000000000E+00 0. -1.
         11    1    3    3    0    0  0.53173394488E+01 -0.17600110551E+02 -0.98755640084E-01  0.18386074708E+02  0.51100000000E-03 0. -1.
        -11    1    3    3    0    0 -0.12147218482E+02  0.15182631001E+02  0.21951688282E+02  0.29324798714E+02  0.51100000000E-03 0.  1.
        -12    1    3    3    0    0 -0.11824615349E+02  0.39862580149E+01 -0.21374854400E+02  0.24750680430E+02  0.00000000000E+00 0.  1.
</event>
<event>
 7    1  0.1360399E-013  0.7246158E+02  0.7816164E-02  0.1226708E+00
        -11   -1    0    0    0    0  0.00000000000E+00  0.00000000000E+00  0.45593999997E+02  0.45594000000E+02  0.51100000000E-03 0.  1.
         11   -1    0    0    0    0 -0.00000000000E+00 -0.00000000000E+00 -0.45593999997E+02  0.45594000000E+02  0.51100000000E-03 0. -1.
    9900012    2    1    2    0    0  0.84951690863E+01  0.15884937474E+02  0.51166228074E+01  0.72461575746E+02  0.70000007102E+02 0.  0.
         12    1    1    2    0    0 -0.84951690863E+01 -0.15884937474E+02 -0.51166228074E+01  0.18726424254E+02  0.00000000000E+00 0. -1.
         11    1    3    3    0    0  0.16378033135E+02  0.22818022067E+02  0.16810891451E+02  0.32733899433E+02  0.51100000000E-03 0. -1.
        -11    1    3    3    0    0 -0.48077190298E+01 -0.13694707559E+02  0.94481211761E+01  0.17318376697E+02  0.51100000000E-03 0.  1.
        -12    1    3    3    0    0 -0.30751450187E+01  0.67616229660E+01 -0.21142389820E+02  0.22409299617E+02  0.00000000000E+00 0.  1.
</event>
<event>
 8    1  0.1360399E-013  0.7246148E+02  0.7816164E-02  0.1226708E+00
        -11   -1    0    0    0    0  0.00000000000E+00  0.00000000000E+00  0.45593999997E+02  0.45594000000E+02  0.51100000000E-03 0.  1.
         11   -1    0    0    0    0 -0.00000000000E+00 -0.00000000000E+00 -0.45593999997E+02  0.45594000000E+02  0.51100000000E-03 0. -1.
    9900012    2    1    2    0    0  0.10214519799E+02 -0.15430892878E+02 -0.28694248546E+01  0.72461482205E+02  0.69999885247E+02 0.  0.
         24    2    3    3    0    0  0.97495279640E+01 -0.14921618872E+02  0.15290429443E+02  0.54288538420E+02  0.48946298797E+02 0.  0.
         12    1    1    2    0    0 -0.10214519799E+02  0.15430892878E+02  0.28694248546E+01  0.18726517795E+02  0.00000000000E+00 0. -1.
         11    1    3    3    0    0  0.46499183518E+00 -0.50927400623E+00 -0.18159854298E+02  0.18172943785E+02  0.51100000000E-03 0. -1.
        -11    1    4    4    0    0  0.32782994233E+01  0.12765673300E+02  0.21468702028E+02  0.25191562653E+02  0.51100000000E-03 0.  1.
         12    1    4    4    0    0  0.64712285406E+01 -0.27687292172E+02 -0.61782725840E+01  0.29096975766E+02  0.00000000000E+00 0. -1.
</event>
<event>
 7    1  0.1360399E-013  0.7246146E+02  0.7816164E-02  0.1226708E+00
        -11   -1    0    0    0    0  0.00000000000E+00  0.00000000000E+00  0.45593999997E+02  0.45594000000E+02  0.51100000000E-03 0.  1.
         11   -1    0    0    0    0 -0.00000000000E+00 -0.00000000000E+00 -0.45593999997E+02  0.45594000000E+02  0.51100000000E-03 0. -1.
    9900012    2    1    2    0    0 -0.23242841459E+01  0.11440740710E+02  0.14642074216E+02  0.72461463157E+02  0.69999860434E+02 0.  0.
         12    1    1    2    0    0  0.23242841459E+01 -0.11440740710E+02 -0.14642074216E+02  0.18726536843E+02  0.00000000000E+00 0. -1.
         11    1    3    3    0    0  0.62593199087E+01 -0.17502422110E+02  0.32335275059E+01  0.18867155743E+02  0.51100000000E-03 0.  1.
        -11    1    3    3    0    0 -0.17870079900E+02  0.84821454894E+01 -0.10342255708E+02  0.22321487431E+02  0.51100000000E-03 0. -1.
        -12    1    3    3    0    0  0.92864758458E+01  0.20461017331E+02  0.21750802418E+02  0.31272819983E+02  0.00000000000E+00 0.  1.
</event>
<event>
 7    1  0.1360399E-013  0.7246156E+02  0.7816164E-02  0.1226708E+00
        -11   -1    0    0    0    0  0.00000000000E+00  0.00000000000E+00  0.45593999997E+02  0.45594000000E+02  0.51100000000E-03 0. -1.
         11   -1    0    0    0    0 -0.00000000000E+00 -0.00000000000E+00 -0.45593999997E+02  0.45594000000E+02  0.51100000000E-03 0.  1.
    9900012    2    1    2    0    0 -0.69349418716E+01 -0.16769621139E+02  0.46223459811E+01  0.72461556283E+02  0.69999981748E+02 0.  0.
         12    1    1    2    0    0  0.69349418716E+01  0.16769621139E+02 -0.46223459811E+01  0.18726443717E+02  0.00000000000E+00 0. -1.
         11    1    3    3    0    0  0.22513137275E+02 -0.12704350172E+02  0.92902211382E+01  0.27469074835E+02  0.51100000000E-03 0.  1.
        -11    1    3    3    0    0 -0.15010727510E+02 -0.77271660150E+01 -0.18231239724E+02  0.24847718952E+02  0.51100000000E-03 0. -1.
         12    1    3    3    0    0 -0.14437351637E+02  0.36618950482E+01  0.13563364567E+02  0.20144762496E+02  0.00000000000E+00 0. -1.
</event>
<event>
 7    1  0.1360399E-013  0.7246154E+02  0.7816164E-02  0.1226708E+00
        -11   -1    0    0    0    0  0.00000000000E+00  0.00000000000E+00  0.45593999997E+02  0.45594000000E+02  0.51100000000E-03 0. -1.
         11   -1    0    0    0    0 -0.00000000000E+00 -0.00000000000E+00 -0.45593999997E+02  0.45594000000E+02  0.51100000000E-03 0.  1.
    9900012    2    1    2    0    0 -0.13681549284E+02  0.37295364776E+00 -0.12781093697E+02  0.72461541677E+02  0.69999962720E+02 0.  0.
         12    1    1    2    0    0  0.13681549284E+02 -0.37295364776E+00  0.12781093697E+02  0.18726458323E+02  0.00000000000E+00 0. -1.
         11    1    3    3    0    0 -0.11112920468E+02 -0.19809235118E+02 -0.47768294577E+01  0.23210361850E+02  0.51100000000E-03 0. -1.
        -11    1    3    3    0    0  0.77760599594E+01  0.17448558940E+02  0.14731593578E+02  0.24123415330E+02  0.51100000000E-03 0.  1.
        -12    1    3    3    0    0 -0.10344688776E+02  0.27336298262E+01 -0.22735857818E+02  0.25127764497E+02  0.00000000000E+00 0.  1.
</event>
<event>
 7    1  0.1360399E-013  0.7246156E+02  0.7816164E-02  0.1226708E+00
        -11   -1    0    0    0    0  0.00000000000E+00  0.00000000000E+00  0.45593999997E+02  0.45594000000E+02  0.51100000000E-03 0. -1.
         11   -1    0    0    0    0 -0.00000000000E+00 -0.00000000000E+00 -0.45593999997E+02  0.45594000000E+02  0.51100000000E-03 0.  1.
    9900012    2    1    2    0    0  0.85520397417E+01  0.10231006979E+02 -0.13147956202E+02  0.72461557737E+02  0.69999983642E+02 0.  0.
         12    1    1    2    0    0 -0.85520397417E+01 -0.10231006979E+02  0.13147956202E+02  0.18726442263E+02  0.00000000000E+00 0. -1.
         11    1    3    3    0    0 -0.17063289485E+02  0.23336640728E+02 -0.87667565512E+01  0.30209446689E+02  0.51100000000E-03 0. -1.
        -11    1    3    3    0    0  0.20680509484E+02 -0.13629045282E+02 -0.16089995245E+02  0.29535102760E+02  0.51100000000E-03 0.  1.
         12    1    3    3    0    0  0.49348197432E+01  0.52341153306E+00  0.11708795594E+02  0.12717008288E+02  0.00000000000E+00 0. -1.
</event>
<event>
 7    1  0.1360399E-013  0.7246150E+02  0.7816164E-02  0.1226708E+00
        -11   -1    0    0    0    0  0.00000000000E+00  0.00000000000E+00  0.45593999997E+02  0.45594000000E+02  0.51100000000E-03 0.  1.
         11   -1    0    0    0    0 -0.00000000000E+00 -0.00000000000E+00 -0.45593999997E+02  0.45594000000E+02  0.51100000000E-03 0. -1.
    9900012    2    1    2    0    0  0.14159325466E+02 -0.83947046666E+01  0.89288447309E+01  0.72461499197E+02  0.69999907382E+02 0.  0.
         12    1    1    2    0    0 -0.14159325466E+02  0.83947046666E+01 -0.89288447309E+01  0.18726500803E+02  0.00000000000E+00 0. -1.
         11    1    3    3    0    0  0.38013056165E+01  0.84197176408E+01 -0.75771298598E+01  0.11947990070E+02  0.51100000000E-03 0. -1.
        -11    1    3    3    0    0 -0.21050015805E+01 -0.27955757079E+02  0.28470181327E+02  0.39956308770E+02  0.51100000000E-03 0.  1.
        -12    1    3    3    0    0  0.12463021430E+02  0.11141334772E+02 -0.11964206736E+02  0.20557200356E+02  0.00000000000E+00 0.  1.
</event>
<event>
 7    1  0.1360399E-013  0.7246164E+02  0.7816164E-02  0.1226708E+00
        -11   -1    0    0    0    0  0.00000000000E+00  0.00000000000E+00  0.45593999997E+02  0.45594000000E+02  0.51100000000E-03 0.  1.
         11   -1    0    0    0    0 -0.00000000000E+00 -0.00000000000E+00 -0.45593999997E+02  0.45594000000E+02  0.51100000000E-03 0. -1.
    9900012    2    1    2    0    0 -0.11854338602E+02 -0.73194849469E+01  0.12513044754E+02  0.72461641770E+02  0.70000093110E+02 0.  0.
         12    1    1    2    0    0  0.11854338602E+02  0.73194849469E+01 -0.12513044754E+02  0.18726358230E+02  0.00000000000E+00 0. -1.
         11    1    3    3    0    0 -0.28185954021E+02 -0.17998949159E+02  0.27024980391E+02  0.42997206192E+02  0.51100000000E-03 0. -1.
        -11    1    3    3    0    0  0.10998285315E+02  0.26094681111E+01  0.82300570179E+00  0.11333531768E+02  0.51100000000E-03 0.  1.
         12    1    3    3    0    0  0.53333301048E+01  0.80699961006E+01 -0.15334941339E+02  0.18130903810E+02  0.00000000000E+00 0. -1.
</event>
<event>
 7    1  0.1360399E-013  0.7246153E+02  0.7816164E-02  0.1226708E+00
        -11   -1    0    0    0    0  0.00000000000E+00  0.00000000000E+00  0.45593999997E+02  0.45594000000E+02  0.51100000000E-03 0.  1.
         11   -1    0    0    0    0 -0.00000000000E+00 -0.00000000000E+00 -0.45593999997E+02  0.45594000000E+02  0.51100000000E-03 0. -1.
    9900012    2    1    2    0    0 -0.84718972873E+01  0.14489534096E+02  0.83042845599E+01  0.72461527187E+02  0.69999943845E+02 0.  0.
         12    1    1    2    0    0  0.84718972873E+01 -0.14489534096E+02 -0.83042845599E+01  0.18726472813E+02  0.00000000000E+00 0. -1.
         11    1    3    3    0    0 -0.65997270484E+01 -0.17863604355E+02  0.21542158008E+02  0.28752901237E+02  0.51100000000E-03 0. -1.
        -11    1    3    3    0    0  0.80667653314E+01  0.17535056968E+02  0.30604115747E+01  0.19542697998E+02  0.51100000000E-03 0.  1.
         12    1    3    3    0    0 -0.99389355703E+01  0.14818081483E+02 -0.16298285022E+02  0.24165927952E+02  0.00000000000E+00 0. -1.
</event>
<event>
 7    1  0.1360399E-013  0.7246155E+02  0.7816164E-02  0.1226708E+00
        -11   -1    0    0    0    0  0.00000000000E+00  0.00000000000E+00  0.45593999997E+02  0.45594000000E+02  0.51100000000E-03 0.  1.
         11   -1    0    0    0    0 -0.00000000000E+00 -0.00000000000E+00 -0.45593999997E+02  0.45594000000E+02  0.51100000000E-03 0. -1.
    9900012    2    1    2    0    0  0.11551146029E+02  0.12918920967E+02  0.70959512773E+01  0.72461547638E+02  0.69999970486E+02 0.  0.
         12    1    1    2    0    0 -0.11551146029E+02 -0.12918920967E+02 -0.70959512773E+01  0.18726452362E+02  0.00000000000E+00 0. -1.
         11    1    3    3    0    0  0.20033979878E+02 -0.98823486694E+01 -0.23118123017E+02  0.32147609197E+02  0.51100000000E-03 0. -1.
        -11    1    3    3    0    0 -0.73939369697E+01  0.70984611909E+01  0.75953740256E+01  0.12757278787E+02  0.51100000000E-03 0.  1.
         12    1    3    3    0    0 -0.10888968792E+01  0.15702808446E+02  0.22618700268E+02  0.27556659655E+02  0.00000000000E+00 0. -1.
</event>
<event>
 7    1  0.1360399E-013  0.7246159E+02  0.7816164E-02  0.1226708E+00
        -11   -1    0    0    0    0  0.00000000000E+00  0.00000000000E+00  0.45593999997E+02  0.45594000000E+02  0.51100000000E-03 0.  1.
         11   -1    0    0    0    0 -0.00000000000E+00 -0.00000000000E+00 -0.45593999997E+02  0.45594000000E+02  0.51100000000E-03 0. -1.
    9900012    2    1    2    0    0 -0.91779554450E+01  0.29342889605E+01 -0.16057191058E+02  0.72461593443E+02  0.70000030156E+02 0.  0.
         12    1    1    2    0    0  0.91779554450E+01 -0.29342889605E+01  0.16057191058E+02  0.18726406557E+02  0.00000000000E+00 0. -1.
         11    1    3    3    0    0  0.12139393650E+02  0.21883822360E+01  0.20514073087E+02  0.23937023413E+02  0.51100000000E-03 0.  1.
        -11    1    3    3    0    0 -0.12741949555E+02 -0.69112419240E+01 -0.33684651467E+02  0.36671218798E+02  0.51100000000E-03 0. -1.
         12    1    3    3    0    0 -0.85753995398E+01  0.76571486484E+01 -0.28866126772E+01  0.11853351232E+02  0.00000000000E+00 0. -1.
</event>
<event>
 8    1  0.1360399E-013  0.7246156E+02  0.7816164E-02  0.1226708E+00
        -11   -1    0    0    0    0  0.00000000000E+00  0.00000000000E+00  0.45593999997E+02  0.45594000000E+02  0.51100000000E-03 0. -1.
         11   -1    0    0    0    0 -0.00000000000E+00 -0.00000000000E+00 -0.45593999997E+02  0.45594000000E+02  0.51100000000E-03 0.  1.
    9900012    2    1    2    0    0  0.14416595190E+02  0.11947610947E+02 -0.30970087661E+00  0.72461560433E+02  0.69999987154E+02 0.  0.
        -24    2    3    3    0    0  0.55970419771E+01  0.61661824624E+00  0.14888059244E+02  0.51553479999E+02  0.49034680534E+02 0.  0.
         12    1    1    2    0    0 -0.14416595190E+02 -0.11947610947E+02  0.30970087661E+00  0.18726439567E+02  0.00000000000E+00 0. -1.
         11    1    4    4    0    0  0.18556434845E+01 -0.64696281669E+00  0.32978517053E+02  0.33037018039E+02  0.51100000000E-03 0. -1.
        -11    1    3    3    0    0  0.88195532129E+01  0.11330992701E+02 -0.15197760121E+02  0.20908080434E+02  0.51100000000E-03 0.  1.
        -12    1    4    4    0    0  0.37413984927E+01  0.12635810629E+01 -0.18090457809E+02  0.18516461960E+02  0.00000000000E+00 0.  1.
</event>
<event>
 7    1  0.1360399E-013  0.7246160E+02  0.7816164E-02  0.1226708E+00
        -11   -1    0    0    0    0  0.00000000000E+00  0.00000000000E+00  0.45593999997E+02  0.45594000000E+02  0.51100000000E-03 0.  1.
         11   -1    0    0    0    0 -0.00000000000E+00 -0.00000000000E+00 -0.45593999997E+02  0.45594000000E+02  0.51100000000E-03 0. -1.
    9900012    2    1    2    0    0  0.85789766854E+01 -0.15343633726E+02 -0.64538532701E+01  0.72461597277E+02  0.70000035151E+02 0.  0.
         12    1    1    2    0    0 -0.85789766854E+01  0.15343633726E+02  0.64538532701E+01  0.18726402723E+02  0.00000000000E+00 0. -1.
         11    1    3    3    0    0  0.25716829173E+02  0.82083346988E+01 -0.10033030297E+02  0.28799197184E+02  0.51100000000E-03 0. -1.
        -11    1    3    3    0    0  0.45998134911E+01 -0.18649686769E+02  0.82320506773E+01  0.20898223833E+02  0.51100000000E-03 0.  1.
         12    1    3    3    0    0 -0.21737665979E+02 -0.49022816557E+01 -0.46528736503E+01  0.22764176261E+02  0.00000000000E+00 0. -1.
</event>
<event>
 7    1  0.1360399E-013  0.7246149E+02  0.7816164E-02  0.1226708E+00
        -11   -1    0    0    0    0  0.00000000000E+00  0.00000000000E+00  0.45593999997E+02  0.45594000000E+02  0.51100000000E-03 0.  1.
         11   -1    0    0    0    0 -0.00000000000E+00 -0.00000000000E+00 -0.45593999997E+02  0.45594000000E+02  0.51100000000E-03 0. -1.
    9900012    2    1    2    0    0  0.75875252498E+01 -0.10725543174E+02  0.13344457545E+02  0.72461485029E+02  0.69999888926E+02 0.  0.
         12    1    1    2    0    0 -0.75875252498E+01  0.10725543174E+02 -0.13344457545E+02  0.18726514971E+02  0.00000000000E+00 0. -1.
         11    1    3    3    0    0  0.10713513597E+02 -0.10903022575E+01  0.23133313482E+01  0.11014519272E+02  0.51100000000E-03 0. -1.
        -11    1    3    3    0    0 -0.26139598261E+02 -0.11639392550E+02  0.21787706502E+02  0.35964680049E+02  0.51100000000E-03 0.  1.
        -12    1    3    3    0    0  0.23013609914E+02  0.20041516335E+01 -0.10756580305E+02  0.25482285708E+02  0.00000000000E+00 0.  1.
</event>
<event>
 7    1  0.1360399E-013  0.7246140E+02  0.7816164E-02  0.1226708E+00
        -11   -1    0    0    0    0  0.00000000000E+00  0.00000000000E+00  0.45593999997E+02  0.45594000000E+02  0.51100000000E-03 0.  1.
         11   -1    0    0    0    0 -0.00000000000E+00 -0.00000000000E+00 -0.45593999997E+02  0.45594000000E+02  0.51100000000E-03 0. -1.
    9900012    2    1    2    0    0  0.15911425055E+02  0.80930818654E+01 -0.56580926649E+01  0.72461403033E+02  0.69999782111E+02 0.  0.
         12    1    1    2    0    0 -0.15911425055E+02 -0.80930818654E+01  0.56580926649E+01  0.18726596967E+02  0.00000000000E+00 0. -1.
         11    1    3    3    0    0 -0.85730413205E+00  0.29144846308E+02 -0.10925435794E+02  0.31137151190E+02  0.51100000000E-03 0. -1.
        -11    1    3    3    0    0  0.22505345134E+02 -0.14705350969E+02 -0.56331390760E+01  0.27467620261E+02  0.51100000000E-03 0.  1.
         12    1    3    3    0    0 -0.57366159470E+01 -0.63464134734E+01  0.10900482205E+02  0.13856631582E+02  0.00000000000E+00 0. -1.
</event>
<event>
 7    1  0.1360399E-013  0.7246161E+02  0.7816164E-02  0.1226708E+00
        -11   -1    0    0    0    0  0.00000000000E+00  0.00000000000E+00  0.45593999997E+02  0.45594000000E+02  0.51100000000E-03 0. -1.
         11   -1    0    0    0    0 -0.00000000000E+00 -0.00000000000E+00 -0.45593999997E+02  0.45594000000E+02  0.51100000000E-03 0.  1.
    9900012    2    1    2    0    0 -0.80678052936E+01  0.30932473812E+00  0.16896522783E+02  0.72461610967E+02  0.70000052984E+02 0.  0.
         12    1    1    2    0    0  0.80678052936E+01 -0.30932473812E+00 -0.16896522783E+02  0.18726389033E+02  0.00000000000E+00 0. -1.
         11    1    3    3    0    0  0.83157426032E+01  0.90317348512E+01  0.28617128764E+02  0.31139426270E+02  0.51100000000E-03 0. -1.
        -11    1    3    3    0    0 -0.87142228956E+01  0.79872943676E+01 -0.18307524821E+02  0.21792200837E+02  0.51100000000E-03 0.  1.
         12    1    3    3    0    0 -0.76693250012E+01 -0.16709704481E+02  0.65869188397E+01  0.19529983861E+02  0.00000000000E+00 0. -1.
</event>
<event>
 7    1  0.1360399E-013  0.7246157E+02  0.7816164E-02  0.1226708E+00
        -11   -1    0    0    0    0  0.00000000000E+00  0.00000000000E+00  0.45593999997E+02  0.45594000000E+02  0.51100000000E-03 0.  1.
         11   -1    0    0    0    0 -0.00000000000E+00 -0.00000000000E+00 -0.45593999997E+02  0.45594000000E+02  0.51100000000E-03 0. -1.
    9900012    2    1    2    0    0 -0.51963253027E+01  0.98206252488E+01  0.15074241981E+02  0.72461568193E+02  0.69999997262E+02 0.  0.
         12    1    1    2    0    0  0.51963253027E+01 -0.98206252488E+01 -0.15074241981E+02  0.18726431807E+02  0.00000000000E+00 0. -1.
         11    1    3    3    0    0 -0.44695684052E+01 -0.92062970822E+01 -0.41770963231E+01  0.11053555159E+02  0.51100000000E-03 0. -1.
        -11    1    3    3    0    0 -0.17893077046E+02  0.31200983275E+02  0.58019239369E+01  0.36432483928E+02  0.51100000000E-03 0.  1.
        -12    1    3    3    0    0  0.17166320149E+02 -0.12174060944E+02  0.13449414367E+02  0.24975529106E+02  0.00000000000E+00 0.  1.
</event>
<event>
 7    1  0.1360399E-013  0.7246156E+02  0.7816164E-02  0.1226708E+00
        -11   -1    0    0    0    0  0.00000000000E+00  0.00000000000E+00  0.45593999997E+02  0.45594000000E+02  0.51100000000E-03 0.  1.
         11   -1    0    0    0    0 -0.00000000000E+00 -0.00000000000E+00 -0.45593999997E+02  0.45594000000E+02  0.51100000000E-03 0. -1.
    9900012    2    1    2    0    0 -0.96354024554E+01 -0.15955286542E+02 -0.18075497425E+01  0.72461564536E+02  0.69999992499E+02 0.  0.
         12    1    1    2    0    0  0.96354024554E+01  0.15955286542E+02  0.18075497425E+01  0.18726435464E+02  0.00000000000E+00 0. -1.
         11    1    3    3    0    0 -0.17097724463E+02  0.10724723893E+01 -0.21218738548E+02  0.27271179745E+02  0.51100000000E-03 0. -1.
        -11    1    3    3    0    0 -0.43583479177E+01 -0.17514904475E+02  0.25998446422E+02  0.31649427988E+02  0.51100000000E-03 0.  1.
        -12    1    3    3    0    0  0.11820669925E+02  0.48714554411E+00 -0.65872576162E+01  0.13540956804E+02  0.00000000000E+00 0.  1.
</event>
<event>
 7    1  0.1360399E-013  0.7246163E+02  0.7816164E-02  0.1226708E+00
        -11   -1    0    0    0    0  0.00000000000E+00  0.00000000000E+00  0.45593999997E+02  0.45594000000E+02  0.51100000000E-03 0.  1.
         11   -1    0    0    0    0 -0.00000000000E+00 -0.00000000000E+00 -0.45593999997E+02  0.45594000000E+02  0.51100000000E-03 0. -1.
    9900012    2    1    2    0    0  0.26753942286E+01 -0.84907894639E+01  0.16475006166E+02  0.72461626401E+02  0.70000073090E+02 0.  0.
         12    1    1    2    0    0 -0.26753942286E+01  0.84907894639E+01 -0.16475006166E+02  0.18726373599E+02  0.00000000000E+00 0. -1.
         11    1    3    3    0    0 -0.20523834956E+02 -0.38062949685E+01 -0.13900794363E+02  0.25078831050E+02  0.51100000000E-03 0. -1.
        -11    1    3    3    0    0  0.25797082407E+02 -0.95009926002E+00  0.12027540885E+02  0.28479007871E+02  0.51100000000E-03 0.  1.
        -12    1    3    3    0    0 -0.25978532229E+01 -0.37343952353E+01  0.18348259643E+02  0.18903787480E+02  0.00000000000E+00 0.  1.
</event>
<event>
 7    1  0.1360399E-013  0.7246157E+02  0.7816164E-02  0.1226708E+00
        -11   -1    0    0    0    0  0.00000000000E+00  0.00000000000E+00  0.45593999997E+02  0.45594000000E+02  0.51100000000E-03 0. -1.
         11   -1    0    0    0    0 -0.00000000000E+00 -0.00000000000E+00 -0.45593999997E+02  0.45594000000E+02  0.51100000000E-03 0.  1.
    9900012    2    1    2    0    0  0.15605264009E+02  0.58151048276E+01  0.85638548209E+01  0.72461566320E+02  0.69999994823E+02 0.  0.
         12    1    1    2    0    0 -0.15605264009E+02 -0.58151048276E+01 -0.85638548209E+01  0.18726433680E+02  0.00000000000E+00 0. -1.
         11    1    3    3    0    0  0.67364310391E+01  0.99855933080E+01  0.16108976335E+02  0.20114439979E+02  0.51100000000E-03 0. -1.
        -11    1    3    3    0    0  0.50786195148E+00 -0.50300450320E+01 -0.28930717595E+02  0.29369128309E+02  0.51100000000E-03 0.  1.
        -12    1    3    3    0    0  0.83609710189E+01  0.85955655159E+00  0.21385596081E+02  0.22977998033E+02  0.00000000000E+00 0.  1.
</event>
<event>
 7    1  0.1360399E-013  0.7246154E+02  0.7816164E-02  0.1226708E+00
        -11   -1    0    0    0    0  0.00000000000E+00  0.00000000000E+00  0.45593999997E+02  0.45594000000E+02  0.51100000000E-03 0. -1.
         11   -1    0    0    0    0 -0.00000000000E+00 -0.00000000000E+00 -0.45593999997E+02  0.45594000000E+02  0.51100000000E-03 0.  1.
    9900012    2    1    2    0    0 -0.69204507111E+01 -0.51892319534E+01 -0.16609025073E+02  0.72461535299E+02  0.69999954412E+02 0.  0.
         12    1    1    2    0    0  0.69204507111E+01  0.51892319534E+01  0.16609025073E+02  0.18726464701E+02  0.00000000000E+00 0. -1.
         11    1    3    3    0    0 -0.76849970528E+01  0.16190909210E+02 -0.52011766670E+01  0.18661644079E+02  0.51100000000E-03 0. -1.
        -11    1    3    3    0    0  0.23717632088E+02 -0.16816832741E+02 -0.79635448978E+01  0.30145480306E+02  0.51100000000E-03 0.  1.
         12    1    3    3    0    0 -0.22953085746E+02 -0.45633084228E+01 -0.34443035086E+01  0.23654410914E+02  0.00000000000E+00 0. -1.
</event>
<event>
 7    1  0.1360399E-013  0.7246156E+02  0.7816164E-02  0.1226708E+00
        -11   -1    0    0    0    0  0.00000000000E+00  0.00000000000E+00  0.45593999997E+02  0.45594000000E+02  0.51100000000E-03 0.  1.
         11   -1    0    0    0    0 -0.00000000000E+00 -0.00000000000E+00 -0.45593999997E+02  0.45594000000E+02  0.51100000000E-03 0. -1.
    9900012    2    1    2    0    0  0.72710955483E+01 -0.61883243017E+01  0.16109476757E+02  0.72461563352E+02  0.69999990957E+02 0.  0.
         12    1    1    2    0    0 -0.72710955483E+01  0.61883243017E+01 -0.16109476757E+02  0.18726436648E+02  0.00000000000E+00 0. -1.
         11    1    3    3    0    0 -0.68056056646E+01 -0.79864350942E+01  0.39787505835E+02  0.41147843622E+02  0.51100000000E-03 0. -1.
        -11    1    3    3    0    0  0.10466304880E+02 -0.20715350518E+01 -0.47845872900E+01  0.11693035154E+02  0.51100000000E-03 0.  1.
         12    1    3    3    0    0  0.36103963325E+01  0.38696458443E+01 -0.18893441787E+02  0.19620684576E+02  0.00000000000E+00 0. -1.
</event>
<event>
 7    1  0.1360399E-013  0.7246164E+02  0.7816164E-02  0.1226708E+00
        -11   -1    0    0    0    0  0.00000000000E+00  0.00000000000E+00  0.45593999997E+02  0.45594000000E+02  0.51100000000E-03 0.  1.
         11   -1    0    0    0    0 -0.00000000000E+00 -0.00000000000E+00 -0.45593999997E+02  0.45594000000E+02  0.51100000000E-03 0. -1.
    9900012    2    1    2    0    0  0.91204896261E+01  0.44653903934E+01  0.15733832758E+02  0.72461640620E+02  0.70000091612E+02 0.  0.
         12    1    1    2    0    0 -0.91204896261E+01 -0.44653903934E+01 -0.15733832758E+02  0.18726359380E+02  0.00000000000E+00 0. -1.
         11    1    3    3    0    0  0.17712224718E+02 -0.14945266782E+02  0.11827907275E+02  0.26018902636E+02  0.51100000000E-03 0.  1.
        -11    1    3    3    0    0 -0.55160603052E+01  0.13715568214E+02 -0.18177678800E+02  0.23430145957E+02  0.51100000000E-03 0. -1.
        -12    1    3    3    0    0 -0.30756747866E+01  0.56950889608E+01  0.22083604283E+02  0.23012592027E+02  0.00000000000E+00 0.  1.
</event>
<event>
 7    1  0.1360399E-013  0.7246152E+02  0.7816164E-02  0.1226708E+00
        -11   -1    0    0    0    0  0.00000000000E+00  0.00000000000E+00  0.45593999997E+02  0.45594000000E+02  0.51100000000E-03 0.  1.
         11   -1    0    0    0    0 -0.00000000000E+00 -0.00000000000E+00 -0.45593999997E+02  0.45594000000E+02  0.51100000000E-03 0. -1.
    9900012    2    1    2    0    0 -0.49119500258E+01 -0.59035412072E+01  0.17079290677E+02  0.72461515496E+02  0.69999928615E+02 0.  0.
         12    1    1    2    0    0  0.49119500258E+01  0.59035412072E+01 -0.17079290677E+02  0.18726484504E+02  0.00000000000E+00 0. -1.
         11    1    3    3    0    0 -0.11322423216E+01 -0.13939291308E+02  0.12514889056E+01  0.14041083989E+02  0.51100000000E-03 0. -1.
        -11    1    3    3    0    0  0.19880908741E+02  0.19491147532E+02  0.16040336919E+02  0.32131725338E+02  0.51100000000E-03 0.  1.
        -12    1    3    3    0    0 -0.23660616445E+02 -0.11455397430E+02 -0.21253514679E+00  0.26288706169E+02  0.00000000000E+00 0.  1.
</event>
<event>
 7    1  0.1360399E-013  0.7246159E+02  0.7816164E-02  0.1226708E+00
        -11   -1    0    0    0    0  0.00000000000E+00  0.00000000000E+00  0.45593999997E+02  0.45594000000E+02  0.51100000000E-03 0. -1.
         11   -1    0    0    0    0 -0.00000000000E+00 -0.00000000000E+00 -0.45593999997E+02  0.45594000000E+02  0.51100000000E-03 0.  1.
    9900012    2    1    2    0    0  0.16603805854E+02  0.67730484121E+01 -0.53960983779E+01  0.72461590004E+02  0.70000025676E+02 0.  0.
         12    1    1    2    0    0 -0.16603805854E+02 -0.67730484121E+01  0.53960983779E+01  0.18726409996E+02  0.00000000000E+00 0. -1.
         11    1    3    3    0    0 -0.80548531478E+00 -0.10824426415E+02 -0.72616395114E+01  0.13059418918E+02  0.51100000000E-03 0. -1.
        -11    1    3    3    0    0  0.14306427585E+02  0.34995887134E+02 -0.87223508994E+01  0.38800327215E+02  0.51100000000E-03 0.  1.
        -12    1    3    3    0    0  0.31028635837E+01 -0.17398412306E+02  0.10587892033E+02  0.20601843871E+02  0.00000000000E+00 0.  1.
</event>
<event>
 7    1  0.1360399E-013  0.7246160E+02  0.7816164E-02  0.1226708E+00
        -11   -1    0    0    0    0  0.00000000000E+00  0.00000000000E+00  0.45593999997E+02  0.45594000000E+02  0.51100000000E-03 0.  1.
         11   -1    0    0    0    0 -0.00000000000E+00 -0.00000000000E+00 -0.45593999997E+02  0.45594000000E+02  0.51100000000E-03 0. -1.
    9900012    2    1    2    0    0 -0.13974531012E+02 -0.21210776107E+01 -0.12283791696E+02  0.72461600835E+02  0.70000039785E+02 0.  0.
         12    1    1    2    0    0  0.13974531012E+02  0.21210776107E+01  0.12283791696E+02  0.18726399165E+02  0.00000000000E+00 0. -1.
         11    1    3    3    0    0 -0.23758480378E+02 -0.15271566412E+02 -0.20012220663E+02  0.34614666063E+02  0.51100000000E-03 0. -1.
        -11    1    3    3    0    0  0.38834973259E+01  0.21823392030E+02 -0.35451800889E+01  0.22447946305E+02  0.51100000000E-03 0.  1.
         12    1    3    3    0    0  0.59004520397E+01 -0.86729032288E+01  0.11273609056E+02  0.15398988468E+02  0.00000000000E+00 0. -1.
</event>
<event>
 7    1  0.1360399E-013  0.7246160E+02  0.7816164E-02  0.1226708E+00
        -11   -1    0    0    0    0  0.00000000000E+00  0.00000000000E+00  0.45593999997E+02  0.45594000000E+02  0.51100000000E-03 0.  1.
         11   -1    0    0    0    0 -0.00000000000E+00 -0.00000000000E+00 -0.45593999997E+02  0.45594000000E+02  0.51100000000E-03 0. -1.
    9900012    2    1    2    0    0 -0.78729085549E+01 -0.87210290452E+01  0.14582152591E+02  0.72461595890E+02  0.70000033343E+02 0.  0.
         12    1    1    2    0    0  0.78729085549E+01  0.87210290452E+01 -0.14582152591E+02  0.18726404110E+02  0.00000000000E+00 0. -1.
         11    1    3    3    0    0  0.24830873575E+01 -0.22815393607E+02 -0.19128635723E+02  0.29876623188E+02  0.51100000000E-03 0. -1.
        -11    1    3    3    0    0 -0.21121488595E+01  0.14560415963E+02  0.10856129565E+02  0.18284486190E+02  0.51100000000E-03 0.  1.
        -12    1    3    3    0    0 -0.82438470529E+01 -0.46605140212E+00  0.22854658749E+02  0.24300486511E+02  0.00000000000E+00 0.  1.
</event>
<event>
 7    1  0.1360399E-013  0.7246159E+02  0.7816164E-02  0.1226708E+00
        -11   -1    0    0    0    0  0.00000000000E+00  0.00000000000E+00  0.45593999997E+02  0.45594000000E+02  0.51100000000E-03 0.  1.
         11   -1    0    0    0    0 -0.00000000000E+00 -0.00000000000E+00 -0.45593999997E+02  0.45594000000E+02  0.51100000000E-03 0. -1.
    9900012    2    1    2    0    0  0.15235521169E+02 -0.65580643587E+01  0.86919089943E+01  0.72461585624E+02  0.70000019969E+02 0.  0.
         12    1    1    2    0    0 -0.15235521169E+02  0.65580643587E+01 -0.86919089943E+01  0.18726414376E+02  0.00000000000E+00 0. -1.
         11    1    3    3    0    0  0.30660492652E+01 -0.27058957078E+02 -0.17679187768E+02  0.32467545283E+02  0.51100000000E-03 0. -1.
        -11    1    3    3    0    0  0.11866808684E+02  0.18107273508E+02  0.10720014836E+02  0.24158088098E+02  0.51100000000E-03 0.  1.
        -12    1    3    3    0    0  0.30266321964E+00  0.23936192121E+01  0.15651081927E+02  0.15835952243E+02  0.00000000000E+00 0.  1.
</event>
<event>
 7    1  0.1360399E-013  0.7246154E+02  0.7816164E-02  0.1226708E+00
        -11   -1    0    0    0    0  0.00000000000E+00  0.00000000000E+00  0.45593999997E+02  0.45594000000E+02  0.51100000000E-03 0. -1.
         11   -1    0    0    0    0 -0.00000000000E+00 -0.00000000000E+00 -0.45593999997E+02  0.45594000000E+02  0.51100000000E-03 0.  1.
    9900012    2    1    2    0    0  0.16566261885E+02 -0.90934197300E+00  0.86840359793E+01  0.72461536998E+02  0.69999956625E+02 0.  0.
         12    1    1    2    0    0 -0.16566261885E+02  0.90934197300E+00 -0.86840359793E+01  0.18726463002E+02  0.00000000000E+00 0. -1.
         11    1    3    3    0    0  0.14481323143E+02  0.22057724680E+02  0.13857989180E+02  0.29804291678E+02  0.51100000000E-03 0. -1.
        -11    1    3    3    0    0 -0.15564734210E+02 -0.16938026512E+02 -0.66571658130E+01  0.23947349542E+02  0.51100000000E-03 0.  1.
        -12    1    3    3    0    0  0.17649672953E+02 -0.60290401407E+01  0.14832126119E+01  0.18709895778E+02  0.00000000000E+00 0.  1.
</event>
<event>
 7    1  0.1360399E-013  0.7246159E+02  0.7816164E-02  0.1226708E+00
        -11   -1    0    0    0    0  0.00000000000E+00  0.00000000000E+00  0.45593999997E+02  0.45594000000E+02  0.51100000000E-03 0. -1.
         11   -1    0    0    0    0 -0.00000000000E+00 -0.00000000000E+00 -0.45593999997E+02  0.45594000000E+02  0.51100000000E-03 0.  1.
    9900012    2    1    2    0    0 -0.10996206361E+02  0.11457616380E+02 -0.99239477370E+01  0.72461594415E+02  0.70000031421E+02 0.  0.
         12    1    1    2    0    0  0.10996206361E+02 -0.11457616380E+02  0.99239477370E+01  0.18726405585E+02  0.00000000000E+00 0. -1.
         11    1    3    3    0    0  0.26906435129E+01 -0.12206846877E+02  0.17337517500E+02  0.21373726547E+02  0.51100000000E-03 0. -1.
        -11    1    3    3    0    0 -0.20247549253E+02  0.32210735382E+01 -0.72747673660E+01  0.21754558280E+02  0.51100000000E-03 0.  1.
         12    1    3    3    0    0  0.65606993788E+01  0.20443389719E+02 -0.19986697871E+02  0.29333309587E+02  0.00000000000E+00 0. -1.
</event>
<event>
 7    1  0.1360399E-013  0.7246162E+02  0.7816164E-02  0.1226708E+00
        -11   -1    0    0    0    0  0.00000000000E+00  0.00000000000E+00  0.45593999997E+02  0.45594000000E+02  0.51100000000E-03 0.  1.
         11   -1    0    0    0    0 -0.00000000000E+00 -0.00000000000E+00 -0.45593999997E+02  0.45594000000E+02  0.51100000000E-03 0. -1.
    9900012    2    1    2    0    0 -0.14570240909E+02 -0.74982836126E+01  0.90642854110E+01  0.72461616278E+02  0.70000059903E+02 0.  0.
         12    1    1    2    0    0  0.14570240909E+02  0.74982836126E+01 -0.90642854110E+01  0.18726383722E+02  0.00000000000E+00 0. -1.
         11    1    3    3    0    0  0.81626340577E+01  0.31938138044E+01 -0.71926084606E+01  0.11338547442E+02  0.51100000000E-03 0. -1.
        -11    1    3    3    0    0 -0.19161122726E+02 -0.71105189785E+01 -0.17550519370E+02  0.26939354756E+02  0.51100000000E-03 0.  1.
        -12    1    3    3    0    0 -0.35717522406E+01 -0.35815784385E+01  0.33807413242E+02  0.34183714080E+02  0.00000000000E+00 0.  1.
</event>
<event>
 7    1  0.1360399E-013  0.7246160E+02  0.7816164E-02  0.1226708E+00
        -11   -1    0    0    0    0  0.00000000000E+00  0.00000000000E+00  0.45593999997E+02  0.45594000000E+02  0.51100000000E-03 0.  1.
         11   -1    0    0    0    0 -0.00000000000E+00 -0.00000000000E+00 -0.45593999997E+02  0.45594000000E+02  0.51100000000E-03 0. -1.
    9900012    2    1    2    0    0 -0.15935910999E+02 -0.55663653954E+01  0.81080500374E+01  0.72461597289E+02  0.70000035166E+02 0.  0.
         12    1    1    2    0    0  0.15935910999E+02  0.55663653954E+01 -0.81080500374E+01  0.18726402711E+02  0.00000000000E+00 0. -1.
         11    1    3    3    0    0 -0.90363023634E+01 -0.10097928364E+02 -0.19741968832E+02  0.23945109130E+02  0.51100000000E-03 0. -1.
        -11    1    3    3    0    0  0.12422411882E+02 -0.94806069482E+01  0.13614368971E+02  0.20725570386E+02  0.51100000000E-03 0.  1.
         12    1    3    3    0    0 -0.19322020517E+02  0.14012169917E+02  0.14235649898E+02  0.27790917773E+02  0.00000000000E+00 0. -1.
</event>
<event>
 7    1  0.1360399E-013  0.7246159E+02  0.7816164E-02  0.1226708E+00
        -11   -1    0    0    0    0  0.00000000000E+00  0.00000000000E+00  0.45593999997E+02  0.45594000000E+02  0.51100000000E-03 0. -1.
         11   -1    0    0    0    0 -0.00000000000E+00 -0.00000000000E+00 -0.45593999997E+02  0.45594000000E+02  0.51100000000E-03 0.  1.
    9900012    2    1    2    0    0 -0.10438900255E+02 -0.10820331825E+02 -0.11163699648E+02  0.72461590596E+02  0.70000026447E+02 0.  0.
         12    1    1    2    0    0  0.10438900255E+02  0.10820331825E+02  0.11163699648E+02  0.18726409404E+02  0.00000000000E+00 0. -1.
         11    1    3    3    0    0  0.66555090305E+01  0.19032289953E+01 -0.24074445400E+01  0.73289747263E+01  0.51100000000E-03 0. -1.
        -11    1    3    3    0    0 -0.40172240081E+02 -0.76829541417E+01 -0.47860237815E+01  0.41179396321E+02  0.51100000000E-03 0.  1.
        -12    1    3    3    0    0  0.23077830796E+02 -0.50406066790E+01 -0.39702313263E+01  0.23953219548E+02  0.00000000000E+00 0.  1.
</event>
<event>
 7    1  0.1360399E-013  0.7246189E+02  0.7816164E-02  0.1226707E+00
        -11   -1    0    0    0    0  0.00000000000E+00  0.00000000000E+00  0.45593999997E+02  0.45594000000E+02  0.51100000000E-03 0.  1.
         11   -1    0    0    0    0 -0.00000000000E+00 -0.00000000000E+00 -0.45593999997E+02  0.45594000000E+02  0.51100000000E-03 0. -1.
    9900012    2    1    2    0    0 -0.12676362883E+00  0.18715568189E+02  0.61519863831E+00  0.72461894398E+02  0.70000422203E+02 0.  0.
         12    1    1    2    0    0  0.12676362883E+00 -0.18715568189E+02 -0.61519863831E+00  0.18726105602E+02  0.00000000000E+00 0. -1.
         11    1    3    3    0    0  0.27422435178E+02  0.19137590354E+02 -0.14705103998E+02  0.36530499579E+02  0.51100000000E-03 0. -1.
        -11    1    3    3    0    0 -0.21997095151E+02  0.27931925745E+01  0.34532496022E+01  0.22441012743E+02  0.51100000000E-03 0.  1.
        -12    1    3    3    0    0 -0.55521036559E+01 -0.32152147394E+01  0.11867053034E+02  0.13490382075E+02  0.00000000000E+00 0.  1.
</event>
<event>
 7    1  0.1360399E-013  0.7246146E+02  0.7816164E-02  0.1226708E+00
        -11   -1    0    0    0    0  0.00000000000E+00  0.00000000000E+00  0.45593999997E+02  0.45594000000E+02  0.51100000000E-03 0. -1.
         11   -1    0    0    0    0 -0.00000000000E+00 -0.00000000000E+00 -0.45593999997E+02  0.45594000000E+02  0.51100000000E-03 0.  1.
    9900012    2    1    2    0    0  0.17967960050E+02 -0.40318287347E+01 -0.34029672156E+01  0.72461456882E+02  0.69999852259E+02 0.  0.
         12    1    1    2    0    0 -0.17967960050E+02  0.40318287347E+01  0.34029672156E+01  0.18726543118E+02  0.00000000000E+00 0. -1.
         11    1    3    3    0    0 -0.78282340798E+01 -0.13344683845E+02  0.11380636005E+02  0.19206267515E+02  0.51100000000E-03 0. -1.
        -11    1    3    3    0    0  0.30140190177E+02  0.11210855836E+02  0.53248297692E+01  0.32595523693E+02  0.51100000000E-03 0.  1.
        -12    1    3    3    0    0 -0.43439960480E+01 -0.18980007259E+01 -0.20108432990E+02  0.20659665673E+02  0.00000000000E+00 0.  1.
</event>
<event>
 7    1  0.1360399E-013  0.7246157E+02  0.7816164E-02  0.1226708E+00
        -11   -1    0    0    0    0  0.00000000000E+00  0.00000000000E+00  0.45593999997E+02  0.45594000000E+02  0.51100000000E-03 0. -1.
         11   -1    0    0    0    0 -0.00000000000E+00 -0.00000000000E+00 -0.45593999997E+02  0.45594000000E+02  0.51100000000E-03 0.  1.
    9900012    2    1    2    0    0 -0.14918376728E+02 -0.49566377388E+01 -0.10176097300E+02  0.72461570065E+02  0.69999999701E+02 0.  0.
         12    1    1    2    0    0  0.14918376728E+02  0.49566377388E+01  0.10176097300E+02  0.18726429935E+02  0.00000000000E+00 0. -1.
         11    1    3    3    0    0  0.94625560658E+01 -0.24100412681E+02  0.66506132874E+01  0.26732012944E+02  0.51100000000E-03 0. -1.
        -11    1    3    3    0    0 -0.20620778553E+02  0.17084037706E+02 -0.24914208289E+02  0.36575929618E+02  0.51100000000E-03 0.  1.
         12    1    3    3    0    0 -0.37601542403E+01  0.20597372363E+01  0.80874977017E+01  0.91536275032E+01  0.00000000000E+00 0. -1.
</event>
<event>
 7    1  0.1360399E-013  0.7246158E+02  0.7816164E-02  0.1226708E+00
        -11   -1    0    0    0    0  0.00000000000E+00  0.00000000000E+00  0.45593999997E+02  0.45594000000E+02  0.51100000000E-03 0.  1.
         11   -1    0    0    0    0 -0.00000000000E+00 -0.00000000000E+00 -0.45593999997E+02  0.45594000000E+02  0.51100000000E-03 0. -1.
    9900012    2    1    2    0    0 -0.13366912180E+00  0.15930967597E+02  0.98420189366E+01  0.72461576616E+02  0.70000008235E+02 0.  0.
         12    1    1    2    0    0  0.13366912180E+00 -0.15930967597E+02 -0.98420189366E+01  0.18726423384E+02  0.00000000000E+00 0. -1.
         11    1    3    3    0    0 -0.90705052286E+01  0.10776255978E+02 -0.17222047674E+02  0.22248610841E+02  0.51100000000E-03 0. -1.
        -11    1    3    3    0    0 -0.14301620988E+02  0.41759023868E+01  0.21735064730E+02  0.26351234557E+02  0.51100000000E-03 0.  1.
        -12    1    3    3    0    0  0.23238457095E+02  0.97880923240E+00  0.53290018811E+01  0.23861731218E+02  0.00000000000E+00 0.  1.
</event>
<event>
 7    1  0.1360399E-013  0.7246158E+02  0.7816164E-02  0.1226708E+00
        -11   -1    0    0    0    0  0.00000000000E+00  0.00000000000E+00  0.45593999997E+02  0.45594000000E+02  0.51100000000E-03 0. -1.
         11   -1    0    0    0    0 -0.00000000000E+00 -0.00000000000E+00 -0.45593999997E+02  0.45594000000E+02  0.51100000000E-03 0.  1.
    9900012    2    1    2    0    0  0.50186598455E+01  0.17617284580E+02 -0.38888313045E+01  0.72461583591E+02  0.70000017321E+02 0.  0.
         12    1    1    2    0    0 -0.50186598455E+01 -0.17617284580E+02  0.38888313045E+01  0.18726416409E+02  0.00000000000E+00 0. -1.
         11    1    3    3    0    0  0.20103916362E+02 -0.44640347041E+01  0.27814893421E+01  0.20780561642E+02  0.51100000000E-03 0. -1.
        -11    1    3    3    0    0 -0.18858897712E+02 -0.83160623129E+01 -0.31018238744E+01  0.20843133807E+02  0.51100000000E-03 0.  1.
        -12    1    3    3    0    0  0.37736411950E+01  0.30397381597E+02 -0.35684967722E+01  0.30837888141E+02  0.00000000000E+00 0.  1.
</event>
<event>
 7    1  0.1360399E-013  0.7246158E+02  0.7816164E-02  0.1226708E+00
        -11   -1    0    0    0    0  0.00000000000E+00  0.00000000000E+00  0.45593999997E+02  0.45594000000E+02  0.51100000000E-03 0. -1.
         11   -1    0    0    0    0 -0.00000000000E+00 -0.00000000000E+00 -0.45593999997E+02  0.45594000000E+02  0.51100000000E-03 0.  1.
    9900012    2    1    2    0    0 -0.16716596273E+02 -0.81496837799E+01 -0.21947244966E+01  0.72461581435E+02  0.70000014513E+02 0.  0.
         12    1    1    2    0    0  0.16716596273E+02  0.81496837799E+01  0.21947244966E+01  0.18726418565E+02  0.00000000000E+00 0. -1.
         11    1    3    3    0    0 -0.98777441198E+01 -0.17027705772E+02 -0.24103357946E+02  0.31120482922E+02  0.51100000000E-03 0.  1.
        -11    1    3    3    0    0  0.65237086448E+01  0.17816112569E+02  0.11385987581E+02  0.22127208478E+02  0.51100000000E-03 0. -1.
         12    1    3    3    0    0 -0.13362560798E+02 -0.89380905768E+01  0.10522645868E+02  0.19213890036E+02  0.00000000000E+00 0. -1.
</event>
<event>
 7    1  0.1360399E-013  0.7246158E+02  0.7816164E-02  0.1226708E+00
        -11   -1    0    0    0    0  0.00000000000E+00  0.00000000000E+00  0.45593999997E+02  0.45594000000E+02  0.51100000000E-03 0.  1.
         11   -1    0    0    0    0 -0.00000000000E+00 -0.00000000000E+00 -0.45593999997E+02  0.45594000000E+02  0.51100000000E-03 0. -1.
    9900012    2    1    2    0    0 -0.59603306941E+01  0.88530825906E+01  0.15387536439E+02  0.72461577731E+02  0.70000009688E+02 0.  0.
         12    1    1    2    0    0  0.59603306941E+01 -0.88530825906E+01 -0.15387536439E+02  0.18726422269E+02  0.00000000000E+00 0. -1.
         11    1    3    3    0    0 -0.51281744383E+01  0.11442668553E+02 -0.25835862756E+02  0.28718019453E+02  0.51100000000E-03 0. -1.
        -11    1    3    3    0    0 -0.35887733776E+00  0.56604498549E+01  0.23702995258E+02  0.24372145371E+02  0.51100000000E-03 0.  1.
         12    1    3    3    0    0 -0.47327891801E+00 -0.82500358176E+01  0.17520403937E+02  0.19371412907E+02  0.00000000000E+00 0. -1.
</event>
<event>
 7    1  0.1360399E-013  0.7246149E+02  0.7816164E-02  0.1226708E+00
        -11   -1    0    0    0    0  0.00000000000E+00  0.00000000000E+00  0.45593999997E+02  0.45594000000E+02  0.51100000000E-03 0. -1.
         11   -1    0    0    0    0 -0.00000000000E+00 -0.00000000000E+00 -0.45593999997E+02  0.45594000000E+02  0.51100000000E-03 0.  1.
    9900012    2    1    2    0    0  0.44987352680E+01  0.13186286034E+02 -0.12512611186E+02  0.72461489459E+02  0.69999894696E+02 0.  0.
         12    1    1    2    0    0 -0.44987352680E+01 -0.13186286034E+02  0.12512611186E+02  0.18726510541E+02  0.00000000000E+00 0. -1.
         11    1    3    3    0    0  0.18359860934E+01  0.18699103871E+02  0.14600016031E+02  0.23794701067E+02  0.51100000000E-03 0. -1.
        -11    1    3    3    0    0 -0.58236490946E+01  0.19574611196E+01 -0.34577306520E+02  0.35118893337E+02  0.51100000000E-03 0.  1.
        -12    1    3    3    0    0  0.84863982692E+01 -0.74702789573E+01  0.74646793033E+01  0.13547895054E+02  0.00000000000E+00 0.  1.
</event>
<event>
 7    1  0.1360399E-013  0.7246134E+02  0.7816164E-02  0.1226709E+00
        -11   -1    0    0    0    0  0.00000000000E+00  0.00000000000E+00  0.45593999997E+02  0.45594000000E+02  0.51100000000E-03 0. -1.
         11   -1    0    0    0    0 -0.00000000000E+00 -0.00000000000E+00 -0.45593999997E+02  0.45594000000E+02  0.51100000000E-03 0.  1.
    9900012    2    1    2    0    0 -0.12377671665E+02 -0.82908300588E+01  0.11346508382E+02  0.72461337954E+02  0.69999697333E+02 0.  0.
         12    1    1    2    0    0  0.12377671665E+02  0.82908300588E+01 -0.11346508382E+02  0.18726662046E+02  0.00000000000E+00 0. -1.
         11    1    3    3    0    0  0.15605949657E+02 -0.11533270688E+02  0.22795322871E+02  0.29936411650E+02  0.51100000000E-03 0. -1.
        -11    1    3    3    0    0 -0.23026233427E+02  0.49422344977E+01 -0.21049748377E+02  0.31586785444E+02  0.51100000000E-03 0.  1.
         12    1    3    3    0    0 -0.49573878952E+01 -0.16997938689E+01  0.96009338885E+01  0.10938140860E+02  0.00000000000E+00 0. -1.
</event>
<event>
 7    1  0.1360399E-013  0.7246156E+02  0.7816164E-02  0.1226708E+00
        -11   -1    0    0    0    0  0.00000000000E+00  0.00000000000E+00  0.45593999997E+02  0.45594000000E+02  0.51100000000E-03 0.  1.
         11   -1    0    0    0    0 -0.00000000000E+00 -0.00000000000E+00 -0.45593999997E+02  0.45594000000E+02  0.51100000000E-03 0. -1.
    9900012    2    1    2    0    0  0.11563007987E+02 -0.13453999438E+02 -0.59971835357E+01  0.72461562407E+02  0.69999989725E+02 0.  0.
         12    1    1    2    0    0 -0.11563007987E+02  0.13453999438E+02  0.59971835357E+01  0.18726437593E+02  0.00000000000E+00 0. -1.
         11    1    3    3    0    0  0.23739493495E+02  0.63691790309E+01 -0.83331542303E+01  0.25953255145E+02  0.51100000000E-03 0. -1.
        -11    1    3    3    0    0 -0.17820872664E+02 -0.25244622414E+02  0.12795010681E+02  0.33445280114E+02  0.51100000000E-03 0.  1.
        -12    1    3    3    0    0  0.56443871554E+01  0.54214439452E+01 -0.10459039986E+02  0.13063027147E+02  0.00000000000E+00 0.  1.
</event>
<event>
 7    1  0.1360399E-013  0.7246159E+02  0.7816164E-02  0.1226708E+00
        -11   -1    0    0    0    0  0.00000000000E+00  0.00000000000E+00  0.45593999997E+02  0.45594000000E+02  0.51100000000E-03 0. -1.
         11   -1    0    0    0    0 -0.00000000000E+00 -0.00000000000E+00 -0.45593999997E+02  0.45594000000E+02  0.51100000000E-03 0.  1.
    9900012    2    1    2    0    0 -0.95449949254E+00  0.10121000028E+02 -0.15726813843E+02  0.72461591255E+02  0.70000027305E+02 0.  0.
         12    1    1    2    0    0  0.95449949254E+00 -0.10121000028E+02  0.15726813843E+02  0.18726408745E+02  0.00000000000E+00 0. -1.
         11    1    3    3    0    0  0.99248117862E+01  0.16566654741E+02  0.95125996665E+00  0.19335481222E+02  0.51100000000E-03 0. -1.
        -11    1    3    3    0    0 -0.28186604795E+02  0.10832383037E+01 -0.41263591167E+00  0.28210430053E+02  0.51100000000E-03 0.  1.
        -12    1    3    3    0    0  0.17307293516E+02 -0.75288930163E+01 -0.16265437897E+02  0.24915679981E+02  0.00000000000E+00 0.  1.
</event>
<event>
 7    1  0.1360399E-013  0.7246133E+02  0.7816164E-02  0.1226709E+00
        -11   -1    0    0    0    0  0.00000000000E+00  0.00000000000E+00  0.45593999997E+02  0.45594000000E+02  0.51100000000E-03 0. -1.
         11   -1    0    0    0    0 -0.00000000000E+00 -0.00000000000E+00 -0.45593999997E+02  0.45594000000E+02  0.51100000000E-03 0.  1.
    9900012    2    1    2    0    0 -0.63753878706E+01  0.11817289490E+02 -0.13053520486E+02  0.72461326551E+02  0.69999682478E+02 0.  0.
         12    1    1    2    0    0  0.63753878706E+01 -0.11817289490E+02  0.13053520486E+02  0.18726673449E+02  0.00000000000E+00 0. -1.
         11    1    3    3    0    0  0.71877714627E+01  0.23373109025E+02  0.15177899261E+02  0.28780808021E+02  0.51100000000E-03 0. -1.
        -11    1    3    3    0    0  0.93206548769E-01 -0.36003621945E+01 -0.27630763775E+02  0.27864500757E+02  0.51100000000E-03 0.  1.
        -12    1    3    3    0    0 -0.13656365882E+02 -0.79554573401E+01 -0.60065597273E+00  0.15816017773E+02  0.00000000000E+00 0.  1.
</event>
<event>
 7    1  0.1360399E-013  0.7246158E+02  0.7816164E-02  0.1226708E+00
        -11   -1    0    0    0    0  0.00000000000E+00  0.00000000000E+00  0.45593999997E+02  0.45594000000E+02  0.51100000000E-03 0. -1.
         11   -1    0    0    0    0 -0.00000000000E+00 -0.00000000000E+00 -0.45593999997E+02  0.45594000000E+02  0.51100000000E-03 0.  1.
    9900012    2    1    2    0    0 -0.98588749916E+01  0.32965519877E+00 -0.15917686502E+02  0.72461579300E+02  0.70000011732E+02 0.  0.
         12    1    1    2    0    0  0.98588749916E+01 -0.32965519877E+00  0.15917686502E+02  0.18726420700E+02  0.00000000000E+00 0. -1.
         11    1    3    3    0    0  0.14227785458E+02 -0.26065163324E+02 -0.84880102874E+01  0.30884768690E+02  0.51100000000E-03 0. -1.
        -11    1    3    3    0    0 -0.18450640303E+02  0.90900261955E+01 -0.10542996880E+02  0.23112972273E+02  0.51100000000E-03 0.  1.
         12    1    3    3    0    0 -0.56360201465E+01  0.17304792327E+02  0.31133206655E+01  0.18463838337E+02  0.00000000000E+00 0. -1.
</event>
<event>
 7    1  0.1360399E-013  0.7246188E+02  0.7816164E-02  0.1226707E+00
        -11   -1    0    0    0    0  0.00000000000E+00  0.00000000000E+00  0.45593999997E+02  0.45594000000E+02  0.51100000000E-03 0. -1.
         11   -1    0    0    0    0 -0.00000000000E+00 -0.00000000000E+00 -0.45593999997E+02  0.45594000000E+02  0.51100000000E-03 0.  1.
    9900012    2    1    2    0    0 -0.23282189293E+01 -0.14509233634E+02 -0.11607280723E+02  0.72461883750E+02  0.70000408333E+02 0.  0.
         12    1    1    2    0    0  0.23282189293E+01  0.14509233634E+02  0.11607280723E+02  0.18726116250E+02  0.00000000000E+00 0. -1.
         11    1    3    3    0    0  0.28471842568E+00 -0.23307175955E+02  0.21387735089E+02  0.31634486373E+02  0.51100000000E-03 0. -1.
        -11    1    3    3    0    0 -0.57470074470E+01  0.15396822628E+02 -0.19677039046E+02  0.25637396660E+02  0.51100000000E-03 0.  1.
         12    1    3    3    0    0  0.31340700921E+01 -0.65988803067E+01 -0.13317976765E+02  0.15190000716E+02  0.00000000000E+00 0. -1.
</event>
<event>
 7    1  0.1360399E-013  0.7246170E+02  0.7816164E-02  0.1226708E+00
        -11   -1    0    0    0    0  0.00000000000E+00  0.00000000000E+00  0.45593999997E+02  0.45594000000E+02  0.51100000000E-03 0.  1.
         11   -1    0    0    0    0 -0.00000000000E+00 -0.00000000000E+00 -0.45593999997E+02  0.45594000000E+02  0.51100000000E-03 0. -1.
    9900012    2    1    2    0    0  0.14591110482E+02 -0.11734993298E+02  0.25279978007E+00  0.72461695492E+02  0.70000163093E+02 0.  0.
         12    1    1    2    0    0 -0.14591110482E+02  0.11734993298E+02 -0.25279978007E+00  0.18726304508E+02  0.00000000000E+00 0. -1.
         11    1    3    3    0    0  0.35379546393E+01 -0.41246291133E+01 -0.20253818417E+02  0.20970141847E+02  0.51100000000E-03 0. -1.
        -11    1    3    3    0    0 -0.86266629058E+01  0.48892351491E+00  0.27708664517E+02  0.29024617976E+02  0.51100000000E-03 0.  1.
        -12    1    3    3    0    0  0.19679818748E+02 -0.80992876993E+01 -0.72020463199E+01  0.22466935670E+02  0.00000000000E+00 0.  1.
</event>
<event>
 7    1  0.1360399E-013  0.7246159E+02  0.7816164E-02  0.1226708E+00
        -11   -1    0    0    0    0  0.00000000000E+00  0.00000000000E+00  0.45593999997E+02  0.45594000000E+02  0.51100000000E-03 0.  1.
         11   -1    0    0    0    0 -0.00000000000E+00 -0.00000000000E+00 -0.45593999997E+02  0.45594000000E+02  0.51100000000E-03 0. -1.
    9900012    2    1    2    0    0  0.12112178899E+02 -0.90201403673E+01  0.11072972531E+02  0.72461587354E+02  0.70000022223E+02 0.  0.
         12    1    1    2    0    0 -0.12112178899E+02  0.90201403673E+01 -0.11072972531E+02  0.18726412646E+02  0.00000000000E+00 0. -1.
         11    1    3    3    0    0 -0.18871104509E+02  0.11684845800E+01 -0.47518065776E+01  0.19495220122E+02  0.51100000000E-03 0. -1.
        -11    1    3    3    0    0  0.26677085526E+02  0.10365925993E+02  0.14071790094E+02  0.31892547571E+02  0.51100000000E-03 0.  1.
        -12    1    3    3    0    0  0.43061978818E+01 -0.20554550941E+02  0.17529890143E+01  0.21073819660E+02  0.00000000000E+00 0.  1.
</event>
<event>
 7    1  0.1360399E-013  0.7246165E+02  0.7816164E-02  0.1226708E+00
        -11   -1    0    0    0    0  0.00000000000E+00  0.00000000000E+00  0.45593999997E+02  0.45594000000E+02  0.51100000000E-03 0.  1.
         11   -1    0    0    0    0 -0.00000000000E+00 -0.00000000000E+00 -0.45593999997E+02  0.45594000000E+02  0.51100000000E-03 0. -1.
    9900012    2    1    2    0    0 -0.10440338281E+02 -0.14608150297E+02 -0.53176618835E+01  0.72461648342E+02  0.70000101671E+02 0.  0.
         12    1    1    2    0    0  0.10440338281E+02  0.14608150297E+02  0.53176618835E+01  0.18726351658E+02  0.00000000000E+00 0. -1.
         11    1    3    3    0    0 -0.14788801168E+02 -0.89523693885E+01  0.48089163747E+01  0.17943779830E+02  0.51100000000E-03 0. -1.
        -11    1    3    3    0    0  0.17043061677E+02  0.11251162839E+01  0.16818083698E+02  0.23970393770E+02  0.51100000000E-03 0.  1.
        -12    1    3    3    0    0 -0.12694598790E+02 -0.67808971921E+01 -0.26944661956E+02  0.30547474742E+02  0.00000000000E+00 0.  1.
</event>
<event>
 7    1  0.1360399E-013  0.7246159E+02  0.7816164E-02  0.1226708E+00
        -11   -1    0    0    0    0  0.00000000000E+00  0.00000000000E+00  0.45593999997E+02  0.45594000000E+02  0.51100000000E-03 0. -1.
         11   -1    0    0    0    0 -0.00000000000E+00 -0.00000000000E+00 -0.45593999997E+02  0.45594000000E+02  0.51100000000E-03 0.  1.
    9900012    2    1    2    0    0  0.11990519839E+02  0.87209127927E+01 -0.11439029307E+02  0.72461594113E+02  0.70000031028E+02 0.  0.
         12    1    1    2    0    0 -0.11990519839E+02 -0.87209127927E+01  0.11439029307E+02  0.18726405887E+02  0.00000000000E+00 0. -1.
         11    1    3    3    0    0 -0.48213949148E+01 -0.29833731275E+01 -0.14652069718E+02  0.15710808745E+02  0.51100000000E-03 0. -1.
        -11    1    3    3    0    0 -0.17583720934E+02  0.12721889751E+02  0.50785116673E+01  0.22289571591E+02  0.51100000000E-03 0.  1.
        -12    1    3    3    0    0  0.34395635688E+02 -0.10176038304E+01 -0.18654712561E+01  0.34461213777E+02  0.00000000000E+00 0.  1.
</event>
<event>
 7    1  0.1360399E-013  0.7246155E+02  0.7816164E-02  0.1226708E+00
        -11   -1    0    0    0    0  0.00000000000E+00  0.00000000000E+00  0.45593999997E+02  0.45594000000E+02  0.51100000000E-03 0.  1.
         11   -1    0    0    0    0 -0.00000000000E+00 -0.00000000000E+00 -0.45593999997E+02  0.45594000000E+02  0.51100000000E-03 0. -1.
    9900012    2    1    2    0    0  0.17462171419E+02 -0.13483864960E+01 -0.66282942222E+01  0.72461551829E+02  0.69999975945E+02 0.  0.
         12    1    1    2    0    0 -0.17462171419E+02  0.13483864960E+01  0.66282942222E+01  0.18726448171E+02  0.00000000000E+00 0. -1.
         11    1    3    3    0    0 -0.16011914884E+02  0.14666004843E+02 -0.52542088090E+01  0.22340094600E+02  0.51100000000E-03 0. -1.
        -11    1    3    3    0    0  0.16073981569E+02 -0.21258183496E+02  0.10243896198E+02  0.28552069253E+02  0.51100000000E-03 0.  1.
         12    1    3    3    0    0  0.17400104734E+02  0.52437921575E+01 -0.11617981611E+02  0.21569387976E+02  0.00000000000E+00 0. -1.
</event>
<event>
 7    1  0.1360399E-013  0.7246156E+02  0.7816164E-02  0.1226708E+00
        -11   -1    0    0    0    0  0.00000000000E+00  0.00000000000E+00  0.45593999997E+02  0.45594000000E+02  0.51100000000E-03 0. -1.
         11   -1    0    0    0    0 -0.00000000000E+00 -0.00000000000E+00 -0.45593999997E+02  0.45594000000E+02  0.51100000000E-03 0.  1.
    9900012    2    1    2    0    0  0.10985117711E+02  0.49725115579E+01 -0.14327621659E+02  0.72461563481E+02  0.69999991124E+02 0.  0.
         12    1    1    2    0    0 -0.10985117711E+02 -0.49725115579E+01  0.14327621659E+02  0.18726436519E+02  0.00000000000E+00 0. -1.
         11    1    3    3    0    0  0.62784536851E+01  0.16786259600E+02 -0.43152120847E+00  0.17927177771E+02  0.51100000000E-03 0. -1.
        -11    1    3    3    0    0 -0.21152752332E+02 -0.15889989271E+02 -0.86570507836E+01  0.27836580587E+02  0.51100000000E-03 0.  1.
        -12    1    3    3    0    0  0.25859416358E+02  0.40762412293E+01 -0.52390496664E+01  0.26697805122E+02  0.00000000000E+00 0.  1.
</event>
<event>
 7    1  0.1360399E-013  0.7246152E+02  0.7816164E-02  0.1226708E+00
        -11   -1    0    0    0    0  0.00000000000E+00  0.00000000000E+00  0.45593999997E+02  0.45594000000E+02  0.51100000000E-03 0. -1.
         11   -1    0    0    0    0 -0.00000000000E+00 -0.00000000000E+00 -0.45593999997E+02  0.45594000000E+02  0.51100000000E-03 0.  1.
    9900012    2    1    2    0    0  0.81490387874E+01  0.12830547488E+02 -0.10938521400E+02  0.72461520554E+02  0.69999935205E+02 0.  0.
         12    1    1    2    0    0 -0.81490387874E+01 -0.12830547488E+02  0.10938521400E+02  0.18726479446E+02  0.00000000000E+00 0. -1.
         11    1    3    3    0    0  0.23015656904E+02  0.87759854887E+01  0.23287375193E+02  0.33897495891E+02  0.51100000000E-03 0. -1.
        -11    1    3    3    0    0 -0.11718333690E+02 -0.86305130261E+00 -0.25335112483E+02  0.27927264936E+02  0.51100000000E-03 0.  1.
        -12    1    3    3    0    0 -0.31482844265E+01  0.49176133023E+01 -0.88907841101E+01  0.10636759728E+02  0.00000000000E+00 0.  1.
</event>
<event>
 7    1  0.1360399E-013  0.7246169E+02  0.7816164E-02  0.1226708E+00
        -11   -1    0    0    0    0  0.00000000000E+00  0.00000000000E+00  0.45593999997E+02  0.45594000000E+02  0.51100000000E-03 0. -1.
         11   -1    0    0    0    0 -0.00000000000E+00 -0.00000000000E+00 -0.45593999997E+02  0.45594000000E+02  0.51100000000E-03 0.  1.
    9900012    2    1    2    0    0  0.12271500918E+02  0.45311224304E+01 -0.13399770399E+02  0.72461690913E+02  0.70000157128E+02 0.  0.
         12    1    1    2    0    0 -0.12271500918E+02 -0.45311224304E+01  0.13399770399E+02  0.18726309087E+02  0.00000000000E+00 0. -1.
         11    1    3    3    0    0  0.30141668803E+02  0.26708530229E+01 -0.14595258059E+02  0.33595761819E+02  0.51100000000E-03 0. -1.
        -11    1    3    3    0    0 -0.15167085063E+02 -0.15230538664E+02 -0.31654229563E+00  0.21496743395E+02  0.51100000000E-03 0.  1.
        -12    1    3    3    0    0 -0.27030828220E+01  0.17090808071E+02  0.15120299556E+01  0.17369185699E+02  0.00000000000E+00 0.  1.
</event>
<event>
 7    1  0.1360399E-013  0.7246205E+02  0.7816164E-02  0.1226707E+00
        -11   -1    0    0    0    0  0.00000000000E+00  0.00000000000E+00  0.45593999997E+02  0.45594000000E+02  0.51100000000E-03 0.  1.
         11   -1    0    0    0    0 -0.00000000000E+00 -0.00000000000E+00 -0.45593999997E+02  0.45594000000E+02  0.51100000000E-03 0. -1.
    9900012    2    1    2    0    0  0.89908534517E+01  0.14363436467E+02 -0.79697787245E+01  0.72462052071E+02  0.70000627601E+02 0.  0.
         12    1    1    2    0    0 -0.89908534517E+01 -0.14363436467E+02  0.79697787245E+01  0.18725947929E+02  0.00000000000E+00 0. -1.
         11    1    3    3    0    0  0.19495063153E+02 -0.18311073911E+02  0.13199690003E+02  0.29825907054E+02  0.51100000000E-03 0.  1.
        -11    1    3    3    0    0 -0.61952789709E+01  0.22860589533E+02 -0.21392039126E+02  0.31915628986E+02  0.51100000000E-03 0. -1.
        -12    1    3    3    0    0 -0.43089307307E+01  0.98139208451E+01  0.22257039853E+00  0.10720516031E+02  0.00000000000E+00 0.  1.
</event>
<event>
 7    1  0.1360399E-013  0.7246160E+02  0.7816164E-02  0.1226708E+00
        -11   -1    0    0    0    0  0.00000000000E+00  0.00000000000E+00  0.45593999997E+02  0.45594000000E+02  0.51100000000E-03 0.  1.
         11   -1    0    0    0    0 -0.00000000000E+00 -0.00000000000E+00 -0.45593999997E+02  0.45594000000E+02  0.51100000000E-03 0. -1.
    9900012    2    1    2    0    0  0.31524285062E+01 -0.18158633421E+02 -0.33172662983E+01  0.72461600749E+02  0.70000039673E+02 0.  0.
         12    1    1    2    0    0 -0.31524285062E+01  0.18158633421E+02  0.33172662983E+01  0.18726399251E+02  0.00000000000E+00 0. -1.
         11    1    3    3    0    0  0.17244124492E+02  0.55375115778E+01 -0.22452048007E+00  0.18112820699E+02  0.51100000000E-03 0. -1.
        -11    1    3    3    0    0  0.42468262041E+01 -0.19456478222E+02  0.17456312427E+02  0.26482313370E+02  0.51100000000E-03 0.  1.
        -12    1    3    3    0    0 -0.18338522189E+02 -0.42396667767E+01 -0.20549058246E+02  0.27866466680E+02  0.00000000000E+00 0.  1.
</event>
<event>
 7    1  0.1360399E-013  0.7246149E+02  0.7816164E-02  0.1226708E+00
        -11   -1    0    0    0    0  0.00000000000E+00  0.00000000000E+00  0.45593999997E+02  0.45594000000E+02  0.51100000000E-03 0.  1.
         11   -1    0    0    0    0 -0.00000000000E+00 -0.00000000000E+00 -0.45593999997E+02  0.45594000000E+02  0.51100000000E-03 0. -1.
    9900012    2    1    2    0    0  0.11418574414E+02 -0.13778135195E+02  0.55191737341E+01  0.72461491254E+02  0.69999897035E+02 0.  0.
         12    1    1    2    0    0 -0.11418574414E+02  0.13778135195E+02 -0.55191737341E+01  0.18726508746E+02  0.00000000000E+00 0. -1.
         11    1    3    3    0    0 -0.14810971356E+02 -0.21935789511E+02 -0.64368567840E+01  0.27239252184E+02  0.51100000000E-03 0. -1.
        -11    1    3    3    0    0  0.26799685689E+02  0.17802456611E+02  0.14410727824E+02  0.35253647912E+02  0.51100000000E-03 0.  1.
        -12    1    3    3    0    0 -0.57013991919E+00 -0.96448022947E+01 -0.24546973057E+01  0.99685911589E+01  0.00000000000E+00 0.  1.
</event>
<event>
 7    1  0.1360399E-013  0.7246158E+02  0.7816164E-02  0.1226708E+00
        -11   -1    0    0    0    0  0.00000000000E+00  0.00000000000E+00  0.45593999997E+02  0.45594000000E+02  0.51100000000E-03 0.  1.
         11   -1    0    0    0    0 -0.00000000000E+00 -0.00000000000E+00 -0.45593999997E+02  0.45594000000E+02  0.51100000000E-03 0. -1.
    9900012    2    1    2    0    0 -0.40868745477E+01 -0.84597060802E+01  0.16199058362E+02  0.72461583836E+02  0.70000017641E+02 0.  0.
         12    1    1    2    0    0  0.40868745477E+01  0.84597060802E+01 -0.16199058362E+02  0.18726416164E+02  0.00000000000E+00 0. -1.
         11    1    3    3    0    0 -0.13858017096E+02  0.97034673943E+00 -0.20926739025E+02  0.25118013797E+02  0.51100000000E-03 0. -1.
        -11    1    3    3    0    0  0.12454507867E+02 -0.68174346708E+01  0.50801103720E+01  0.15079777961E+02  0.51100000000E-03 0.  1.
         12    1    3    3    0    0 -0.26833653189E+01 -0.26126181489E+01  0.32045687015E+02  0.32263792078E+02  0.00000000000E+00 0. -1.
</event>
<event>
 7    1  0.1360399E-013  0.7246155E+02  0.7816164E-02  0.1226708E+00
        -11   -1    0    0    0    0  0.00000000000E+00  0.00000000000E+00  0.45593999997E+02  0.45594000000E+02  0.51100000000E-03 0.  1.
         11   -1    0    0    0    0 -0.00000000000E+00 -0.00000000000E+00 -0.45593999997E+02  0.45594000000E+02  0.51100000000E-03 0. -1.
    9900012    2    1    2    0    0 -0.57846175140E+00  0.16363351616E+02  0.90876844357E+01  0.72461550723E+02  0.69999974505E+02 0.  0.
         12    1    1    2    0    0  0.57846175140E+00 -0.16363351616E+02 -0.90876844357E+01  0.18726449277E+02  0.00000000000E+00 0. -1.
         11    1    3    3    0    0 -0.18347783955E+01  0.30973085447E+02  0.15297920952E+02  0.34593710694E+02  0.51100000000E-03 0. -1.
        -11    1    3    3    0    0  0.61026802826E+01 -0.23000088615E+02  0.36145135282E+01  0.24068890527E+02  0.51100000000E-03 0.  1.
        -12    1    3    3    0    0 -0.48463636385E+01  0.83903547843E+01 -0.98247500442E+01  0.13798949502E+02  0.00000000000E+00 0.  1.
</event>
<event>
 7    1  0.1360399E-013  0.7246157E+02  0.7816164E-02  0.1226708E+00
        -11   -1    0    0    0    0  0.00000000000E+00  0.00000000000E+00  0.45593999997E+02  0.45594000000E+02  0.51100000000E-03 0.  1.
         11   -1    0    0    0    0 -0.00000000000E+00 -0.00000000000E+00 -0.45593999997E+02  0.45594000000E+02  0.51100000000E-03 0. -1.
    9900012    2    1    2    0    0 -0.42264469483E-03 -0.18580359004E+02  0.23343851856E+01  0.72461572281E+02  0.70000002588E+02 0.  0.
         12    1    1    2    0    0  0.42264469483E-03  0.18580359004E+02 -0.23343851856E+01  0.18726427719E+02  0.00000000000E+00 0. -1.
         11    1    3    3    0    0  0.12439656392E+01  0.15669162639E+02 -0.11031710577E+02  0.19203352489E+02  0.51100000000E-03 0. -1.
        -11    1    3    3    0    0  0.94806647971E+01 -0.13478838670E+02  0.22730931260E+02  0.28075920876E+02  0.51100000000E-03 0.  1.
         12    1    3    3    0    0 -0.10725053081E+02 -0.20770682974E+02 -0.93648354971E+01  0.25182298916E+02  0.00000000000E+00 0. -1.
</event>
<event>
 7    1  0.1360399E-013  0.7246159E+02  0.7816164E-02  0.1226708E+00
        -11   -1    0    0    0    0  0.00000000000E+00  0.00000000000E+00  0.45593999997E+02  0.45594000000E+02  0.51100000000E-03 0.  1.
         11   -1    0    0    0    0 -0.00000000000E+00 -0.00000000000E+00 -0.45593999997E+02  0.45594000000E+02  0.51100000000E-03 0. -1.
    9900012    2    1    2    0    0  0.15589355156E+02 -0.75256394995E+01  0.71424842678E+01  0.72461592828E+02  0.70000029354E+02 0.  0.
         12    1    1    2    0    0 -0.15589355156E+02  0.75256394995E+01 -0.71424842678E+01  0.18726407172E+02  0.00000000000E+00 0. -1.
         11    1    3    3    0    0 -0.42846371057E+01  0.31351278452E+01 -0.16053208322E+02  0.16908360046E+02  0.51100000000E-03 0. -1.
        -11    1    3    3    0    0  0.16696300238E+02  0.70918503897E+01  0.30987977848E+02  0.35907040465E+02  0.51100000000E-03 0.  1.
         12    1    3    3    0    0  0.31776920236E+01 -0.17752617734E+02 -0.77922852577E+01  0.19646192317E+02  0.00000000000E+00 0. -1.
</event>
<event>
 7    1  0.1360399E-013  0.7246153E+02  0.7816164E-02  0.1226708E+00
        -11   -1    0    0    0    0  0.00000000000E+00  0.00000000000E+00  0.45593999997E+02  0.45594000000E+02  0.51100000000E-03 0. -1.
         11   -1    0    0    0    0 -0.00000000000E+00 -0.00000000000E+00 -0.45593999997E+02  0.45594000000E+02  0.51100000000E-03 0.  1.
    9900012    2    1    2    0    0  0.17158050395E+01 -0.14859072678E+02  0.11266976615E+02  0.72461527032E+02  0.69999943642E+02 0.  0.
         12    1    1    2    0    0 -0.17158050395E+01  0.14859072678E+02 -0.11266976615E+02  0.18726472968E+02  0.00000000000E+00 0. -1.
         11    1    3    3    0    0 -0.18663136810E+02 -0.24796215429E+02 -0.78191931113E+01  0.32004761464E+02  0.51100000000E-03 0. -1.
        -11    1    3    3    0    0  0.24682078695E+02  0.43441768831E+00  0.10041444523E+02  0.26650034443E+02  0.51100000000E-03 0.  1.
        -12    1    3    3    0    0 -0.43031368459E+01  0.95027250628E+01  0.90447252036E+01  0.13806731124E+02  0.00000000000E+00 0.  1.
</event>
<event>
 7    1  0.1360399E-013  0.7246157E+02  0.7816164E-02  0.1226708E+00
        -11   -1    0    0    0    0  0.00000000000E+00  0.00000000000E+00  0.45593999997E+02  0.45594000000E+02  0.51100000000E-03 0. -1.
         11   -1    0    0    0    0 -0.00000000000E+00 -0.00000000000E+00 -0.45593999997E+02  0.45594000000E+02  0.51100000000E-03 0.  1.
    9900012    2    1    2    0    0 -0.50087744239E+01 -0.41840814676E+01 -0.17552340135E+02  0.72461574736E+02  0.70000005785E+02 0.  0.
         12    1    1    2    0    0  0.50087744239E+01  0.41840814676E+01  0.17552340135E+02  0.18726425264E+02  0.00000000000E+00 0. -1.
         11    1    3    3    0    0  0.10556542388E+02  0.54277421302E+00 -0.31223959439E+01  0.11022002891E+02  0.51100000000E-03 0. -1.
        -11    1    3    3    0    0 -0.11902432675E+02  0.19670834611E+02  0.11449566579E+02  0.25684668831E+02  0.51100000000E-03 0.  1.
        -12    1    3    3    0    0 -0.36628841371E+01 -0.24397690291E+02 -0.25879510770E+02  0.35754903013E+02  0.00000000000E+00 0.  1.
</event>
<event>
 7    1  0.1360399E-013  0.7246159E+02  0.7816164E-02  0.1226708E+00
        -11   -1    0    0    0    0  0.00000000000E+00  0.00000000000E+00  0.45593999997E+02  0.45594000000E+02  0.51100000000E-03 0.  1.
         11   -1    0    0    0    0 -0.00000000000E+00 -0.00000000000E+00 -0.45593999997E+02  0.45594000000E+02  0.51100000000E-03 0. -1.
    9900012    2    1    2    0    0  0.12849667680E+01  0.75561004490E+01  0.17086031858E+02  0.72461594092E+02  0.70000031001E+02 0.  0.
         12    1    1    2    0    0 -0.12849667680E+01 -0.75561004490E+01 -0.17086031858E+02  0.18726405908E+02  0.00000000000E+00 0. -1.
         11    1    3    3    0    0 -0.17457239501E+02 -0.14847938734E+02  0.63045787690E+01  0.23768975774E+02  0.51100000000E-03 0. -1.
        -11    1    3    3    0    0  0.16681857248E+02  0.11819974576E+02  0.24069121317E+02  0.31580354042E+02  0.51100000000E-03 0.  1.
         12    1    3    3    0    0  0.20603490214E+01  0.10584064608E+02 -0.13287668228E+02  0.17112264276E+02  0.00000000000E+00 0. -1.
</event>
<event>
 7    1  0.1360399E-013  0.7246135E+02  0.7816164E-02  0.1226709E+00
        -11   -1    0    0    0    0  0.00000000000E+00  0.00000000000E+00  0.45593999997E+02  0.45594000000E+02  0.51100000000E-03 0.  1.
         11   -1    0    0    0    0 -0.00000000000E+00 -0.00000000000E+00 -0.45593999997E+02  0.45594000000E+02  0.51100000000E-03 0. -1.
    9900012    2    1    2    0    0 -0.13685426640E+02  0.61230718536E+01  0.11220725738E+02  0.72461345271E+02  0.69999706865E+02 0.  0.
         12    1    1    2    0    0  0.13685426640E+02 -0.61230718536E+01 -0.11220725738E+02  0.18726654729E+02  0.00000000000E+00 0. -1.
         11    1    3    3    0    0 -0.95609815808E+01 -0.17773007711E+02  0.17586037664E+02  0.26768655044E+02  0.51100000000E-03 0. -1.
        -11    1    3    3    0    0  0.15841593052E+02  0.17045830398E+02 -0.77806255896E+01  0.24536799693E+02  0.51100000000E-03 0.  1.
        -12    1    3    3    0    0 -0.19966038111E+02  0.68502491672E+01  0.14153136635E+01  0.21155890534E+02  0.00000000000E+00 0.  1.
</event>
<event>
 7    1  0.1360399E-013  0.7246197E+02  0.7816164E-02  0.1226707E+00
        -11   -1    0    0    0    0  0.00000000000E+00  0.00000000000E+00  0.45593999997E+02  0.45594000000E+02  0.51100000000E-03 0. -1.
         11   -1    0    0    0    0 -0.00000000000E+00 -0.00000000000E+00 -0.45593999997E+02  0.45594000000E+02  0.51100000000E-03 0.  1.
    9900012    2    1    2    0    0  0.46691322819E+01 -0.12135506336E+02 -0.13475637075E+02  0.72461972529E+02  0.70000523983E+02 0.  0.
         12    1    1    2    0    0 -0.46691322819E+01  0.12135506336E+02  0.13475637075E+02  0.18726027471E+02  0.00000000000E+00 0. -1.
         11    1    3    3    0    0  0.15812452196E+01  0.14106346892E+02  0.14215178171E+01  0.14265695646E+02  0.51100000000E-03 0. -1.
        -11    1    3    3    0    0  0.23136123488E+02 -0.24933639069E+02 -0.14980711102E+01  0.34047184679E+02  0.51100000000E-03 0.  1.
        -12    1    3    3    0    0 -0.20048236426E+02 -0.13082141587E+01 -0.13399083782E+02  0.24149092204E+02  0.00000000000E+00 0.  1.
</event>
<event>
 7    1  0.1360399E-013  0.7246157E+02  0.7816164E-02  0.1226708E+00
        -11   -1    0    0    0    0  0.00000000000E+00  0.00000000000E+00  0.45593999997E+02  0.45594000000E+02  0.51100000000E-03 0.  1.
         11   -1    0    0    0    0 -0.00000000000E+00 -0.00000000000E+00 -0.45593999997E+02  0.45594000000E+02  0.51100000000E-03 0. -1.
    9900012    2    1    2    0    0 -0.13525341928E+02  0.91982942208E+01 -0.91178836473E+01  0.72461566996E+02  0.69999995704E+02 0.  0.
         12    1    1    2    0    0  0.13525341928E+02 -0.91982942208E+01  0.91178836473E+01  0.18726433004E+02  0.00000000000E+00 0. -1.
         11    1    3    3    0    0  0.21617525428E+02 -0.12307735154E+02  0.53432189987E+01  0.25443029296E+02  0.51100000000E-03 0. -1.
        -11    1    3    3    0    0 -0.67024542304E+01  0.75671445072E+01 -0.11341758550E+02  0.15192763276E+02  0.51100000000E-03 0.  1.
         12    1    3    3    0    0 -0.28440413125E+02  0.13938884868E+02 -0.31193440963E+01  0.31825774424E+02  0.00000000000E+00 0. -1.
</event>
<event>
 7    1  0.1360399E-013  0.7246156E+02  0.7816164E-02  0.1226708E+00
        -11   -1    0    0    0    0  0.00000000000E+00  0.00000000000E+00  0.45593999997E+02  0.45594000000E+02  0.51100000000E-03 0.  1.
         11   -1    0    0    0    0 -0.00000000000E+00 -0.00000000000E+00 -0.45593999997E+02  0.45594000000E+02  0.51100000000E-03 0. -1.
    9900012    2    1    2    0    0 -0.32753920410E+01  0.86985779595E+01  0.16256882874E+02  0.72461556336E+02  0.69999981816E+02 0.  0.
         12    1    1    2    0    0  0.32753920410E+01 -0.86985779595E+01 -0.16256882874E+02  0.18726443664E+02  0.00000000000E+00 0. -1.
         11    1    3    3    0    0 -0.79671191145E+01 -0.26931550472E+01 -0.17877976589E+02  0.19757280134E+02  0.51100000000E-03 0. -1.
        -11    1    3    3    0    0  0.89828708212E+01  0.17985040486E+02  0.38699102701E+02  0.43609336152E+02  0.51100000000E-03 0.  1.
        -12    1    3    3    0    0 -0.42911437478E+01 -0.65933074790E+01 -0.45642432383E+01  0.90949400501E+01  0.00000000000E+00 0.  1.
</event>
<event>
 7    1  0.1360399E-013  0.7246159E+02  0.7816164E-02  0.1226708E+00
        -11   -1    0    0    0    0  0.00000000000E+00  0.00000000000E+00  0.45593999997E+02  0.45594000000E+02  0.51100000000E-03 0.  1.
         11   -1    0    0    0    0 -0.00000000000E+00 -0.00000000000E+00 -0.45593999997E+02  0.45594000000E+02  0.51100000000E-03 0. -1.
    9900012    2    1    2    0    0  0.76064298809E+01  0.16164327545E+02  0.56156233152E+01  0.72461588552E+02  0.70000023784E+02 0.  0.
         12    1    1    2    0    0 -0.76064298809E+01 -0.16164327545E+02 -0.56156233152E+01  0.18726411448E+02  0.00000000000E+00 0. -1.
         11    1    3    3    0    0  0.30746887119E+02 -0.78628779424E+01 -0.22826695446E+01  0.31818335870E+02  0.51100000000E-03 0. -1.
        -11    1    3    3    0    0  0.87032664166E+00  0.99800863889E+01  0.80076737859E+01  0.12825070468E+02  0.51100000000E-03 0.  1.
         12    1    3    3    0    0 -0.24010783879E+02  0.14047119098E+02 -0.10938092618E+00  0.27818182213E+02  0.00000000000E+00 0. -1.
</event>
<event>
 7    1  0.1360399E-013  0.7246154E+02  0.7816164E-02  0.1226708E+00
        -11   -1    0    0    0    0  0.00000000000E+00  0.00000000000E+00  0.45593999997E+02  0.45594000000E+02  0.51100000000E-03 0.  1.
         11   -1    0    0    0    0 -0.00000000000E+00 -0.00000000000E+00 -0.45593999997E+02  0.45594000000E+02  0.51100000000E-03 0. -1.
    9900012    2    1    2    0    0 -0.31265815009E+01  0.65259051777E+01  0.17271864133E+02  0.72461541688E+02  0.69999962735E+02 0.  0.
         12    1    1    2    0    0  0.31265815009E+01 -0.65259051777E+01 -0.17271864133E+02  0.18726458312E+02  0.00000000000E+00 0. -1.
         11    1    3    3    0    0 -0.65045283321E+00 -0.86952227606E+01 -0.19231850091E+02  0.21116203398E+02  0.51100000000E-03 0. -1.
        -11    1    3    3    0    0  0.10952105393E+02  0.11061246344E+02  0.42111229303E+01  0.16125549288E+02  0.51100000000E-03 0.  1.
         12    1    3    3    0    0 -0.13428234061E+02  0.41598815940E+01  0.32292591294E+02  0.35219789002E+02  0.00000000000E+00 0. -1.
</event>
<event>
 8    1  0.1360399E-013  0.7246155E+02  0.7816164E-02  0.1226708E+00
        -11   -1    0    0    0    0  0.00000000000E+00  0.00000000000E+00  0.45593999997E+02  0.45594000000E+02  0.51100000000E-03 0.  1.
         11   -1    0    0    0    0 -0.00000000000E+00 -0.00000000000E+00 -0.45593999997E+02  0.45594000000E+02  0.51100000000E-03 0. -1.
    9900012    2    1    2    0    0  0.13508346899E+02  0.10151355987E+02 -0.80718375611E+01  0.72461547428E+02  0.69999970213E+02 0.  0.
         24    2    3    3    0    0  0.14674962717E+02 -0.58121370107E+01 -0.12083172354E+02  0.55960489637E+02  0.52310972834E+02 0.  0.
         12    1    1    2    0    0 -0.13508346899E+02 -0.10151355987E+02  0.80718375611E+01  0.18726452572E+02  0.00000000000E+00 0. -1.
         11    1    3    3    0    0 -0.11666158183E+01  0.15963492998E+02  0.40113347928E+01  0.16501057791E+02  0.51100000000E-03 0. -1.
        -11    1    4    4    0    0  0.33921023159E+00 -0.25474108689E+02  0.53434024792E+01  0.26030697789E+02  0.51100000000E-03 0.  1.
         12    1    4    4    0    0  0.14335752486E+02  0.19661971679E+02 -0.17426574833E+02  0.29929791847E+02  0.00000000000E+00 0. -1.
</event>
<event>
 7    1  0.1360399E-013  0.7246160E+02  0.7816164E-02  0.1226708E+00
        -11   -1    0    0    0    0  0.00000000000E+00  0.00000000000E+00  0.45593999997E+02  0.45594000000E+02  0.51100000000E-03 0.  1.
         11   -1    0    0    0    0 -0.00000000000E+00 -0.00000000000E+00 -0.45593999997E+02  0.45594000000E+02  0.51100000000E-03 0. -1.
    9900012    2    1    2    0    0 -0.82568202498E+01 -0.16477677385E+01  0.16726861628E+02  0.72461598342E+02  0.70000036537E+02 0.  0.
         12    1    1    2    0    0  0.82568202498E+01  0.16477677385E+01 -0.16726861628E+02  0.18726401658E+02  0.00000000000E+00 0. -1.
         11    1    3    3    0    0  0.15647870703E+02 -0.18594951066E+02  0.25371428890E+02  0.35133139155E+02  0.51100000000E-03 0.  1.
        -11    1    3    3    0    0 -0.12157791628E+02  0.52377977239E+01 -0.14597711800E+02  0.19706334319E+02  0.51100000000E-03 0. -1.
        -12    1    3    3    0    0 -0.11746899325E+02  0.11709385604E+02  0.59531445372E+01  0.17622124867E+02  0.00000000000E+00 0.  1.
</event>
<event>
 7    1  0.1360399E-013  0.7246155E+02  0.7816164E-02  0.1226708E+00
        -11   -1    0    0    0    0  0.00000000000E+00  0.00000000000E+00  0.45593999997E+02  0.45594000000E+02  0.51100000000E-03 0. -1.
         11   -1    0    0    0    0 -0.00000000000E+00 -0.00000000000E+00 -0.45593999997E+02  0.45594000000E+02  0.51100000000E-03 0.  1.
    9900012    2    1    2    0    0  0.13011449269E+02 -0.28661802048E+01 -0.13159300649E+02  0.72461548264E+02  0.69999971301E+02 0.  0.
         12    1    1    2    0    0 -0.13011449269E+02  0.28661802048E+01  0.13159300649E+02  0.18726451736E+02  0.00000000000E+00 0. -1.
         11    1    3    3    0    0 -0.74140029626E+01 -0.13230402233E+02 -0.91968336156E+00  0.15193972520E+02  0.51100000000E-03 0. -1.
        -11    1    3    3    0    0  0.29737946294E+02  0.21499199729E+01  0.10291000119E+02  0.31541596177E+02  0.51100000000E-03 0.  1.
        -12    1    3    3    0    0 -0.93124940627E+01  0.82143020557E+01 -0.22530617407E+02  0.25725979567E+02  0.00000000000E+00 0.  1.
</event>
<event>
 7    1  0.1360399E-013  0.7246159E+02  0.7816164E-02  0.1226708E+00
        -11   -1    0    0    0    0  0.00000000000E+00  0.00000000000E+00  0.45593999997E+02  0.45594000000E+02  0.51100000000E-03 0.  1.
         11   -1    0    0    0    0 -0.00000000000E+00 -0.00000000000E+00 -0.45593999997E+02  0.45594000000E+02  0.51100000000E-03 0. -1.
    9900012    2    1    2    0    0  0.13878885968E+02 -0.12530124248E+02  0.10252269255E+01  0.72461586045E+02  0.70000020518E+02 0.  0.
         12    1    1    2    0    0 -0.13878885968E+02  0.12530124248E+02 -0.10252269255E+01  0.18726413955E+02  0.00000000000E+00 0. -1.
         11    1    3    3    0    0 -0.17697284503E+00  0.19359493447E+02 -0.12705348109E+02  0.23157011395E+02  0.51100000000E-03 0. -1.
        -11    1    3    3    0    0  0.94558736565E+01 -0.13580866544E+02  0.22951372695E+02  0.28295211459E+02  0.51100000000E-03 0.  1.
        -12    1    3    3    0    0  0.45999851564E+01 -0.18308751151E+02 -0.92207976607E+01  0.21009363190E+02  0.00000000000E+00 0.  1.
</event>
<event>
 8    1  0.1360399E-013  0.7246156E+02  0.7816164E-02  0.1226708E+00
        -11   -1    0    0    0    0  0.00000000000E+00  0.00000000000E+00  0.45593999997E+02  0.45594000000E+02  0.51100000000E-03 0.  1.
         11   -1    0    0    0    0 -0.00000000000E+00 -0.00000000000E+00 -0.45593999997E+02  0.45594000000E+02  0.51100000000E-03 0. -1.
    9900012    2    1    2    0    0  0.12026623157E+02  0.13112736350E+02  0.58391969663E+01  0.72461555053E+02  0.69999980146E+02 0.  0.
         24    2    3    3    0    0  0.34403183165E+00 -0.57788813644E+01  0.77641850272E+01  0.50166225066E+02  0.49222492222E+02 0.  0.
         12    1    1    2    0    0 -0.12026623157E+02 -0.13112736350E+02 -0.58391969663E+01  0.18726444947E+02  0.00000000000E+00 0. -1.
         11    1    3    3    0    0  0.11682591325E+02  0.18891617714E+02 -0.19249880609E+01  0.22295329987E+02  0.51100000000E-03 0.  1.
        -11    1    4    4    0    0 -0.10096056652E+02 -0.16627447493E+02  0.22054887112E+02  0.29407829159E+02  0.51100000000E-03 0. -1.
         12    1    4    4    0    0  0.10440088483E+02  0.10848566129E+02 -0.14290702085E+02  0.20758395908E+02  0.00000000000E+00 0. -1.
</event>
<event>
 7    1  0.1360399E-013  0.7246159E+02  0.7816164E-02  0.1226708E+00
        -11   -1    0    0    0    0  0.00000000000E+00  0.00000000000E+00  0.45593999997E+02  0.45594000000E+02  0.51100000000E-03 0.  1.
         11   -1    0    0    0    0 -0.00000000000E+00 -0.00000000000E+00 -0.45593999997E+02  0.45594000000E+02  0.51100000000E-03 0. -1.
    9900012    2    1    2    0    0 -0.14063501645E+02 -0.98131191990E+01  0.75232247936E+01  0.72461593558E+02  0.70000030305E+02 0.  0.
         12    1    1    2    0    0  0.14063501645E+02  0.98131191990E+01 -0.75232247936E+01  0.18726406442E+02  0.00000000000E+00 0. -1.
         11    1    3    3    0    0 -0.24554128849E+02 -0.15310667890E+02 -0.47481824782E+01  0.29323489422E+02  0.51100000000E-03 0. -1.
        -11    1    3    3    0    0  0.14078335141E+02  0.14933493825E+01  0.25328976998E+02  0.29017006888E+02  0.51100000000E-03 0.  1.
        -12    1    3    3    0    0 -0.35877079367E+01  0.40041993081E+01 -0.13057569726E+02  0.14121097248E+02  0.00000000000E+00 0.  1.
</event>
<event>
 7    1  0.1360399E-013  0.7246153E+02  0.7816164E-02  0.1226708E+00
        -11   -1    0    0    0    0  0.00000000000E+00  0.00000000000E+00  0.45593999997E+02  0.45594000000E+02  0.51100000000E-03 0.  1.
         11   -1    0    0    0    0 -0.00000000000E+00 -0.00000000000E+00 -0.45593999997E+02  0.45594000000E+02  0.51100000000E-03 0. -1.
    9900012    2    1    2    0    0  0.10389868877E+02  0.40929603081E+01  0.15032603300E+02  0.72461525122E+02  0.69999941155E+02 0.  0.
         12    1    1    2    0    0 -0.10389868877E+02 -0.40929603081E+01 -0.15032603300E+02  0.18726474878E+02  0.00000000000E+00 0. -1.
         11    1    3    3    0    0  0.20824672893E+02  0.54723333341E+01 -0.16389351221E+02  0.27059642771E+02  0.51100000000E-03 0. -1.
        -11    1    3    3    0    0 -0.85604113721E+01 -0.15511368258E+02  0.12374480247E+02  0.21610436130E+02  0.51100000000E-03 0.  1.
        -12    1    3    3    0    0 -0.18743926439E+01  0.14131995232E+02  0.19047474275E+02  0.23791446221E+02  0.00000000000E+00 0.  1.
</event>
<event>
 7    1  0.1360399E-013  0.7246124E+02  0.7816164E-02  0.1226709E+00
        -11   -1    0    0    0    0  0.00000000000E+00  0.00000000000E+00  0.45593999997E+02  0.45594000000E+02  0.51100000000E-03 0. -1.
         11   -1    0    0    0    0 -0.00000000000E+00 -0.00000000000E+00 -0.45593999997E+02  0.45594000000E+02  0.51100000000E-03 0.  1.
    9900012    2    1    2    0    0 -0.33596990316E+01  0.16195609144E+02 -0.87810197073E+01  0.72461237327E+02  0.69999566247E+02 0.  0.
         12    1    1    2    0    0  0.33596990316E+01 -0.16195609144E+02  0.87810197073E+01  0.18726762673E+02  0.00000000000E+00 0. -1.
         11    1    3    3    0    0  0.13711611679E+02  0.30103181878E+02 -0.19502547030E+01  0.33136284458E+02  0.51100000000E-03 0. -1.
        -11    1    3    3    0    0  0.61761382557E+01 -0.13735415382E+02 -0.55203347958E+01  0.16039963092E+02  0.51100000000E-03 0.  1.
         12    1    3    3    0    0 -0.23247448966E+02 -0.17215735253E+00 -0.13104302084E+01  0.23284989777E+02  0.00000000000E+00 0. -1.
</event>
<event>
 7    1  0.1360399E-013  0.7246161E+02  0.7816164E-02  0.1226708E+00
        -11   -1    0    0    0    0  0.00000000000E+00  0.00000000000E+00  0.45593999997E+02  0.45594000000E+02  0.51100000000E-03 0.  1.
         11   -1    0    0    0    0 -0.00000000000E+00 -0.00000000000E+00 -0.45593999997E+02  0.45594000000E+02  0.51100000000E-03 0. -1.
    9900012    2    1    2    0    0 -0.58344728805E+00  0.12214574046E+02  0.14182429910E+02  0.72461613589E+02  0.70000056399E+02 0.  0.
         12    1    1    2    0    0  0.58344728805E+00 -0.12214574046E+02 -0.14182429910E+02  0.18726386411E+02  0.00000000000E+00 0. -1.
         11    1    3    3    0    0  0.16904998145E+02  0.10643288612E+02 -0.63345045770E+01  0.20956729307E+02  0.51100000000E-03 0. -1.
        -11    1    3    3    0    0 -0.10534075607E+02 -0.20801000527E+02  0.13961957380E+02  0.27176913473E+02  0.51100000000E-03 0.  1.
         12    1    3    3    0    0 -0.69543698263E+01  0.22372285960E+02  0.65549771076E+01  0.24327970808E+02  0.00000000000E+00 0. -1.
</event>
<event>
 7    1  0.1360399E-013  0.7246158E+02  0.7816164E-02  0.1226708E+00
        -11   -1    0    0    0    0  0.00000000000E+00  0.00000000000E+00  0.45593999997E+02  0.45594000000E+02  0.51100000000E-03 0. -1.
         11   -1    0    0    0    0 -0.00000000000E+00 -0.00000000000E+00 -0.45593999997E+02  0.45594000000E+02  0.51100000000E-03 0.  1.
    9900012    2    1    2    0    0 -0.11023435739E+02  0.78753097267E+01 -0.12928350552E+02  0.72461577843E+02  0.70000009834E+02 0.  0.
         12    1    1    2    0    0  0.11023435739E+02 -0.78753097267E+01  0.12928350552E+02  0.18726422157E+02  0.00000000000E+00 0. -1.
         11    1    3    3    0    0  0.52638375762E+01  0.13462178709E+02 -0.58279977911E+01  0.15585371351E+02  0.51100000000E-03 0. -1.
        -11    1    3    3    0    0  0.11015831207E+02 -0.19235836271E+02 -0.13127352227E+02  0.25762245845E+02  0.51100000000E-03 0.  1.
        -12    1    3    3    0    0 -0.27303104523E+02  0.13648967289E+02  0.60269994662E+01  0.31113960648E+02  0.00000000000E+00 0.  1.
</event>
<event>
 7    1  0.1360399E-013  0.7246180E+02  0.7816164E-02  0.1226707E+00
        -11   -1    0    0    0    0  0.00000000000E+00  0.00000000000E+00  0.45593999997E+02  0.45594000000E+02  0.51100000000E-03 0.  1.
         11   -1    0    0    0    0 -0.00000000000E+00 -0.00000000000E+00 -0.45593999997E+02  0.45594000000E+02  0.51100000000E-03 0. -1.
    9900012    2    1    2    0    0 -0.15136218466E+02  0.10982735815E+02 -0.97212085938E+00  0.72461798719E+02  0.70000297566E+02 0.  0.
         12    1    1    2    0    0  0.15136218466E+02 -0.10982735815E+02  0.97212085938E+00  0.18726201281E+02  0.00000000000E+00 0. -1.
         11    1    3    3    0    0 -0.93430991266E+01  0.89812459156E+01  0.32099477374E+02  0.34616942780E+02  0.51100000000E-03 0.  1.
        -11    1    3    3    0    0 -0.70202271199E+01 -0.53249788911E+01 -0.26500895970E+02  0.27927342811E+02  0.51100000000E-03 0. -1.
         12    1    3    3    0    0  0.12271077801E+01  0.73264687901E+01 -0.65707022633E+01  0.99175131293E+01  0.00000000000E+00 0. -1.
</event>
<event>
 7    1  0.1360399E-013  0.7246160E+02  0.7816164E-02  0.1226708E+00
        -11   -1    0    0    0    0  0.00000000000E+00  0.00000000000E+00  0.45593999997E+02  0.45594000000E+02  0.51100000000E-03 0. -1.
         11   -1    0    0    0    0 -0.00000000000E+00 -0.00000000000E+00 -0.45593999997E+02  0.45594000000E+02  0.51100000000E-03 0.  1.
    9900012    2    1    2    0    0 -0.17997181070E+02  0.35630051774E+01 -0.37529191396E+01  0.72461603272E+02  0.70000042959E+02 0.  0.
         12    1    1    2    0    0  0.17997181070E+02 -0.35630051774E+01  0.37529191396E+01  0.18726396728E+02  0.00000000000E+00 0. -1.
         11    1    3    3    0    0  0.22829047923E+02  0.77573826005E+01  0.43905162386E+01  0.24507530414E+02  0.51100000000E-03 0. -1.
        -11    1    3    3    0    0 -0.24662421173E+02  0.75776312398E+01  0.13148117291E+01  0.25833781052E+02  0.51100000000E-03 0.  1.
         12    1    3    3    0    0 -0.16163807821E+02 -0.11772008663E+02 -0.94582471072E+01  0.22120291806E+02  0.00000000000E+00 0. -1.
</event>
<event>
 7    1  0.1360399E-013  0.7246161E+02  0.7816164E-02  0.1226708E+00
        -11   -1    0    0    0    0  0.00000000000E+00  0.00000000000E+00  0.45593999997E+02  0.45594000000E+02  0.51100000000E-03 0.  1.
         11   -1    0    0    0    0 -0.00000000000E+00 -0.00000000000E+00 -0.45593999997E+02  0.45594000000E+02  0.51100000000E-03 0. -1.
    9900012    2    1    2    0    0  0.13758988363E+02 -0.10892656166E+02 -0.65359075740E+01  0.72461606676E+02  0.70000047393E+02 0.  0.
         12    1    1    2    0    0 -0.13758988363E+02  0.10892656166E+02  0.65359075740E+01  0.18726393324E+02  0.00000000000E+00 0. -1.
         11    1    3    3    0    0  0.12499834335E+02 -0.31603635677E+02 -0.13591868187E+02  0.36602930585E+02  0.51100000000E-03 0.  1.
        -11    1    3    3    0    0  0.15583940785E+01  0.14024416604E+02 -0.10159665326E+02  0.17387686821E+02  0.51100000000E-03 0. -1.
         12    1    3    3    0    0 -0.29924004968E+00  0.66865629068E+01  0.17215625939E+02  0.18470989269E+02  0.00000000000E+00 0. -1.
</event>
<event>
 7    1  0.1360399E-013  0.7246160E+02  0.7816164E-02  0.1226708E+00
        -11   -1    0    0    0    0  0.00000000000E+00  0.00000000000E+00  0.45593999997E+02  0.45594000000E+02  0.51100000000E-03 0. -1.
         11   -1    0    0    0    0 -0.00000000000E+00 -0.00000000000E+00 -0.45593999997E+02  0.45594000000E+02  0.51100000000E-03 0.  1.
    9900012    2    1    2    0    0  0.39265677968E+01 -0.17387531959E+02 -0.57387883039E+01  0.72461604365E+02  0.70000044383E+02 0.  0.
         12    1    1    2    0    0 -0.39265677968E+01  0.17387531959E+02  0.57387883039E+01  0.18726395635E+02  0.00000000000E+00 0. -1.
         11    1    3    3    0    0  0.24965842028E+02 -0.29853619411E+02 -0.17221507464E+02  0.42557163671E+02  0.51100000000E-03 0. -1.
        -11    1    3    3    0    0 -0.19401694932E+02  0.66541650189E+01  0.51361421094E+01  0.21144352304E+02  0.51100000000E-03 0.  1.
        -12    1    3    3    0    0 -0.16375792990E+01  0.58119224334E+01  0.63465770506E+01  0.87600883895E+01  0.00000000000E+00 0.  1.
</event>
<event>
 7    1  0.1360399E-013  0.7246153E+02  0.7816164E-02  0.1226708E+00
        -11   -1    0    0    0    0  0.00000000000E+00  0.00000000000E+00  0.45593999997E+02  0.45594000000E+02  0.51100000000E-03 0.  1.
         11   -1    0    0    0    0 -0.00000000000E+00 -0.00000000000E+00 -0.45593999997E+02  0.45594000000E+02  0.51100000000E-03 0. -1.
    9900012    2    1    2    0    0  0.57795930892E+00 -0.69844523636E+01  0.17365594949E+02  0.72461534778E+02  0.69999953733E+02 0.  0.
         12    1    1    2    0    0 -0.57795930892E+00  0.69844523636E+01 -0.17365594949E+02  0.18726465222E+02  0.00000000000E+00 0. -1.
         11    1    3    3    0    0 -0.45551218507E+01  0.23339133797E+02  0.26757939660E+02  0.35797369130E+02  0.51100000000E-03 0. -1.
        -11    1    3    3    0    0  0.28323238907E+01 -0.11315980405E+02  0.50202811170E+01  0.12699476127E+02  0.51100000000E-03 0.  1.
         12    1    3    3    0    0  0.23007572689E+01 -0.19007605756E+02 -0.14412625828E+02  0.23964689521E+02  0.00000000000E+00 0. -1.
</event>
<event>
 7    1  0.1360399E-013  0.7246157E+02  0.7816164E-02  0.1226708E+00
        -11   -1    0    0    0    0  0.00000000000E+00  0.00000000000E+00  0.45593999997E+02  0.45594000000E+02  0.51100000000E-03 0. -1.
         11   -1    0    0    0    0 -0.00000000000E+00 -0.00000000000E+00 -0.45593999997E+02  0.45594000000E+02  0.51100000000E-03 0.  1.
    9900012    2    1    2    0    0  0.14410785494E+02 -0.10559317008E+02 -0.56133136588E+01  0.72461569361E+02  0.69999998785E+02 0.  0.
         12    1    1    2    0    0 -0.14410785494E+02  0.10559317008E+02  0.56133136588E+01  0.18726430639E+02  0.00000000000E+00 0. -1.
         11    1    3    3    0    0  0.24468915496E+02  0.22298696771E+02 -0.85163889635E+01  0.34183162295E+02  0.51100000000E-03 0.  1.
        -11    1    3    3    0    0 -0.34957254093E+01 -0.20797493326E+02  0.93991168032E+01  0.23088941546E+02  0.51100000000E-03 0. -1.
        -12    1    3    3    0    0 -0.65624045931E+01 -0.12060520453E+02 -0.64960414986E+01  0.15189465521E+02  0.00000000000E+00 0.  1.
</event>
<event>
 7    1  0.1360399E-013  0.7246166E+02  0.7816164E-02  0.1226708E+00
        -11   -1    0    0    0    0  0.00000000000E+00  0.00000000000E+00  0.45593999997E+02  0.45594000000E+02  0.51100000000E-03 0. -1.
         11   -1    0    0    0    0 -0.00000000000E+00 -0.00000000000E+00 -0.45593999997E+02  0.45594000000E+02  0.51100000000E-03 0.  1.
    9900012    2    1    2    0    0 -0.81661665788E+01 -0.40589371602E+01 -0.16355868976E+02  0.72461663000E+02  0.70000120766E+02 0.  0.
         12    1    1    2    0    0  0.81661665788E+01  0.40589371602E+01  0.16355868976E+02  0.18726337000E+02  0.00000000000E+00 0. -1.
         11    1    3    3    0    0 -0.10007475046E+02  0.26868462967E+02 -0.27265726065E+01  0.28801007924E+02  0.51100000000E-03 0. -1.
        -11    1    3    3    0    0  0.87797684643E+01 -0.15986652580E+02  0.48819228019E+01  0.18880957749E+02  0.51100000000E-03 0.  1.
         12    1    3    3    0    0 -0.69384599967E+01 -0.14940747547E+02 -0.18511219172E+02  0.24779697327E+02  0.00000000000E+00 0. -1.
</event>
<event>
 7    1  0.1360399E-013  0.7246156E+02  0.7816164E-02  0.1226708E+00
        -11   -1    0    0    0    0  0.00000000000E+00  0.00000000000E+00  0.45593999997E+02  0.45594000000E+02  0.51100000000E-03 0.  1.
         11   -1    0    0    0    0 -0.00000000000E+00 -0.00000000000E+00 -0.45593999997E+02  0.45594000000E+02  0.51100000000E-03 0. -1.
    9900012    2    1    2    0    0  0.45190431147E+01  0.12651254003E+02 -0.13046214905E+02  0.72461556081E+02  0.69999981484E+02 0.  0.
         12    1    1    2    0    0 -0.45190431147E+01 -0.12651254003E+02  0.13046214905E+02  0.18726443919E+02  0.00000000000E+00 0. -1.
         11    1    3    3    0    0  0.76783543646E+01 -0.29593391290E+01 -0.28876591485E+02  0.30026194395E+02  0.51100000000E-03 0. -1.
        -11    1    3    3    0    0  0.12093145012E+02  0.69897101014E+01  0.20029615684E+02  0.24418962064E+02  0.51100000000E-03 0.  1.
        -12    1    3    3    0    0 -0.15252456262E+02  0.86208830307E+01 -0.41992391046E+01  0.18016399621E+02  0.00000000000E+00 0.  1.
</event>
<event>
 7    1  0.1360399E-013  0.7246161E+02  0.7816164E-02  0.1226708E+00
        -11   -1    0    0    0    0  0.00000000000E+00  0.00000000000E+00  0.45593999997E+02  0.45594000000E+02  0.51100000000E-03 0.  1.
         11   -1    0    0    0    0 -0.00000000000E+00 -0.00000000000E+00 -0.45593999997E+02  0.45594000000E+02  0.51100000000E-03 0. -1.
    9900012    2    1    2    0    0  0.90038408970E+01  0.25583970348E+00  0.16417769559E+02  0.72461607871E+02  0.70000048951E+02 0.  0.
         12    1    1    2    0    0 -0.90038408970E+01 -0.25583970348E+00 -0.16417769559E+02  0.18726392129E+02  0.00000000000E+00 0. -1.
         11    1    3    3    0    0 -0.10509351097E+02  0.12886144709E+02  0.38344187704E+01  0.17064640444E+02  0.51100000000E-03 0. -1.
        -11    1    3    3    0    0  0.26865784901E+02  0.63099319402E+01 -0.55674067602E+01  0.28152826816E+02  0.51100000000E-03 0.  1.
        -12    1    3    3    0    0 -0.73525929075E+01 -0.18940236946E+02  0.18150757549E+02  0.27244140611E+02  0.00000000000E+00 0.  1.
</event>
<event>
 7    1  0.1360399E-013  0.7246153E+02  0.7816164E-02  0.1226708E+00
        -11   -1    0    0    0    0  0.00000000000E+00  0.00000000000E+00  0.45593999997E+02  0.45594000000E+02  0.51100000000E-03 0.  1.
         11   -1    0    0    0    0 -0.00000000000E+00 -0.00000000000E+00 -0.45593999997E+02  0.45594000000E+02  0.51100000000E-03 0. -1.
    9900012    2    1    2    0    0  0.95987260432E+01  0.13660247877E+02  0.84818997152E+01  0.72461533796E+02  0.69999952454E+02 0.  0.
         12    1    1    2    0    0 -0.95987260432E+01 -0.13660247877E+02 -0.84818997152E+01  0.18726466204E+02  0.00000000000E+00 0. -1.
         11    1    3    3    0    0  0.80689896082E+01  0.94531103286E+01 -0.10714343812E+02  0.16409358664E+02  0.51100000000E-03 0. -1.
        -11    1    3    3    0    0  0.37080913009E+01 -0.16375433446E+02  0.28720696246E+02  0.33268350646E+02  0.51100000000E-03 0.  1.
        -12    1    3    3    0    0 -0.21783548659E+01  0.20582570993E+02 -0.95244527180E+01  0.22783824486E+02  0.00000000000E+00 0.  1.
</event>
<event>
 7    1  0.1360399E-013  0.7246160E+02  0.7816164E-02  0.1226708E+00
        -11   -1    0    0    0    0  0.00000000000E+00  0.00000000000E+00  0.45593999997E+02  0.45594000000E+02  0.51100000000E-03 0.  1.
         11   -1    0    0    0    0 -0.00000000000E+00 -0.00000000000E+00 -0.45593999997E+02  0.45594000000E+02  0.51100000000E-03 0. -1.
    9900012    2    1    2    0    0  0.85179291424E+01 -0.14140712185E+02  0.88409973793E+01  0.72461599047E+02  0.70000037456E+02 0.  0.
         12    1    1    2    0    0 -0.85179291424E+01  0.14140712185E+02 -0.88409973793E+01  0.18726400953E+02  0.00000000000E+00 0. -1.
         11    1    3    3    0    0  0.30686585564E+02 -0.10344940974E+02 -0.15289721403E+01  0.32419470899E+02  0.51100000000E-03 0. -1.
        -11    1    3    3    0    0 -0.84708882102E+01  0.10149881816E+02 -0.60257641054E+01  0.14528794901E+02  0.51100000000E-03 0.  1.
         12    1    3    3    0    0 -0.13697768211E+02 -0.13945653027E+02  0.16395733625E+02  0.25513333248E+02  0.00000000000E+00 0. -1.
</event>
<event>
 7    1  0.1360399E-013  0.7246143E+02  0.7816164E-02  0.1226708E+00
        -11   -1    0    0    0    0  0.00000000000E+00  0.00000000000E+00  0.45593999997E+02  0.45594000000E+02  0.51100000000E-03 0.  1.
         11   -1    0    0    0    0 -0.00000000000E+00 -0.00000000000E+00 -0.45593999997E+02  0.45594000000E+02  0.51100000000E-03 0. -1.
    9900012    2    1    2    0    0 -0.18147306551E+02 -0.61982125068E+00  0.45798979492E+01  0.72461431210E+02  0.69999818816E+02 0.  0.
         12    1    1    2    0    0  0.18147306551E+02  0.61982125068E+00 -0.45798979492E+01  0.18726568790E+02  0.00000000000E+00 0. -1.
         11    1    3    3    0    0 -0.15831418758E+02 -0.30874579621E+02 -0.89733958279E+01  0.35838461457E+02  0.51100000000E-03 0. -1.
        -11    1    3    3    0    0 -0.62686795755E+01  0.59182709003E+01  0.70172305820E+01  0.11115925484E+02  0.51100000000E-03 0.  1.
         12    1    3    3    0    0  0.39527917825E+01  0.24336487470E+02  0.65360631951E+01  0.25507044269E+02  0.00000000000E+00 0. -1.
</event>
<event>
 7    1  0.1360399E-013  0.7246154E+02  0.7816164E-02  0.1226708E+00
        -11   -1    0    0    0    0  0.00000000000E+00  0.00000000000E+00  0.45593999997E+02  0.45594000000E+02  0.51100000000E-03 0.  1.
         11   -1    0    0    0    0 -0.00000000000E+00 -0.00000000000E+00 -0.45593999997E+02  0.45594000000E+02  0.51100000000E-03 0. -1.
    9900012    2    1    2    0    0  0.11890123815E+02 -0.48025041227E+01  0.13647024702E+02  0.72461538151E+02  0.69999958127E+02 0.  0.
         12    1    1    2    0    0 -0.11890123815E+02  0.48025041227E+01 -0.13647024702E+02  0.18726461849E+02  0.00000000000E+00 0. -1.
         11    1    3    3    0    0  0.28718411931E+01 -0.85725354152E+01 -0.20269450345E+02  0.22194288743E+02  0.51100000000E-03 0.  1.
        -11    1    3    3    0    0  0.22292964048E+01  0.19055144708E+02  0.24349114997E+02  0.30999156500E+02  0.51100000000E-03 0. -1.
        -12    1    3    3    0    0  0.67889862167E+01 -0.15285113416E+02  0.95673600497E+01  0.19268092908E+02  0.00000000000E+00 0.  1.
</event>
<event>
 7    1  0.1360399E-013  0.7246155E+02  0.7816164E-02  0.1226708E+00
        -11   -1    0    0    0    0  0.00000000000E+00  0.00000000000E+00  0.45593999997E+02  0.45594000000E+02  0.51100000000E-03 0.  1.
         11   -1    0    0    0    0 -0.00000000000E+00 -0.00000000000E+00 -0.45593999997E+02  0.45594000000E+02  0.51100000000E-03 0. -1.
    9900012    2    1    2    0    0 -0.60728627583E+01 -0.10195148901E+02  0.14486521018E+02  0.72461547736E+02  0.69999970613E+02 0.  0.
         12    1    1    2    0    0  0.60728627583E+01  0.10195148901E+02 -0.14486521018E+02  0.18726452264E+02  0.00000000000E+00 0. -1.
         11    1    3    3    0    0 -0.89199273348E+00  0.22863857443E+02 -0.10586223252E+02  0.25211500376E+02  0.51100000000E-03 0. -1.
        -11    1    3    3    0    0 -0.12509595808E+02 -0.23179861355E+02  0.10960626146E+02  0.28529480988E+02  0.51100000000E-03 0.  1.
         12    1    3    3    0    0  0.73287257830E+01 -0.98791449891E+01  0.14112118124E+02  0.18720566371E+02  0.00000000000E+00 0. -1.
</event>
<event>
 7    1  0.1360399E-013  0.7246150E+02  0.7816164E-02  0.1226708E+00
        -11   -1    0    0    0    0  0.00000000000E+00  0.00000000000E+00  0.45593999997E+02  0.45594000000E+02  0.51100000000E-03 0.  1.
         11   -1    0    0    0    0 -0.00000000000E+00 -0.00000000000E+00 -0.45593999997E+02  0.45594000000E+02  0.51100000000E-03 0. -1.
    9900012    2    1    2    0    0  0.16355291741E+02  0.82673471611E+01  0.38519301354E+01  0.72461495714E+02  0.69999902845E+02 0.  0.
         12    1    1    2    0    0 -0.16355291741E+02 -0.82673471611E+01 -0.38519301354E+01  0.18726504286E+02  0.00000000000E+00 0. -1.
         11    1    3    3    0    0  0.76885787777E+01 -0.19189475031E+02 -0.63080489204E+01  0.21613460552E+02  0.51100000000E-03 0. -1.
        -11    1    3    3    0    0 -0.11816260126E+02  0.16598943140E+02  0.17152279672E+02  0.26633618135E+02  0.51100000000E-03 0.  1.
        -12    1    3    3    0    0  0.20482973089E+02  0.10857879052E+02 -0.69923006165E+01  0.24214417028E+02  0.00000000000E+00 0.  1.
</event>
<event>
 7    1  0.1360399E-013  0.7246155E+02  0.7816164E-02  0.1226708E+00
        -11   -1    0    0    0    0  0.00000000000E+00  0.00000000000E+00  0.45593999997E+02  0.45594000000E+02  0.51100000000E-03 0. -1.
         11   -1    0    0    0    0 -0.00000000000E+00 -0.00000000000E+00 -0.45593999997E+02  0.45594000000E+02  0.51100000000E-03 0.  1.
    9900012    2    1    2    0    0  0.11236344657E+02 -0.39853277236E+01 -0.14440965347E+02  0.72461554569E+02  0.69999979515E+02 0.  0.
         12    1    1    2    0    0 -0.11236344657E+02  0.39853277236E+01  0.14440965347E+02  0.18726445431E+02  0.00000000000E+00 0. -1.
         11    1    3    3    0    0  0.13154369328E+01  0.10892370674E+02  0.17737011013E+02  0.20856070415E+02  0.51100000000E-03 0. -1.
        -11    1    3    3    0    0 -0.11356352137E+02 -0.15119640704E+02 -0.17415543200E+02  0.25707419437E+02  0.51100000000E-03 0.  1.
        -12    1    3    3    0    0  0.21277259861E+02  0.24194230643E+00 -0.14762433160E+02  0.25898064717E+02  0.00000000000E+00 0.  1.
</event>
<event>
 7    1  0.1360399E-013  0.7246135E+02  0.7816164E-02  0.1226709E+00
        -11   -1    0    0    0    0  0.00000000000E+00  0.00000000000E+00  0.45593999997E+02  0.45594000000E+02  0.51100000000E-03 0. -1.
         11   -1    0    0    0    0 -0.00000000000E+00 -0.00000000000E+00 -0.45593999997E+02  0.45594000000E+02  0.51100000000E-03 0.  1.
    9900012    2    1    2    0    0  0.39467572598E+01 -0.18055666169E+02  0.30171912162E+01  0.72461350099E+02  0.69999713154E+02 0.  0.
         12    1    1    2    0    0 -0.39467572598E+01  0.18055666169E+02 -0.30171912162E+01  0.18726649901E+02  0.00000000000E+00 0. -1.
         11    1    3    3    0    0  0.12321308708E+02  0.16565028606E+02  0.15805610122E+02  0.26000617927E+02  0.51100000000E-03 0. -1.
        -11    1    3    3    0    0 -0.14244207872E+02 -0.91288655390E+01 -0.11126222326E+02  0.20249110287E+02  0.51100000000E-03 0.  1.
         12    1    3    3    0    0  0.58696564240E+01 -0.25491829236E+02 -0.16621965805E+01  0.26211621884E+02  0.00000000000E+00 0. -1.
</event>
<event>
 7    1  0.1360399E-013  0.7246174E+02  0.7816164E-02  0.1226708E+00
        -11   -1    0    0    0    0  0.00000000000E+00  0.00000000000E+00  0.45593999997E+02  0.45594000000E+02  0.51100000000E-03 0.  1.
         11   -1    0    0    0    0 -0.00000000000E+00 -0.00000000000E+00 -0.45593999997E+02  0.45594000000E+02  0.51100000000E-03 0. -1.
    9900012    2    1    2    0    0  0.69650415630E+01 -0.13457255177E+02  0.11002882676E+02  0.72461736410E+02  0.70000216396E+02 0.  0.
         12    1    1    2    0    0 -0.69650415630E+01  0.13457255177E+02 -0.11002882676E+02  0.18726263590E+02  0.00000000000E+00 0. -1.
         11    1    3    3    0    0 -0.88210185774E+01  0.67263842613E+00  0.29183114285E+01  0.93155436261E+01  0.51100000000E-03 0. -1.
        -11    1    3    3    0    0  0.12705917027E+02  0.57273804711E+00 -0.24311104678E+02  0.27437167626E+02  0.51100000000E-03 0.  1.
        -12    1    3    3    0    0  0.30801431134E+01 -0.14702631650E+02  0.32395675926E+02  0.35709025158E+02  0.00000000000E+00 0.  1.
</event>
<event>
 7    1  0.1360399E-013  0.7246155E+02  0.7816164E-02  0.1226708E+00
        -11   -1    0    0    0    0  0.00000000000E+00  0.00000000000E+00  0.45593999997E+02  0.45594000000E+02  0.51100000000E-03 0. -1.
         11   -1    0    0    0    0 -0.00000000000E+00 -0.00000000000E+00 -0.45593999997E+02  0.45594000000E+02  0.51100000000E-03 0.  1.
    9900012    2    1    2    0    0 -0.34895560959E+01  0.71503509244E+01 -0.16952156025E+02  0.72461545077E+02  0.69999967150E+02 0.  0.
         12    1    1    2    0    0  0.34895560959E+01 -0.71503509244E+01  0.16952156025E+02  0.18726454923E+02  0.00000000000E+00 0. -1.
         11    1    3    3    0    0  0.43034399246E+01 -0.58120008962E+00 -0.79540624048E+01  0.90622567680E+01  0.51100000000E-03 0. -1.
        -11    1    3    3    0    0 -0.27986385213E+02  0.23158056991E+02 -0.10875376602E+02  0.37918427940E+02  0.51100000000E-03 0.  1.
        -12    1    3    3    0    0  0.20193389193E+02 -0.15426505977E+02  0.18772829819E+01  0.25480860369E+02  0.00000000000E+00 0.  1.
</event>
<event>
 8    1  0.1360399E-013  0.7246154E+02  0.7816164E-02  0.1226708E+00
        -11   -1    0    0    0    0  0.00000000000E+00  0.00000000000E+00  0.45593999997E+02  0.45594000000E+02  0.51100000000E-03 0.  1.
         11   -1    0    0    0    0 -0.00000000000E+00 -0.00000000000E+00 -0.45593999997E+02  0.45594000000E+02  0.51100000000E-03 0. -1.
    9900012    2    1    2    0    0  0.18065160833E+02  0.42297482330E+01  0.25375996555E+01  0.72461542298E+02  0.69999963530E+02 0.  0.
        -24    2    3    3    0    0  0.10976492964E+02 -0.64742139147E+01  0.97071115680E+01  0.57756919925E+02  0.55490854567E+02 0.  0.
         12    1    1    2    0    0 -0.18065160833E+02 -0.42297482330E+01 -0.25375996555E+01  0.18726457702E+02  0.00000000000E+00 0. -1.
         11    1    4    4    0    0 -0.11459631013E+02 -0.23496380178E+02  0.13360627679E+02  0.29358293490E+02  0.51100000000E-03 0.  1.
        -11    1    3    3    0    0  0.70886678694E+01  0.10703962148E+02 -0.71695119124E+01  0.14704622373E+02  0.51100000000E-03 0. -1.
        -12    1    4    4    0    0  0.22436123977E+02  0.17022166263E+02 -0.36535161113E+01  0.28398626435E+02  0.00000000000E+00 0.  1.
</event>
<event>
 7    1  0.1360399E-013  0.7246154E+02  0.7816164E-02  0.1226708E+00
        -11   -1    0    0    0    0  0.00000000000E+00  0.00000000000E+00  0.45593999997E+02  0.45594000000E+02  0.51100000000E-03 0.  1.
         11   -1    0    0    0    0 -0.00000000000E+00 -0.00000000000E+00 -0.45593999997E+02  0.45594000000E+02  0.51100000000E-03 0. -1.
    9900012    2    1    2    0    0 -0.11246181147E+02  0.14776669749E+02 -0.24194473077E+01  0.72461540523E+02  0.69999961218E+02 0.  0.
         12    1    1    2    0    0  0.11246181147E+02 -0.14776669749E+02  0.24194473077E+01  0.18726459477E+02  0.00000000000E+00 0. -1.
         11    1    3    3    0    0 -0.91514142794E+01 -0.58486577108E+01  0.42747134927E+01  0.11671690368E+02  0.51100000000E-03 0. -1.
        -11    1    3    3    0    0  0.86055045512E+01  0.31671183277E+02 -0.21666638929E+02  0.39326349964E+02  0.51100000000E-03 0.  1.
        -12    1    3    3    0    0 -0.10700271418E+02 -0.11045855817E+02  0.14972478129E+02  0.21463500192E+02  0.00000000000E+00 0.  1.
</event>
<event>
 7    1  0.1360399E-013  0.7246130E+02  0.7816164E-02  0.1226709E+00
        -11   -1    0    0    0    0  0.00000000000E+00  0.00000000000E+00  0.45593999997E+02  0.45594000000E+02  0.51100000000E-03 0.  1.
         11   -1    0    0    0    0 -0.00000000000E+00 -0.00000000000E+00 -0.45593999997E+02  0.45594000000E+02  0.51100000000E-03 0. -1.
    9900012    2    1    2    0    0 -0.20621336743E+01 -0.22250659788E+01  0.18479338348E+02  0.72461300886E+02  0.69999649045E+02 0.  0.
         12    1    1    2    0    0  0.20621336743E+01  0.22250659788E+01 -0.18479338348E+02  0.18726699114E+02  0.00000000000E+00 0. -1.
         11    1    3    3    0    0 -0.20439134472E+02  0.34250704759E+01 -0.85029446607E+01  0.22400656104E+02  0.51100000000E-03 0. -1.
        -11    1    3    3    0    0 -0.33796654460E+01 -0.68790185541E+01  0.27209253937E+02  0.28268118701E+02  0.51100000000E-03 0.  1.
         12    1    3    3    0    0  0.21756666243E+02  0.12288820994E+01 -0.22697092823E+00  0.21792526082E+02  0.00000000000E+00 0. -1.
</event>
<event>
 7    1  0.1360399E-013  0.7246156E+02  0.7816164E-02  0.1226708E+00
        -11   -1    0    0    0    0  0.00000000000E+00  0.00000000000E+00  0.45593999997E+02  0.45594000000E+02  0.51100000000E-03 0.  1.
         11   -1    0    0    0    0 -0.00000000000E+00 -0.00000000000E+00 -0.45593999997E+02  0.45594000000E+02  0.51100000000E-03 0. -1.
    9900012    2    1    2    0    0  0.17926980257E+02 -0.47727515874E+01  0.25541706973E+01  0.72461559687E+02  0.69999986182E+02 0.  0.
         12    1    1    2    0    0 -0.17926980257E+02  0.47727515874E+01 -0.25541706973E+01  0.18726440313E+02  0.00000000000E+00 0. -1.
         11    1    3    3    0    0 -0.11378068304E+02  0.40105680633E+01 -0.14905301055E+02  0.19175846639E+02  0.51100000000E-03 0. -1.
        -11    1    3    3    0    0  0.94508982498E+01 -0.16828424236E+02  0.24083195087E+02  0.30862851875E+02  0.51100000000E-03 0.  1.
         12    1    3    3    0    0  0.19854150311E+02  0.80451045857E+01 -0.66237233350E+01  0.22422861173E+02  0.00000000000E+00 0. -1.
</event>
<event>
 7    1  0.1360399E-013  0.7246158E+02  0.7816164E-02  0.1226708E+00
        -11   -1    0    0    0    0  0.00000000000E+00  0.00000000000E+00  0.45593999997E+02  0.45594000000E+02  0.51100000000E-03 0.  1.
         11   -1    0    0    0    0 -0.00000000000E+00 -0.00000000000E+00 -0.45593999997E+02  0.45594000000E+02  0.51100000000E-03 0. -1.
    9900012    2    1    2    0    0 -0.40318984857E+01 -0.17307640405E+02  0.59049173280E+01  0.72461583620E+02  0.70000017359E+02 0.  0.
         12    1    1    2    0    0  0.40318984857E+01  0.17307640405E+02 -0.59049173280E+01  0.18726416380E+02  0.00000000000E+00 0. -1.
         11    1    3    3    0    0  0.60250958048E+01 -0.40327419119E+02 -0.18072368675E+01  0.40815053811E+02  0.51100000000E-03 0.  1.
        -11    1    3    3    0    0 -0.38148298295E+01  0.24042753405E+02  0.66190601319E+01  0.25227343801E+02  0.51100000000E-03 0. -1.
        -12    1    3    3    0    0 -0.62421644610E+01 -0.10229746912E+01  0.10930940636E+01  0.64191860083E+01  0.00000000000E+00 0.  1.
</event>
<event>
 7    1  0.1360399E-013  0.7246153E+02  0.7816164E-02  0.1226708E+00
        -11   -1    0    0    0    0  0.00000000000E+00  0.00000000000E+00  0.45593999997E+02  0.45594000000E+02  0.51100000000E-03 0. -1.
         11   -1    0    0    0    0 -0.00000000000E+00 -0.00000000000E+00 -0.45593999997E+02  0.45594000000E+02  0.51100000000E-03 0.  1.
    9900012    2    1    2    0    0  0.85618321448E+00 -0.80866567088E+00 -0.18689397332E+02  0.72461533101E+02  0.69999951549E+02 0.  0.
         12    1    1    2    0    0 -0.85618321448E+00  0.80866567088E+00  0.18689397332E+02  0.18726466899E+02  0.00000000000E+00 0. -1.
         11    1    3    3    0    0  0.22978444503E+02  0.21845323503E+02 -0.84633039103E+01  0.32815462576E+02  0.51100000000E-03 0. -1.
        -11    1    3    3    0    0 -0.14270620884E+02 -0.21483947002E+01 -0.10228520945E+02  0.17688664766E+02  0.51100000000E-03 0.  1.
         12    1    3    3    0    0 -0.78516404046E+01 -0.20505594474E+02  0.24275234603E-02  0.21957405759E+02  0.00000000000E+00 0. -1.
</event>
<event>
 8    1  0.1360399E-013  0.7246153E+02  0.7816164E-02  0.1226708E+00
        -11   -1    0    0    0    0  0.00000000000E+00  0.00000000000E+00  0.45593999997E+02  0.45594000000E+02  0.51100000000E-03 0. -1.
         11   -1    0    0    0    0 -0.00000000000E+00 -0.00000000000E+00 -0.45593999997E+02  0.45594000000E+02  0.51100000000E-03 0.  1.
    9900012    2    1    2    0    0  0.69267591053E+00 -0.49949854128E+00 -0.18706986538E+02  0.72461530924E+02  0.69999948713E+02 0.  0.
        -24    2    3    3    0    0 -0.13652124713E+02 -0.92300090415E+01 -0.18900346981E+02  0.55667707446E+02  0.49700070021E+02 0.  0.
         12    1    1    2    0    0 -0.69267591053E+00  0.49949854128E+00  0.18706986538E+02  0.18726469076E+02  0.00000000000E+00 0. -1.
         11    1    4    4    0    0 -0.32445851747E+02 -0.49555923135E+01 -0.91806498032E+01  0.34081894340E+02  0.51100000000E-03 0.  1.
        -11    1    3    3    0    0  0.14344800623E+02  0.87305105002E+01  0.19336044354E+00  0.16793823479E+02  0.51100000000E-03 0. -1.
        -12    1    4    4    0    0  0.18793727034E+02 -0.42744167280E+01 -0.97196971782E+01  0.21585813105E+02  0.00000000000E+00 0.  1.
</event>
<event>
 7    1  0.1360399E-013  0.7246153E+02  0.7816164E-02  0.1226708E+00
        -11   -1    0    0    0    0  0.00000000000E+00  0.00000000000E+00  0.45593999997E+02  0.45594000000E+02  0.51100000000E-03 0.  1.
         11   -1    0    0    0    0 -0.00000000000E+00 -0.00000000000E+00 -0.45593999997E+02  0.45594000000E+02  0.51100000000E-03 0. -1.
    9900012    2    1    2    0    0 -0.10329854939E+02 -0.26722369681E+01  0.15389409210E+02  0.72461530249E+02  0.69999947834E+02 0.  0.
         12    1    1    2    0    0  0.10329854939E+02  0.26722369681E+01 -0.15389409210E+02  0.18726469751E+02  0.00000000000E+00 0. -1.
         11    1    3    3    0    0 -0.10159525665E+02 -0.24185968339E+02 -0.11289193517E+02  0.28559112674E+02  0.51100000000E-03 0. -1.
        -11    1    3    3    0    0 -0.13235657015E+02  0.15587932095E+02  0.17048425493E+02  0.26623580820E+02  0.51100000000E-03 0.  1.
         12    1    3    3    0    0  0.13065327741E+02  0.59257992755E+01  0.96301772341E+01  0.17278836755E+02  0.00000000000E+00 0. -1.
</event>
<event>
 7    1  0.1360399E-013  0.7246159E+02  0.7816164E-02  0.1226708E+00
        -11   -1    0    0    0    0  0.00000000000E+00  0.00000000000E+00  0.45593999997E+02  0.45594000000E+02  0.51100000000E-03 0.  1.
         11   -1    0    0    0    0 -0.00000000000E+00 -0.00000000000E+00 -0.45593999997E+02  0.45594000000E+02  0.51100000000E-03 0. -1.
    9900012    2    1    2    0    0 -0.16941216424E+02 -0.42305910610E+01  0.67657784272E+01  0.72461588908E+02  0.70000024248E+02 0.  0.
         12    1    1    2    0    0  0.16941216424E+02  0.42305910610E+01 -0.67657784272E+01  0.18726411092E+02  0.00000000000E+00 0. -1.
         11    1    3    3    0    0 -0.24775564925E+02 -0.16548318299E+02  0.22768291396E+02  0.37497607247E+02  0.51100000000E-03 0.  1.
        -11    1    3    3    0    0  0.11755339743E+02  0.16454631629E+01  0.35122298054E+01  0.12378663901E+02  0.51100000000E-03 0. -1.
         12    1    3    3    0    0 -0.39209912420E+01  0.10672264075E+02 -0.19514742774E+02  0.22585317761E+02  0.00000000000E+00 0. -1.
</event>
<event>
 7    1  0.1360399E-013  0.7246157E+02  0.7816164E-02  0.1226708E+00
        -11   -1    0    0    0    0  0.00000000000E+00  0.00000000000E+00  0.45593999997E+02  0.45594000000E+02  0.51100000000E-03 0.  1.
         11   -1    0    0    0    0 -0.00000000000E+00 -0.00000000000E+00 -0.45593999997E+02  0.45594000000E+02  0.51100000000E-03 0. -1.
    9900012    2    1    2    0    0  0.12028314223E+02  0.14352559309E+02 -0.54388060336E-01  0.72461567884E+02  0.69999996860E+02 0.  0.
         12    1    1    2    0    0 -0.12028314223E+02 -0.14352559309E+02  0.54388060336E-01  0.18726432116E+02  0.00000000000E+00 0. -1.
         11    1    3    3    0    0 -0.69779686977E+01 -0.34649392934E+01  0.21601498021E+01  0.80848066695E+01  0.51100000000E-03 0. -1.
        -11    1    3    3    0    0  0.14642045613E+02  0.49277447214E+01 -0.29828393266E+02  0.33591743225E+02  0.51100000000E-03 0.  1.
        -12    1    3    3    0    0  0.43642373070E+01  0.12889753881E+02  0.27613855403E+02  0.30785017990E+02  0.00000000000E+00 0.  1.
</event>
<event>
 7    1  0.1360399E-013  0.7246157E+02  0.7816164E-02  0.1226708E+00
        -11   -1    0    0    0    0  0.00000000000E+00  0.00000000000E+00  0.45593999997E+02  0.45594000000E+02  0.51100000000E-03 0. -1.
         11   -1    0    0    0    0 -0.00000000000E+00 -0.00000000000E+00 -0.45593999997E+02  0.45594000000E+02  0.51100000000E-03 0.  1.
    9900012    2    1    2    0    0  0.60819343896E+01  0.17588261375E+02  0.20838083034E+01  0.72461571586E+02  0.70000001682E+02 0.  0.
         12    1    1    2    0    0 -0.60819343896E+01 -0.17588261375E+02 -0.20838083034E+01  0.18726428414E+02  0.00000000000E+00 0. -1.
         11    1    3    3    0    0  0.25799055724E+02 -0.40134491997E+01  0.10757612948E+02  0.28238719647E+02  0.51100000000E-03 0.  1.
        -11    1    3    3    0    0 -0.15079105777E+02  0.13187299654E+02  0.10617075659E+02  0.22671713631E+02  0.51100000000E-03 0. -1.
        -12    1    3    3    0    0 -0.46380155575E+01  0.84144109209E+01 -0.19290880303E+02  0.21551138307E+02  0.00000000000E+00 0.  1.
</event>
<event>
 7    1  0.1360399E-013  0.7246157E+02  0.7816164E-02  0.1226708E+00
        -11   -1    0    0    0    0  0.00000000000E+00  0.00000000000E+00  0.45593999997E+02  0.45594000000E+02  0.51100000000E-03 0.  1.
         11   -1    0    0    0    0 -0.00000000000E+00 -0.00000000000E+00 -0.45593999997E+02  0.45594000000E+02  0.51100000000E-03 0. -1.
    9900012    2    1    2    0    0  0.17316686030E+02  0.67320337883E+01 -0.23433709810E+01  0.72461567303E+02  0.69999996103E+02 0.  0.
         12    1    1    2    0    0 -0.17316686030E+02 -0.67320337883E+01  0.23433709810E+01  0.18726432697E+02  0.00000000000E+00 0. -1.
         11    1    3    3    0    0 -0.85525858573E+01 -0.15913980046E+02 -0.65754505139E+01  0.19225972939E+02  0.51100000000E-03 0. -1.
        -11    1    3    3    0    0  0.17917230560E+02  0.17349782034E+02 -0.16843410585E+02  0.30095557280E+02  0.51100000000E-03 0.  1.
        -12    1    3    3    0    0  0.79520413277E+01  0.52962317996E+01  0.21075490118E+02  0.23140037084E+02  0.00000000000E+00 0.  1.
</event>
<event>
 7    1  0.1360399E-013  0.7246162E+02  0.7816164E-02  0.1226708E+00
        -11   -1    0    0    0    0  0.00000000000E+00  0.00000000000E+00  0.45593999997E+02  0.45594000000E+02  0.51100000000E-03 0.  1.
         11   -1    0    0    0    0 -0.00000000000E+00 -0.00000000000E+00 -0.45593999997E+02  0.45594000000E+02  0.51100000000E-03 0. -1.
    9900012    2    1    2    0    0  0.49849989792E+01 -0.47783822588E+01  0.17406731675E+02  0.72461615954E+02  0.70000059480E+02 0.  0.
         12    1    1    2    0    0 -0.49849989792E+01  0.47783822588E+01 -0.17406731675E+02  0.18726384046E+02  0.00000000000E+00 0. -1.
         11    1    3    3    0    0 -0.47757223523E+01 -0.71220813496E+01 -0.22253790469E+02  0.23848747498E+02  0.51100000000E-03 0. -1.
        -11    1    3    3    0    0  0.16707225320E+02 -0.17250673483E+01  0.36088451848E+02  0.39805572378E+02  0.51100000000E-03 0.  1.
         12    1    3    3    0    0 -0.69465039888E+01  0.40687664392E+01  0.35720702961E+01  0.88072960779E+01  0.00000000000E+00 0. -1.
</event>
<event>
 8    1  0.1360399E-013  0.7246170E+02  0.7816164E-02  0.1226708E+00
        -11   -1    0    0    0    0  0.00000000000E+00  0.00000000000E+00  0.45593999997E+02  0.45594000000E+02  0.51100000000E-03 0.  1.
         11   -1    0    0    0    0 -0.00000000000E+00 -0.00000000000E+00 -0.45593999997E+02  0.45594000000E+02  0.51100000000E-03 0. -1.
    9900012    2    1    2    0    0 -0.14331153998E+02 -0.83090877348E+01 -0.87322115901E+01  0.72461696757E+02  0.70000164741E+02 0.  0.
        -24    2    3    3    0    0 -0.18436660946E+02 -0.17527703034E+02  0.47091198259E+01  0.55653738944E+02  0.49275064773E+02 0.  0.
         12    1    1    2    0    0  0.14331153998E+02  0.83090877348E+01  0.87322115901E+01  0.18726303243E+02  0.00000000000E+00 0. -1.
         11    1    4    4    0    0 -0.21617692735E+02 -0.30597601867E+02  0.13229262663E+02  0.39730986271E+02  0.51100000000E-03 0.  1.
        -11    1    3    3    0    0  0.41055069483E+01  0.92186152995E+01 -0.13441331416E+02  0.16807957813E+02  0.51100000000E-03 0. -1.
        -12    1    4    4    0    0  0.31810317884E+01  0.13069898833E+02 -0.85201428370E+01  0.15922752673E+02  0.00000000000E+00 0.  1.
</event>
<event>
 7    1  0.1360399E-013  0.7246159E+02  0.7816164E-02  0.1226708E+00
        -11   -1    0    0    0    0  0.00000000000E+00  0.00000000000E+00  0.45593999997E+02  0.45594000000E+02  0.51100000000E-03 0. -1.
         11   -1    0    0    0    0 -0.00000000000E+00 -0.00000000000E+00 -0.45593999997E+02  0.45594000000E+02  0.51100000000E-03 0.  1.
    9900012    2    1    2    0    0  0.10202624811E+02 -0.14514193291E+00 -0.15702349470E+02  0.72461590892E+02  0.70000026832E+02 0.  0.
         12    1    1    2    0    0 -0.10202624811E+02  0.14514193291E+00  0.15702349470E+02  0.18726409108E+02  0.00000000000E+00 0. -1.
         11    1    3    3    0    0 -0.16061803366E+02  0.26860780875E+01 -0.27115143168E+02  0.31629535756E+02  0.51100000000E-03 0. -1.
        -11    1    3    3    0    0  0.39973424009E+01 -0.13726963119E+02  0.26612953767E+01  0.14542721756E+02  0.51100000000E-03 0.  1.
         12    1    3    3    0    0  0.22267085776E+02  0.10895743098E+02  0.87514983215E+01  0.26289333379E+02  0.00000000000E+00 0. -1.
</event>
<event>
 7    1  0.1360399E-013  0.7246157E+02  0.7816164E-02  0.1226708E+00
        -11   -1    0    0    0    0  0.00000000000E+00  0.00000000000E+00  0.45593999997E+02  0.45594000000E+02  0.51100000000E-03 0.  1.
         11   -1    0    0    0    0 -0.00000000000E+00 -0.00000000000E+00 -0.45593999997E+02  0.45594000000E+02  0.51100000000E-03 0. -1.
    9900012    2    1    2    0    0  0.15818954937E+02  0.45328258752E+01  0.89383175478E+01  0.72461565040E+02  0.69999993156E+02 0.  0.
         12    1    1    2    0    0 -0.15818954937E+02 -0.45328258752E+01 -0.89383175478E+01  0.18726434960E+02  0.00000000000E+00 0. -1.
         11    1    3    3    0    0 -0.67593311782E+01 -0.56604022307E+01 -0.10445589970E+02  0.13668908569E+02  0.51100000000E-03 0.  1.
        -11    1    3    3    0    0  0.30074851330E+02 -0.69701465107E+01 -0.12870172929E+01  0.30898803191E+02  0.51100000000E-03 0. -1.
        -12    1    3    3    0    0 -0.74965652146E+01  0.17163374617E+02  0.20670924811E+02  0.27893853280E+02  0.00000000000E+00 0.  1.
</event>
<event>
 7    1  0.1360399E-013  0.7246186E+02  0.7816164E-02  0.1226707E+00
        -11   -1    0    0    0    0  0.00000000000E+00  0.00000000000E+00  0.45593999997E+02  0.45594000000E+02  0.51100000000E-03 0. -1.
         11   -1    0    0    0    0 -0.00000000000E+00 -0.00000000000E+00 -0.45593999997E+02  0.45594000000E+02  0.51100000000E-03 0.  1.
    9900012    2    1    2    0    0  0.98290347776E+01 -0.46571023414E+01 -0.15243681454E+02  0.72461859150E+02  0.70000376287E+02 0.  0.
         12    1    1    2    0    0 -0.98290347776E+01  0.46571023414E+01  0.15243681454E+02  0.18726140850E+02  0.00000000000E+00 0. -1.
         11    1    3    3    0    0 -0.15892998683E+02  0.89443528564E+01 -0.65911958338E+01  0.19391563061E+02  0.51100000000E-03 0.  1.
        -11    1    3    3    0    0  0.25621450508E+02 -0.62408542855E+01 -0.24248359204E+02  0.35824431785E+02  0.51100000000E-03 0. -1.
         12    1    3    3    0    0  0.10058295332E+00 -0.73606009124E+01  0.15595873585E+02  0.17245864304E+02  0.00000000000E+00 0. -1.
</event>
<event>
 7    1  0.1360399E-013  0.7246153E+02  0.7816164E-02  0.1226708E+00
        -11   -1    0    0    0    0  0.00000000000E+00  0.00000000000E+00  0.45593999997E+02  0.45594000000E+02  0.51100000000E-03 0.  1.
         11   -1    0    0    0    0 -0.00000000000E+00 -0.00000000000E+00 -0.45593999997E+02  0.45594000000E+02  0.51100000000E-03 0. -1.
    9900012    2    1    2    0    0 -0.37417337476E+01 -0.15872197650E+02  0.92061536925E+01  0.72461534890E+02  0.69999953880E+02 0.  0.
         12    1    1    2    0    0  0.37417337476E+01  0.15872197650E+02 -0.92061536925E+01  0.18726465110E+02  0.00000000000E+00 0. -1.
         11    1    3    3    0    0 -0.19153083297E+02  0.42645119622E+01  0.10983412398E+02  0.22486929764E+02  0.51100000000E-03 0. -1.
        -11    1    3    3    0    0  0.94632613881E+01 -0.33738837257E+02 -0.23326583370E+01  0.35118424662E+02  0.51100000000E-03 0.  1.
        -12    1    3    3    0    0  0.59480881614E+01  0.13602127645E+02  0.55539963184E+00  0.14856180464E+02  0.00000000000E+00 0.  1.
</event>
<event>
 7    1  0.1360399E-013  0.7246159E+02  0.7816164E-02  0.1226708E+00
        -11   -1    0    0    0    0  0.00000000000E+00  0.00000000000E+00  0.45593999997E+02  0.45594000000E+02  0.51100000000E-03 0.  1.
         11   -1    0    0    0    0 -0.00000000000E+00 -0.00000000000E+00 -0.45593999997E+02  0.45594000000E+02  0.51100000000E-03 0. -1.
    9900012    2    1    2    0    0 -0.41109558924E+00 -0.17863429422E+02  0.56042400675E+01  0.72461585046E+02  0.70000019216E+02 0.  0.
         12    1    1    2    0    0  0.41109558924E+00  0.17863429422E+02 -0.56042400675E+01  0.18726414954E+02  0.00000000000E+00 0. -1.
         11    1    3    3    0    0 -0.23074850033E-01 -0.15323177579E+02 -0.70931743236E+01  0.16885302065E+02  0.51100000000E-03 0. -1.
        -11    1    3    3    0    0  0.26259732806E+02  0.42383846124E+01  0.56993390874E+01  0.27203307473E+02  0.51100000000E-03 0.  1.
        -12    1    3    3    0    0 -0.26647753545E+02 -0.67786364554E+01  0.69980753038E+01  0.28372975508E+02  0.00000000000E+00 0.  1.
</event>
<event>
 7    1  0.1360399E-013  0.7246157E+02  0.7816164E-02  0.1226708E+00
        -11   -1    0    0    0    0  0.00000000000E+00  0.00000000000E+00  0.45593999997E+02  0.45594000000E+02  0.51100000000E-03 0. -1.
         11   -1    0    0    0    0 -0.00000000000E+00 -0.00000000000E+00 -0.45593999997E+02  0.45594000000E+02  0.51100000000E-03 0.  1.
    9900012    2    1    2    0    0  0.16199629514E+02 -0.62385863212E+01 -0.70236069681E+01  0.72461574540E+02  0.70000005531E+02 0.  0.
         12    1    1    2    0    0 -0.16199629514E+02  0.62385863212E+01  0.70236069681E+01  0.18726425460E+02  0.00000000000E+00 0. -1.
         11    1    3    3    0    0 -0.54504877418E+01 -0.15374213064E+02  0.14923090067E+02  0.22108208009E+02  0.51100000000E-03 0. -1.
        -11    1    3    3    0    0  0.28882526697E+02  0.92949661647E+01 -0.27720374947E+02  0.41097639006E+02  0.51100000000E-03 0.  1.
        -12    1    3    3    0    0 -0.72324094412E+01 -0.15933942146E+00  0.57736779124E+01  0.92557275247E+01  0.00000000000E+00 0.  1.
</event>
<event>
 7    1  0.1360399E-013  0.7246159E+02  0.7816164E-02  0.1226708E+00
        -11   -1    0    0    0    0  0.00000000000E+00  0.00000000000E+00  0.45593999997E+02  0.45594000000E+02  0.51100000000E-03 0.  1.
         11   -1    0    0    0    0 -0.00000000000E+00 -0.00000000000E+00 -0.45593999997E+02  0.45594000000E+02  0.51100000000E-03 0. -1.
    9900012    2    1    2    0    0  0.26297561867E+01 -0.15356201121E+02  0.10389894581E+02  0.72461589776E+02  0.70000025379E+02 0.  0.
         12    1    1    2    0    0 -0.26297561867E+01  0.15356201121E+02 -0.10389894581E+02  0.18726410224E+02  0.00000000000E+00 0. -1.
         11    1    3    3    0    0  0.12592575917E+02 -0.38137339920E+02  0.14744674124E+02  0.42783584231E+02  0.51100000000E-03 0. -1.
        -11    1    3    3    0    0 -0.79376766727E+01  0.20806399844E+02  0.23580275618E+01  0.22393599078E+02  0.51100000000E-03 0.  1.
         12    1    3    3    0    0 -0.20251430578E+01  0.19747389545E+01 -0.67128071051E+01  0.72844064667E+01  0.00000000000E+00 0. -1.
</event>
<event>
 7    1  0.1360399E-013  0.7246154E+02  0.7816164E-02  0.1226708E+00
        -11   -1    0    0    0    0  0.00000000000E+00  0.00000000000E+00  0.45593999997E+02  0.45594000000E+02  0.51100000000E-03 0. -1.
         11   -1    0    0    0    0 -0.00000000000E+00 -0.00000000000E+00 -0.45593999997E+02  0.45594000000E+02  0.51100000000E-03 0.  1.
    9900012    2    1    2    0    0 -0.21400863292E+01 -0.13502569724E+01 -0.18554706191E+02  0.72461540504E+02  0.69999961193E+02 0.  0.
         12    1    1    2    0    0  0.21400863292E+01  0.13502569724E+01  0.18554706191E+02  0.18726459496E+02  0.00000000000E+00 0. -1.
         11    1    3    3    0    0 -0.27623781052E+02 -0.72782132903E+01 -0.27136313722E+02  0.39400827288E+02  0.51100000000E-03 0.  1.
        -11    1    3    3    0    0  0.27961855261E+02  0.60260361498E+01  0.55386919401E+01  0.29135126051E+02  0.51100000000E-03 0. -1.
         12    1    3    3    0    0 -0.24781605379E+01 -0.98079831932E-01  0.30429155903E+01  0.39255871656E+01  0.00000000000E+00 0. -1.
</event>
<event>
 7    1  0.1360399E-013  0.7246181E+02  0.7816164E-02  0.1226707E+00
        -11   -1    0    0    0    0  0.00000000000E+00  0.00000000000E+00  0.45593999997E+02  0.45594000000E+02  0.51100000000E-03 0. -1.
         11   -1    0    0    0    0 -0.00000000000E+00 -0.00000000000E+00 -0.45593999997E+02  0.45594000000E+02  0.51100000000E-03 0.  1.
    9900012    2    1    2    0    0 -0.13774440973E+02 -0.52173226923E+01  0.11563498912E+02  0.72461810123E+02  0.70000312421E+02 0.  0.
         12    1    1    2    0    0  0.13774440973E+02  0.52173226923E+01 -0.11563498912E+02  0.18726189877E+02  0.00000000000E+00 0. -1.
         11    1    3    3    0    0 -0.22639018995E+01 -0.20650595407E+02  0.24176607430E+02  0.31876020604E+02  0.51100000000E-03 0. -1.
        -11    1    3    3    0    0 -0.20287325166E+02  0.32004713858E+01 -0.14877785496E+02  0.25360738968E+02  0.51100000000E-03 0.  1.
         12    1    3    3    0    0  0.87767860928E+01  0.12232801329E+02  0.22646769786E+01  0.15225050551E+02  0.00000000000E+00 0. -1.
</event>
<event>
 7    1  0.1360399E-013  0.7246156E+02  0.7816164E-02  0.1226708E+00
        -11   -1    0    0    0    0  0.00000000000E+00  0.00000000000E+00  0.45593999997E+02  0.45594000000E+02  0.51100000000E-03 0.  1.
         11   -1    0    0    0    0 -0.00000000000E+00 -0.00000000000E+00 -0.45593999997E+02  0.45594000000E+02  0.51100000000E-03 0. -1.
    9900012    2    1    2    0    0  0.14556386385E+01  0.14492052570E+02  0.11770342506E+02  0.72461563226E+02  0.69999990793E+02 0.  0.
         12    1    1    2    0    0 -0.14556386385E+01 -0.14492052570E+02 -0.11770342506E+02  0.18726436774E+02  0.00000000000E+00 0. -1.
         11    1    3    3    0    0 -0.12576410711E+02 -0.15884644400E+02 -0.59888582508E+01  0.21127102440E+02  0.51100000000E-03 0. -1.
        -11    1    3    3    0    0  0.23310934123E+01  0.18277984715E+02  0.26572014974E+02  0.32335594965E+02  0.51100000000E-03 0.  1.
        -12    1    3    3    0    0  0.11700955937E+02  0.12098712255E+02 -0.88128142171E+01  0.18998865821E+02  0.00000000000E+00 0.  1.
</event>
<event>
 7    1  0.1360399E-013  0.7246155E+02  0.7816164E-02  0.1226708E+00
        -11   -1    0    0    0    0  0.00000000000E+00  0.00000000000E+00  0.45593999997E+02  0.45594000000E+02  0.51100000000E-03 0.  1.
         11   -1    0    0    0    0 -0.00000000000E+00 -0.00000000000E+00 -0.45593999997E+02  0.45594000000E+02  0.51100000000E-03 0. -1.
    9900012    2    1    2    0    0  0.43155247168E+01  0.10886853848E+02  0.14612757100E+02  0.72461547844E+02  0.69999970755E+02 0.  0.
         12    1    1    2    0    0 -0.43155247168E+01 -0.10886853848E+02 -0.14612757100E+02  0.18726452156E+02  0.00000000000E+00 0. -1.
         11    1    3    3    0    0  0.56682442095E+01  0.95420899829E+00 -0.25891654519E+02  0.26522015029E+02  0.51100000000E-03 0. -1.
        -11    1    3    3    0    0 -0.23761507387E+01 -0.52597776997E+01  0.65677777840E+01  0.87434008866E+01  0.51100000000E-03 0.  1.
         12    1    3    3    0    0  0.10234312460E+01  0.15192422549E+02  0.33936633834E+02  0.37196131928E+02  0.00000000000E+00 0. -1.
</event>
<event>
 7    1  0.1360399E-013  0.7246165E+02  0.7816164E-02  0.1226708E+00
        -11   -1    0    0    0    0  0.00000000000E+00  0.00000000000E+00  0.45593999997E+02  0.45594000000E+02  0.51100000000E-03 0.  1.
         11   -1    0    0    0    0 -0.00000000000E+00 -0.00000000000E+00 -0.45593999997E+02  0.45594000000E+02  0.51100000000E-03 0. -1.
    9900012    2    1    2    0    0 -0.13646294360E+02 -0.81291711640E+01  0.99182451791E+01  0.72461645283E+02  0.70000097686E+02 0.  0.
         12    1    1    2    0    0  0.13646294360E+02  0.81291711640E+01 -0.99182451791E+01  0.18726354717E+02  0.00000000000E+00 0. -1.
         11    1    3    3    0    0  0.11620743363E+02  0.36649354290E+01 -0.15197501614E+02  0.19479155105E+02  0.51100000000E-03 0. -1.
        -11    1    3    3    0    0  0.43810409655E+00  0.35023135226E+01  0.22700233542E+02  0.22973000203E+02  0.51100000000E-03 0.  1.
         12    1    3    3    0    0 -0.25705141819E+02 -0.15296420116E+02  0.24155132515E+01  0.30009489975E+02  0.00000000000E+00 0. -1.
</event>
<event>
 7    1  0.1360399E-013  0.7246163E+02  0.7816164E-02  0.1226708E+00
        -11   -1    0    0    0    0  0.00000000000E+00  0.00000000000E+00  0.45593999997E+02  0.45594000000E+02  0.51100000000E-03 0. -1.
         11   -1    0    0    0    0 -0.00000000000E+00 -0.00000000000E+00 -0.45593999997E+02  0.45594000000E+02  0.51100000000E-03 0.  1.
    9900012    2    1    2    0    0  0.76228955104E+00 -0.26312543792E+01 -0.18524906509E+02  0.72461635000E+02  0.70000084291E+02 0.  0.
         12    1    1    2    0    0 -0.76228955104E+00  0.26312543792E+01  0.18524906509E+02  0.18726365000E+02  0.00000000000E+00 0. -1.
         11    1    3    3    0    0 -0.77698353400E+01  0.24346027278E+01  0.18334994328E+02  0.20061646217E+02  0.51100000000E-03 0. -1.
        -11    1    3    3    0    0 -0.10970057153E+01  0.57720773367E+01 -0.37432763368E+02  0.37891055303E+02  0.51100000000E-03 0.  1.
        -12    1    3    3    0    0  0.96291306064E+01 -0.10837934444E+02  0.57286253132E+00  0.14508933480E+02  0.00000000000E+00 0.  1.
</event>
<event>
 7    1  0.1360399E-013  0.7246179E+02  0.7816164E-02  0.1226707E+00
        -11   -1    0    0    0    0  0.00000000000E+00  0.00000000000E+00  0.45593999997E+02  0.45594000000E+02  0.51100000000E-03 0.  1.
         11   -1    0    0    0    0 -0.00000000000E+00 -0.00000000000E+00 -0.45593999997E+02  0.45594000000E+02  0.51100000000E-03 0. -1.
    9900012    2    1    2    0    0 -0.11296236122E+02 -0.64779901587E+01  0.13457407269E+02  0.72461785289E+02  0.70000280069E+02 0.  0.
         12    1    1    2    0    0  0.11296236122E+02  0.64779901587E+01 -0.13457407269E+02  0.18726214711E+02  0.00000000000E+00 0. -1.
         11    1    3    3    0    0 -0.19109813551E+02 -0.43161853679E+01 -0.37244153050E+01  0.19942058562E+02  0.51100000000E-03 0.  1.
        -11    1    3    3    0    0  0.14425202844E+02  0.20116290254E+02  0.21580678975E+01  0.24847713536E+02  0.51100000000E-03 0. -1.
        -12    1    3    3    0    0 -0.66116254155E+01 -0.22278095044E+02  0.15023754676E+02  0.27672013190E+02  0.00000000000E+00 0.  1.
</event>
<event>
 7    1  0.1360399E-013  0.7246157E+02  0.7816164E-02  0.1226708E+00
        -11   -1    0    0    0    0  0.00000000000E+00  0.00000000000E+00  0.45593999997E+02  0.45594000000E+02  0.51100000000E-03 0.  1.
         11   -1    0    0    0    0 -0.00000000000E+00 -0.00000000000E+00 -0.45593999997E+02  0.45594000000E+02  0.51100000000E-03 0. -1.
    9900012    2    1    2    0    0 -0.19823394951E+01  0.15711658577E+02  0.99946542605E+01  0.72461574850E+02  0.70000005935E+02 0.  0.
         12    1    1    2    0    0  0.19823394951E+01 -0.15711658577E+02 -0.99946542605E+01  0.18726425150E+02  0.00000000000E+00 0. -1.
         11    1    3    3    0    0  0.14731631252E+02 -0.64924931301E+01  0.18290270282E+01  0.16202430883E+02  0.51100000000E-03 0. -1.
        -11    1    3    3    0    0 -0.27591628727E+02  0.58591433991E+01  0.18831505489E+02  0.33915382003E+02  0.51100000000E-03 0.  1.
         12    1    3    3    0    0  0.10877657981E+02  0.16345008308E+02 -0.10665878257E+02  0.22343761964E+02  0.00000000000E+00 0. -1.
</event>
<event>
 7    1  0.1360399E-013  0.7246156E+02  0.7816164E-02  0.1226708E+00
        -11   -1    0    0    0    0  0.00000000000E+00  0.00000000000E+00  0.45593999997E+02  0.45594000000E+02  0.51100000000E-03 0.  1.
         11   -1    0    0    0    0 -0.00000000000E+00 -0.00000000000E+00 -0.45593999997E+02  0.45594000000E+02  0.51100000000E-03 0. -1.
    9900012    2    1    2    0    0 -0.58909438346E+00  0.30718158424E+01  0.18463386869E+02  0.72461555078E+02  0.69999980177E+02 0.  0.
         12    1    1    2    0    0  0.58909438346E+00 -0.30718158424E+01 -0.18463386869E+02  0.18726444922E+02  0.00000000000E+00 0. -1.
         11    1    3    3    0    0  0.91811174043E+01 -0.33730781195E+01 -0.16799070039E+02  0.19439118479E+02  0.51100000000E-03 0. -1.
        -11    1    3    3    0    0 -0.17195163082E+02 -0.97465074248E+01  0.26803998307E+02  0.33303488795E+02  0.51100000000E-03 0.  1.
         12    1    3    3    0    0  0.74249512941E+01  0.16191401387E+02  0.84584586011E+01  0.19718947804E+02  0.00000000000E+00 0. -1.
</event>
<event>
 7    1  0.1360399E-013  0.7246153E+02  0.7816164E-02  0.1226708E+00
        -11   -1    0    0    0    0  0.00000000000E+00  0.00000000000E+00  0.45593999997E+02  0.45594000000E+02  0.51100000000E-03 0.  1.
         11   -1    0    0    0    0 -0.00000000000E+00 -0.00000000000E+00 -0.45593999997E+02  0.45594000000E+02  0.51100000000E-03 0. -1.
    9900012    2    1    2    0    0  0.15378184025E+02  0.10484357571E+02  0.20664606526E+01  0.72461533243E+02  0.69999951734E+02 0.  0.
         12    1    1    2    0    0 -0.15378184025E+02 -0.10484357571E+02 -0.20664606526E+01  0.18726466757E+02  0.00000000000E+00 0. -1.
         11    1    3    3    0    0 -0.19499230797E+02 -0.16389553540E+02 -0.22548743492E+01  0.25571897183E+02  0.51100000000E-03 0. -1.
        -11    1    3    3    0    0  0.16922408209E+02  0.11590826738E+02  0.97244648666E+01  0.22699788132E+02  0.51100000000E-03 0.  1.
         12    1    3    3    0    0  0.17955006613E+02  0.15283084373E+02 -0.54031298648E+01  0.24189847928E+02  0.00000000000E+00 0. -1.
</event>
<event>
 7    1  0.1360399E-013  0.7246159E+02  0.7816164E-02  0.1226708E+00
        -11   -1    0    0    0    0  0.00000000000E+00  0.00000000000E+00  0.45593999997E+02  0.45594000000E+02  0.51100000000E-03 0.  1.
         11   -1    0    0    0    0 -0.00000000000E+00 -0.00000000000E+00 -0.45593999997E+02  0.45594000000E+02  0.51100000000E-03 0. -1.
    9900012    2    1    2    0    0 -0.10842996318E+02 -0.92492949528E+01  0.12147363590E+02  0.72461589013E+02  0.70000024384E+02 0.  0.
         12    1    1    2    0    0  0.10842996318E+02  0.92492949528E+01 -0.12147363590E+02  0.18726410987E+02  0.00000000000E+00 0. -1.
         11    1    3    3    0    0  0.18009129624E+02 -0.51181074655E+01 -0.11154898820E+02  0.21793474753E+02  0.51100000000E-03 0. -1.
        -11    1    3    3    0    0 -0.17512279019E+01 -0.46688227580E+01  0.23026760363E+02  0.23560483827E+02  0.51100000000E-03 0.  1.
         12    1    3    3    0    0 -0.27100898041E+02  0.53763527066E+00  0.27550204737E+00  0.27107630432E+02  0.00000000000E+00 0. -1.
</event>
<event>
 7    1  0.1360399E-013  0.7246144E+02  0.7816164E-02  0.1226708E+00
        -11   -1    0    0    0    0  0.00000000000E+00  0.00000000000E+00  0.45593999997E+02  0.45594000000E+02  0.51100000000E-03 0. -1.
         11   -1    0    0    0    0 -0.00000000000E+00 -0.00000000000E+00 -0.45593999997E+02  0.45594000000E+02  0.51100000000E-03 0.  1.
    9900012    2    1    2    0    0 -0.18356269224E+02 -0.99787083355E+00  0.35686931638E+01  0.72461443004E+02  0.69999834181E+02 0.  0.
         12    1    1    2    0    0  0.18356269224E+02  0.99787083355E+00 -0.35686931638E+01  0.18726556996E+02  0.00000000000E+00 0. -1.
         11    1    3    3    0    0  0.48554382766E+01  0.11609272281E+01 -0.22593769618E+02  0.23138743671E+02  0.51100000000E-03 0. -1.
        -11    1    3    3    0    0 -0.97341048009E+01 -0.17123885093E+02  0.54591822480E+01  0.20439738453E+02  0.51100000000E-03 0.  1.
         12    1    3    3    0    0 -0.13477602699E+02  0.14965087031E+02  0.20703280534E+02  0.28882960880E+02  0.00000000000E+00 0. -1.
</event>
<event>
 7    1  0.1360399E-013  0.7246157E+02  0.7816164E-02  0.1226708E+00
        -11   -1    0    0    0    0  0.00000000000E+00  0.00000000000E+00  0.45593999997E+02  0.45594000000E+02  0.51100000000E-03 0.  1.
         11   -1    0    0    0    0 -0.00000000000E+00 -0.00000000000E+00 -0.45593999997E+02  0.45594000000E+02  0.51100000000E-03 0. -1.
    9900012    2    1    2    0    0 -0.79478030656E+01 -0.16000117245E+02  0.56131782621E+01  0.72461572267E+02  0.70000002570E+02 0.  0.
         12    1    1    2    0    0  0.79478030656E+01  0.16000117245E+02 -0.56131782621E+01  0.18726427733E+02  0.00000000000E+00 0. -1.
         11    1    3    3    0    0  0.96554339074E+01  0.12734588649E+02  0.12223132485E+01  0.16027825865E+02  0.51100000000E-03 0. -1.
        -11    1    3    3    0    0 -0.12991667583E+02 -0.39194783650E+02 -0.50609182068E+01  0.41600809912E+02  0.51100000000E-03 0.  1.
         12    1    3    3    0    0 -0.46115693900E+01  0.10460077756E+02  0.94517832204E+01  0.14832936491E+02  0.00000000000E+00 0. -1.
</event>
<event>
 7    1  0.1360399E-013  0.7246157E+02  0.7816164E-02  0.1226708E+00
        -11   -1    0    0    0    0  0.00000000000E+00  0.00000000000E+00  0.45593999997E+02  0.45594000000E+02  0.51100000000E-03 0.  1.
         11   -1    0    0    0    0 -0.00000000000E+00 -0.00000000000E+00 -0.45593999997E+02  0.45594000000E+02  0.51100000000E-03 0. -1.
    9900012    2    1    2    0    0 -0.70304892198E+01 -0.11561009635E+02  0.12945828805E+02  0.72461569323E+02  0.69999998735E+02 0.  0.
         12    1    1    2    0    0  0.70304892198E+01  0.11561009635E+02 -0.12945828805E+02  0.18726430677E+02  0.00000000000E+00 0. -1.
         11    1    3    3    0    0  0.27571703892E+01 -0.31667024846E+02 -0.15811300078E+02  0.35502107847E+02  0.51100000000E-03 0. -1.
        -11    1    3    3    0    0 -0.28790782670E+01  0.10650726477E+02  0.17680054314E+02  0.20840138843E+02  0.51100000000E-03 0.  1.
         12    1    3    3    0    0 -0.69085813420E+01  0.94552887334E+01  0.11077074568E+02  0.16119322634E+02  0.00000000000E+00 0. -1.
</event>
<event>
 7    1  0.1360399E-013  0.7246153E+02  0.7816164E-02  0.1226708E+00
        -11   -1    0    0    0    0  0.00000000000E+00  0.00000000000E+00  0.45593999997E+02  0.45594000000E+02  0.51100000000E-03 0. -1.
         11   -1    0    0    0    0 -0.00000000000E+00 -0.00000000000E+00 -0.45593999997E+02  0.45594000000E+02  0.51100000000E-03 0.  1.
    9900012    2    1    2    0    0  0.39409331255E+00 -0.77622475399E+01 -0.17037392543E+02  0.72461533673E+02  0.69999952294E+02 0.  0.
         12    1    1    2    0    0 -0.39409331255E+00  0.77622475399E+01  0.17037392543E+02  0.18726466327E+02  0.00000000000E+00 0. -1.
         11    1    3    3    0    0 -0.68563140977E+01 -0.35187876476E+02  0.30510657271E+01  0.35979225899E+02  0.51100000000E-03 0. -1.
        -11    1    3    3    0    0 -0.16235719498E+01  0.33309615516E+01 -0.63728067649E+01  0.73718353928E+01  0.51100000000E-03 0.  1.
         12    1    3    3    0    0  0.88739793600E+01  0.24094667385E+02 -0.13715651506E+02  0.29110472382E+02  0.00000000000E+00 0. -1.
</event>
<event>
 7    1  0.1360399E-013  0.7246182E+02  0.7816164E-02  0.1226707E+00
        -11   -1    0    0    0    0  0.00000000000E+00  0.00000000000E+00  0.45593999997E+02  0.45594000000E+02  0.51100000000E-03 0. -1.
         11   -1    0    0    0    0 -0.00000000000E+00 -0.00000000000E+00 -0.45593999997E+02  0.45594000000E+02  0.51100000000E-03 0.  1.
    9900012    2    1    2    0    0  0.16265177034E+02  0.13791580180E+01 -0.91767032722E+01  0.72461816627E+02  0.70000320893E+02 0.  0.
         12    1    1    2    0    0 -0.16265177034E+02 -0.13791580180E+01  0.91767032722E+01  0.18726183373E+02  0.00000000000E+00 0. -1.
         11    1    3    3    0    0 -0.38777178101E+01 -0.23226661938E+02  0.70403805839E+01  0.24578069071E+02  0.51100000000E-03 0. -1.
        -11    1    3    3    0    0  0.23913576912E+01  0.62352300767E+01 -0.20874512733E+02  0.21916705222E+02  0.51100000000E-03 0.  1.
         12    1    3    3    0    0  0.17751537153E+02  0.18370589880E+02  0.46574288767E+01  0.25967042334E+02  0.00000000000E+00 0. -1.
</event>
<event>
 8    1  0.1360399E-013  0.7246160E+02  0.7816164E-02  0.1226708E+00
        -11   -1    0    0    0    0  0.00000000000E+00  0.00000000000E+00  0.45593999997E+02  0.45594000000E+02  0.51100000000E-03 0. -1.
         11   -1    0    0    0    0 -0.00000000000E+00 -0.00000000000E+00 -0.45593999997E+02  0.45594000000E+02  0.51100000000E-03 0.  1.
    9900012    2    1    2    0    0 -0.63887470142E+01  0.39844342897E+01 -0.17146031937E+02  0.72461595748E+02  0.70000033158E+02 0.  0.
        -24    2    3    3    0    0  0.58676603777E+01  0.10971464762E+02 -0.22711853307E+02  0.57295301383E+02  0.51108911186E+02 0.  0.
         12    1    1    2    0    0  0.63887470142E+01 -0.39844342897E+01  0.17146031937E+02  0.18726404252E+02  0.00000000000E+00 0. -1.
         11    1    4    4    0    0  0.27493588535E+02  0.39781859556E+01 -0.44391862706E+01  0.28132361241E+02  0.51100000000E-03 0. -1.
        -11    1    3    3    0    0 -0.12256407392E+02 -0.69870304720E+01  0.55658213694E+01  0.15166294364E+02  0.51100000000E-03 0.  1.
        -12    1    4    4    0    0 -0.21625928157E+02  0.69932788062E+01 -0.18272667036E+02  0.29162940142E+02  0.00000000000E+00 0.  1.
</event>
<event>
 7    1  0.1360399E-013  0.7246156E+02  0.7816164E-02  0.1226708E+00
        -11   -1    0    0    0    0  0.00000000000E+00  0.00000000000E+00  0.45593999997E+02  0.45594000000E+02  0.51100000000E-03 0.  1.
         11   -1    0    0    0    0 -0.00000000000E+00 -0.00000000000E+00 -0.45593999997E+02  0.45594000000E+02  0.51100000000E-03 0. -1.
    9900012    2    1    2    0    0  0.66812093391E+01 -0.70098170172E+01  0.16028202736E+02  0.72461564787E+02  0.69999992825E+02 0.  0.
         12    1    1    2    0    0 -0.66812093391E+01  0.70098170172E+01 -0.16028202736E+02  0.18726435213E+02  0.00000000000E+00 0. -1.
         11    1    3    3    0    0  0.36247395173E+02  0.17137700487E+01  0.36324619411E+01  0.36469239704E+02  0.51100000000E-03 0. -1.
        -11    1    3    3    0    0 -0.64777280085E+01 -0.79583202542E+01  0.65134246435E+01  0.12154033169E+02  0.51100000000E-03 0.  1.
         12    1    3    3    0    0 -0.23088457825E+02 -0.76526681172E+00  0.58823161515E+01  0.23838291914E+02  0.00000000000E+00 0. -1.
</event>
<event>
 7    1  0.1360399E-013  0.7246160E+02  0.7816164E-02  0.1226708E+00
        -11   -1    0    0    0    0  0.00000000000E+00  0.00000000000E+00  0.45593999997E+02  0.45594000000E+02  0.51100000000E-03 0.  1.
         11   -1    0    0    0    0 -0.00000000000E+00 -0.00000000000E+00 -0.45593999997E+02  0.45594000000E+02  0.51100000000E-03 0. -1.
    9900012    2    1    2    0    0  0.41556424952E+01 -0.15563825986E+02  0.95486141014E+01  0.72461599515E+02  0.70000038066E+02 0.  0.
         12    1    1    2    0    0 -0.41556424952E+01  0.15563825986E+02 -0.95486141014E+01  0.18726400485E+02  0.00000000000E+00 0. -1.
         11    1    3    3    0    0 -0.14918395237E+02 -0.26127194234E+00  0.88373331501E+01  0.17341431225E+02  0.51100000000E-03 0. -1.
        -11    1    3    3    0    0  0.33157656780E+02  0.79279710560E+00  0.42635887561E+01  0.33440049637E+02  0.51100000000E-03 0.  1.
        -12    1    3    3    0    0 -0.14083619047E+02 -0.16095351149E+02 -0.35523078048E+01  0.21680118653E+02  0.00000000000E+00 0.  1.
</event>
<event>
 7    1  0.1360399E-013  0.7246156E+02  0.7816164E-02  0.1226708E+00
        -11   -1    0    0    0    0  0.00000000000E+00  0.00000000000E+00  0.45593999997E+02  0.45594000000E+02  0.51100000000E-03 0.  1.
         11   -1    0    0    0    0 -0.00000000000E+00 -0.00000000000E+00 -0.45593999997E+02  0.45594000000E+02  0.51100000000E-03 0. -1.
    9900012    2    1    2    0    0 -0.56242726497E+01 -0.17856259464E+02  0.44834678311E+00  0.72461562546E+02  0.69999989907E+02 0.  0.
         12    1    1    2    0    0  0.56242726497E+01  0.17856259464E+02 -0.44834678311E+00  0.18726437454E+02  0.00000000000E+00 0. -1.
         11    1    3    3    0    0  0.12697270838E+01 -0.10475674977E+02  0.20894888440E+02  0.23408296313E+02  0.51100000000E-03 0.  1.
        -11    1    3    3    0    0  0.48767253388E+01  0.95962043816E+01 -0.25592218989E+02  0.27763848106E+02  0.51100000000E-03 0. -1.
         12    1    3    3    0    0 -0.11770725072E+02 -0.16976788868E+02  0.51456773323E+01  0.21289418127E+02  0.00000000000E+00 0. -1.
</event>
<event>
 7    1  0.1360399E-013  0.7246152E+02  0.7816164E-02  0.1226708E+00
        -11   -1    0    0    0    0  0.00000000000E+00  0.00000000000E+00  0.45593999997E+02  0.45594000000E+02  0.51100000000E-03 0. -1.
         11   -1    0    0    0    0 -0.00000000000E+00 -0.00000000000E+00 -0.45593999997E+02  0.45594000000E+02  0.51100000000E-03 0.  1.
    9900012    2    1    2    0    0 -0.87011764470E+01  0.11569816895E+02 -0.11878971984E+02  0.72461518484E+02  0.69999932508E+02 0.  0.
         12    1    1    2    0    0  0.87011764470E+01 -0.11569816895E+02  0.11878971984E+02  0.18726481516E+02  0.00000000000E+00 0. -1.
         11    1    3    3    0    0  0.37040312451E+01 -0.83704843626E+00  0.74435274904E+01  0.83562311667E+01  0.51100000000E-03 0. -1.
        -11    1    3    3    0    0 -0.20438715166E+02  0.45760630186E+01 -0.37379219276E+02  0.42847257372E+02  0.51100000000E-03 0.  1.
        -12    1    3    3    0    0  0.80335074739E+01  0.78308023131E+01  0.18056719801E+02  0.21258029945E+02  0.00000000000E+00 0.  1.
</event>
<event>
 7    1  0.1360399E-013  0.7246157E+02  0.7816164E-02  0.1226708E+00
        -11   -1    0    0    0    0  0.00000000000E+00  0.00000000000E+00  0.45593999997E+02  0.45594000000E+02  0.51100000000E-03 0. -1.
         11   -1    0    0    0    0 -0.00000000000E+00 -0.00000000000E+00 -0.45593999997E+02  0.45594000000E+02  0.51100000000E-03 0.  1.
    9900012    2    1    2    0    0  0.11661202064E+01  0.44710817724E+01 -0.18147419353E+02  0.72461568474E+02  0.69999997628E+02 0.  0.
         12    1    1    2    0    0 -0.11661202064E+01 -0.44710817724E+01  0.18147419353E+02  0.18726431526E+02  0.00000000000E+00 0. -1.
         11    1    3    3    0    0 -0.13040675576E+02  0.14398900169E+02  0.54686385249E+01  0.20181515135E+02  0.51100000000E-03 0. -1.
        -11    1    3    3    0    0  0.13561527989E+02  0.15065835593E+02 -0.16900980906E+02  0.26391998775E+02  0.51100000000E-03 0.  1.
        -12    1    3    3    0    0  0.64526779371E+00 -0.24993653990E+02 -0.67150769720E+01  0.25888054563E+02  0.00000000000E+00 0.  1.
</event>
<event>
 7    1  0.1360399E-013  0.7246156E+02  0.7816164E-02  0.1226708E+00
        -11   -1    0    0    0    0  0.00000000000E+00  0.00000000000E+00  0.45593999997E+02  0.45594000000E+02  0.51100000000E-03 0. -1.
         11   -1    0    0    0    0 -0.00000000000E+00 -0.00000000000E+00 -0.45593999997E+02  0.45594000000E+02  0.51100000000E-03 0.  1.
    9900012    2    1    2    0    0  0.87789346207E+01  0.95016641377E+01 -0.13539870373E+02  0.72461564029E+02  0.69999991838E+02 0.  0.
         12    1    1    2    0    0 -0.87789346207E+01 -0.95016641377E+01  0.13539870373E+02  0.18726435971E+02  0.00000000000E+00 0. -1.
         11    1    3    3    0    0  0.44249269827E+01  0.19634534607E+02  0.21406903309E+02  0.29382825554E+02  0.51100000000E-03 0. -1.
        -11    1    3    3    0    0  0.47814241296E+01 -0.16583048538E+02 -0.17982118425E+02  0.24924207085E+02  0.51100000000E-03 0.  1.
         12    1    3    3    0    0 -0.42741649165E+00  0.64501780685E+01 -0.16964655257E+02  0.18154531389E+02  0.00000000000E+00 0. -1.
</event>
<event>
 7    1  0.1360399E-013  0.7246166E+02  0.7816164E-02  0.1226708E+00
        -11   -1    0    0    0    0  0.00000000000E+00  0.00000000000E+00  0.45593999997E+02  0.45594000000E+02  0.51100000000E-03 0. -1.
         11   -1    0    0    0    0 -0.00000000000E+00 -0.00000000000E+00 -0.45593999997E+02  0.45594000000E+02  0.51100000000E-03 0.  1.
    9900012    2    1    2    0    0 -0.13685599664E+02  0.11100529645E+02  0.63370525687E+01  0.72461664752E+02  0.70000123049E+02 0.  0.
         12    1    1    2    0    0  0.13685599664E+02 -0.11100529645E+02 -0.63370525687E+01  0.18726335248E+02  0.00000000000E+00 0. -1.
         11    1    3    3    0    0  0.60466641120E+01 -0.50591664325E+01  0.63847991912E+01  0.10145096000E+02  0.51100000000E-03 0. -1.
        -11    1    3    3    0    0 -0.24618960324E+02  0.21832253632E+02  0.21633102371E+02  0.39379329915E+02  0.51100000000E-03 0.  1.
        -12    1    3    3    0    0  0.48866965486E+01 -0.56725575546E+01 -0.21680848994E+02  0.22937238837E+02  0.00000000000E+00 0.  1.
</event>
<event>
 7    1  0.1360399E-013  0.7246158E+02  0.7816164E-02  0.1226708E+00
        -11   -1    0    0    0    0  0.00000000000E+00  0.00000000000E+00  0.45593999997E+02  0.45594000000E+02  0.51100000000E-03 0. -1.
         11   -1    0    0    0    0 -0.00000000000E+00 -0.00000000000E+00 -0.45593999997E+02  0.45594000000E+02  0.51100000000E-03 0.  1.
    9900012    2    1    2    0    0  0.13118814275E+02 -0.89205873812E+01 -0.99498100762E+01  0.72461577818E+02  0.70000009801E+02 0.  0.
         12    1    1    2    0    0 -0.13118814275E+02  0.89205873812E+01  0.99498100762E+01  0.18726422182E+02  0.00000000000E+00 0. -1.
         11    1    3    3    0    0  0.19579927571E+01 -0.23412195150E+02 -0.65543809093E+01  0.24391074735E+02  0.51100000000E-03 0. -1.
        -11    1    3    3    0    0 -0.99609259967E+01  0.18686996608E+02  0.92385739654E+01  0.23103574142E+02  0.51100000000E-03 0.  1.
        -12    1    3    3    0    0  0.21121747514E+02 -0.41953888395E+01 -0.12634003132E+02  0.24966928940E+02  0.00000000000E+00 0.  1.
</event>
<event>
 7    1  0.1360399E-013  0.7246159E+02  0.7816164E-02  0.1226708E+00
        -11   -1    0    0    0    0  0.00000000000E+00  0.00000000000E+00  0.45593999997E+02  0.45594000000E+02  0.51100000000E-03 0. -1.
         11   -1    0    0    0    0 -0.00000000000E+00 -0.00000000000E+00 -0.45593999997E+02  0.45594000000E+02  0.51100000000E-03 0.  1.
    9900012    2    1    2    0    0  0.58290040608E+01  0.65281291977E+01 -0.16555501960E+02  0.72461590726E+02  0.70000026616E+02 0.  0.
         12    1    1    2    0    0 -0.58290040608E+01 -0.65281291977E+01  0.16555501960E+02  0.18726409274E+02  0.00000000000E+00 0. -1.
         11    1    3    3    0    0  0.19146700782E+02  0.13313990414E+01  0.96667567493E+00  0.19217264019E+02  0.51100000000E-03 0. -1.
        -11    1    3    3    0    0  0.65067392931E+01  0.12985751117E+02  0.10589228881E+02  0.17974959161E+02  0.51100000000E-03 0.  1.
        -12    1    3    3    0    0 -0.19824436014E+02 -0.77890209603E+01 -0.28111406516E+02  0.35269367546E+02  0.00000000000E+00 0.  1.
</event>
<event>
 7    1  0.1360399E-013  0.7246160E+02  0.7816164E-02  0.1226708E+00
        -11   -1    0    0    0    0  0.00000000000E+00  0.00000000000E+00  0.45593999997E+02  0.45594000000E+02  0.51100000000E-03 0.  1.
         11   -1    0    0    0    0 -0.00000000000E+00 -0.00000000000E+00 -0.45593999997E+02  0.45594000000E+02  0.51100000000E-03 0. -1.
    9900012    2    1    2    0    0 -0.38879194380E+00 -0.17749804070E+02  0.59557833645E+01  0.72461599941E+02  0.70000038620E+02 0.  0.
         12    1    1    2    0    0  0.38879194380E+00  0.17749804070E+02 -0.59557833645E+01  0.18726400059E+02  0.00000000000E+00 0. -1.
         11    1    3    3    0    0  0.20661020951E+02 -0.25236740483E+02  0.14075862407E+02  0.35523242528E+02  0.51100000000E-03 0. -1.
        -11    1    3    3    0    0 -0.25024472573E+02  0.44112726868E+00 -0.12238949362E+02  0.27860558188E+02  0.51100000000E-03 0.  1.
        -12    1    3    3    0    0  0.39746596777E+01  0.70458091446E+01  0.41188703190E+01  0.90777992246E+01  0.00000000000E+00 0.  1.
</event>
<event>
 7    1  0.1360399E-013  0.7246160E+02  0.7816164E-02  0.1226708E+00
        -11   -1    0    0    0    0  0.00000000000E+00  0.00000000000E+00  0.45593999997E+02  0.45594000000E+02  0.51100000000E-03 0.  1.
         11   -1    0    0    0    0 -0.00000000000E+00 -0.00000000000E+00 -0.45593999997E+02  0.45594000000E+02  0.51100000000E-03 0. -1.
    9900012    2    1    2    0    0 -0.11931471761E+02 -0.13986348934E+02  0.35637393384E+01  0.72461595835E+02  0.70000033272E+02 0.  0.
         12    1    1    2    0    0  0.11931471761E+02  0.13986348934E+02 -0.35637393384E+01  0.18726404165E+02  0.00000000000E+00 0. -1.
         11    1    3    3    0    0  0.69243834933E+01  0.15666774339E+02 -0.18854024525E+01  0.17232227007E+02  0.51100000000E-03 0. -1.
        -11    1    3    3    0    0 -0.14901128504E+02 -0.33702663317E+02 -0.10490946753E+02  0.38314137200E+02  0.51100000000E-03 0.  1.
        -12    1    3    3    0    0 -0.39547267500E+01  0.40495400450E+01  0.15940088544E+02  0.16915231628E+02  0.00000000000E+00 0.  1.
</event>
<event>
 7    1  0.1360399E-013  0.7246156E+02  0.7816164E-02  0.1226708E+00
        -11   -1    0    0    0    0  0.00000000000E+00  0.00000000000E+00  0.45593999997E+02  0.45594000000E+02  0.51100000000E-03 0. -1.
         11   -1    0    0    0    0 -0.00000000000E+00 -0.00000000000E+00 -0.45593999997E+02  0.45594000000E+02  0.51100000000E-03 0.  1.
    9900012    2    1    2    0    0  0.39214386437E+01 -0.14377958221E+00 -0.18310681714E+02  0.72461563648E+02  0.69999991342E+02 0.  0.
         12    1    1    2    0    0 -0.39214386437E+01  0.14377958221E+00  0.18310681714E+02  0.18726436352E+02  0.00000000000E+00 0. -1.
         11    1    3    3    0    0  0.12963050837E+02 -0.73104872334E+01 -0.11164738765E+02  0.18604711837E+02  0.51100000000E-03 0. -1.
        -11    1    3    3    0    0 -0.28703297053E+02  0.13656321174E+02 -0.90905416766E+01  0.33060736803E+02  0.51100000000E-03 0.  1.
        -12    1    3    3    0    0  0.19661684860E+02 -0.64896135228E+01  0.19445987271E+01  0.20796115008E+02  0.00000000000E+00 0.  1.
</event>
<event>
 7    1  0.1360399E-013  0.7246149E+02  0.7816164E-02  0.1226708E+00
        -11   -1    0    0    0    0  0.00000000000E+00  0.00000000000E+00  0.45593999997E+02  0.45594000000E+02  0.51100000000E-03 0. -1.
         11   -1    0    0    0    0 -0.00000000000E+00 -0.00000000000E+00 -0.45593999997E+02  0.45594000000E+02  0.51100000000E-03 0.  1.
    9900012    2    1    2    0    0 -0.51019833985E+01 -0.65925415819E+01 -0.16768725622E+02  0.72461494771E+02  0.69999901617E+02 0.  0.
         12    1    1    2    0    0  0.51019833985E+01  0.65925415819E+01  0.16768725622E+02  0.18726505229E+02  0.00000000000E+00 0. -1.
         11    1    3    3    0    0 -0.17521830478E+02  0.46949537216E+01  0.17677210539E+02  0.25328657810E+02  0.51100000000E-03 0. -1.
        -11    1    3    3    0    0  0.17458101662E+00  0.23355955402E+01 -0.27410832333E+02  0.27510710905E+02  0.51100000000E-03 0.  1.
         12    1    3    3    0    0  0.12245266063E+02 -0.13623090844E+02 -0.70351038275E+01  0.19622126056E+02  0.00000000000E+00 0. -1.
</event>
<event>
 7    1  0.1360399E-013  0.7246160E+02  0.7816164E-02  0.1226708E+00
        -11   -1    0    0    0    0  0.00000000000E+00  0.00000000000E+00  0.45593999997E+02  0.45594000000E+02  0.51100000000E-03 0. -1.
         11   -1    0    0    0    0 -0.00000000000E+00 -0.00000000000E+00 -0.45593999997E+02  0.45594000000E+02  0.51100000000E-03 0.  1.
    9900012    2    1    2    0    0  0.96331516563E+01  0.16027297667E+02 -0.10029940018E+01  0.72461604770E+02  0.70000044911E+02 0.  0.
         12    1    1    2    0    0 -0.96331516563E+01 -0.16027297667E+02  0.10029940018E+01  0.18726395230E+02  0.00000000000E+00 0. -1.
         11    1    3    3    0    0 -0.17117338037E+01 -0.54386105123E+01  0.13467250594E+02  0.14624477965E+02  0.51100000000E-03 0. -1.
        -11    1    3    3    0    0  0.21180806742E+02 -0.36927830310E+01 -0.20991143713E+02  0.30048150282E+02  0.51100000000E-03 0.  1.
        -12    1    3    3    0    0 -0.98359212820E+01  0.25158691210E+02  0.65208991167E+01  0.27788976523E+02  0.00000000000E+00 0.  1.
</event>
<event>
 7    1  0.1360399E-013  0.7246164E+02  0.7816164E-02  0.1226708E+00
        -11   -1    0    0    0    0  0.00000000000E+00  0.00000000000E+00  0.45593999997E+02  0.45594000000E+02  0.51100000000E-03 0.  1.
         11   -1    0    0    0    0 -0.00000000000E+00 -0.00000000000E+00 -0.45593999997E+02  0.45594000000E+02  0.51100000000E-03 0. -1.
    9900012    2    1    2    0    0 -0.10959765794E+02  0.37834633573E+01 -0.14705285367E+02  0.72461642133E+02  0.70000093584E+02 0.  0.
         12    1    1    2    0    0  0.10959765794E+02 -0.37834633573E+01  0.14705285367E+02  0.18726357867E+02  0.00000000000E+00 0. -1.
         11    1    3    3    0    0  0.37704826797E+01  0.11765177864E+02  0.20512746013E+02  0.23945953710E+02  0.51100000000E-03 0. -1.
        -11    1    3    3    0    0 -0.15554556655E+02  0.66317791705E+01 -0.10853895721E+02  0.20093077919E+02  0.51100000000E-03 0.  1.
         12    1    3    3    0    0  0.82430818155E+00 -0.14613493677E+02 -0.24364135660E+02  0.28422610504E+02  0.00000000000E+00 0. -1.
</event>
<event>
 7    1  0.1360399E-013  0.7246156E+02  0.7816164E-02  0.1226708E+00
        -11   -1    0    0    0    0  0.00000000000E+00  0.00000000000E+00  0.45593999997E+02  0.45594000000E+02  0.51100000000E-03 0.  1.
         11   -1    0    0    0    0 -0.00000000000E+00 -0.00000000000E+00 -0.45593999997E+02  0.45594000000E+02  0.51100000000E-03 0. -1.
    9900012    2    1    2    0    0  0.18592904740E+02 -0.19125472019E+01  0.11514179630E+01  0.72461555949E+02  0.69999981312E+02 0.  0.
         12    1    1    2    0    0 -0.18592904740E+02  0.19125472019E+01 -0.11514179630E+01  0.18726444051E+02  0.00000000000E+00 0. -1.
         11    1    3    3    0    0 -0.88024668766E+01 -0.41586773534E+00 -0.10625804584E+02  0.13804495369E+02  0.51100000000E-03 0. -1.
        -11    1    3    3    0    0  0.70776566403E+01 -0.12399680847E+02  0.27336390208E+02  0.30840290830E+02  0.51100000000E-03 0.  1.
        -12    1    3    3    0    0  0.20317714976E+02  0.10903001380E+02 -0.15559167661E+02  0.27816769749E+02  0.00000000000E+00 0.  1.
</event>
<event>
 7    1  0.1360399E-013  0.7246167E+02  0.7816164E-02  0.1226708E+00
        -11   -1    0    0    0    0  0.00000000000E+00  0.00000000000E+00  0.45593999997E+02  0.45594000000E+02  0.51100000000E-03 0. -1.
         11   -1    0    0    0    0 -0.00000000000E+00 -0.00000000000E+00 -0.45593999997E+02  0.45594000000E+02  0.51100000000E-03 0.  1.
    9900012    2    1    2    0    0  0.49257229601E+01 -0.13037375225E+02 -0.12507583022E+02  0.72461667405E+02  0.70000126504E+02 0.  0.
         12    1    1    2    0    0 -0.49257229601E+01  0.13037375225E+02  0.12507583022E+02  0.18726332595E+02  0.00000000000E+00 0. -1.
         11    1    3    3    0    0  0.25781043328E+02  0.12565137728E+02 -0.13119519757E+01  0.28710034821E+02  0.51100000000E-03 0. -1.
        -11    1    3    3    0    0 -0.99318573151E+01 -0.25489881390E+02 -0.16137761682E+02  0.31761662352E+02  0.51100000000E-03 0.  1.
         12    1    3    3    0    0 -0.10923463053E+02 -0.11263156276E+00  0.49421306359E+01  0.11989970232E+02  0.00000000000E+00 0. -1.
</event>
<event>
 7    1  0.1360399E-013  0.7246158E+02  0.7816164E-02  0.1226708E+00
        -11   -1    0    0    0    0  0.00000000000E+00  0.00000000000E+00  0.45593999997E+02  0.45594000000E+02  0.51100000000E-03 0.  1.
         11   -1    0    0    0    0 -0.00000000000E+00 -0.00000000000E+00 -0.45593999997E+02  0.45594000000E+02  0.51100000000E-03 0. -1.
    9900012    2    1    2    0    0 -0.13523053758E+01  0.15228810460E+02  0.10813572008E+02  0.72461581832E+02  0.70000015029E+02 0.  0.
         12    1    1    2    0    0  0.13523053758E+01 -0.15228810460E+02 -0.10813572008E+02  0.18726418168E+02  0.00000000000E+00 0. -1.
         11    1    3    3    0    0 -0.24699847579E+02 -0.10375507252E+02  0.15225717710E+02  0.30814868184E+02  0.51100000000E-03 0. -1.
        -11    1    3    3    0    0  0.32766931503E+01  0.13959266144E+02  0.68069957616E+01  0.15872398081E+02  0.51100000000E-03 0.  1.
         12    1    3    3    0    0  0.20070849053E+02  0.11645051568E+02 -0.11219141464E+02  0.25774315567E+02  0.00000000000E+00 0. -1.
</event>
<event>
 7    1  0.1360399E-013  0.7246155E+02  0.7816164E-02  0.1226708E+00
        -11   -1    0    0    0    0  0.00000000000E+00  0.00000000000E+00  0.45593999997E+02  0.45594000000E+02  0.51100000000E-03 0.  1.
         11   -1    0    0    0    0 -0.00000000000E+00 -0.00000000000E+00 -0.45593999997E+02  0.45594000000E+02  0.51100000000E-03 0. -1.
    9900012    2    1    2    0    0  0.14549401175E+02 -0.11733956140E+02 -0.11440956587E+01  0.72461554632E+02  0.69999979597E+02 0.  0.
         12    1    1    2    0    0 -0.14549401175E+02  0.11733956140E+02  0.11440956587E+01  0.18726445368E+02  0.00000000000E+00 0. -1.
         11    1    3    3    0    0  0.14823629471E+02 -0.25342663596E+02 -0.98162511230E+01  0.30957218467E+02  0.51100000000E-03 0. -1.
        -11    1    3    3    0    0 -0.34862233432E+01  0.19297064076E+02 -0.97922173864E+01  0.21918438739E+02  0.51100000000E-03 0.  1.
        -12    1    3    3    0    0  0.32119950469E+01 -0.56883566196E+01  0.18464372851E+02  0.19585897426E+02  0.00000000000E+00 0.  1.
</event>
<event>
 7    1  0.1360399E-013  0.7246160E+02  0.7816164E-02  0.1226708E+00
        -11   -1    0    0    0    0  0.00000000000E+00  0.00000000000E+00  0.45593999997E+02  0.45594000000E+02  0.51100000000E-03 0.  1.
         11   -1    0    0    0    0 -0.00000000000E+00 -0.00000000000E+00 -0.45593999997E+02  0.45594000000E+02  0.51100000000E-03 0. -1.
    9900012    2    1    2    0    0  0.30135568241E+01 -0.15245192774E+02  0.10448952501E+02  0.72461600565E+02  0.70000039433E+02 0.  0.
         12    1    1    2    0    0 -0.30135568241E+01  0.15245192774E+02 -0.10448952501E+02  0.18726399435E+02  0.00000000000E+00 0. -1.
         11    1    3    3    0    0 -0.10997948905E+02  0.12161226846E+02 -0.11982536752E+00  0.16397093550E+02  0.51100000000E-03 0. -1.
        -11    1    3    3    0    0  0.59846178355E+01 -0.37322033407E+02 -0.23972174248E+01  0.37874747259E+02  0.51100000000E-03 0.  1.
        -12    1    3    3    0    0  0.80268878938E+01  0.99156137873E+01  0.12965995293E+02  0.18189759756E+02  0.00000000000E+00 0.  1.
</event>
<event>
 7    1  0.1360399E-013  0.7246157E+02  0.7816164E-02  0.1226708E+00
        -11   -1    0    0    0    0  0.00000000000E+00  0.00000000000E+00  0.45593999997E+02  0.45594000000E+02  0.51100000000E-03 0. -1.
         11   -1    0    0    0    0 -0.00000000000E+00 -0.00000000000E+00 -0.45593999997E+02  0.45594000000E+02  0.51100000000E-03 0.  1.
    9900012    2    1    2    0    0  0.15336143266E+02  0.10702033157E+02 -0.97384972918E+00  0.72461569821E+02  0.69999999384E+02 0.  0.
         12    1    1    2    0    0 -0.15336143266E+02 -0.10702033157E+02  0.97384972918E+00  0.18726430179E+02  0.00000000000E+00 0. -1.
         11    1    3    3    0    0  0.28773251290E+02 -0.10654706024E+02 -0.48549135647E+00  0.30686453890E+02  0.51100000000E-03 0.  1.
        -11    1    3    3    0    0 -0.19868391899E+02  0.54913443355E+01  0.86671825933E+01  0.22361303934E+02  0.51100000000E-03 0. -1.
        -12    1    3    3    0    0  0.64312838747E+01  0.15865394845E+02 -0.91555409660E+01  0.19413811997E+02  0.00000000000E+00 0.  1.
</event>
<event>
 7    1  0.1360399E-013  0.7246161E+02  0.7816164E-02  0.1226708E+00
        -11   -1    0    0    0    0  0.00000000000E+00  0.00000000000E+00  0.45593999997E+02  0.45594000000E+02  0.51100000000E-03 0.  1.
         11   -1    0    0    0    0 -0.00000000000E+00 -0.00000000000E+00 -0.45593999997E+02  0.45594000000E+02  0.51100000000E-03 0. -1.
    9900012    2    1    2    0    0 -0.77752830752E+01 -0.31568198616E+00  0.17033002098E+02  0.72461605726E+02  0.70000046157E+02 0.  0.
         12    1    1    2    0    0  0.77752830752E+01  0.31568198616E+00 -0.17033002098E+02  0.18726394274E+02  0.00000000000E+00 0. -1.
         11    1    3    3    0    0 -0.16771894432E+01  0.20397102576E+02 -0.75527415664E+01  0.21815101727E+02  0.51100000000E-03 0. -1.
        -11    1    3    3    0    0 -0.18781029782E+02 -0.54270774300E+01  0.23757670281E+02  0.30766981434E+02  0.51100000000E-03 0.  1.
        -12    1    3    3    0    0  0.12682936149E+02 -0.15285707132E+02  0.82807338359E+00  0.19879522566E+02  0.00000000000E+00 0.  1.
</event>
<event>
 7    1  0.1360399E-013  0.7246153E+02  0.7816164E-02  0.1226708E+00
        -11   -1    0    0    0    0  0.00000000000E+00  0.00000000000E+00  0.45593999997E+02  0.45594000000E+02  0.51100000000E-03 0. -1.
         11   -1    0    0    0    0 -0.00000000000E+00 -0.00000000000E+00 -0.45593999997E+02  0.45594000000E+02  0.51100000000E-03 0.  1.
    9900012    2    1    2    0    0 -0.14068393440E+02 -0.12359400565E+02  0.78984354049E-01  0.72461529034E+02  0.69999946251E+02 0.  0.
         12    1    1    2    0    0  0.14068393440E+02  0.12359400565E+02 -0.78984354049E-01  0.18726470966E+02  0.00000000000E+00 0. -1.
         11    1    3    3    0    0 -0.26089645111E+02 -0.31218608151E+01  0.15678564462E+02  0.30597924453E+02  0.51100000000E-03 0. -1.
        -11    1    3    3    0    0  0.78131968546E+01  0.12476227677E+02 -0.12915688355E+02  0.19583597935E+02  0.51100000000E-03 0.  1.
         12    1    3    3    0    0  0.42080548162E+01 -0.21713767427E+02 -0.26838917533E+01  0.22280006646E+02  0.00000000000E+00 0. -1.
</event>
<event>
 7    1  0.1360399E-013  0.7246160E+02  0.7816164E-02  0.1226708E+00
        -11   -1    0    0    0    0  0.00000000000E+00  0.00000000000E+00  0.45593999997E+02  0.45594000000E+02  0.51100000000E-03 0.  1.
         11   -1    0    0    0    0 -0.00000000000E+00 -0.00000000000E+00 -0.45593999997E+02  0.45594000000E+02  0.51100000000E-03 0. -1.
    9900012    2    1    2    0    0  0.13108159175E+02  0.13321193175E+02  0.11832816704E+01  0.72461596713E+02  0.70000034415E+02 0.  0.
         12    1    1    2    0    0 -0.13108159175E+02 -0.13321193175E+02 -0.11832816704E+01  0.18726403287E+02  0.00000000000E+00 0. -1.
         11    1    3    3    0    0 -0.56430753405E+01 -0.76719850203E+01 -0.21198857341E+02  0.23239948500E+02  0.51100000000E-03 0. -1.
        -11    1    3    3    0    0 -0.30878337465E+01  0.13316765622E+02  0.22200889926E+02  0.26072024809E+02  0.51100000000E-03 0.  1.
         12    1    3    3    0    0  0.21839068262E+02  0.76764125739E+01  0.18124908551E+00  0.23149623404E+02  0.00000000000E+00 0. -1.
</event>
<event>
 7    1  0.1360399E-013  0.7246158E+02  0.7816164E-02  0.1226708E+00
        -11   -1    0    0    0    0  0.00000000000E+00  0.00000000000E+00  0.45593999997E+02  0.45594000000E+02  0.51100000000E-03 0. -1.
         11   -1    0    0    0    0 -0.00000000000E+00 -0.00000000000E+00 -0.45593999997E+02  0.45594000000E+02  0.51100000000E-03 0.  1.
    9900012    2    1    2    0    0  0.12927341601E+00  0.18242782115E+02  0.42264431100E+01  0.72461584639E+02  0.70000018687E+02 0.  0.
         12    1    1    2    0    0 -0.12927341601E+00 -0.18242782115E+02 -0.42264431100E+01  0.18726415361E+02  0.00000000000E+00 0. -1.
         11    1    3    3    0    0  0.15721973841E+02  0.16342277907E+02 -0.13248022087E+02  0.26263293741E+02  0.51100000000E-03 0.  1.
        -11    1    3    3    0    0 -0.16770819413E+02 -0.70759634482E+01  0.27316451148E+02  0.32825571527E+02  0.51100000000E-03 0. -1.
         12    1    3    3    0    0  0.11781189878E+01  0.89764676563E+01 -0.98419859507E+01  0.13372719371E+02  0.00000000000E+00 0. -1.
</event>
<event>
 7    1  0.1360399E-013  0.7246157E+02  0.7816164E-02  0.1226708E+00
        -11   -1    0    0    0    0  0.00000000000E+00  0.00000000000E+00  0.45593999997E+02  0.45594000000E+02  0.51100000000E-03 0. -1.
         11   -1    0    0    0    0 -0.00000000000E+00 -0.00000000000E+00 -0.45593999997E+02  0.45594000000E+02  0.51100000000E-03 0.  1.
    9900012    2    1    2    0    0  0.70610616514E+01 -0.68889870302E+01 -0.15917365323E+02  0.72461568071E+02  0.69999997104E+02 0.  0.
         12    1    1    2    0    0 -0.70610616514E+01  0.68889870302E+01  0.15917365323E+02  0.18726431929E+02  0.00000000000E+00 0. -1.
         11    1    3    3    0    0  0.24877894364E+02 -0.55365597217E+01  0.12141626547E+02  0.28230873472E+02  0.51100000000E-03 0. -1.
        -11    1    3    3    0    0  0.25625028449E+00 -0.84154773295E+00 -0.26021032736E+02  0.26035898519E+02  0.51100000000E-03 0.  1.
        -12    1    3    3    0    0 -0.18073082997E+02 -0.51087957563E+00 -0.20379591342E+01  0.18194796080E+02  0.00000000000E+00 0.  1.
</event>
<event>
 7    1  0.1360399E-013  0.7246169E+02  0.7816164E-02  0.1226708E+00
        -11   -1    0    0    0    0  0.00000000000E+00  0.00000000000E+00  0.45593999997E+02  0.45594000000E+02  0.51100000000E-03 0. -1.
         11   -1    0    0    0    0 -0.00000000000E+00 -0.00000000000E+00 -0.45593999997E+02  0.45594000000E+02  0.51100000000E-03 0.  1.
    9900012    2    1    2    0    0  0.11207395580E+02 -0.11323995558E+01 -0.14959498797E+02  0.72461691001E+02  0.70000157243E+02 0.  0.
         12    1    1    2    0    0 -0.11207395580E+02  0.11323995558E+01  0.14959498797E+02  0.18726308999E+02  0.00000000000E+00 0. -1.
         11    1    3    3    0    0  0.24615915536E+02 -0.14075089399E+01 -0.45152152604E+01  0.25066143465E+02  0.51100000000E-03 0. -1.
        -11    1    3    3    0    0 -0.11234637253E+02 -0.58128413037E+01  0.15872538505E+02  0.20296395668E+02  0.51100000000E-03 0.  1.
        -12    1    3    3    0    0 -0.21738827026E+01  0.60879506878E+01 -0.26316822042E+02  0.27099151869E+02  0.00000000000E+00 0.  1.
</event>
<event>
 7    1  0.1360399E-013  0.7246158E+02  0.7816164E-02  0.1226708E+00
        -11   -1    0    0    0    0  0.00000000000E+00  0.00000000000E+00  0.45593999997E+02  0.45594000000E+02  0.51100000000E-03 0. -1.
         11   -1    0    0    0    0 -0.00000000000E+00 -0.00000000000E+00 -0.45593999997E+02  0.45594000000E+02  0.51100000000E-03 0.  1.
    9900012    2    1    2    0    0  0.88544934076E+01 -0.79921218138E+01 -0.14436159856E+02  0.72461580802E+02  0.70000013688E+02 0.  0.
         12    1    1    2    0    0 -0.88544934076E+01  0.79921218138E+01  0.14436159856E+02  0.18726419198E+02  0.00000000000E+00 0. -1.
         11    1    3    3    0    0  0.24349193471E+02 -0.19083645738E+02 -0.26290602975E+01  0.31048038838E+02  0.51100000000E-03 0.  1.
        -11    1    3    3    0    0 -0.29654974265E+01  0.50320446649E+01 -0.22889262234E+02  0.23622742736E+02  0.51100000000E-03 0. -1.
        -12    1    3    3    0    0 -0.12529202637E+02  0.60594792590E+01  0.11082162675E+02  0.17790799228E+02  0.00000000000E+00 0.  1.
</event>
<event>
 7    1  0.1360399E-013  0.7246155E+02  0.7816164E-02  0.1226708E+00
        -11   -1    0    0    0    0  0.00000000000E+00  0.00000000000E+00  0.45593999997E+02  0.45594000000E+02  0.51100000000E-03 0.  1.
         11   -1    0    0    0    0 -0.00000000000E+00 -0.00000000000E+00 -0.45593999997E+02  0.45594000000E+02  0.51100000000E-03 0. -1.
    9900012    2    1    2    0    0  0.68925848422E+01  0.16037528760E+02  0.67801152908E+01  0.72461547642E+02  0.69999970492E+02 0.  0.
         12    1    1    2    0    0 -0.68925848422E+01 -0.16037528760E+02 -0.67801152908E+01  0.18726452358E+02  0.00000000000E+00 0. -1.
         11    1    3    3    0    0 -0.91198775095E+01 -0.17251282530E+02  0.45203581674E+01  0.20030290885E+02  0.51100000000E-03 0. -1.
        -11    1    3    3    0    0  0.13591462949E+02  0.17135216730E+02  0.19051754901E+02  0.29005394025E+02  0.51100000000E-03 0.  1.
        -12    1    3    3    0    0  0.24209994022E+01  0.16153594561E+02 -0.16791997778E+02  0.23425862732E+02  0.00000000000E+00 0.  1.
</event>
<event>
 7    1  0.1360399E-013  0.7246157E+02  0.7816164E-02  0.1226708E+00
        -11   -1    0    0    0    0  0.00000000000E+00  0.00000000000E+00  0.45593999997E+02  0.45594000000E+02  0.51100000000E-03 0. -1.
         11   -1    0    0    0    0 -0.00000000000E+00 -0.00000000000E+00 -0.45593999997E+02  0.45594000000E+02  0.51100000000E-03 0.  1.
    9900012    2    1    2    0    0 -0.66662322247E+01  0.12150139224E+02 -0.12594226779E+02  0.72461572593E+02  0.70000002995E+02 0.  0.
         12    1    1    2    0    0  0.66662322247E+01 -0.12150139224E+02  0.12594226779E+02  0.18726427407E+02  0.00000000000E+00 0. -1.
         11    1    3    3    0    0  0.43671199272E+01 -0.21794752110E+01  0.17899195494E+02  0.18552709997E+02  0.51100000000E-03 0. -1.
        -11    1    3    3    0    0 -0.82102052700E+01  0.19443656393E+02 -0.38554622328E+02  0.43953636341E+02  0.51100000000E-03 0.  1.
        -12    1    3    3    0    0 -0.28231468819E+01 -0.51140419575E+01  0.80612000547E+01  0.99552262547E+01  0.00000000000E+00 0.  1.
</event>
<event>
 7    1  0.1360399E-013  0.7246157E+02  0.7816164E-02  0.1226708E+00
        -11   -1    0    0    0    0  0.00000000000E+00  0.00000000000E+00  0.45593999997E+02  0.45594000000E+02  0.51100000000E-03 0. -1.
         11   -1    0    0    0    0 -0.00000000000E+00 -0.00000000000E+00 -0.45593999997E+02  0.45594000000E+02  0.51100000000E-03 0.  1.
    9900012    2    1    2    0    0 -0.17056179299E+02  0.74679582204E+01  0.19989065714E+01  0.72461567351E+02  0.69999996166E+02 0.  0.
         12    1    1    2    0    0  0.17056179299E+02 -0.74679582204E+01 -0.19989065714E+01  0.18726432649E+02  0.00000000000E+00 0. -1.
         11    1    3    3    0    0 -0.34282670627E+02 -0.23399272314E+01  0.19425489935E+02  0.39473110141E+02  0.51100000000E-03 0. -1.
        -11    1    3    3    0    0  0.20664532239E+02  0.61404834962E+01 -0.94003848691E+01  0.23517986014E+02  0.51100000000E-03 0.  1.
        -12    1    3    3    0    0 -0.34380409113E+01  0.36674019555E+01 -0.80261984940E+01  0.94704711961E+01  0.00000000000E+00 0.  1.
</event>
<event>
 7    1  0.1360399E-013  0.7246160E+02  0.7816164E-02  0.1226708E+00
        -11   -1    0    0    0    0  0.00000000000E+00  0.00000000000E+00  0.45593999997E+02  0.45594000000E+02  0.51100000000E-03 0. -1.
         11   -1    0    0    0    0 -0.00000000000E+00 -0.00000000000E+00 -0.45593999997E+02  0.45594000000E+02  0.51100000000E-03 0.  1.
    9900012    2    1    2    0    0  0.46639026201E+01 -0.18133117949E+02  0.34059663716E+00  0.72461602581E+02  0.70000042060E+02 0.  0.
         12    1    1    2    0    0 -0.46639026201E+01  0.18133117949E+02 -0.34059663716E+00  0.18726397419E+02  0.00000000000E+00 0. -1.
         11    1    3    3    0    0 -0.20741185813E+02  0.26427810022E+01 -0.11925228799E+02  0.24070566311E+02  0.51100000000E-03 0.  1.
        -11    1    3    3    0    0  0.17668747006E+02 -0.57519312773E+01  0.22072791200E+02  0.28852685244E+02  0.51100000000E-03 0. -1.
         12    1    3    3    0    0  0.77363414271E+01 -0.15023967674E+02 -0.98069657638E+01  0.19538351027E+02  0.00000000000E+00 0. -1.
</event>
<event>
 7    1  0.1360399E-013  0.7246154E+02  0.7816164E-02  0.1226708E+00
        -11   -1    0    0    0    0  0.00000000000E+00  0.00000000000E+00  0.45593999997E+02  0.45594000000E+02  0.51100000000E-03 0.  1.
         11   -1    0    0    0    0 -0.00000000000E+00 -0.00000000000E+00 -0.45593999997E+02  0.45594000000E+02  0.51100000000E-03 0. -1.
    9900012    2    1    2    0    0  0.10033699849E+02  0.39709622723E+01  0.15304786385E+02  0.72461543840E+02  0.69999965539E+02 0.  0.
         12    1    1    2    0    0 -0.10033699849E+02 -0.39709622723E+01 -0.15304786385E+02  0.18726456160E+02  0.00000000000E+00 0. -1.
         11    1    3    3    0    0  0.14844107839E+02  0.14565337267E+02 -0.14632853775E+02  0.25428664871E+02  0.51100000000E-03 0. -1.
        -11    1    3    3    0    0  0.10867259439E+02 -0.90166388611E+01  0.27735048942E+02  0.31122821918E+02  0.51100000000E-03 0.  1.
         12    1    3    3    0    0 -0.15677667429E+02 -0.15777361339E+01  0.22025912168E+01  0.15910057052E+02  0.00000000000E+00 0. -1.
</event>
<event>
 7    1  0.1360399E-013  0.7246159E+02  0.7816164E-02  0.1226708E+00
        -11   -1    0    0    0    0  0.00000000000E+00  0.00000000000E+00  0.45593999997E+02  0.45594000000E+02  0.51100000000E-03 0. -1.
         11   -1    0    0    0    0 -0.00000000000E+00 -0.00000000000E+00 -0.45593999997E+02  0.45594000000E+02  0.51100000000E-03 0.  1.
    9900012    2    1    2    0    0  0.26418615688E+01 -0.48311533123E+01 -0.17898577004E+02  0.72461587272E+02  0.70000022117E+02 0.  0.
         12    1    1    2    0    0 -0.26418615688E+01  0.48311533123E+01  0.17898577004E+02  0.18726412728E+02  0.00000000000E+00 0. -1.
         11    1    3    3    0    0 -0.87292157126E+00 -0.24993334445E+02 -0.22363480985E+02  0.33549277798E+02  0.51100000000E-03 0.  1.
        -11    1    3    3    0    0 -0.10351675789E+02  0.19207339337E+02  0.99359283775E+01  0.23975023441E+02  0.51100000000E-03 0. -1.
        -12    1    3    3    0    0  0.13866458929E+02  0.95484179594E+00 -0.54710243971E+01  0.14937286033E+02  0.00000000000E+00 0.  1.
</event>
<event>
 7    1  0.1360399E-013  0.7246158E+02  0.7816164E-02  0.1226708E+00
        -11   -1    0    0    0    0  0.00000000000E+00  0.00000000000E+00  0.45593999997E+02  0.45594000000E+02  0.51100000000E-03 0.  1.
         11   -1    0    0    0    0 -0.00000000000E+00 -0.00000000000E+00 -0.45593999997E+02  0.45594000000E+02  0.51100000000E-03 0. -1.
    9900012    2    1    2    0    0  0.42070094381E+01  0.15438617666E+02 -0.97277347314E+01  0.72461583716E+02  0.70000017484E+02 0.  0.
         12    1    1    2    0    0 -0.42070094381E+01 -0.15438617666E+02  0.97277347314E+01  0.18726416284E+02  0.00000000000E+00 0. -1.
         11    1    3    3    0    0  0.70172735538E+01  0.33510377773E+02  0.12958699962E+02  0.36607587350E+02  0.51100000000E-03 0.  1.
        -11    1    3    3    0    0 -0.60975805195E+01 -0.21850611658E+02 -0.17567118656E+02  0.28692043778E+02  0.51100000000E-03 0. -1.
        -12    1    3    3    0    0  0.32873164038E+01  0.37788515505E+01 -0.51193160372E+01  0.71619525877E+01  0.00000000000E+00 0.  1.
</event>
<event>
 7    1  0.1360399E-013  0.7246154E+02  0.7816164E-02  0.1226708E+00
        -11   -1    0    0    0    0  0.00000000000E+00  0.00000000000E+00  0.45593999997E+02  0.45594000000E+02  0.51100000000E-03 0. -1.
         11   -1    0    0    0    0 -0.00000000000E+00 -0.00000000000E+00 -0.45593999997E+02  0.45594000000E+02  0.51100000000E-03 0.  1.
    9900012    2    1    2    0    0  0.13157263840E+02  0.61662568680E+01 -0.11812872853E+02  0.72461540630E+02  0.69999961357E+02 0.  0.
         12    1    1    2    0    0 -0.13157263840E+02 -0.61662568680E+01  0.11812872853E+02  0.18726459370E+02  0.00000000000E+00 0. -1.
         11    1    3    3    0    0 -0.15451665261E+02 -0.50567599595E-01 -0.27482441461E+02  0.31528417425E+02  0.51100000000E-03 0. -1.
        -11    1    3    3    0    0  0.29945230296E+02  0.44947043583E+01  0.58068875628E+01  0.30832436300E+02  0.51100000000E-03 0.  1.
        -12    1    3    3    0    0 -0.13363011962E+01  0.17221201093E+01  0.98626810452E+01  0.10100686905E+02  0.00000000000E+00 0.  1.
</event>
<event>
 7    1  0.1360399E-013  0.7246156E+02  0.7816164E-02  0.1226708E+00
        -11   -1    0    0    0    0  0.00000000000E+00  0.00000000000E+00  0.45593999997E+02  0.45594000000E+02  0.51100000000E-03 0.  1.
         11   -1    0    0    0    0 -0.00000000000E+00 -0.00000000000E+00 -0.45593999997E+02  0.45594000000E+02  0.51100000000E-03 0. -1.
    9900012    2    1    2    0    0 -0.43077970576E+00 -0.87181404100E+00  0.18701178854E+02  0.72461555559E+02  0.69999980804E+02 0.  0.
         12    1    1    2    0    0  0.43077970576E+00  0.87181404100E+00 -0.18701178854E+02  0.18726444441E+02  0.00000000000E+00 0. -1.
         11    1    3    3    0    0  0.24985126244E+02 -0.18734640410E+02  0.45499958736E+00  0.31232199884E+02  0.51100000000E-03 0. -1.
        -11    1    3    3    0    0 -0.19881485950E+02  0.19604787846E+01  0.80078892334E+01  0.21523086463E+02  0.51100000000E-03 0.  1.
         12    1    3    3    0    0 -0.55344199998E+01  0.15902347585E+02  0.10238290033E+02  0.19706269212E+02  0.00000000000E+00 0. -1.
</event>
<event>
 7    1  0.1360399E-013  0.7246157E+02  0.7816164E-02  0.1226708E+00
        -11   -1    0    0    0    0  0.00000000000E+00  0.00000000000E+00  0.45593999997E+02  0.45594000000E+02  0.51100000000E-03 0. -1.
         11   -1    0    0    0    0 -0.00000000000E+00 -0.00000000000E+00 -0.45593999997E+02  0.45594000000E+02  0.51100000000E-03 0.  1.
    9900012    2    1    2    0    0  0.52172758221E+00  0.16113688842E+02  0.95266006390E+01  0.72461567144E+02  0.69999995897E+02 0.  0.
         12    1    1    2    0    0 -0.52172758221E+00 -0.16113688842E+02 -0.95266006390E+01  0.18726432856E+02  0.00000000000E+00 0. -1.
         11    1    3    3    0    0  0.10603885543E+02 -0.35350988573E+01  0.39301417421E+01  0.11848431412E+02  0.51100000000E-03 0. -1.
        -11    1    3    3    0    0 -0.14160893540E+02  0.35124014728E+02  0.16436020151E+02  0.41284017188E+02  0.51100000000E-03 0.  1.
        -12    1    3    3    0    0  0.40787355788E+01 -0.15475227029E+02 -0.10839561254E+02  0.19329118545E+02  0.00000000000E+00 0.  1.
</event>
<event>
 7    1  0.1360399E-013  0.7246144E+02  0.7816164E-02  0.1226708E+00
        -11   -1    0    0    0    0  0.00000000000E+00  0.00000000000E+00  0.45593999997E+02  0.45594000000E+02  0.51100000000E-03 0.  1.
         11   -1    0    0    0    0 -0.00000000000E+00 -0.00000000000E+00 -0.45593999997E+02  0.45594000000E+02  0.51100000000E-03 0. -1.
    9900012    2    1    2    0    0  0.12862043841E+00  0.18359946869E+02  0.36850862360E+01  0.72461439910E+02  0.69999830150E+02 0.  0.
         12    1    1    2    0    0 -0.12862043841E+00 -0.18359946869E+02 -0.36850862360E+01  0.18726560090E+02  0.00000000000E+00 0. -1.
         11    1    3    3    0    0  0.14587975765E+02 -0.17044560790E+02 -0.10690262776E+02  0.24851716398E+02  0.51100000000E-03 0. -1.
        -11    1    3    3    0    0  0.48202113253E+01  0.33653451204E+01  0.75998068921E+01  0.96081762087E+01  0.51100000000E-03 0.  1.
         12    1    3    3    0    0 -0.19279566652E+02  0.32039162538E+02  0.67755421203E+01  0.38001547303E+02  0.00000000000E+00 0. -1.
</event>
<event>
 7    1  0.1360399E-013  0.7246161E+02  0.7816164E-02  0.1226708E+00
        -11   -1    0    0    0    0  0.00000000000E+00  0.00000000000E+00  0.45593999997E+02  0.45594000000E+02  0.51100000000E-03 0.  1.
         11   -1    0    0    0    0 -0.00000000000E+00 -0.00000000000E+00 -0.45593999997E+02  0.45594000000E+02  0.51100000000E-03 0. -1.
    9900012    2    1    2    0    0  0.17939073546E+02 -0.52465044184E+01 -0.11583127643E+01  0.72461605346E+02  0.70000045661E+02 0.  0.
         12    1    1    2    0    0 -0.17939073546E+02  0.52465044184E+01  0.11583127643E+01  0.18726394654E+02  0.00000000000E+00 0. -1.
         11    1    3    3    0    0  0.23394716030E+02  0.36355385115E+01  0.24246190338E+02  0.33888163487E+02  0.51100000000E-03 0.  1.
        -11    1    3    3    0    0 -0.68762489397E+01  0.88662136244E+01 -0.99781177762E+01  0.15015171598E+02  0.51100000000E-03 0. -1.
         12    1    3    3    0    0  0.14206064557E+01 -0.17748256554E+02 -0.15426385326E+02  0.23558270260E+02  0.00000000000E+00 0. -1.
</event>
<event>
 7    1  0.1360399E-013  0.7246158E+02  0.7816164E-02  0.1226708E+00
        -11   -1    0    0    0    0  0.00000000000E+00  0.00000000000E+00  0.45593999997E+02  0.45594000000E+02  0.51100000000E-03 0.  1.
         11   -1    0    0    0    0 -0.00000000000E+00 -0.00000000000E+00 -0.45593999997E+02  0.45594000000E+02  0.51100000000E-03 0. -1.
    9900012    2    1    2    0    0 -0.10088111952E+02  0.93350156082E+01 -0.12718743509E+02  0.72461576006E+02  0.70000007440E+02 0.  0.
         12    1    1    2    0    0  0.10088111952E+02 -0.93350156082E+01  0.12718743509E+02  0.18726423994E+02  0.00000000000E+00 0. -1.
         11    1    3    3    0    0  0.11660978543E+02  0.66600785192E+00 -0.18205911580E+02  0.21630469338E+02  0.51100000000E-03 0. -1.
        -11    1    3    3    0    0 -0.90658729571E+01  0.64055431996E+01  0.25054346230E+02  0.27403308221E+02  0.51100000000E-03 0.  1.
        -12    1    3    3    0    0 -0.12683217539E+02  0.22634645567E+01 -0.19567178159E+02  0.23427798446E+02  0.00000000000E+00 0.  1.
</event>
<event>
 7    1  0.1360399E-013  0.7246149E+02  0.7816164E-02  0.1226708E+00
        -11   -1    0    0    0    0  0.00000000000E+00  0.00000000000E+00  0.45593999997E+02  0.45594000000E+02  0.51100000000E-03 0.  1.
         11   -1    0    0    0    0 -0.00000000000E+00 -0.00000000000E+00 -0.45593999997E+02  0.45594000000E+02  0.51100000000E-03 0. -1.
    9900012    2    1    2    0    0  0.40075126224E+01 -0.10397370697E+02  0.15050474534E+02  0.72461487817E+02  0.69999892558E+02 0.  0.
         12    1    1    2    0    0 -0.40075126224E+01  0.10397370697E+02 -0.15050474534E+02  0.18726512183E+02  0.00000000000E+00 0. -1.
         11    1    3    3    0    0  0.13974256407E+01 -0.48361534022E+00 -0.26638721068E+02  0.26679732806E+02  0.51100000000E-03 0. -1.
        -11    1    3    3    0    0  0.20238239065E+01 -0.14217010232E+02  0.28821314143E+02  0.32200735897E+02  0.51100000000E-03 0.  1.
        -12    1    3    3    0    0  0.58626307518E+00  0.43032548745E+01  0.12867881459E+02  0.13581019113E+02  0.00000000000E+00 0.  1.
</event>
<event>
 7    1  0.1360399E-013  0.7246158E+02  0.7816164E-02  0.1226708E+00
        -11   -1    0    0    0    0  0.00000000000E+00  0.00000000000E+00  0.45593999997E+02  0.45594000000E+02  0.51100000000E-03 0. -1.
         11   -1    0    0    0    0 -0.00000000000E+00 -0.00000000000E+00 -0.45593999997E+02  0.45594000000E+02  0.51100000000E-03 0.  1.
    9900012    2    1    2    0    0  0.13823180197E+01  0.10000483353E+02 -0.15772074244E+02  0.72461580258E+02  0.70000012980E+02 0.  0.
         12    1    1    2    0    0 -0.13823180197E+01 -0.10000483353E+02  0.15772074244E+02  0.18726419742E+02  0.00000000000E+00 0. -1.
         11    1    3    3    0    0 -0.11728626936E+01 -0.14590716284E+02 -0.36641167853E+02  0.39456809178E+02  0.51100000000E-03 0.  1.
        -11    1    3    3    0    0  0.12577196934E+01  0.13763333430E+02  0.15761135949E+02  0.20962457217E+02  0.51100000000E-03 0. -1.
        -12    1    3    3    0    0  0.12974610199E+01  0.10827866207E+02  0.51079576609E+01  0.12042313863E+02  0.00000000000E+00 0.  1.
</event>
<event>
 8    1  0.1360399E-013  0.7246159E+02  0.7816164E-02  0.1226708E+00
        -11   -1    0    0    0    0  0.00000000000E+00  0.00000000000E+00  0.45593999997E+02  0.45594000000E+02  0.51100000000E-03 0.  1.
         11   -1    0    0    0    0 -0.00000000000E+00 -0.00000000000E+00 -0.45593999997E+02  0.45594000000E+02  0.51100000000E-03 0. -1.
    9900012    2    1    2    0    0 -0.80368363478E+01  0.16530445436E+02  0.35821798808E+01  0.72461591442E+02  0.70000027548E+02 0.  0.
         24    2    3    3    0    0  0.12878660461E+00  0.23263437342E+02  0.15828499408E+02  0.56275704984E+02  0.48736120845E+02 0.  0.
         12    1    1    2    0    0  0.80368363478E+01 -0.16530445436E+02 -0.35821798808E+01  0.18726408558E+02  0.00000000000E+00 0. -1.
         11    1    3    3    0    0 -0.81656229524E+01 -0.67329919063E+01 -0.12246319527E+02  0.16185886458E+02  0.51100000000E-03 0. -1.
        -11    1    4    4    0    0  0.18433727474E+02  0.16893058826E+02  0.24532840263E+02  0.35029102140E+02  0.51100000000E-03 0.  1.
         12    1    4    4    0    0 -0.18304940870E+02  0.63703785167E+01 -0.87043408557E+01  0.21246602844E+02  0.00000000000E+00 0. -1.
</event>
<event>
 7    1  0.1360399E-013  0.7246154E+02  0.7816164E-02  0.1226708E+00
        -11   -1    0    0    0    0  0.00000000000E+00  0.00000000000E+00  0.45593999997E+02  0.45594000000E+02  0.51100000000E-03 0.  1.
         11   -1    0    0    0    0 -0.00000000000E+00 -0.00000000000E+00 -0.45593999997E+02  0.45594000000E+02  0.51100000000E-03 0. -1.
    9900012    2    1    2    0    0 -0.18044866464E+02 -0.18334245441E+01  0.46585113287E+01  0.72461537999E+02  0.69999957929E+02 0.  0.
         12    1    1    2    0    0  0.18044866464E+02  0.18334245441E+01 -0.46585113287E+01  0.18726462001E+02  0.00000000000E+00 0. -1.
         11    1    3    3    0    0 -0.29699355064E+02 -0.24201367482E+02 -0.39230890683E+01  0.38511667158E+02  0.51100000000E-03 0. -1.
        -11    1    3    3    0    0  0.67934072737E+01  0.12593973616E+02 -0.61830358250E+01  0.15588087955E+02  0.51100000000E-03 0.  1.
        -12    1    3    3    0    0  0.48610813258E+01  0.97739693224E+01  0.14764636222E+02  0.18361782886E+02  0.00000000000E+00 0.  1.
</event>
<event>
 7    1  0.1360399E-013  0.7246158E+02  0.7816164E-02  0.1226708E+00
        -11   -1    0    0    0    0  0.00000000000E+00  0.00000000000E+00  0.45593999997E+02  0.45594000000E+02  0.51100000000E-03 0.  1.
         11   -1    0    0    0    0 -0.00000000000E+00 -0.00000000000E+00 -0.45593999997E+02  0.45594000000E+02  0.51100000000E-03 0. -1.
    9900012    2    1    2    0    0 -0.10141000481E+01  0.15660610816E+02  0.10217416835E+02  0.72461581848E+02  0.70000015050E+02 0.  0.
         12    1    1    2    0    0  0.10141000481E+01 -0.15660610816E+02 -0.10217416835E+02  0.18726418152E+02  0.00000000000E+00 0. -1.
         11    1    3    3    0    0 -0.20652265485E+02  0.18460438907E+02 -0.59967487706E+01  0.28341927782E+02  0.51100000000E-03 0. -1.
        -11    1    3    3    0    0  0.23353194387E+02 -0.14105887502E+02  0.49397200953E+01  0.27726315752E+02  0.51100000000E-03 0.  1.
        -12    1    3    3    0    0 -0.37150289495E+01  0.11306059411E+02  0.11274445510E+02  0.16393338314E+02  0.00000000000E+00 0.  1.
</event>
<event>
 7    1  0.1360399E-013  0.7246157E+02  0.7816164E-02  0.1226708E+00
        -11   -1    0    0    0    0  0.00000000000E+00  0.00000000000E+00  0.45593999997E+02  0.45594000000E+02  0.51100000000E-03 0. -1.
         11   -1    0    0    0    0 -0.00000000000E+00 -0.00000000000E+00 -0.45593999997E+02  0.45594000000E+02  0.51100000000E-03 0.  1.
    9900012    2    1    2    0    0  0.17217719064E+02  0.44380335785E+01 -0.58765007826E+01  0.72461568059E+02  0.69999997088E+02 0.  0.
         12    1    1    2    0    0 -0.17217719064E+02 -0.44380335785E+01  0.58765007826E+01  0.18726431941E+02  0.00000000000E+00 0. -1.
         11    1    3    3    0    0 -0.11926349488E+02  0.10617310638E+02 -0.95161446818E+01  0.18588224960E+02  0.51100000000E-03 0. -1.
        -11    1    3    3    0    0  0.14736881305E+02 -0.21392736090E+02 -0.11106192910E+02  0.28251944167E+02  0.51100000000E-03 0.  1.
         12    1    3    3    0    0  0.14407187246E+02  0.15213459030E+02  0.14745836809E+02  0.25621398932E+02  0.00000000000E+00 0. -1.
</event>
<event>
 7    1  0.1360399E-013  0.7246166E+02  0.7816164E-02  0.1226708E+00
        -11   -1    0    0    0    0  0.00000000000E+00  0.00000000000E+00  0.45593999997E+02  0.45594000000E+02  0.51100000000E-03 0.  1.
         11   -1    0    0    0    0 -0.00000000000E+00 -0.00000000000E+00 -0.45593999997E+02  0.45594000000E+02  0.51100000000E-03 0. -1.
    9900012    2    1    2    0    0  0.18676600248E+02 -0.13001368443E+01  0.41259284576E+00  0.72461655309E+02  0.70000110747E+02 0.  0.
         12    1    1    2    0    0 -0.18676600248E+02  0.13001368443E+01 -0.41259284576E+00  0.18726344691E+02  0.00000000000E+00 0. -1.
         11    1    3    3    0    0  0.14495788888E+02 -0.19297799311E+02 -0.12610172381E+02  0.27231404692E+02  0.51100000000E-03 0.  1.
        -11    1    3    3    0    0 -0.23483276501E+01  0.29325324441E+02  0.12980413456E+02  0.32155566083E+02  0.51100000000E-03 0. -1.
         12    1    3    3    0    0  0.65291390094E+01 -0.11327661974E+02  0.42351771018E-01  0.13074684535E+02  0.00000000000E+00 0. -1.
</event>
<event>
 7    1  0.1360399E-013  0.7246160E+02  0.7816164E-02  0.1226708E+00
        -11   -1    0    0    0    0  0.00000000000E+00  0.00000000000E+00  0.45593999997E+02  0.45594000000E+02  0.51100000000E-03 0. -1.
         11   -1    0    0    0    0 -0.00000000000E+00 -0.00000000000E+00 -0.45593999997E+02  0.45594000000E+02  0.51100000000E-03 0.  1.
    9900012    2    1    2    0    0 -0.13917842875E+02 -0.82855313704E+01 -0.93979621592E+01  0.72461599568E+02  0.70000038135E+02 0.  0.
         12    1    1    2    0    0  0.13917842875E+02  0.82855313704E+01  0.93979621592E+01  0.18726400432E+02  0.00000000000E+00 0. -1.
         11    1    3    3    0    0 -0.12297034688E+01  0.22441075526E+01  0.10578801797E+02  0.10883898064E+02  0.51100000000E-03 0. -1.
        -11    1    3    3    0    0 -0.23770197269E+02  0.11783442738E+02 -0.24667412412E+02  0.36226413518E+02  0.51100000000E-03 0.  1.
        -12    1    3    3    0    0  0.11082057863E+02 -0.22313081661E+02  0.46906484554E+01  0.25351287987E+02  0.00000000000E+00 0.  1.
</event>
<event>
 7    1  0.1360399E-013  0.7246155E+02  0.7816164E-02  0.1226708E+00
        -11   -1    0    0    0    0  0.00000000000E+00  0.00000000000E+00  0.45593999997E+02  0.45594000000E+02  0.51100000000E-03 0.  1.
         11   -1    0    0    0    0 -0.00000000000E+00 -0.00000000000E+00 -0.45593999997E+02  0.45594000000E+02  0.51100000000E-03 0. -1.
    9900012    2    1    2    0    0  0.11710662405E+02  0.13521743391E+02 -0.55410197012E+01  0.72461546582E+02  0.69999969110E+02 0.  0.
         12    1    1    2    0    0 -0.11710662405E+02 -0.13521743391E+02  0.55410197012E+01  0.18726453418E+02  0.00000000000E+00 0. -1.
         11    1    3    3    0    0  0.15299441867E+02  0.10287966418E+01  0.43552566243E+01  0.15940502015E+02  0.51100000000E-03 0. -1.
        -11    1    3    3    0    0 -0.26295339418E+02  0.18356578589E+02 -0.38224336141E+01  0.32295817866E+02  0.51100000000E-03 0.  1.
        -12    1    3    3    0    0  0.22706559957E+02 -0.58636318401E+01 -0.60738427113E+01  0.24225226701E+02  0.00000000000E+00 0.  1.
</event>
<event>
 7    1  0.1360399E-013  0.7246160E+02  0.7816164E-02  0.1226708E+00
        -11   -1    0    0    0    0  0.00000000000E+00  0.00000000000E+00  0.45593999997E+02  0.45594000000E+02  0.51100000000E-03 0.  1.
         11   -1    0    0    0    0 -0.00000000000E+00 -0.00000000000E+00 -0.45593999997E+02  0.45594000000E+02  0.51100000000E-03 0. -1.
    9900012    2    1    2    0    0 -0.43489727751E+00  0.85040295530E+01  0.16678445590E+02  0.72461596139E+02  0.70000033667E+02 0.  0.
         12    1    1    2    0    0  0.43489727751E+00 -0.85040295530E+01 -0.16678445590E+02  0.18726403861E+02  0.00000000000E+00 0. -1.
         11    1    3    3    0    0 -0.77245775699E+01  0.43341116545E+01 -0.75799199646E+01  0.11657993369E+02  0.51100000000E-03 0. -1.
        -11    1    3    3    0    0  0.16610899348E+02 -0.19396115658E+02 -0.26515193730E+00  0.25538237715E+02  0.51100000000E-03 0.  1.
        -12    1    3    3    0    0 -0.93212190552E+01  0.23566033556E+02  0.24523517492E+02  0.35265365055E+02  0.00000000000E+00 0.  1.
</event>
<event>
 7    1  0.1360399E-013  0.7246157E+02  0.7816164E-02  0.1226708E+00
        -11   -1    0    0    0    0  0.00000000000E+00  0.00000000000E+00  0.45593999997E+02  0.45594000000E+02  0.51100000000E-03 0.  1.
         11   -1    0    0    0    0 -0.00000000000E+00 -0.00000000000E+00 -0.45593999997E+02  0.45594000000E+02  0.51100000000E-03 0. -1.
    9900012    2    1    2    0    0 -0.17926162525E+02  0.16922943726E+01  0.51447238090E+01  0.72461565577E+02  0.69999993855E+02 0.  0.
         12    1    1    2    0    0  0.17926162525E+02 -0.16922943726E+01 -0.51447238090E+01  0.18726434423E+02  0.00000000000E+00 0. -1.
         11    1    3    3    0    0  0.16002587065E+02  0.79357403700E+01  0.18311366715E+02  0.25580557446E+02  0.51100000000E-03 0. -1.
        -11    1    3    3    0    0 -0.20060009883E+02 -0.64185524929E+01  0.71840032429E+01  0.22253352904E+02  0.51100000000E-03 0.  1.
         12    1    3    3    0    0 -0.13868739707E+02  0.17510649553E+00 -0.20350646149E+02  0.24627655228E+02  0.00000000000E+00 0. -1.
</event>
<event>
 7    1  0.1360399E-013  0.7246169E+02  0.7816164E-02  0.1226708E+00
        -11   -1    0    0    0    0  0.00000000000E+00  0.00000000000E+00  0.45593999997E+02  0.45594000000E+02  0.51100000000E-03 0.  1.
         11   -1    0    0    0    0 -0.00000000000E+00 -0.00000000000E+00 -0.45593999997E+02  0.45594000000E+02  0.51100000000E-03 0. -1.
    9900012    2    1    2    0    0 -0.17052085926E+02  0.18910591998E+00  0.77372730846E+01  0.72461687222E+02  0.70000152320E+02 0.  0.
         12    1    1    2    0    0  0.17052085926E+02 -0.18910591998E+00 -0.77372730846E+01  0.18726312778E+02  0.00000000000E+00 0. -1.
         11    1    3    3    0    0 -0.36013702996E+02  0.35515218589E+01  0.10151869040E+02  0.37585376894E+02  0.51100000000E-03 0. -1.
        -11    1    3    3    0    0  0.25750982439E+02 -0.74398270001E+01 -0.94070061518E+00  0.26820683068E+02  0.51100000000E-03 0.  1.
        -12    1    3    3    0    0 -0.67893653684E+01  0.40774110612E+01 -0.14738953401E+01  0.80556272594E+01  0.00000000000E+00 0.  1.
</event>
<event>
 7    1  0.1360399E-013  0.7246155E+02  0.7816164E-02  0.1226708E+00
        -11   -1    0    0    0    0  0.00000000000E+00  0.00000000000E+00  0.45593999997E+02  0.45594000000E+02  0.51100000000E-03 0. -1.
         11   -1    0    0    0    0 -0.00000000000E+00 -0.00000000000E+00 -0.45593999997E+02  0.45594000000E+02  0.51100000000E-03 0.  1.
    9900012    2    1    2    0    0 -0.53734158825E+01 -0.16026145607E+02 -0.80603360029E+01  0.72461549249E+02  0.69999972585E+02 0.  0.
         12    1    1    2    0    0  0.53734158825E+01  0.16026145607E+02  0.80603360029E+01  0.18726450751E+02  0.00000000000E+00 0. -1.
         11    1    3    3    0    0  0.87644370210E+01  0.13140052572E+02  0.13256840716E+02  0.20620867197E+02  0.51100000000E-03 0. -1.
        -11    1    3    3    0    0 -0.10559810390E+02 -0.34561476125E+02 -0.79711650011E+01  0.37007360067E+02  0.51100000000E-03 0.  1.
        -12    1    3    3    0    0 -0.35780425135E+01  0.53952779460E+01 -0.13346011718E+02  0.14833321985E+02  0.00000000000E+00 0.  1.
</event>
<event>
 7    1  0.1360399E-013  0.7246158E+02  0.7816164E-02  0.1226708E+00
        -11   -1    0    0    0    0  0.00000000000E+00  0.00000000000E+00  0.45593999997E+02  0.45594000000E+02  0.51100000000E-03 0.  1.
         11   -1    0    0    0    0 -0.00000000000E+00 -0.00000000000E+00 -0.45593999997E+02  0.45594000000E+02  0.51100000000E-03 0. -1.
    9900012    2    1    2    0    0  0.12567791893E+02 -0.11859230131E+02  0.72172156374E+01  0.72461576584E+02  0.70000008194E+02 0.  0.
         12    1    1    2    0    0 -0.12567791893E+02  0.11859230131E+02 -0.72172156374E+01  0.18726423416E+02  0.00000000000E+00 0. -1.
         11    1    3    3    0    0  0.88244782350E-01 -0.33721607797E+01 -0.12561317659E+02  0.13006381398E+02  0.51100000000E-03 0. -1.
        -11    1    3    3    0    0 -0.85487244687E+01 -0.72257329319E+01  0.32821858817E+02  0.34678038049E+02  0.51100000000E-03 0.  1.
        -12    1    3    3    0    0  0.21028271580E+02 -0.12613364196E+01 -0.13043325520E+02  0.24777157138E+02  0.00000000000E+00 0.  1.
</event>
<event>
 7    1  0.1360399E-013  0.7246161E+02  0.7816164E-02  0.1226708E+00
        -11   -1    0    0    0    0  0.00000000000E+00  0.00000000000E+00  0.45593999997E+02  0.45594000000E+02  0.51100000000E-03 0. -1.
         11   -1    0    0    0    0 -0.00000000000E+00 -0.00000000000E+00 -0.45593999997E+02  0.45594000000E+02  0.51100000000E-03 0.  1.
    9900012    2    1    2    0    0 -0.10787063616E+02 -0.11049355170E+02  0.10593810857E+02  0.72461606337E+02  0.70000046953E+02 0.  0.
         12    1    1    2    0    0  0.10787063616E+02  0.11049355170E+02 -0.10593810857E+02  0.18726393663E+02  0.00000000000E+00 0. -1.
         11    1    3    3    0    0  0.31228276768E+01 -0.69572242920E+01  0.88377330730E+01  0.11673069377E+02  0.51100000000E-03 0. -1.
        -11    1    3    3    0    0 -0.23452957726E+02  0.20938974699E+02 -0.77187577480E+01  0.32373771930E+02  0.51100000000E-03 0.  1.
        -12    1    3    3    0    0  0.95430664328E+01 -0.25031105577E+02  0.94748355323E+01  0.28414765030E+02  0.00000000000E+00 0.  1.
</event>
<event>
 7    1  0.1360399E-013  0.7246160E+02  0.7816164E-02  0.1226708E+00
        -11   -1    0    0    0    0  0.00000000000E+00  0.00000000000E+00  0.45593999997E+02  0.45594000000E+02  0.51100000000E-03 0. -1.
         11   -1    0    0    0    0 -0.00000000000E+00 -0.00000000000E+00 -0.45593999997E+02  0.45594000000E+02  0.51100000000E-03 0.  1.
    9900012    2    1    2    0    0 -0.31761031405E+01  0.13888430720E+02 -0.12153273499E+02  0.72461596294E+02  0.70000033869E+02 0.  0.
         12    1    1    2    0    0  0.31761031405E+01 -0.13888430720E+02  0.12153273499E+02  0.18726403706E+02  0.00000000000E+00 0. -1.
         11    1    3    3    0    0 -0.62500375672E+01 -0.15890923313E+02  0.48120590034E+01  0.17740922339E+02  0.51100000000E-03 0. -1.
        -11    1    3    3    0    0  0.10500769270E+02  0.21384295127E+02  0.97560713700E+01  0.25743643142E+02  0.51100000000E-03 0.  1.
        -12    1    3    3    0    0 -0.74268348434E+01  0.83950589056E+01 -0.26721403873E+02  0.28977030813E+02  0.00000000000E+00 0.  1.
</event>
<event>
 7    1  0.1360399E-013  0.7246177E+02  0.7816164E-02  0.1226707E+00
        -11   -1    0    0    0    0  0.00000000000E+00  0.00000000000E+00  0.45593999997E+02  0.45594000000E+02  0.51100000000E-03 0.  1.
         11   -1    0    0    0    0 -0.00000000000E+00 -0.00000000000E+00 -0.45593999997E+02  0.45594000000E+02  0.51100000000E-03 0. -1.
    9900012    2    1    2    0    0  0.17474557365E+02 -0.66355602090E+01  0.11317010934E+01  0.72461773425E+02  0.70000264614E+02 0.  0.
         12    1    1    2    0    0 -0.17474557365E+02  0.66355602090E+01 -0.11317010934E+01  0.18726226575E+02  0.00000000000E+00 0. -1.
         11    1    3    3    0    0  0.32199208395E+02 -0.12314493142E+01 -0.11410182918E+02  0.34183296551E+02  0.51100000000E-03 0. -1.
        -11    1    3    3    0    0 -0.61296953380E+01 -0.17042433846E+02  0.15107114980E+02  0.23584796790E+02  0.51100000000E-03 0.  1.
         12    1    3    3    0    0 -0.85949556918E+01  0.11638322951E+02 -0.25652309690E+01  0.14693680083E+02  0.00000000000E+00 0. -1.
</event>
<event>
 7    1  0.1360399E-013  0.7246139E+02  0.7816164E-02  0.1226708E+00
        -11   -1    0    0    0    0  0.00000000000E+00  0.00000000000E+00  0.45593999997E+02  0.45594000000E+02  0.51100000000E-03 0. -1.
         11   -1    0    0    0    0 -0.00000000000E+00 -0.00000000000E+00 -0.45593999997E+02  0.45594000000E+02  0.51100000000E-03 0.  1.
    9900012    2    1    2    0    0  0.33102950494E+01 -0.15064550004E+02 -0.10620126811E+02  0.72461392897E+02  0.69999768906E+02 0.  0.
         12    1    1    2    0    0 -0.33102950494E+01  0.15064550004E+02  0.10620126811E+02  0.18726607103E+02  0.00000000000E+00 0. -1.
         11    1    3    3    0    0 -0.72450610678E+01  0.10462165807E+02  0.46489005901E+01  0.13548435341E+02  0.51100000000E-03 0. -1.
        -11    1    3    3    0    0  0.73531543828E+01 -0.27303029011E+02  0.12491349114E+02  0.30912102412E+02  0.51100000000E-03 0.  1.
        -12    1    3    3    0    0  0.32022017343E+01  0.17763132011E+01 -0.27760376515E+02  0.28000855144E+02  0.00000000000E+00 0.  1.
</event>
<event>
 7    1  0.1360399E-013  0.7246152E+02  0.7816164E-02  0.1226708E+00
        -11   -1    0    0    0    0  0.00000000000E+00  0.00000000000E+00  0.45593999997E+02  0.45594000000E+02  0.51100000000E-03 0. -1.
         11   -1    0    0    0    0 -0.00000000000E+00 -0.00000000000E+00 -0.45593999997E+02  0.45594000000E+02  0.51100000000E-03 0.  1.
    9900012    2    1    2    0    0 -0.46719547273E+01  0.45346026573E+01 -0.17558222525E+02  0.72461522476E+02  0.69999937707E+02 0.  0.
         12    1    1    2    0    0  0.46719547273E+01 -0.45346026573E+01  0.17558222525E+02  0.18726477524E+02  0.00000000000E+00 0. -1.
         11    1    3    3    0    0 -0.30566471196E+02  0.74658453744E+01  0.90987246560E+01  0.32754156975E+02  0.51100000000E-03 0. -1.
        -11    1    3    3    0    0  0.11837558146E+01  0.27169442591E+01 -0.70938251984E+01  0.76880049521E+01  0.51100000000E-03 0.  1.
         12    1    3    3    0    0  0.24710760654E+02 -0.56481869763E+01 -0.19563121983E+02  0.32019360548E+02  0.00000000000E+00 0. -1.
</event>
<event>
 7    1  0.1360399E-013  0.7246158E+02  0.7816164E-02  0.1226708E+00
        -11   -1    0    0    0    0  0.00000000000E+00  0.00000000000E+00  0.45593999997E+02  0.45594000000E+02  0.51100000000E-03 0.  1.
         11   -1    0    0    0    0 -0.00000000000E+00 -0.00000000000E+00 -0.45593999997E+02  0.45594000000E+02  0.51100000000E-03 0. -1.
    9900012    2    1    2    0    0 -0.14920415445E+01 -0.15345218023E+02  0.10629056955E+02  0.72461581338E+02  0.70000014386E+02 0.  0.
         12    1    1    2    0    0  0.14920415445E+01  0.15345218023E+02 -0.10629056955E+02  0.18726418662E+02  0.00000000000E+00 0. -1.
         11    1    3    3    0    0  0.21962195775E+02  0.95360026586E+01 -0.48869421446E+01  0.24436767252E+02  0.51100000000E-03 0. -1.
        -11    1    3    3    0    0 -0.17997287575E+02 -0.19008720009E+02  0.24591168791E+02  0.35916004499E+02  0.51100000000E-03 0.  1.
         12    1    3    3    0    0 -0.54569497446E+01 -0.58725006731E+01 -0.90751696913E+01  0.12108809586E+02  0.00000000000E+00 0. -1.
</event>
<event>
 7    1  0.1360399E-013  0.7246167E+02  0.7816164E-02  0.1226708E+00
        -11   -1    0    0    0    0  0.00000000000E+00  0.00000000000E+00  0.45593999997E+02  0.45594000000E+02  0.51100000000E-03 0.  1.
         11   -1    0    0    0    0 -0.00000000000E+00 -0.00000000000E+00 -0.45593999997E+02  0.45594000000E+02  0.51100000000E-03 0. -1.
    9900012    2    1    2    0    0 -0.14197416484E+02  0.12000336284E+02  0.22585135254E+01  0.72461665893E+02  0.70000124535E+02 0.  0.
         12    1    1    2    0    0  0.14197416484E+02 -0.12000336284E+02 -0.22585135254E+01  0.18726334107E+02  0.00000000000E+00 0. -1.
         11    1    3    3    0    0 -0.29101895490E+02 -0.12654879629E+02 -0.10621946626E+01  0.31752079574E+02  0.51100000000E-03 0. -1.
        -11    1    3    3    0    0  0.60257355791E+01  0.20934663034E+02 -0.10246427282E+02  0.24074029117E+02  0.51100000000E-03 0.  1.
        -12    1    3    3    0    0  0.88787434264E+01  0.37205528783E+01  0.13567135470E+02  0.16635557202E+02  0.00000000000E+00 0.  1.
</event>
<event>
 7    1  0.1360399E-013  0.7246156E+02  0.7816164E-02  0.1226708E+00
        -11   -1    0    0    0    0  0.00000000000E+00  0.00000000000E+00  0.45593999997E+02  0.45594000000E+02  0.51100000000E-03 0.  1.
         11   -1    0    0    0    0 -0.00000000000E+00 -0.00000000000E+00 -0.45593999997E+02  0.45594000000E+02  0.51100000000E-03 0. -1.
    9900012    2    1    2    0    0  0.74940057858E+01  0.10705960518E+02  0.13412751504E+02  0.72461558367E+02  0.69999984462E+02 0.  0.
         12    1    1    2    0    0 -0.74940057858E+01 -0.10705960518E+02 -0.13412751504E+02  0.18726441633E+02  0.00000000000E+00 0. -1.
         11    1    3    3    0    0 -0.12351976915E+02  0.19709568953E+02 -0.17231264602E+02  0.28947451046E+02  0.51100000000E-03 0. -1.
        -11    1    3    3    0    0  0.53469940366E+01  0.32340471255E+01  0.21618654681E+02  0.22503680510E+02  0.51100000000E-03 0.  1.
        -12    1    3    3    0    0  0.14498988664E+02 -0.12237655560E+02  0.90253614252E+01  0.21010426810E+02  0.00000000000E+00 0.  1.
</event>
<event>
 7    1  0.1360399E-013  0.7246152E+02  0.7816164E-02  0.1226708E+00
        -11   -1    0    0    0    0  0.00000000000E+00  0.00000000000E+00  0.45593999997E+02  0.45594000000E+02  0.51100000000E-03 0. -1.
         11   -1    0    0    0    0 -0.00000000000E+00 -0.00000000000E+00 -0.45593999997E+02  0.45594000000E+02  0.51100000000E-03 0.  1.
    9900012    2    1    2    0    0  0.70042483532E+01  0.98960613438E+01 -0.14271989353E+02  0.72461515941E+02  0.69999929195E+02 0.  0.
         12    1    1    2    0    0 -0.70042483532E+01 -0.98960613438E+01  0.14271989353E+02  0.18726484059E+02  0.00000000000E+00 0. -1.
         11    1    3    3    0    0  0.35476473721E+01 -0.25005407812E+02  0.56786933832E+01  0.25886362830E+02  0.51100000000E-03 0.  1.
        -11    1    3    3    0    0  0.12296946113E+02  0.27077792547E+02 -0.10803043988E+02  0.31640598803E+02  0.51100000000E-03 0. -1.
         12    1    3    3    0    0 -0.88403451323E+01  0.78236766090E+01 -0.91476387477E+01  0.14934554309E+02  0.00000000000E+00 0. -1.
</event>
<event>
 7    1  0.1360399E-013  0.7246158E+02  0.7816164E-02  0.1226708E+00
        -11   -1    0    0    0    0  0.00000000000E+00  0.00000000000E+00  0.45593999997E+02  0.45594000000E+02  0.51100000000E-03 0. -1.
         11   -1    0    0    0    0 -0.00000000000E+00 -0.00000000000E+00 -0.45593999997E+02  0.45594000000E+02  0.51100000000E-03 0.  1.
    9900012    2    1    2    0    0 -0.81388805960E+00 -0.11436016075E+02 -0.14806548105E+02  0.72461581650E+02  0.70000014793E+02 0.  0.
         12    1    1    2    0    0  0.81388805960E+00  0.11436016075E+02  0.14806548105E+02  0.18726418350E+02  0.00000000000E+00 0. -1.
         11    1    3    3    0    0  0.81787650217E+01  0.13620497857E+02  0.96495183774E+01  0.18588258776E+02  0.51100000000E-03 0. -1.
        -11    1    3    3    0    0 -0.12503020308E+01 -0.87221557098E+01 -0.32800871443E+02  0.33963751604E+02  0.51100000000E-03 0.  1.
         12    1    3    3    0    0 -0.77423510505E+01 -0.16334358222E+02  0.83448049603E+01  0.19909571269E+02  0.00000000000E+00 0. -1.
</event>
<event>
 7    1  0.1360399E-013  0.7246158E+02  0.7816164E-02  0.1226708E+00
        -11   -1    0    0    0    0  0.00000000000E+00  0.00000000000E+00  0.45593999997E+02  0.45594000000E+02  0.51100000000E-03 0.  1.
         11   -1    0    0    0    0 -0.00000000000E+00 -0.00000000000E+00 -0.45593999997E+02  0.45594000000E+02  0.51100000000E-03 0. -1.
    9900012    2    1    2    0    0  0.15005729780E+02 -0.95637483940E+01  0.58345296911E+01  0.72461576254E+02  0.70000007764E+02 0.  0.
         12    1    1    2    0    0 -0.15005729780E+02  0.95637483940E+01 -0.58345296911E+01  0.18726423746E+02  0.00000000000E+00 0. -1.
         11    1    3    3    0    0 -0.20365784428E+02  0.16177564542E+01 -0.39834274584E+01  0.20814658438E+02  0.51100000000E-03 0. -1.
        -11    1    3    3    0    0  0.24706391740E+02 -0.16405897412E+02  0.20191454610E+02  0.35878323570E+02  0.51100000000E-03 0.  1.
         12    1    3    3    0    0  0.10665122469E+02  0.52243925638E+01 -0.10373497460E+02  0.15768594246E+02  0.00000000000E+00 0. -1.
</event>
<event>
 7    1  0.1360399E-013  0.7246156E+02  0.7816164E-02  0.1226708E+00
        -11   -1    0    0    0    0  0.00000000000E+00  0.00000000000E+00  0.45593999997E+02  0.45594000000E+02  0.51100000000E-03 0.  1.
         11   -1    0    0    0    0 -0.00000000000E+00 -0.00000000000E+00 -0.45593999997E+02  0.45594000000E+02  0.51100000000E-03 0. -1.
    9900012    2    1    2    0    0 -0.73281533413E+01 -0.50717703911E+01  0.16469814231E+02  0.72461562349E+02  0.69999989649E+02 0.  0.
         12    1    1    2    0    0  0.73281533413E+01  0.50717703911E+01 -0.16469814231E+02  0.18726437651E+02  0.00000000000E+00 0. -1.
         11    1    3    3    0    0 -0.13975776526E+02 -0.96396843380E+01 -0.76698260483E+01  0.18629870518E+02  0.51100000000E-03 0. -1.
        -11    1    3    3    0    0  0.17288204072E+02  0.16392098232E+02  0.28684783835E+02  0.37288063887E+02  0.51100000000E-03 0.  1.
        -12    1    3    3    0    0 -0.10640580887E+02 -0.11824184285E+02 -0.45451435557E+01  0.16543627944E+02  0.00000000000E+00 0.  1.
</event>
<event>
 7    1  0.1360399E-013  0.7246156E+02  0.7816164E-02  0.1226708E+00
        -11   -1    0    0    0    0  0.00000000000E+00  0.00000000000E+00  0.45593999997E+02  0.45594000000E+02  0.51100000000E-03 0.  1.
         11   -1    0    0    0    0 -0.00000000000E+00 -0.00000000000E+00 -0.45593999997E+02  0.45594000000E+02  0.51100000000E-03 0. -1.
    9900012    2    1    2    0    0  0.42382686321E+01  0.46222834365E+01  0.17645146842E+02  0.72461557940E+02  0.69999983906E+02 0.  0.
         12    1    1    2    0    0 -0.42382686321E+01 -0.46222834365E+01 -0.17645146842E+02  0.18726442060E+02  0.00000000000E+00 0. -1.
         11    1    3    3    0    0  0.91750715863E+01  0.18133732925E+02 -0.16924220093E+02  0.26446992918E+02  0.51100000000E-03 0. -1.
        -11    1    3    3    0    0  0.32214748377E+01 -0.44380658032E+01  0.33298160934E+02  0.33746730953E+02  0.51100000000E-03 0.  1.
         12    1    3    3    0    0 -0.81582777919E+01 -0.90733836852E+01  0.12712060009E+01  0.12267834068E+02  0.00000000000E+00 0. -1.
</event>
<event>
 7    1  0.1360399E-013  0.7246157E+02  0.7816164E-02  0.1226708E+00
        -11   -1    0    0    0    0  0.00000000000E+00  0.00000000000E+00  0.45593999997E+02  0.45594000000E+02  0.51100000000E-03 0.  1.
         11   -1    0    0    0    0 -0.00000000000E+00 -0.00000000000E+00 -0.45593999997E+02  0.45594000000E+02  0.51100000000E-03 0. -1.
    9900012    2    1    2    0    0 -0.53600839058E+01 -0.15098008870E+02  0.96953053443E+01  0.72461566356E+02  0.69999994869E+02 0.  0.
         12    1    1    2    0    0  0.53600839058E+01  0.15098008870E+02 -0.96953053443E+01  0.18726433644E+02  0.00000000000E+00 0. -1.
         11    1    3    3    0    0 -0.62034748366E+01 -0.18926560678E+02  0.95416385134E+01  0.22084851480E+02  0.51100000000E-03 0. -1.
        -11    1    3    3    0    0 -0.42496036214E+01  0.23525054309E+02 -0.11926992699E+02  0.26715921588E+02  0.51100000000E-03 0.  1.
        -12    1    3    3    0    0  0.50929945522E+01 -0.19696502502E+02  0.12080659530E+02  0.23660793287E+02  0.00000000000E+00 0.  1.
</event>
<event>
 7    1  0.1360399E-013  0.7246159E+02  0.7816164E-02  0.1226708E+00
        -11   -1    0    0    0    0  0.00000000000E+00  0.00000000000E+00  0.45593999997E+02  0.45594000000E+02  0.51100000000E-03 0.  1.
         11   -1    0    0    0    0 -0.00000000000E+00 -0.00000000000E+00 -0.45593999997E+02  0.45594000000E+02  0.51100000000E-03 0. -1.
    9900012    2    1    2    0    0  0.10762578559E+02 -0.11450663888E+02  0.10184677904E+02  0.72461589113E+02  0.70000024515E+02 0.  0.
         12    1    1    2    0    0 -0.10762578559E+02  0.11450663888E+02 -0.10184677904E+02  0.18726410887E+02  0.00000000000E+00 0. -1.
         11    1    3    3    0    0 -0.92515580948E+00  0.10950475368E+02 -0.49969309882E+01  0.12072205417E+02  0.51100000000E-03 0. -1.
        -11    1    3    3    0    0  0.22375781869E+02 -0.10736393844E+02  0.29846630405E+02  0.38817098215E+02  0.51100000000E-03 0.  1.
        -12    1    3    3    0    0 -0.10688047501E+02 -0.11664745412E+02 -0.14665021513E+02  0.21572285481E+02  0.00000000000E+00 0.  1.
</event>
<event>
 7    1  0.1360399E-013  0.7246153E+02  0.7816164E-02  0.1226708E+00
        -11   -1    0    0    0    0  0.00000000000E+00  0.00000000000E+00  0.45593999997E+02  0.45594000000E+02  0.51100000000E-03 0.  1.
         11   -1    0    0    0    0 -0.00000000000E+00 -0.00000000000E+00 -0.45593999997E+02  0.45594000000E+02  0.51100000000E-03 0. -1.
    9900012    2    1    2    0    0  0.78276069402E+01  0.14971004319E+02  0.80794888550E+01  0.72461533678E+02  0.69999952301E+02 0.  0.
         12    1    1    2    0    0 -0.78276069402E+01 -0.14971004319E+02 -0.80794888550E+01  0.18726466322E+02  0.00000000000E+00 0. -1.
         11    1    3    3    0    0 -0.71510330652E+01 -0.19774948744E+02 -0.89298966385E+01  0.22845763851E+02  0.51100000000E-03 0. -1.
        -11    1    3    3    0    0 -0.38914061411E+01  0.23612824361E+02  0.13348986848E+02  0.27402626994E+02  0.51100000000E-03 0.  1.
        -12    1    3    3    0    0  0.18870046147E+02  0.11133128702E+02  0.36603986458E+01  0.22213142833E+02  0.00000000000E+00 0.  1.
</event>
<event>
 7    1  0.1360399E-013  0.7246150E+02  0.7816164E-02  0.1226708E+00
        -11   -1    0    0    0    0  0.00000000000E+00  0.00000000000E+00  0.45593999997E+02  0.45594000000E+02  0.51100000000E-03 0.  1.
         11   -1    0    0    0    0 -0.00000000000E+00 -0.00000000000E+00 -0.45593999997E+02  0.45594000000E+02  0.51100000000E-03 0. -1.
    9900012    2    1    2    0    0  0.18391966430E+02  0.24442790297E+01  0.25382720632E+01  0.72461501283E+02  0.69999910100E+02 0.  0.
         12    1    1    2    0    0 -0.18391966430E+02 -0.24442790297E+01 -0.25382720632E+01  0.18726498717E+02  0.00000000000E+00 0. -1.
         11    1    3    3    0    0  0.59601370828E+01  0.15806548410E+02 -0.22039249171E+01  0.17036064451E+02  0.51100000000E-03 0. -1.
        -11    1    3    3    0    0  0.44224600010E+01 -0.91406914848E+01  0.28364604653E+02  0.30127415931E+02  0.51100000000E-03 0.  1.
        -12    1    3    3    0    0  0.80093693458E+01 -0.42215778957E+01 -0.23622407673E+02  0.25298020901E+02  0.00000000000E+00 0.  1.
</event>
<event>
 7    1  0.1360399E-013  0.7246159E+02  0.7816164E-02  0.1226708E+00
        -11   -1    0    0    0    0  0.00000000000E+00  0.00000000000E+00  0.45593999997E+02  0.45594000000E+02  0.51100000000E-03 0.  1.
         11   -1    0    0    0    0 -0.00000000000E+00 -0.00000000000E+00 -0.45593999997E+02  0.45594000000E+02  0.51100000000E-03 0. -1.
    9900012    2    1    2    0    0 -0.62883474901E+01 -0.17026049410E+02  0.46096208818E+01  0.72461594116E+02  0.70000031032E+02 0.  0.
         12    1    1    2    0    0  0.62883474901E+01  0.17026049410E+02 -0.46096208818E+01  0.18726405884E+02  0.00000000000E+00 0. -1.
         11    1    3    3    0    0 -0.16110261142E+02  0.16186124174E+02  0.15548638803E+02  0.27627726992E+02  0.51100000000E-03 0.  1.
        -11    1    3    3    0    0  0.14386168993E+02 -0.23486580321E+02 -0.17129539413E+02  0.32434587006E+02  0.51100000000E-03 0. -1.
        -12    1    3    3    0    0 -0.45642553410E+01 -0.97255932624E+01  0.61905214911E+01  0.12399280118E+02  0.00000000000E+00 0.  1.
</event>
<event>
 7    1  0.1360399E-013  0.7246168E+02  0.7816164E-02  0.1226708E+00
        -11   -1    0    0    0    0  0.00000000000E+00  0.00000000000E+00  0.45593999997E+02  0.45594000000E+02  0.51100000000E-03 0. -1.
         11   -1    0    0    0    0 -0.00000000000E+00 -0.00000000000E+00 -0.45593999997E+02  0.45594000000E+02  0.51100000000E-03 0.  1.
    9900012    2    1    2    0    0 -0.62265169252E+01  0.16215870300E+02 -0.69964964879E+01  0.72461683606E+02  0.70000147609E+02 0.  0.
         12    1    1    2    0    0  0.62265169252E+01 -0.16215870300E+02  0.69964964879E+01  0.18726316394E+02  0.00000000000E+00 0. -1.
         11    1    3    3    0    0 -0.66497570497E+01 -0.16073316319E+02  0.46242555906E+01  0.17998736243E+02  0.51100000000E-03 0. -1.
        -11    1    3    3    0    0  0.16973128423E+02  0.32215329252E+02 -0.55449980536E+01  0.36832886541E+02  0.51100000000E-03 0.  1.
        -12    1    3    3    0    0 -0.16549888298E+02  0.73857366776E-01 -0.60757540248E+01  0.17630060821E+02  0.00000000000E+00 0.  1.
</event>
<event>
 7    1  0.1360399E-013  0.7246148E+02  0.7816164E-02  0.1226708E+00
        -11   -1    0    0    0    0  0.00000000000E+00  0.00000000000E+00  0.45593999997E+02  0.45594000000E+02  0.51100000000E-03 0. -1.
         11   -1    0    0    0    0 -0.00000000000E+00 -0.00000000000E+00 -0.45593999997E+02  0.45594000000E+02  0.51100000000E-03 0.  1.
    9900012    2    1    2    0    0 -0.63545917100E+01 -0.16780716836E+02 -0.53580853365E+01  0.72461484793E+02  0.69999888618E+02 0.  0.
         12    1    1    2    0    0  0.63545917100E+01  0.16780716836E+02  0.53580853365E+01  0.18726515207E+02  0.00000000000E+00 0. -1.
         11    1    3    3    0    0  0.17805770252E+02  0.16211103969E+02  0.40504918120E+01  0.24418268374E+02  0.51100000000E-03 0. -1.
        -11    1    3    3    0    0 -0.56914030586E+01 -0.17714015617E+02 -0.14439889361E+02  0.23551832691E+02  0.51100000000E-03 0.  1.
         12    1    3    3    0    0 -0.18468958904E+02 -0.15277805188E+02  0.50313122125E+01  0.24491383729E+02  0.00000000000E+00 0. -1.
</event>
<event>
 7    1  0.1360399E-013  0.7246155E+02  0.7816164E-02  0.1226708E+00
        -11   -1    0    0    0    0  0.00000000000E+00  0.00000000000E+00  0.45593999997E+02  0.45594000000E+02  0.51100000000E-03 0.  1.
         11   -1    0    0    0    0 -0.00000000000E+00 -0.00000000000E+00 -0.45593999997E+02  0.45594000000E+02  0.51100000000E-03 0. -1.
    9900012    2    1    2    0    0 -0.13891815404E+02  0.12151280028E+02  0.31691679075E+01  0.72461554348E+02  0.69999979227E+02 0.  0.
         12    1    1    2    0    0  0.13891815404E+02 -0.12151280028E+02 -0.31691679075E+01  0.18726445652E+02  0.00000000000E+00 0. -1.
         11    1    3    3    0    0  0.30543299584E+01  0.19289256841E+02 -0.18404457988E+02  0.26835208870E+02  0.51100000000E-03 0. -1.
        -11    1    3    3    0    0 -0.10839297134E+02 -0.21733827868E+02  0.14585160312E+02  0.28329781816E+02  0.51100000000E-03 0.  1.
         12    1    3    3    0    0 -0.61068482284E+01  0.14595851055E+02  0.69884655836E+01  0.17296563662E+02  0.00000000000E+00 0. -1.
</event>
<event>
 7    1  0.1360399E-013  0.7246175E+02  0.7816164E-02  0.1226708E+00
        -11   -1    0    0    0    0  0.00000000000E+00  0.00000000000E+00  0.45593999997E+02  0.45594000000E+02  0.51100000000E-03 0. -1.
         11   -1    0    0    0    0 -0.00000000000E+00 -0.00000000000E+00 -0.45593999997E+02  0.45594000000E+02  0.51100000000E-03 0.  1.
    9900012    2    1    2    0    0 -0.17552781272E+01 -0.18415105996E+02  0.29112302083E+01  0.72461751271E+02  0.70000235755E+02 0.  0.
         12    1    1    2    0    0  0.17552781272E+01  0.18415105996E+02 -0.29112302083E+01  0.18726248729E+02  0.00000000000E+00 0. -1.
         11    1    3    3    0    0 -0.17186586253E+02 -0.16929576988E+02 -0.20695351389E+02  0.31785010515E+02  0.51100000000E-03 0. -1.
        -11    1    3    3    0    0  0.14607324678E+02 -0.14182270991E+02  0.13513371402E+02  0.24436078893E+02  0.51100000000E-03 0.  1.
         12    1    3    3    0    0  0.82398344802E+00  0.12696741983E+02  0.10093210195E+02  0.16240661863E+02  0.00000000000E+00 0. -1.
</event>
<event>
 7    1  0.1360399E-013  0.7246133E+02  0.7816164E-02  0.1226709E+00
        -11   -1    0    0    0    0  0.00000000000E+00  0.00000000000E+00  0.45593999997E+02  0.45594000000E+02  0.51100000000E-03 0. -1.
         11   -1    0    0    0    0 -0.00000000000E+00 -0.00000000000E+00 -0.45593999997E+02  0.45594000000E+02  0.51100000000E-03 0.  1.
    9900012    2    1    2    0    0  0.10581217718E+02  0.52303251598E+01 -0.14538554147E+02  0.72461333816E+02  0.69999691943E+02 0.  0.
         12    1    1    2    0    0 -0.10581217718E+02 -0.52303251598E+01  0.14538554147E+02  0.18726666184E+02  0.00000000000E+00 0. -1.
         11    1    3    3    0    0  0.30203245559E+02 -0.29586496771E+01  0.12495982968E+02  0.32819799524E+02  0.51100000000E-03 0. -1.
        -11    1    3    3    0    0 -0.17982303672E+02  0.14102739822E+02 -0.21549031941E+02  0.31410369206E+02  0.51100000000E-03 0.  1.
         12    1    3    3    0    0 -0.16397241698E+01 -0.59137649847E+01 -0.54855051745E+01  0.82311650856E+01  0.00000000000E+00 0. -1.
</event>
<event>
 7    1  0.1360399E-013  0.7246152E+02  0.7816164E-02  0.1226708E+00
        -11   -1    0    0    0    0  0.00000000000E+00  0.00000000000E+00  0.45593999997E+02  0.45594000000E+02  0.51100000000E-03 0. -1.
         11   -1    0    0    0    0 -0.00000000000E+00 -0.00000000000E+00 -0.45593999997E+02  0.45594000000E+02  0.51100000000E-03 0.  1.
    9900012    2    1    2    0    0  0.12745451139E+02 -0.13349334066E+02 -0.31669712609E+01  0.72461522709E+02  0.69999938011E+02 0.  0.
         12    1    1    2    0    0 -0.12745451139E+02  0.13349334066E+02  0.31669712609E+01  0.18726477291E+02  0.00000000000E+00 0. -1.
         11    1    3    3    0    0  0.32563310101E+02 -0.32065965666E+01 -0.50516858325E-01  0.32720849294E+02  0.51100000000E-03 0. -1.
        -11    1    3    3    0    0 -0.11739621769E+02  0.38823211045E+01 -0.15162264767E+02  0.19564902493E+02  0.51100000000E-03 0.  1.
         12    1    3    3    0    0 -0.80782371925E+01 -0.14025058604E+02  0.12045810364E+02  0.20175770923E+02  0.00000000000E+00 0. -1.
</event>
<event>
 7    1  0.1360399E-013  0.7246150E+02  0.7816164E-02  0.1226708E+00
        -11   -1    0    0    0    0  0.00000000000E+00  0.00000000000E+00  0.45593999997E+02  0.45594000000E+02  0.51100000000E-03 0.  1.
         11   -1    0    0    0    0 -0.00000000000E+00 -0.00000000000E+00 -0.45593999997E+02  0.45594000000E+02  0.51100000000E-03 0. -1.
    9900012    2    1    2    0    0 -0.17174505132E+02  0.62304750239E+01  0.41108783478E+01  0.72461500958E+02  0.69999909677E+02 0.  0.
         12    1    1    2    0    0  0.17174505132E+02 -0.62304750239E+01 -0.41108783478E+01  0.18726499042E+02  0.00000000000E+00 0. -1.
         11    1    3    3    0    0 -0.19942725634E+02  0.15784216804E+02 -0.21275480350E+02  0.33158707307E+02  0.51100000000E-03 0. -1.
        -11    1    3    3    0    0 -0.12064055184E+02 -0.76357175533E+01  0.16838193705E+02  0.22076466600E+02  0.51100000000E-03 0.  1.
         12    1    3    3    0    0  0.14832275686E+02 -0.19180242270E+01  0.85481649931E+01  0.17226327052E+02  0.00000000000E+00 0. -1.
</event>
<event>
 7    1  0.1360399E-013  0.7246157E+02  0.7816164E-02  0.1226708E+00
        -11   -1    0    0    0    0  0.00000000000E+00  0.00000000000E+00  0.45593999997E+02  0.45594000000E+02  0.51100000000E-03 0.  1.
         11   -1    0    0    0    0 -0.00000000000E+00 -0.00000000000E+00 -0.45593999997E+02  0.45594000000E+02  0.51100000000E-03 0. -1.
    9900012    2    1    2    0    0  0.84669207455E+01 -0.94702248516E+01  0.13758823393E+02  0.72461571435E+02  0.70000001486E+02 0.  0.
         12    1    1    2    0    0 -0.84669207455E+01  0.94702248516E+01 -0.13758823393E+02  0.18726428565E+02  0.00000000000E+00 0. -1.
         11    1    3    3    0    0  0.60687756379E+01 -0.32699561724E+02  0.14302828811E+02  0.36203070131E+02  0.51100000000E-03 0.  1.
        -11    1    3    3    0    0  0.10699458256E+02  0.25008546467E+02  0.23166080394E+01  0.27299679053E+02  0.51100000000E-03 0. -1.
        -12    1    3    3    0    0 -0.83013131482E+01 -0.17792095944E+01 -0.28606134576E+01  0.89588222507E+01  0.00000000000E+00 0.  1.
</event>
<event>
 7    1  0.1360399E-013  0.7246155E+02  0.7816164E-02  0.1226708E+00
        -11   -1    0    0    0    0  0.00000000000E+00  0.00000000000E+00  0.45593999997E+02  0.45594000000E+02  0.51100000000E-03 0.  1.
         11   -1    0    0    0    0 -0.00000000000E+00 -0.00000000000E+00 -0.45593999997E+02  0.45594000000E+02  0.51100000000E-03 0. -1.
    9900012    2    1    2    0    0  0.58656620677E+00  0.17326655500E+02  0.70797638078E+01  0.72461545282E+02  0.69999967417E+02 0.  0.
         12    1    1    2    0    0 -0.58656620677E+00 -0.17326655500E+02 -0.70797638078E+01  0.18726454718E+02  0.00000000000E+00 0. -1.
         11    1    3    3    0    0 -0.28084230112E+02  0.17716235811E+02 -0.11258488123E+02  0.35061981510E+02  0.51100000000E-03 0. -1.
        -11    1    3    3    0    0  0.13772036438E+02 -0.57270451465E+01  0.15141380760E+02  0.21253927763E+02  0.51100000000E-03 0.  1.
         12    1    3    3    0    0  0.14898759881E+02  0.53374648351E+01  0.31968711706E+01  0.16145636009E+02  0.00000000000E+00 0. -1.
</event>
<event>
 7    1  0.1360399E-013  0.7246158E+02  0.7816164E-02  0.1226708E+00
        -11   -1    0    0    0    0  0.00000000000E+00  0.00000000000E+00  0.45593999997E+02  0.45594000000E+02  0.51100000000E-03 0.  1.
         11   -1    0    0    0    0 -0.00000000000E+00 -0.00000000000E+00 -0.45593999997E+02  0.45594000000E+02  0.51100000000E-03 0. -1.
    9900012    2    1    2    0    0 -0.68009606133E+01  0.16092720905E+02  0.67416542035E+01  0.72461584625E+02  0.70000018668E+02 0.  0.
         12    1    1    2    0    0  0.68009606133E+01 -0.16092720905E+02 -0.67416542035E+01  0.18726415375E+02  0.00000000000E+00 0. -1.
         11    1    3    3    0    0  0.24573798644E+02 -0.22313904905E+00  0.65739330405E+00  0.24583603012E+02  0.51100000000E-03 0. -1.
        -11    1    3    3    0    0 -0.23312584396E+02  0.18240092488E+02 -0.87661248676E+01  0.30871062674E+02  0.51100000000E-03 0.  1.
        -12    1    3    3    0    0 -0.80621748621E+01 -0.19242325338E+01  0.14850385767E+02  0.17006918939E+02  0.00000000000E+00 0.  1.
</event>
<event>
 7    1  0.1360399E-013  0.7246156E+02  0.7816164E-02  0.1226708E+00
        -11   -1    0    0    0    0  0.00000000000E+00  0.00000000000E+00  0.45593999997E+02  0.45594000000E+02  0.51100000000E-03 0. -1.
         11   -1    0    0    0    0 -0.00000000000E+00 -0.00000000000E+00 -0.45593999997E+02  0.45594000000E+02  0.51100000000E-03 0.  1.
    9900012    2    1    2    0    0 -0.14379513813E+02 -0.84424087705E+00 -0.11966470724E+02  0.72461559287E+02  0.69999985661E+02 0.  0.
         12    1    1    2    0    0  0.14379513813E+02  0.84424087705E+00  0.11966470724E+02  0.18726440713E+02  0.00000000000E+00 0. -1.
         11    1    3    3    0    0 -0.97527093984E+01 -0.28070799730E+02 -0.15843837835E+02  0.33676584383E+02  0.51100000000E-03 0. -1.
        -11    1    3    3    0    0 -0.14195161451E+02  0.12669954969E+02 -0.43531156310E+01  0.19518708551E+02  0.51100000000E-03 0.  1.
         12    1    3    3    0    0  0.95683570366E+01  0.14556603884E+02  0.82304827416E+01  0.19266266353E+02  0.00000000000E+00 0. -1.
</event>
<event>
 7    1  0.1360399E-013  0.7246155E+02  0.7816164E-02  0.1226708E+00
        -11   -1    0    0    0    0  0.00000000000E+00  0.00000000000E+00  0.45593999997E+02  0.45594000000E+02  0.51100000000E-03 0. -1.
         11   -1    0    0    0    0 -0.00000000000E+00 -0.00000000000E+00 -0.45593999997E+02  0.45594000000E+02  0.51100000000E-03 0.  1.
    9900012    2    1    2    0    0  0.52556542963E+00 -0.76598124661E+01 -0.17080129218E+02  0.72461554525E+02  0.69999979457E+02 0.  0.
         12    1    1    2    0    0 -0.52556542963E+00  0.76598124661E+01  0.17080129218E+02  0.18726445475E+02  0.00000000000E+00 0. -1.
         11    1    3    3    0    0  0.16500858408E+02 -0.71672278584E+01 -0.22319930930E+02  0.28667521699E+02  0.51100000000E-03 0. -1.
        -11    1    3    3    0    0 -0.17361930278E+02  0.17709178944E+02  0.60287399965E+01  0.25522487105E+02  0.51100000000E-03 0.  1.
        -12    1    3    3    0    0  0.13866372988E+01 -0.18201763552E+02 -0.78893828494E+00  0.18271545721E+02  0.00000000000E+00 0.  1.
</event>
<event>
 7    1  0.1360399E-013  0.7246150E+02  0.7816164E-02  0.1226708E+00
        -11   -1    0    0    0    0  0.00000000000E+00  0.00000000000E+00  0.45593999997E+02  0.45594000000E+02  0.51100000000E-03 0.  1.
         11   -1    0    0    0    0 -0.00000000000E+00 -0.00000000000E+00 -0.45593999997E+02  0.45594000000E+02  0.51100000000E-03 0. -1.
    9900012    2    1    2    0    0 -0.88448084232E+01  0.12937720523E+02  0.10250190710E+02  0.72461503852E+02  0.69999913447E+02 0.  0.
         12    1    1    2    0    0  0.88448084232E+01 -0.12937720523E+02 -0.10250190710E+02  0.18726496148E+02  0.00000000000E+00 0. -1.
         11    1    3    3    0    0 -0.22392336741E+02 -0.18916671723E+02 -0.25561014959E+01  0.29424324442E+02  0.51100000000E-03 0. -1.
        -11    1    3    3    0    0  0.37707423916E+01  0.71447912523E+01  0.14297284055E+02  0.16421902199E+02  0.51100000000E-03 0.  1.
         12    1    3    3    0    0  0.97767859259E+01  0.24709600994E+02 -0.14909918497E+01  0.26615277211E+02  0.00000000000E+00 0. -1.
</event>
<event>
 7    1  0.1360399E-013  0.7246156E+02  0.7816164E-02  0.1226708E+00
        -11   -1    0    0    0    0  0.00000000000E+00  0.00000000000E+00  0.45593999997E+02  0.45594000000E+02  0.51100000000E-03 0. -1.
         11   -1    0    0    0    0 -0.00000000000E+00 -0.00000000000E+00 -0.45593999997E+02  0.45594000000E+02  0.51100000000E-03 0.  1.
    9900012    2    1    2    0    0 -0.13852627979E+02  0.12592921913E+02 -0.44995498675E+00  0.72461562973E+02  0.69999990463E+02 0.  0.
         12    1    1    2    0    0  0.13852627979E+02 -0.12592921913E+02  0.44995498675E+00  0.18726437027E+02  0.00000000000E+00 0. -1.
         11    1    3    3    0    0 -0.17712031110E+02  0.27781917298E+02  0.20580477764E+02  0.38847226929E+02  0.51100000000E-03 0. -1.
        -11    1    3    3    0    0  0.69199521404E+01 -0.14180051287E+02 -0.39944205431E+01  0.16276209260E+02  0.51100000000E-03 0.  1.
        -12    1    3    3    0    0 -0.30605490092E+01 -0.10089440976E+01 -0.17036012208E+02  0.17338126784E+02  0.00000000000E+00 0.  1.
</event>
<event>
 7    1  0.1360399E-013  0.7246175E+02  0.7816164E-02  0.1226708E+00
        -11   -1    0    0    0    0  0.00000000000E+00  0.00000000000E+00  0.45593999997E+02  0.45594000000E+02  0.51100000000E-03 0. -1.
         11   -1    0    0    0    0 -0.00000000000E+00 -0.00000000000E+00 -0.45593999997E+02  0.45594000000E+02  0.51100000000E-03 0.  1.
    9900012    2    1    2    0    0  0.12547409809E+02  0.13539129441E+02 -0.31506927240E+01  0.72461751482E+02  0.70000236030E+02 0.  0.
         12    1    1    2    0    0 -0.12547409809E+02 -0.13539129441E+02  0.31506927240E+01  0.18726248518E+02  0.00000000000E+00 0. -1.
         11    1    3    3    0    0 -0.15683393812E+02 -0.14653608775E+02  0.42437002070E+00  0.21468050256E+02  0.51100000000E-03 0. -1.
        -11    1    3    3    0    0  0.37940664114E+01  0.20435568005E+02  0.87440947810E+01  0.22549203388E+02  0.51100000000E-03 0.  1.
         12    1    3    3    0    0  0.24436737209E+02  0.77571702114E+01 -0.12319157526E+02  0.28444497838E+02  0.00000000000E+00 0. -1.
</event>
<event>
 7    1  0.1360399E-013  0.7246157E+02  0.7816164E-02  0.1226708E+00
        -11   -1    0    0    0    0  0.00000000000E+00  0.00000000000E+00  0.45593999997E+02  0.45594000000E+02  0.51100000000E-03 0. -1.
         11   -1    0    0    0    0 -0.00000000000E+00 -0.00000000000E+00 -0.45593999997E+02  0.45594000000E+02  0.51100000000E-03 0.  1.
    9900012    2    1    2    0    0 -0.18528388706E+02 -0.26955928298E+01 -0.33443119271E+00  0.72461568067E+02  0.69999997098E+02 0.  0.
         12    1    1    2    0    0  0.18528388706E+02  0.26955928298E+01  0.33443119271E+00  0.18726431933E+02  0.00000000000E+00 0. -1.
         11    1    3    3    0    0  0.21658189836E+02 -0.55061293099E+00  0.12044012609E+02  0.24787872066E+02  0.51100000000E-03 0. -1.
        -11    1    3    3    0    0 -0.37530687829E+02 -0.86124816348E+01 -0.77204311386E+01  0.39272540357E+02  0.51100000000E-03 0.  1.
        -12    1    3    3    0    0 -0.26558907122E+01  0.64675017360E+01 -0.46580126633E+01  0.84011556438E+01  0.00000000000E+00 0.  1.
</event>
<event>
 7    1  0.1360399E-013  0.7246159E+02  0.7816164E-02  0.1226708E+00
        -11   -1    0    0    0    0  0.00000000000E+00  0.00000000000E+00  0.45593999997E+02  0.45594000000E+02  0.51100000000E-03 0.  1.
         11   -1    0    0    0    0 -0.00000000000E+00 -0.00000000000E+00 -0.45593999997E+02  0.45594000000E+02  0.51100000000E-03 0. -1.
    9900012    2    1    2    0    0 -0.15414071530E+02  0.28910884954E+01  0.10233592513E+02  0.72461590586E+02  0.70000026434E+02 0.  0.
         12    1    1    2    0    0  0.15414071530E+02 -0.28910884954E+01 -0.10233592513E+02  0.18726409414E+02  0.00000000000E+00 0. -1.
         11    1    3    3    0    0 -0.54585410075E+01 -0.27532342455E+02  0.16422958922E+02  0.32519826738E+02  0.51100000000E-03 0. -1.
        -11    1    3    3    0    0 -0.11623678815E+02  0.23098846323E+02  0.51240894840E+01  0.26361390402E+02  0.51100000000E-03 0.  1.
         12    1    3    3    0    0  0.16681482927E+01  0.73245846279E+01 -0.11313455893E+02  0.13580373446E+02  0.00000000000E+00 0. -1.
</event>
<event>
 7    1  0.1360399E-013  0.7246169E+02  0.7816164E-02  0.1226708E+00
        -11   -1    0    0    0    0  0.00000000000E+00  0.00000000000E+00  0.45593999997E+02  0.45594000000E+02  0.51100000000E-03 0.  1.
         11   -1    0    0    0    0 -0.00000000000E+00 -0.00000000000E+00 -0.45593999997E+02  0.45594000000E+02  0.51100000000E-03 0. -1.
    9900012    2    1    2    0    0 -0.17921865048E+02 -0.19170279659E+01 -0.50800017649E+01  0.72461690674E+02  0.70000156817E+02 0.  0.
         12    1    1    2    0    0  0.17921865048E+02  0.19170279659E+01  0.50800017649E+01  0.18726309326E+02  0.00000000000E+00 0. -1.
         11    1    3    3    0    0  0.15356596094E+02 -0.17584109306E+02 -0.77854122994E+01  0.24609725489E+02  0.51100000000E-03 0. -1.
        -11    1    3    3    0    0 -0.34611499342E+02  0.51700535461E+01  0.81792462772E+01  0.35938633952E+02  0.51100000000E-03 0.  1.
         12    1    3    3    0    0  0.13330382001E+01  0.10497027794E+02 -0.54738357426E+01  0.11913331234E+02  0.00000000000E+00 0. -1.
</event>
<event>
 7    1  0.1360399E-013  0.7246159E+02  0.7816164E-02  0.1226708E+00
        -11   -1    0    0    0    0  0.00000000000E+00  0.00000000000E+00  0.45593999997E+02  0.45594000000E+02  0.51100000000E-03 0. -1.
         11   -1    0    0    0    0 -0.00000000000E+00 -0.00000000000E+00 -0.45593999997E+02  0.45594000000E+02  0.51100000000E-03 0.  1.
    9900012    2    1    2    0    0 -0.11581515303E+02  0.11043730812E+02 -0.97253855367E+01  0.72461585212E+02  0.70000019434E+02 0.  0.
         12    1    1    2    0    0  0.11581515303E+02 -0.11043730812E+02  0.97253855367E+01  0.18726414788E+02  0.00000000000E+00 0. -1.
         11    1    3    3    0    0 -0.39088749796E+01  0.79313752532E+01  0.16550013688E+02  0.18764033957E+02  0.51100000000E-03 0. -1.
        -11    1    3    3    0    0 -0.26086895941E+02 -0.27416734435E+01 -0.21181599474E+02  0.33715027356E+02  0.51100000000E-03 0.  1.
        -12    1    3    3    0    0  0.18414255617E+02  0.58540290018E+01 -0.50937997503E+01  0.19982523899E+02  0.00000000000E+00 0.  1.
</event>
<event>
 7    1  0.1360399E-013  0.7246163E+02  0.7816164E-02  0.1226708E+00
        -11   -1    0    0    0    0  0.00000000000E+00  0.00000000000E+00  0.45593999997E+02  0.45594000000E+02  0.51100000000E-03 0. -1.
         11   -1    0    0    0    0 -0.00000000000E+00 -0.00000000000E+00 -0.45593999997E+02  0.45594000000E+02  0.51100000000E-03 0.  1.
    9900012    2    1    2    0    0  0.17591201105E+01 -0.48583883043E+01 -0.17999404363E+02  0.72461628277E+02  0.70000075534E+02 0.  0.
         12    1    1    2    0    0 -0.17591201105E+01  0.48583883043E+01  0.17999404363E+02  0.18726371723E+02  0.00000000000E+00 0. -1.
         11    1    3    3    0    0 -0.16241263623E+02  0.31089933342E+01  0.17843687738E+02  0.24327796365E+02  0.51100000000E-03 0. -1.
        -11    1    3    3    0    0 -0.65548477997E+01 -0.20022382699E+01 -0.79486404564E+01  0.10495516811E+02  0.51100000000E-03 0.  1.
         12    1    3    3    0    0  0.24555231534E+02 -0.59651433687E+01 -0.27894451645E+02  0.37638315101E+02  0.00000000000E+00 0. -1.
</event>
<event>
 7    1  0.1360399E-013  0.7246160E+02  0.7816164E-02  0.1226708E+00
        -11   -1    0    0    0    0  0.00000000000E+00  0.00000000000E+00  0.45593999997E+02  0.45594000000E+02  0.51100000000E-03 0.  1.
         11   -1    0    0    0    0 -0.00000000000E+00 -0.00000000000E+00 -0.45593999997E+02  0.45594000000E+02  0.51100000000E-03 0. -1.
    9900012    2    1    2    0    0  0.74011895561E+01 -0.13518949350E+02 -0.10636647849E+02  0.72461604836E+02  0.70000044997E+02 0.  0.
         12    1    1    2    0    0 -0.74011895561E+01  0.13518949350E+02  0.10636647849E+02  0.18726395164E+02  0.00000000000E+00 0. -1.
         11    1    3    3    0    0  0.20718986033E+02  0.16632614554E+02 -0.16001788635E+02  0.31015761943E+02  0.51100000000E-03 0. -1.
        -11    1    3    3    0    0 -0.48828795172E+01 -0.22598478502E+02  0.14157659389E+02  0.27110386618E+02  0.51100000000E-03 0.  1.
        -12    1    3    3    0    0 -0.84349169595E+01 -0.75530854024E+01 -0.87925186032E+01  0.14335456274E+02  0.00000000000E+00 0.  1.
</event>
<event>
 7    1  0.1360399E-013  0.7246156E+02  0.7816164E-02  0.1226708E+00
        -11   -1    0    0    0    0  0.00000000000E+00  0.00000000000E+00  0.45593999997E+02  0.45594000000E+02  0.51100000000E-03 0.  1.
         11   -1    0    0    0    0 -0.00000000000E+00 -0.00000000000E+00 -0.45593999997E+02  0.45594000000E+02  0.51100000000E-03 0. -1.
    9900012    2    1    2    0    0 -0.17551943429E+02 -0.59201716319E+01  0.27496122315E+01  0.72461560997E+02  0.69999987889E+02 0.  0.
         12    1    1    2    0    0  0.17551943429E+02  0.59201716319E+01 -0.27496122315E+01  0.18726439003E+02  0.00000000000E+00 0. -1.
         11    1    3    3    0    0  0.11947935056E+01  0.30784631515E+01 -0.80452228174E+01  0.86965554871E+01  0.51100000000E-03 0. -1.
        -11    1    3    3    0    0 -0.42142952010E+01  0.18141597055E+02  0.23904804588E+02  0.30303754065E+02  0.51100000000E-03 0.  1.
        -12    1    3    3    0    0 -0.14532441734E+02 -0.27140231838E+02 -0.13109969539E+02  0.33461251446E+02  0.00000000000E+00 0.  1.
</event>
<event>
 7    1  0.1360399E-013  0.7246135E+02  0.7816164E-02  0.1226709E+00
        -11   -1    0    0    0    0  0.00000000000E+00  0.00000000000E+00  0.45593999997E+02  0.45594000000E+02  0.51100000000E-03 0.  1.
         11   -1    0    0    0    0 -0.00000000000E+00 -0.00000000000E+00 -0.45593999997E+02  0.45594000000E+02  0.51100000000E-03 0. -1.
    9900012    2    1    2    0    0  0.14939336412E+02 -0.10105041411E+02  0.50390388296E+01  0.72461346624E+02  0.69999708627E+02 0.  0.
         12    1    1    2    0    0 -0.14939336412E+02  0.10105041411E+02 -0.50390388296E+01  0.18726653376E+02  0.00000000000E+00 0. -1.
         11    1    3    3    0    0  0.30434926448E+01  0.32573537966E+01 -0.21907098158E+02  0.22356076382E+02  0.51100000000E-03 0. -1.
        -11    1    3    3    0    0 -0.11773300420E+02 -0.61384207617E+01  0.20683041413E+02  0.24578018931E+02  0.51100000000E-03 0.  1.
        -12    1    3    3    0    0  0.23669144187E+02 -0.72239744456E+01  0.62630955748E+01  0.25527251311E+02  0.00000000000E+00 0.  1.
</event>
<event>
 7    1  0.1360399E-013  0.7246159E+02  0.7816164E-02  0.1226708E+00
        -11   -1    0    0    0    0  0.00000000000E+00  0.00000000000E+00  0.45593999997E+02  0.45594000000E+02  0.51100000000E-03 0.  1.
         11   -1    0    0    0    0 -0.00000000000E+00 -0.00000000000E+00 -0.45593999997E+02  0.45594000000E+02  0.51100000000E-03 0. -1.
    9900012    2    1    2    0    0 -0.43384804277E+01 -0.15904393982E+02 -0.88829292588E+01  0.72461585699E+02  0.70000020067E+02 0.  0.
         12    1    1    2    0    0  0.43384804277E+01  0.15904393982E+02  0.88829292588E+01  0.18726414301E+02  0.00000000000E+00 0. -1.
         11    1    3    3    0    0 -0.53519943671E+01 -0.85542356705E+01 -0.26602045506E+02  0.28451495866E+02  0.51100000000E-03 0. -1.
        -11    1    3    3    0    0 -0.15101498763E+02 -0.11599454021E+02  0.19492754868E+02  0.27250139285E+02  0.51100000000E-03 0.  1.
         12    1    3    3    0    0  0.16115012702E+02  0.42492957096E+01 -0.17736386202E+01  0.16759950548E+02  0.00000000000E+00 0. -1.
</event>
<event>
 7    1  0.1360399E-013  0.7246148E+02  0.7816164E-02  0.1226708E+00
        -11   -1    0    0    0    0  0.00000000000E+00  0.00000000000E+00  0.45593999997E+02  0.45594000000E+02  0.51100000000E-03 0. -1.
         11   -1    0    0    0    0 -0.00000000000E+00 -0.00000000000E+00 -0.45593999997E+02  0.45594000000E+02  0.51100000000E-03 0.  1.
    9900012    2    1    2    0    0 -0.89066514094E+01 -0.12591240435E+02  0.10621422718E+02  0.72461484158E+02  0.69999887792E+02 0.  0.
         12    1    1    2    0    0  0.89066514094E+01  0.12591240435E+02 -0.10621422718E+02  0.18726515842E+02  0.00000000000E+00 0. -1.
         11    1    3    3    0    0  0.97790991770E+01 -0.17108583328E+01  0.12677669624E+02  0.16102208678E+02  0.51100000000E-03 0. -1.
        -11    1    3    3    0    0 -0.42039365266E+01 -0.20136624648E+02 -0.21941096820E+02  0.30076044694E+02  0.51100000000E-03 0.  1.
        -12    1    3    3    0    0 -0.14481814060E+02  0.92562425453E+01  0.19884849913E+02  0.26283230787E+02  0.00000000000E+00 0.  1.
</event>
<event>
 7    1  0.1360399E-013  0.7246170E+02  0.7816164E-02  0.1226708E+00
        -11   -1    0    0    0    0  0.00000000000E+00  0.00000000000E+00  0.45593999997E+02  0.45594000000E+02  0.51100000000E-03 0.  1.
         11   -1    0    0    0    0 -0.00000000000E+00 -0.00000000000E+00 -0.45593999997E+02  0.45594000000E+02  0.51100000000E-03 0. -1.
    9900012    2    1    2    0    0 -0.16828049008E+02 -0.18900535284E+01 -0.79949111867E+01  0.72461704567E+02  0.70000174915E+02 0.  0.
         12    1    1    2    0    0  0.16828049008E+02  0.18900535284E+01  0.79949111867E+01  0.18726295433E+02  0.00000000000E+00 0. -1.
         11    1    3    3    0    0  0.13035820076E+02 -0.27858362400E+02 -0.11224402508E+02  0.32741535892E+02  0.51100000000E-03 0. -1.
        -11    1    3    3    0    0 -0.22711772539E+02  0.20182073169E+02  0.21911797043E+01  0.30462139748E+02  0.51100000000E-03 0.  1.
         12    1    3    3    0    0 -0.71520965447E+01  0.57862357031E+01  0.10383116166E+01  0.92580289268E+01  0.00000000000E+00 0. -1.
</event>
<event>
 7    1  0.1360399E-013  0.7246161E+02  0.7816164E-02  0.1226708E+00
        -11   -1    0    0    0    0  0.00000000000E+00  0.00000000000E+00  0.45593999997E+02  0.45594000000E+02  0.51100000000E-03 0.  1.
         11   -1    0    0    0    0 -0.00000000000E+00 -0.00000000000E+00 -0.45593999997E+02  0.45594000000E+02  0.51100000000E-03 0. -1.
    9900012    2    1    2    0    0  0.71750189401E+01 -0.14333740687E+02  0.96819792465E+01  0.72461608436E+02  0.70000049687E+02 0.  0.
         12    1    1    2    0    0 -0.71750189401E+01  0.14333740687E+02 -0.96819792465E+01  0.18726391564E+02  0.00000000000E+00 0. -1.
         11    1    3    3    0    0 -0.35513054610E+00 -0.10775228785E+02 -0.22604883273E+02  0.25044209333E+02  0.51100000000E-03 0. -1.
        -11    1    3    3    0    0  0.17520724927E+02 -0.53594166311E+01  0.32449105975E+02  0.37264508952E+02  0.51100000000E-03 0.  1.
        -12    1    3    3    0    0 -0.99905754409E+01  0.18009047293E+01 -0.16224345521E+00  0.10152890151E+02  0.00000000000E+00 0.  1.
</event>
<event>
 7    1  0.1360399E-013  0.7246160E+02  0.7816164E-02  0.1226708E+00
        -11   -1    0    0    0    0  0.00000000000E+00  0.00000000000E+00  0.45593999997E+02  0.45594000000E+02  0.51100000000E-03 0. -1.
         11   -1    0    0    0    0 -0.00000000000E+00 -0.00000000000E+00 -0.45593999997E+02  0.45594000000E+02  0.51100000000E-03 0.  1.
    9900012    2    1    2    0    0  0.22324478411E+01 -0.17081100323E+02  0.73437312336E+01  0.72461596180E+02  0.70000033721E+02 0.  0.
         12    1    1    2    0    0 -0.22324478411E+01  0.17081100323E+02 -0.73437312336E+01  0.18726403820E+02  0.00000000000E+00 0. -1.
         11    1    3    3    0    0 -0.13030710393E+02 -0.12773594187E+02  0.21045393659E+02  0.27854491852E+02  0.51100000000E-03 0.  1.
        -11    1    3    3    0    0  0.38709727577E+01  0.17446976187E+02 -0.50546418054E+01  0.18572313054E+02  0.51100000000E-03 0. -1.
         12    1    3    3    0    0  0.11392185477E+02 -0.21754482322E+02 -0.86470206199E+01  0.26034791274E+02  0.00000000000E+00 0. -1.
</event>
<event>
 7    1  0.1360399E-013  0.7246160E+02  0.7816164E-02  0.1226708E+00
        -11   -1    0    0    0    0  0.00000000000E+00  0.00000000000E+00  0.45593999997E+02  0.45594000000E+02  0.51100000000E-03 0. -1.
         11   -1    0    0    0    0 -0.00000000000E+00 -0.00000000000E+00 -0.45593999997E+02  0.45594000000E+02  0.51100000000E-03 0.  1.
    9900012    2    1    2    0    0  0.12505942086E+02  0.12278556897E+02 -0.65966997173E+01  0.72461601679E+02  0.70000040884E+02 0.  0.
         12    1    1    2    0    0 -0.12505942086E+02 -0.12278556897E+02  0.65966997173E+01  0.18726398321E+02  0.00000000000E+00 0. -1.
         11    1    3    3    0    0  0.76035323945E+01 -0.11154092716E+02  0.13970611070E+02  0.19426926239E+02  0.51100000000E-03 0. -1.
        -11    1    3    3    0    0 -0.71018341995E+01  0.27703388817E+02 -0.26491448043E+02  0.38983465990E+02  0.51100000000E-03 0.  1.
        -12    1    3    3    0    0  0.12004243891E+02 -0.42707392044E+01  0.59241372562E+01  0.14051209449E+02  0.00000000000E+00 0.  1.
</event>
<event>
 7    1  0.1360399E-013  0.7246159E+02  0.7816164E-02  0.1226708E+00
        -11   -1    0    0    0    0  0.00000000000E+00  0.00000000000E+00  0.45593999997E+02  0.45594000000E+02  0.51100000000E-03 0.  1.
         11   -1    0    0    0    0 -0.00000000000E+00 -0.00000000000E+00 -0.45593999997E+02  0.45594000000E+02  0.51100000000E-03 0. -1.
    9900012    2    1    2    0    0 -0.95094711650E+01  0.13062447820E+02 -0.94668347719E+01  0.72461586956E+02  0.70000021705E+02 0.  0.
         12    1    1    2    0    0  0.95094711650E+01 -0.13062447820E+02  0.94668347719E+01  0.18726413044E+02  0.00000000000E+00 0. -1.
         11    1    3    3    0    0 -0.17257053594E+02 -0.67265131731E+01 -0.34132694722E+02  0.38834169587E+02  0.51100000000E-03 0. -1.
        -11    1    3    3    0    0  0.34224590680E-01 -0.60169074248E+00  0.23660058532E+01  0.24415542244E+01  0.51100000000E-03 0.  1.
         12    1    3    3    0    0  0.77133578383E+01  0.20390651736E+02  0.22299854097E+02  0.31185863145E+02  0.00000000000E+00 0. -1.
</event>
<event>
 7    1  0.1360399E-013  0.7246149E+02  0.7816164E-02  0.1226708E+00
        -11   -1    0    0    0    0  0.00000000000E+00  0.00000000000E+00  0.45593999997E+02  0.45594000000E+02  0.51100000000E-03 0.  1.
         11   -1    0    0    0    0 -0.00000000000E+00 -0.00000000000E+00 -0.45593999997E+02  0.45594000000E+02  0.51100000000E-03 0. -1.
    9900012    2    1    2    0    0  0.14384311275E+02  0.11448065560E+02  0.35658629205E+01  0.72461494873E+02  0.69999901750E+02 0.  0.
         12    1    1    2    0    0 -0.14384311275E+02 -0.11448065560E+02 -0.35658629205E+01  0.18726505127E+02  0.00000000000E+00 0. -1.
         11    1    3    3    0    0  0.74148813854E+01  0.81678759424E+01 -0.78476098793E+01  0.13538081269E+02  0.51100000000E-03 0. -1.
        -11    1    3    3    0    0  0.59685215388E+01  0.12899073254E+02  0.32638580342E+02  0.35598964412E+02  0.51100000000E-03 0.  1.
        -12    1    3    3    0    0  0.10009083503E+01 -0.96188836371E+01 -0.21225107542E+02  0.23324449192E+02  0.00000000000E+00 0.  1.
</event>
<event>
 7    1  0.1360399E-013  0.7246155E+02  0.7816164E-02  0.1226708E+00
        -11   -1    0    0    0    0  0.00000000000E+00  0.00000000000E+00  0.45593999997E+02  0.45594000000E+02  0.51100000000E-03 0.  1.
         11   -1    0    0    0    0 -0.00000000000E+00 -0.00000000000E+00 -0.45593999997E+02  0.45594000000E+02  0.51100000000E-03 0. -1.
    9900012    2    1    2    0    0  0.72345757909E+01 -0.17451171168E+01  0.17184161531E+02  0.72461550039E+02  0.69999973613E+02 0.  0.
         12    1    1    2    0    0 -0.72345757909E+01  0.17451171168E+01 -0.17184161531E+02  0.18726449961E+02  0.00000000000E+00 0. -1.
         11    1    3    3    0    0 -0.27347540165E+02  0.31721436664E+01  0.92594012596E+01  0.29046289960E+02  0.51100000000E-03 0. -1.
        -11    1    3    3    0    0  0.59630355359E+01 -0.10070663697E+01  0.12767343643E+02  0.14127173795E+02  0.51100000000E-03 0.  1.
         12    1    3    3    0    0  0.28619080420E+02 -0.39101944135E+01 -0.48425833717E+01  0.29288086283E+02  0.00000000000E+00 0. -1.
</event>
<event>
 7    1  0.1360399E-013  0.7246155E+02  0.7816164E-02  0.1226708E+00
        -11   -1    0    0    0    0  0.00000000000E+00  0.00000000000E+00  0.45593999997E+02  0.45594000000E+02  0.51100000000E-03 0.  1.
         11   -1    0    0    0    0 -0.00000000000E+00 -0.00000000000E+00 -0.45593999997E+02  0.45594000000E+02  0.51100000000E-03 0. -1.
    9900012    2    1    2    0    0 -0.81652396439E+01 -0.16352308738E+02  0.40756533733E+01  0.72461545719E+02  0.69999967986E+02 0.  0.
         12    1    1    2    0    0  0.81652396439E+01  0.16352308738E+02 -0.40756533733E+01  0.18726454281E+02  0.00000000000E+00 0. -1.
         11    1    3    3    0    0  0.26744988635E+01 -0.88771235879E+01  0.29402857140E+02  0.30829925002E+02  0.51100000000E-03 0.  1.
        -11    1    3    3    0    0  0.60788183794E+01 -0.10945711081E+02 -0.19931132108E+02  0.23537430856E+02  0.51100000000E-03 0. -1.
         12    1    3    3    0    0 -0.16918556887E+02  0.34705259308E+01 -0.53960716594E+01  0.18094189861E+02  0.00000000000E+00 0. -1.
</event>
<event>
 7    1  0.1360399E-013  0.7246156E+02  0.7816164E-02  0.1226708E+00
        -11   -1    0    0    0    0  0.00000000000E+00  0.00000000000E+00  0.45593999997E+02  0.45594000000E+02  0.51100000000E-03 0. -1.
         11   -1    0    0    0    0 -0.00000000000E+00 -0.00000000000E+00 -0.45593999997E+02  0.45594000000E+02  0.51100000000E-03 0.  1.
    9900012    2    1    2    0    0  0.80295861900E+01 -0.74145954250E+01 -0.15206218583E+02  0.72461559780E+02  0.69999986303E+02 0.  0.
         12    1    1    2    0    0 -0.80295861900E+01  0.74145954250E+01  0.15206218583E+02  0.18726440220E+02  0.00000000000E+00 0. -1.
         11    1    3    3    0    0 -0.14831443116E+02 -0.40475990556E+01  0.14334264173E+02  0.21019654913E+02  0.51100000000E-03 0. -1.
        -11    1    3    3    0    0 -0.39712093536E+01 -0.63698230583E+01 -0.22239979327E+02  0.23472576132E+02  0.51100000000E-03 0.  1.
         12    1    3    3    0    0  0.26832238660E+02  0.30028266889E+01 -0.73005034292E+01  0.27969328736E+02  0.00000000000E+00 0. -1.
</event>
<event>
 7    1  0.1360399E-013  0.7246173E+02  0.7816164E-02  0.1226708E+00
        -11   -1    0    0    0    0  0.00000000000E+00  0.00000000000E+00  0.45593999997E+02  0.45594000000E+02  0.51100000000E-03 0.  1.
         11   -1    0    0    0    0 -0.00000000000E+00 -0.00000000000E+00 -0.45593999997E+02  0.45594000000E+02  0.51100000000E-03 0. -1.
    9900012    2    1    2    0    0 -0.13861769454E+02  0.69765598578E+01  0.10481035501E+02  0.72461731150E+02  0.70000209544E+02 0.  0.
         12    1    1    2    0    0  0.13861769454E+02 -0.69765598578E+01 -0.10481035501E+02  0.18726268850E+02  0.00000000000E+00 0. -1.
         11    1    3    3    0    0  0.11934186249E+02  0.10973640555E+02 -0.62538758025E+01  0.17376897055E+02  0.51100000000E-03 0. -1.
        -11    1    3    3    0    0 -0.12410212163E+02 -0.18814573278E+02  0.24833553562E+02  0.33536650345E+02  0.51100000000E-03 0.  1.
         12    1    3    3    0    0 -0.13385743540E+02  0.14817492581E+02 -0.80986422583E+01  0.21548183750E+02  0.00000000000E+00 0. -1.
</event>
<event>
 7    1  0.1360399E-013  0.7246160E+02  0.7816164E-02  0.1226708E+00
        -11   -1    0    0    0    0  0.00000000000E+00  0.00000000000E+00  0.45593999997E+02  0.45594000000E+02  0.51100000000E-03 0. -1.
         11   -1    0    0    0    0 -0.00000000000E+00 -0.00000000000E+00 -0.45593999997E+02  0.45594000000E+02  0.51100000000E-03 0.  1.
    9900012    2    1    2    0    0  0.18365590781E+02 -0.36556131784E+01 -0.13997476581E+00  0.72461600843E+02  0.70000039795E+02 0.  0.
         12    1    1    2    0    0 -0.18365590781E+02  0.36556131784E+01  0.13997476581E+00  0.18726399157E+02  0.00000000000E+00 0. -1.
         11    1    3    3    0    0 -0.10129915571E+02  0.10432191648E+02  0.18189910451E+02  0.23287736140E+02  0.51100000000E-03 0. -1.
        -11    1    3    3    0    0  0.82281633211E+01  0.44606881137E+01 -0.19547896836E+02  0.21673040420E+02  0.51100000000E-03 0.  1.
        -12    1    3    3    0    0  0.20267343032E+02 -0.18548492940E+02  0.12180116196E+01  0.27500824283E+02  0.00000000000E+00 0.  1.
</event>
<event>
 7    1  0.1360399E-013  0.7246158E+02  0.7816164E-02  0.1226708E+00
        -11   -1    0    0    0    0  0.00000000000E+00  0.00000000000E+00  0.45593999997E+02  0.45594000000E+02  0.51100000000E-03 0.  1.
         11   -1    0    0    0    0 -0.00000000000E+00 -0.00000000000E+00 -0.45593999997E+02  0.45594000000E+02  0.51100000000E-03 0. -1.
    9900012    2    1    2    0    0 -0.14223707352E+02  0.12120481120E+02  0.12078360148E+01  0.72461580661E+02  0.70000013505E+02 0.  0.
         12    1    1    2    0    0  0.14223707352E+02 -0.12120481120E+02 -0.12078360148E+01  0.18726419339E+02  0.00000000000E+00 0. -1.
         11    1    3    3    0    0 -0.56101737727E+01 -0.10284428183E+02 -0.17771628671E+02  0.21285542011E+02  0.51100000000E-03 0. -1.
        -11    1    3    3    0    0 -0.33989275186E+01 -0.34784163521E+01  0.23838275115E+02  0.24329312553E+02  0.51100000000E-03 0.  1.
        -12    1    3    3    0    0 -0.52146060602E+01  0.25883325656E+02 -0.48588104298E+01  0.26846726098E+02  0.00000000000E+00 0.  1.
</event>
<event>
 7    1  0.1360399E-013  0.7246141E+02  0.7816164E-02  0.1226708E+00
        -11   -1    0    0    0    0  0.00000000000E+00  0.00000000000E+00  0.45593999997E+02  0.45594000000E+02  0.51100000000E-03 0. -1.
         11   -1    0    0    0    0 -0.00000000000E+00 -0.00000000000E+00 -0.45593999997E+02  0.45594000000E+02  0.51100000000E-03 0.  1.
    9900012    2    1    2    0    0 -0.10743089478E+02 -0.12728566786E+02 -0.85589112524E+01  0.72461405387E+02  0.69999785178E+02 0.  0.
         12    1    1    2    0    0  0.10743089478E+02  0.12728566786E+02  0.85589112524E+01  0.18726594613E+02  0.00000000000E+00 0. -1.
         11    1    3    3    0    0  0.95636571507E+01 -0.28651940132E+02  0.11109400343E+02  0.32184095259E+02  0.51100000000E-03 0. -1.
        -11    1    3    3    0    0 -0.17717062323E+02  0.58667225395E+01 -0.22768154306E+02  0.29439795880E+02  0.51100000000E-03 0.  1.
         12    1    3    3    0    0 -0.25896843060E+01  0.10056650806E+02  0.30998427101E+01  0.10837514248E+02  0.00000000000E+00 0. -1.
</event>
<event>
 7    1  0.1360399E-013  0.7246160E+02  0.7816164E-02  0.1226708E+00
        -11   -1    0    0    0    0  0.00000000000E+00  0.00000000000E+00  0.45593999997E+02  0.45594000000E+02  0.51100000000E-03 0. -1.
         11   -1    0    0    0    0 -0.00000000000E+00 -0.00000000000E+00 -0.45593999997E+02  0.45594000000E+02  0.51100000000E-03 0.  1.
    9900012    2    1    2    0    0 -0.68398093860E+00 -0.14829678513E+02 -0.11414510134E+02  0.72461595211E+02  0.70000032459E+02 0.  0.
         12    1    1    2    0    0  0.68398093860E+00  0.14829678513E+02  0.11414510134E+02  0.18726404789E+02  0.00000000000E+00 0. -1.
         11    1    3    3    0    0  0.24604250718E+02  0.87545960869E+01  0.71685960926E+01  0.27081375081E+02  0.51100000000E-03 0. -1.
        -11    1    3    3    0    0 -0.21722745882E+02 -0.18748613080E+02 -0.23910036525E+02  0.37350743339E+02  0.51100000000E-03 0.  1.
        -12    1    3    3    0    0 -0.35654857747E+01 -0.48356615194E+01  0.53269302985E+01  0.80294767915E+01  0.00000000000E+00 0.  1.
</event>
<event>
 7    1  0.1360399E-013  0.7246163E+02  0.7816164E-02  0.1226708E+00
        -11   -1    0    0    0    0  0.00000000000E+00  0.00000000000E+00  0.45593999997E+02  0.45594000000E+02  0.51100000000E-03 0. -1.
         11   -1    0    0    0    0 -0.00000000000E+00 -0.00000000000E+00 -0.45593999997E+02  0.45594000000E+02  0.51100000000E-03 0.  1.
    9900012    2    1    2    0    0  0.10508102036E+02  0.14761364070E+02 -0.47285157805E+01  0.72461629848E+02  0.70000077579E+02 0.  0.
         12    1    1    2    0    0 -0.10508102036E+02 -0.14761364070E+02  0.47285157805E+01  0.18726370152E+02  0.00000000000E+00 0. -1.
         11    1    3    3    0    0  0.17899846588E+01 -0.99173665877E+01  0.25620124286E+02  0.27530873102E+02  0.51100000000E-03 0. -1.
        -11    1    3    3    0    0  0.15939907601E+01  0.11632111266E+02 -0.69676354861E+00  0.11761475194E+02  0.51100000000E-03 0.  1.
         12    1    3    3    0    0  0.71241266168E+01  0.13046619392E+02 -0.29651876517E+02  0.33169281551E+02  0.00000000000E+00 0. -1.
</event>
<event>
 7    1  0.1360399E-013  0.7246148E+02  0.7816164E-02  0.1226708E+00
        -11   -1    0    0    0    0  0.00000000000E+00  0.00000000000E+00  0.45593999997E+02  0.45594000000E+02  0.51100000000E-03 0. -1.
         11   -1    0    0    0    0 -0.00000000000E+00 -0.00000000000E+00 -0.45593999997E+02  0.45594000000E+02  0.51100000000E-03 0.  1.
    9900012    2    1    2    0    0 -0.15938858046E+02 -0.92724752680E+01 -0.32644616760E+01  0.72461475938E+02  0.69999877083E+02 0.  0.
         12    1    1    2    0    0  0.15938858046E+02  0.92724752680E+01  0.32644616760E+01  0.18726524062E+02  0.00000000000E+00 0. -1.
         11    1    3    3    0    0 -0.54172323187E+00 -0.29819201530E+01  0.32409439826E+01  0.44372322475E+01  0.51100000000E-03 0. -1.
        -11    1    3    3    0    0  0.45597230347E+01  0.26493861226E+02  0.62110824844E+01  0.27591544044E+02  0.51100000000E-03 0.  1.
        -12    1    3    3    0    0 -0.19956857849E+02 -0.32784416341E+02 -0.12716488143E+02  0.40432699647E+02  0.00000000000E+00 0.  1.
</event>
<event>
 7    1  0.1360399E-013  0.7246160E+02  0.7816164E-02  0.1226708E+00
        -11   -1    0    0    0    0  0.00000000000E+00  0.00000000000E+00  0.45593999997E+02  0.45594000000E+02  0.51100000000E-03 0. -1.
         11   -1    0    0    0    0 -0.00000000000E+00 -0.00000000000E+00 -0.45593999997E+02  0.45594000000E+02  0.51100000000E-03 0.  1.
    9900012    2    1    2    0    0 -0.14418036275E+02 -0.11176977224E+02 -0.42277007403E+01  0.72461600361E+02  0.70000039168E+02 0.  0.
         12    1    1    2    0    0  0.14418036275E+02  0.11176977224E+02  0.42277007403E+01  0.18726399639E+02  0.00000000000E+00 0. -1.
         11    1    3    3    0    0  0.15570362983E+02 -0.48764902851E+01  0.30519084306E+01  0.16599111611E+02  0.51100000000E-03 0. -1.
        -11    1    3    3    0    0 -0.34881224288E+02  0.79345975472E+01 -0.15183274896E+02  0.38861156479E+02  0.51100000000E-03 0.  1.
        -12    1    3    3    0    0  0.48928250303E+01 -0.14235084486E+02  0.79036657253E+01  0.17001332271E+02  0.00000000000E+00 0.  1.
</event>
<event>
 7    1  0.1360399E-013  0.7246157E+02  0.7816164E-02  0.1226708E+00
        -11   -1    0    0    0    0  0.00000000000E+00  0.00000000000E+00  0.45593999997E+02  0.45594000000E+02  0.51100000000E-03 0.  1.
         11   -1    0    0    0    0 -0.00000000000E+00 -0.00000000000E+00 -0.45593999997E+02  0.45594000000E+02  0.51100000000E-03 0. -1.
    9900012    2    1    2    0    0 -0.17924623461E+02 -0.23906305631E+01  0.48653741179E+01  0.72461571990E+02  0.70000002209E+02 0.  0.
         12    1    1    2    0    0  0.17924623461E+02  0.23906305631E+01 -0.48653741179E+01  0.18726428010E+02  0.00000000000E+00 0. -1.
         11    1    3    3    0    0 -0.27418592471E+02  0.11211937700E+02  0.51465692187E+01  0.30066159300E+02  0.51100000000E-03 0.  1.
        -11    1    3    3    0    0  0.24586482913E+02 -0.52806952254E+01 -0.67288112612E+00  0.25156185191E+02  0.51100000000E-03 0. -1.
        -12    1    3    3    0    0 -0.15092513903E+02 -0.83218730380E+01  0.39168602533E+00  0.17239227498E+02  0.00000000000E+00 0.  1.
</event>
<event>
 7    1  0.1360399E-013  0.7246152E+02  0.7816164E-02  0.1226708E+00
        -11   -1    0    0    0    0  0.00000000000E+00  0.00000000000E+00  0.45593999997E+02  0.45594000000E+02  0.51100000000E-03 0. -1.
         11   -1    0    0    0    0 -0.00000000000E+00 -0.00000000000E+00 -0.45593999997E+02  0.45594000000E+02  0.51100000000E-03 0.  1.
    9900012    2    1    2    0    0 -0.43802154816E+01  0.14475756949E+02 -0.11042979105E+02  0.72461515695E+02  0.69999928874E+02 0.  0.
         12    1    1    2    0    0  0.43802154816E+01 -0.14475756949E+02  0.11042979105E+02  0.18726484305E+02  0.00000000000E+00 0. -1.
         11    1    3    3    0    0 -0.10887493442E+02 -0.60445659124E+01  0.68552480895E+01  0.14215087658E+02  0.51100000000E-03 0. -1.
        -11    1    3    3    0    0  0.16140948541E+02  0.33082184029E+02 -0.37243301083E+01  0.36997726348E+02  0.51100000000E-03 0.  1.
        -12    1    3    3    0    0 -0.96336705808E+01 -0.12561861167E+02 -0.14173897086E+02  0.21248701688E+02  0.00000000000E+00 0.  1.
</event>
<event>
 7    1  0.1360399E-013  0.7246160E+02  0.7816164E-02  0.1226708E+00
        -11   -1    0    0    0    0  0.00000000000E+00  0.00000000000E+00  0.45593999997E+02  0.45594000000E+02  0.51100000000E-03 0.  1.
         11   -1    0    0    0    0 -0.00000000000E+00 -0.00000000000E+00 -0.45593999997E+02  0.45594000000E+02  0.51100000000E-03 0. -1.
    9900012    2    1    2    0    0 -0.77716164135E+01  0.13775503775E+02 -0.10025749739E+02  0.72461596614E+02  0.70000034287E+02 0.  0.
         12    1    1    2    0    0  0.77716164135E+01 -0.13775503775E+02  0.10025749739E+02  0.18726403386E+02  0.00000000000E+00 0. -1.
         11    1    3    3    0    0  0.70108980762E+01 -0.15116707470E+02  0.33166051516E+01  0.16990215024E+02  0.51100000000E-03 0. -1.
        -11    1    3    3    0    0 -0.25081330577E+02  0.21543601176E+02  0.47408393458E+01  0.33401728295E+02  0.51100000000E-03 0.  1.
        -12    1    3    3    0    0  0.10298816088E+02  0.73486100688E+01 -0.18083194237E+02  0.22069653295E+02  0.00000000000E+00 0.  1.
</event>
<event>
 7    1  0.1360399E-013  0.7246156E+02  0.7816164E-02  0.1226708E+00
        -11   -1    0    0    0    0  0.00000000000E+00  0.00000000000E+00  0.45593999997E+02  0.45594000000E+02  0.51100000000E-03 0.  1.
         11   -1    0    0    0    0 -0.00000000000E+00 -0.00000000000E+00 -0.45593999997E+02  0.45594000000E+02  0.51100000000E-03 0. -1.
    9900012    2    1    2    0    0  0.15732749058E+02  0.30446978555E+01  0.96896879640E+01  0.72461557978E+02  0.69999983956E+02 0.  0.
         12    1    1    2    0    0 -0.15732749058E+02 -0.30446978555E+01 -0.96896879640E+01  0.18726442022E+02  0.00000000000E+00 0. -1.
         11    1    3    3    0    0  0.72481489106E+01 -0.41637740268E+01 -0.94120557478E+01  0.12588068575E+02  0.51100000000E-03 0. -1.
        -11    1    3    3    0    0  0.28902653297E+02  0.35968401959E+01  0.24926624157E+02  0.38335847703E+02  0.51100000000E-03 0.  1.
        -12    1    3    3    0    0 -0.20418053149E+02  0.36116316863E+01 -0.58248804449E+01  0.21537641701E+02  0.00000000000E+00 0.  1.
</event>
<event>
 7    1  0.1360399E-013  0.7246161E+02  0.7816164E-02  0.1226708E+00
        -11   -1    0    0    0    0  0.00000000000E+00  0.00000000000E+00  0.45593999997E+02  0.45594000000E+02  0.51100000000E-03 0.  1.
         11   -1    0    0    0    0 -0.00000000000E+00 -0.00000000000E+00 -0.45593999997E+02  0.45594000000E+02  0.51100000000E-03 0. -1.
    9900012    2    1    2    0    0  0.34007632594E+01  0.30228595457E+01  0.18165207533E+02  0.72461611258E+02  0.70000053363E+02 0.  0.
         12    1    1    2    0    0 -0.34007632594E+01 -0.30228595457E+01 -0.18165207533E+02  0.18726388742E+02  0.00000000000E+00 0. -1.
         11    1    3    3    0    0  0.12324397346E+02  0.20983353379E+02  0.16603373719E+02  0.29459530004E+02  0.51100000000E-03 0. -1.
        -11    1    3    3    0    0 -0.57585098499E+01 -0.26886155131E+02  0.11015937850E+02  0.29620544566E+02  0.51100000000E-03 0.  1.
         12    1    3    3    0    0 -0.31651242365E+01  0.89256612977E+01 -0.94541040352E+01  0.13381536688E+02  0.00000000000E+00 0. -1.
</event>
<event>
 7    1  0.1360399E-013  0.7246155E+02  0.7816164E-02  0.1226708E+00
        -11   -1    0    0    0    0  0.00000000000E+00  0.00000000000E+00  0.45593999997E+02  0.45594000000E+02  0.51100000000E-03 0. -1.
         11   -1    0    0    0    0 -0.00000000000E+00 -0.00000000000E+00 -0.45593999997E+02  0.45594000000E+02  0.51100000000E-03 0.  1.
    9900012    2    1    2    0    0  0.22311995852E+01  0.18347850790E+02 -0.30096738744E+01  0.72461547666E+02  0.69999970522E+02 0.  0.
         12    1    1    2    0    0 -0.22311995852E+01 -0.18347850790E+02  0.30096738744E+01  0.18726452334E+02  0.00000000000E+00 0. -1.
         11    1    3    3    0    0 -0.62336002570E+01  0.10442669129E+02 -0.27472779633E+02  0.30044312801E+02  0.51100000000E-03 0. -1.
        -11    1    3    3    0    0  0.12064996761E+02  0.15200298602E+02  0.32227713470E+01  0.19672302353E+02  0.51100000000E-03 0.  1.
         12    1    3    3    0    0 -0.36001969189E+01 -0.72951169412E+01  0.21240334411E+02  0.22744932511E+02  0.00000000000E+00 0. -1.
</event>
<event>
 7    1  0.1360399E-013  0.7246153E+02  0.7816164E-02  0.1226708E+00
        -11   -1    0    0    0    0  0.00000000000E+00  0.00000000000E+00  0.45593999997E+02  0.45594000000E+02  0.51100000000E-03 0.  1.
         11   -1    0    0    0    0 -0.00000000000E+00 -0.00000000000E+00 -0.45593999997E+02  0.45594000000E+02  0.51100000000E-03 0. -1.
    9900012    2    1    2    0    0 -0.14501304167E+02 -0.17677965461E+01  0.11716137825E+02  0.72461526421E+02  0.69999942846E+02 0.  0.
         12    1    1    2    0    0  0.14501304167E+02  0.17677965461E+01 -0.11716137825E+02  0.18726473579E+02  0.00000000000E+00 0. -1.
         11    1    3    3    0    0  0.68170531264E+01 -0.69807135331E+01 -0.13446153554E+02  0.16613296494E+02  0.51100000000E-03 0. -1.
        -11    1    3    3    0    0 -0.93261737840E+01  0.24902402014E+02  0.16042597945E+02  0.31055951002E+02  0.51100000000E-03 0.  1.
        -12    1    3    3    0    0 -0.11992183509E+02 -0.19689485027E+02  0.91196934337E+01  0.24792278925E+02  0.00000000000E+00 0.  1.
</event>
<event>
 7    1  0.1360399E-013  0.7246167E+02  0.7816164E-02  0.1226708E+00
        -11   -1    0    0    0    0  0.00000000000E+00  0.00000000000E+00  0.45593999997E+02  0.45594000000E+02  0.51100000000E-03 0.  1.
         11   -1    0    0    0    0 -0.00000000000E+00 -0.00000000000E+00 -0.45593999997E+02  0.45594000000E+02  0.51100000000E-03 0. -1.
    9900012    2    1    2    0    0 -0.17377553351E+02 -0.33425264457E+01  0.61256426176E+01  0.72461672518E+02  0.70000133165E+02 0.  0.
         12    1    1    2    0    0  0.17377553351E+02  0.33425264457E+01 -0.61256426176E+01  0.18726327482E+02  0.00000000000E+00 0. -1.
         11    1    3    3    0    0 -0.15334249139E+02 -0.20730688670E+02  0.27940789972E+00  0.25787181281E+02  0.51100000000E-03 0.  1.
        -11    1    3    3    0    0  0.77661135733E+00  0.25602092616E+02 -0.10879394839E+02  0.27828609448E+02  0.51100000000E-03 0. -1.
        -12    1    3    3    0    0 -0.28199155687E+01 -0.82139303912E+01  0.16725629557E+02  0.18845881788E+02  0.00000000000E+00 0.  1.
</event>
<event>
 7    1  0.1360399E-013  0.7246158E+02  0.7816164E-02  0.1226708E+00
        -11   -1    0    0    0    0  0.00000000000E+00  0.00000000000E+00  0.45593999997E+02  0.45594000000E+02  0.51100000000E-03 0.  1.
         11   -1    0    0    0    0 -0.00000000000E+00 -0.00000000000E+00 -0.45593999997E+02  0.45594000000E+02  0.51100000000E-03 0. -1.
    9900012    2    1    2    0    0 -0.92277630534E+01  0.11819539653E+02  0.11217207948E+02  0.72461577952E+02  0.70000009975E+02 0.  0.
         12    1    1    2    0    0  0.92277630534E+01 -0.11819539653E+02 -0.11217207948E+02  0.18726422048E+02  0.00000000000E+00 0. -1.
         11    1    3    3    0    0 -0.57664639554E+01  0.31239368509E+01 -0.12034493749E+02  0.13705478031E+02  0.51100000000E-03 0. -1.
        -11    1    3    3    0    0  0.11719624676E+02 -0.17565086597E+02  0.18459451010E+02  0.28046982040E+02  0.51100000000E-03 0.  1.
        -12    1    3    3    0    0 -0.15180923774E+02  0.26260689400E+02  0.47922506864E+01  0.30709117881E+02  0.00000000000E+00 0.  1.
</event>
<event>
 7    1  0.1360399E-013  0.7246155E+02  0.7816164E-02  0.1226708E+00
        -11   -1    0    0    0    0  0.00000000000E+00  0.00000000000E+00  0.45593999997E+02  0.45594000000E+02  0.51100000000E-03 0.  1.
         11   -1    0    0    0    0 -0.00000000000E+00 -0.00000000000E+00 -0.45593999997E+02  0.45594000000E+02  0.51100000000E-03 0. -1.
    9900012    2    1    2    0    0  0.57360392383E+01 -0.60271884919E+01  0.16776491643E+02  0.72461552950E+02  0.69999977406E+02 0.  0.
         12    1    1    2    0    0 -0.57360392383E+01  0.60271884919E+01 -0.16776491643E+02  0.18726447050E+02  0.00000000000E+00 0. -1.
         11    1    3    3    0    0 -0.19121378318E+02 -0.25903761701E+02  0.11054920904E+02  0.34041786902E+02  0.51100000000E-03 0. -1.
        -11    1    3    3    0    0 -0.86649188389E+00  0.81107107062E+01  0.60090490660E+01  0.10131293465E+02  0.51100000000E-03 0.  1.
         12    1    3    3    0    0  0.25723909440E+02  0.11765862503E+02 -0.28747832743E+00  0.28288472583E+02  0.00000000000E+00 0. -1.
</event>
<event>
 7    1  0.1360399E-013  0.7246148E+02  0.7816164E-02  0.1226708E+00
        -11   -1    0    0    0    0  0.00000000000E+00  0.00000000000E+00  0.45593999997E+02  0.45594000000E+02  0.51100000000E-03 0.  1.
         11   -1    0    0    0    0 -0.00000000000E+00 -0.00000000000E+00 -0.45593999997E+02  0.45594000000E+02  0.51100000000E-03 0. -1.
    9900012    2    1    2    0    0  0.14670053289E+02 -0.10603981292E+02  0.47986959959E+01  0.72461484948E+02  0.69999888820E+02 0.  0.
         12    1    1    2    0    0 -0.14670053289E+02  0.10603981292E+02 -0.47986959959E+01  0.18726515052E+02  0.00000000000E+00 0. -1.
         11    1    3    3    0    0  0.12729372810E+02 -0.69613574834E+01 -0.84912113325E+01  0.16810654369E+02  0.51100000000E-03 0. -1.
        -11    1    3    3    0    0 -0.38812939984E+01  0.12341617579E+02  0.29462940343E+02  0.32178328445E+02  0.51100000000E-03 0.  1.
        -12    1    3    3    0    0  0.58219744777E+01 -0.15984241387E+02 -0.16173033015E+02  0.23472502134E+02  0.00000000000E+00 0.  1.
</event>
<event>
 7    1  0.1360399E-013  0.7246156E+02  0.7816164E-02  0.1226708E+00
        -11   -1    0    0    0    0  0.00000000000E+00  0.00000000000E+00  0.45593999997E+02  0.45594000000E+02  0.51100000000E-03 0.  1.
         11   -1    0    0    0    0 -0.00000000000E+00 -0.00000000000E+00 -0.45593999997E+02  0.45594000000E+02  0.51100000000E-03 0. -1.
    9900012    2    1    2    0    0  0.19328350735E+01 -0.46203404301E+01  0.18044285950E+02  0.72461557397E+02  0.69999983199E+02 0.  0.
         12    1    1    2    0    0 -0.19328350735E+01  0.46203404301E+01 -0.18044285950E+02  0.18726442603E+02  0.00000000000E+00 0. -1.
         11    1    3    3    0    0  0.11489593776E+02 -0.18724030633E+02  0.27356216777E+01  0.22137834458E+02  0.51100000000E-03 0. -1.
        -11    1    3    3    0    0  0.10261744878E+02  0.18829423796E+02 -0.44957630701E+01  0.21910328483E+02  0.51100000000E-03 0.  1.
        -12    1    3    3    0    0 -0.19818503580E+02 -0.47257335930E+01  0.19804427342E+02  0.28413394456E+02  0.00000000000E+00 0.  1.
</event>
<event>
 7    1  0.1360399E-013  0.7246158E+02  0.7816164E-02  0.1226708E+00
        -11   -1    0    0    0    0  0.00000000000E+00  0.00000000000E+00  0.45593999997E+02  0.45594000000E+02  0.51100000000E-03 0.  1.
         11   -1    0    0    0    0 -0.00000000000E+00 -0.00000000000E+00 -0.45593999997E+02  0.45594000000E+02  0.51100000000E-03 0. -1.
    9900012    2    1    2    0    0  0.12675827528E+02 -0.12998758354E+02  0.45863181442E+01  0.72461584529E+02  0.70000018544E+02 0.  0.
         12    1    1    2    0    0 -0.12675827528E+02  0.12998758354E+02 -0.45863181442E+01  0.18726415471E+02  0.00000000000E+00 0. -1.
         11    1    3    3    0    0  0.24468402004E+02 -0.24798176375E+02  0.88857386463E+01  0.35952866363E+02  0.51100000000E-03 0. -1.
        -11    1    3    3    0    0 -0.83141571867E+00  0.13483117569E+02  0.11132911073E+02  0.17505068429E+02  0.51100000000E-03 0.  1.
         12    1    3    3    0    0 -0.10961158758E+02 -0.16836995485E+01 -0.15432331575E+02  0.19003649738E+02  0.00000000000E+00 0. -1.
</event>
<event>
 7    1  0.1360399E-013  0.7246193E+02  0.7816164E-02  0.1226707E+00
        -11   -1    0    0    0    0  0.00000000000E+00  0.00000000000E+00  0.45593999997E+02  0.45594000000E+02  0.51100000000E-03 0.  1.
         11   -1    0    0    0    0 -0.00000000000E+00 -0.00000000000E+00 -0.45593999997E+02  0.45594000000E+02  0.51100000000E-03 0. -1.
    9900012    2    1    2    0    0 -0.46776313837E+01 -0.15660402544E+02  0.91398765749E+01  0.72461927614E+02  0.70000465474E+02 0.  0.
         12    1    1    2    0    0  0.46776313837E+01  0.15660402544E+02 -0.91398765749E+01  0.18726072386E+02  0.00000000000E+00 0. -1.
         11    1    3    3    0    0 -0.29710008822E+02 -0.26944864009E+01  0.15435501161E+02  0.33588682284E+02  0.51100000000E-03 0. -1.
        -11    1    3    3    0    0 -0.69153004964E+00 -0.11660677640E+02  0.19196041429E+01  0.11837841744E+02  0.51100000000E-03 0.  1.
         12    1    3    3    0    0  0.25723907488E+02 -0.13052385029E+01 -0.82152287293E+01  0.27035403587E+02  0.00000000000E+00 0. -1.
</event>
<event>
 7    1  0.1360399E-013  0.7246154E+02  0.7816164E-02  0.1226708E+00
        -11   -1    0    0    0    0  0.00000000000E+00  0.00000000000E+00  0.45593999997E+02  0.45594000000E+02  0.51100000000E-03 0. -1.
         11   -1    0    0    0    0 -0.00000000000E+00 -0.00000000000E+00 -0.45593999997E+02  0.45594000000E+02  0.51100000000E-03 0.  1.
    9900012    2    1    2    0    0 -0.54272859461E+01  0.10849463391E+02 -0.14265828196E+02  0.72461544310E+02  0.69999966150E+02 0.  0.
         12    1    1    2    0    0  0.54272859461E+01 -0.10849463391E+02  0.14265828196E+02  0.18726455690E+02  0.00000000000E+00 0. -1.
         11    1    3    3    0    0  0.86508798399E+01  0.27937834528E+02 -0.73056140696E+01  0.30145187300E+02  0.51100000000E-03 0. -1.
        -11    1    3    3    0    0 -0.43628728068E+01 -0.22002970845E+02  0.79986617200E+01  0.23814784792E+02  0.51100000000E-03 0.  1.
        -12    1    3    3    0    0 -0.97152929792E+01  0.49145997067E+01 -0.14958875846E+02  0.18501572218E+02  0.00000000000E+00 0.  1.
</event>
<event>
 8    1  0.1360399E-013  0.7246153E+02  0.7816164E-02  0.1226708E+00
        -11   -1    0    0    0    0  0.00000000000E+00  0.00000000000E+00  0.45593999997E+02  0.45594000000E+02  0.51100000000E-03 0.  1.
         11   -1    0    0    0    0 -0.00000000000E+00 -0.00000000000E+00 -0.45593999997E+02  0.45594000000E+02  0.51100000000E-03 0. -1.
    9900012    2    1    2    0    0 -0.12586043049E+02 -0.18381669408E+01 -0.13743844687E+02  0.72461531990E+02  0.69999950102E+02 0.  0.
        -24    2    3    3    0    0 -0.15862616182E+02 -0.16389770372E+02 -0.12265301249E+02  0.57472496501E+02  0.51306949572E+02 0.  0.
         12    1    1    2    0    0  0.12586043049E+02  0.18381669408E+01  0.13743844687E+02  0.18726468010E+02  0.00000000000E+00 0. -1.
         11    1    4    4    0    0 -0.10810837140E+02 -0.25068573661E+02 -0.27807257208E+02  0.38968591696E+02  0.51100000000E-03 0. -1.
        -11    1    3    3    0    0  0.32765731338E+01  0.14551603432E+02 -0.14785434388E+01  0.14989035489E+02  0.51100000000E-03 0.  1.
        -12    1    4    4    0    0 -0.50517790427E+01  0.86788032887E+01  0.15541955959E+02  0.18503904806E+02  0.00000000000E+00 0.  1.
</event>
<event>
 7    1  0.1360399E-013  0.7246155E+02  0.7816164E-02  0.1226708E+00
        -11   -1    0    0    0    0  0.00000000000E+00  0.00000000000E+00  0.45593999997E+02  0.45594000000E+02  0.51100000000E-03 0. -1.
         11   -1    0    0    0    0 -0.00000000000E+00 -0.00000000000E+00 -0.45593999997E+02  0.45594000000E+02  0.51100000000E-03 0.  1.
    9900012    2    1    2    0    0 -0.44293285495E+01  0.14794629485E+01 -0.18134828736E+02  0.72461554120E+02  0.69999978929E+02 0.  0.
         12    1    1    2    0    0  0.44293285495E+01 -0.14794629485E+01  0.18134828736E+02  0.18726445880E+02  0.00000000000E+00 0. -1.
         11    1    3    3    0    0 -0.31369345876E+01 -0.16831933537E+02  0.61000057235E+01  0.18175929558E+02  0.51100000000E-03 0. -1.
        -11    1    3    3    0    0  0.17026687477E+02  0.13238940955E+02 -0.27552117979E+02  0.34989953550E+02  0.51100000000E-03 0.  1.
        -12    1    3    3    0    0 -0.18319081438E+02  0.50724555310E+01  0.33172835190E+01  0.19295671012E+02  0.00000000000E+00 0.  1.
</event>
<event>
 7    1  0.2048182E-013  0.7246154E+02  0.7816164E-02  0.1226708E+00
        -11   -1    0    0    0    0  0.00000000000E+00  0.00000000000E+00  0.45593999997E+02  0.45594000000E+02  0.51100000000E-03 0. -1.
         11   -1    0    0    0    0 -0.00000000000E+00 -0.00000000000E+00 -0.45593999997E+02  0.45594000000E+02  0.51100000000E-03 0.  1.
    9900012    2    1    2    0    0  0.48677250508E+01 -0.38201105132E+01 -0.17674620383E+02  0.72461542856E+02  0.69999964256E+02 0.  0.
         12    1    1    2    0    0 -0.48677250508E+01  0.38201105132E+01  0.17674620383E+02  0.18726457144E+02  0.00000000000E+00 0. -1.
         11    1    3    3    0    0 -0.10133839720E+01  0.10035789875E+02  0.17758214545E+02  0.20422982387E+02  0.51100000000E-03 0. -1.
        -11    1    3    3    0    0  0.10316608994E+02  0.58280191040E+01 -0.28226842500E+02  0.30612952579E+02  0.51100000000E-03 0.  1.
        -12    1    3    3    0    0 -0.44354999708E+01 -0.19683919493E+02 -0.72059924280E+01  0.21425607890E+02  0.00000000000E+00 0.  1.
</event>
<event>
 7    1  0.1360399E-013  0.7246149E+02  0.7816164E-02  0.1226708E+00
        -11   -1    0    0    0    0  0.00000000000E+00  0.00000000000E+00  0.45593999997E+02  0.45594000000E+02  0.51100000000E-03 0. -1.
         11   -1    0    0    0    0 -0.00000000000E+00 -0.00000000000E+00 -0.45593999997E+02  0.45594000000E+02  0.51100000000E-03 0.  1.
    9900012    2    1    2    0    0  0.38783949307E+01 -0.17253987591E+01 -0.18239056200E+02  0.72461491537E+02  0.69999897404E+02 0.  0.
         12    1    1    2    0    0 -0.38783949307E+01  0.17253987591E+01  0.18239056200E+02  0.18726508463E+02  0.00000000000E+00 0. -1.
         11    1    3    3    0    0  0.33554056201E+02 -0.95949411668E+01  0.50329633321E+00  0.34902591466E+02  0.51100000000E-03 0. -1.
        -11    1    3    3    0    0 -0.17152852285E+02  0.35663367249E+01 -0.16619202031E+02  0.24148229243E+02  0.51100000000E-03 0.  1.
         12    1    3    3    0    0 -0.12522808985E+02  0.43032056829E+01 -0.21231505028E+01  0.13410670829E+02  0.00000000000E+00 0. -1.
</event>
<event>
 7    1  0.1360399E-013  0.7246167E+02  0.7816164E-02  0.1226708E+00
        -11   -1    0    0    0    0  0.00000000000E+00  0.00000000000E+00  0.45593999997E+02  0.45594000000E+02  0.51100000000E-03 0. -1.
         11   -1    0    0    0    0 -0.00000000000E+00 -0.00000000000E+00 -0.45593999997E+02  0.45594000000E+02  0.51100000000E-03 0.  1.
    9900012    2    1    2    0    0 -0.15400120511E+02 -0.10113164649E+01 -0.10606085049E+02  0.72461667929E+02  0.70000127188E+02 0.  0.
         12    1    1    2    0    0  0.15400120511E+02  0.10113164649E+01  0.10606085049E+02  0.18726332071E+02  0.00000000000E+00 0. -1.
         11    1    3    3    0    0  0.13803611823E+01 -0.20377371911E+02 -0.19290902094E+02  0.28094155742E+02  0.51100000000E-03 0.  1.
        -11    1    3    3    0    0 -0.26467312508E+02  0.94066553094E+01  0.11215633813E+02  0.30245565586E+02  0.51100000000E-03 0. -1.
         12    1    3    3    0    0  0.96868308148E+01  0.99594001366E+01 -0.25308167682E+01  0.14121946602E+02  0.00000000000E+00 0. -1.
</event>
<event>
 7    1  0.1360399E-013  0.7246157E+02  0.7816164E-02  0.1226708E+00
        -11   -1    0    0    0    0  0.00000000000E+00  0.00000000000E+00  0.45593999997E+02  0.45594000000E+02  0.51100000000E-03 0.  1.
         11   -1    0    0    0    0 -0.00000000000E+00 -0.00000000000E+00 -0.45593999997E+02  0.45594000000E+02  0.51100000000E-03 0. -1.
    9900012    2    1    2    0    0  0.18247345774E+02 -0.39514846971E+01  0.14489227793E+01  0.72461568510E+02  0.69999997676E+02 0.  0.
         12    1    1    2    0    0 -0.18247345774E+02  0.39514846971E+01 -0.14489227793E+01  0.18726431490E+02  0.00000000000E+00 0. -1.
         11    1    3    3    0    0  0.21654769311E+02 -0.20844832807E+02  0.48549138697E+01  0.30446777787E+02  0.51100000000E-03 0. -1.
        -11    1    3    3    0    0  0.88284104532E+01  0.13012247045E+02  0.13543518809E+02  0.20752983069E+02  0.51100000000E-03 0.  1.
         12    1    3    3    0    0 -0.12235833990E+02  0.38811010647E+01 -0.16949509899E+02  0.21261807654E+02  0.00000000000E+00 0. -1.
</event>
<event>
 7    1  0.1360399E-013  0.7246157E+02  0.7816164E-02  0.1226708E+00
        -11   -1    0    0    0    0  0.00000000000E+00  0.00000000000E+00  0.45593999997E+02  0.45594000000E+02  0.51100000000E-03 0.  1.
         11   -1    0    0    0    0 -0.00000000000E+00 -0.00000000000E+00 -0.45593999997E+02  0.45594000000E+02  0.51100000000E-03 0. -1.
    9900012    2    1    2    0    0  0.64655848506E+01  0.13551964187E+02  0.11190151930E+02  0.72461574260E+02  0.70000005166E+02 0.  0.
         12    1    1    2    0    0 -0.64655848506E+01 -0.13551964187E+02 -0.11190151930E+02  0.18726425740E+02  0.00000000000E+00 0. -1.
         11    1    3    3    0    0  0.20961486026E+02  0.17114281676E+02  0.71276495205E+01  0.27983672412E+02  0.51100000000E-03 0. -1.
        -11    1    3    3    0    0 -0.28983309574E+02  0.12852552422E+01  0.29184562748E+01  0.29158215003E+02  0.51100000000E-03 0.  1.
        -12    1    3    3    0    0  0.14487408398E+02 -0.48475727314E+01  0.11440461343E+01  0.15319686845E+02  0.00000000000E+00 0.  1.
</event>
<event>
 7    1  0.1360399E-013  0.7246158E+02  0.7816164E-02  0.1226708E+00
        -11   -1    0    0    0    0  0.00000000000E+00  0.00000000000E+00  0.45593999997E+02  0.45594000000E+02  0.51100000000E-03 0. -1.
         11   -1    0    0    0    0 -0.00000000000E+00 -0.00000000000E+00 -0.45593999997E+02  0.45594000000E+02  0.51100000000E-03 0.  1.
    9900012    2    1    2    0    0 -0.31760298577E+01  0.18443248084E+02 -0.66212850251E+00  0.72461575363E+02  0.70000006602E+02 0.  0.
         12    1    1    2    0    0  0.31760298577E+01 -0.18443248084E+02  0.66212850251E+00  0.18726424637E+02  0.00000000000E+00 0. -1.
         11    1    3    3    0    0  0.17364265017E+02  0.14669670415E+02  0.23828317739E+00  0.22732657320E+02  0.51100000000E-03 0. -1.
        -11    1    3    3    0    0 -0.17258013502E+02 -0.79073375147E+01  0.18719384379E+02  0.26660464520E+02  0.51100000000E-03 0.  1.
        -12    1    3    3    0    0 -0.32822813733E+01  0.11680915184E+02 -0.19619796059E+02  0.23068453523E+02  0.00000000000E+00 0.  1.
</event>
<event>
 7    1  0.1360399E-013  0.7246153E+02  0.7816164E-02  0.1226708E+00
        -11   -1    0    0    0    0  0.00000000000E+00  0.00000000000E+00  0.45593999997E+02  0.45594000000E+02  0.51100000000E-03 0.  1.
         11   -1    0    0    0    0 -0.00000000000E+00 -0.00000000000E+00 -0.45593999997E+02  0.45594000000E+02  0.51100000000E-03 0. -1.
    9900012    2    1    2    0    0 -0.61606097058E+01 -0.15936032957E+02  0.76661778159E+01  0.72461533684E+02  0.69999952309E+02 0.  0.
         12    1    1    2    0    0  0.61606097058E+01  0.15936032957E+02 -0.76661778159E+01  0.18726466316E+02  0.00000000000E+00 0. -1.
         11    1    3    3    0    0 -0.20737286237E+02 -0.89580323816E+00  0.23746013715E+02  0.31539034093E+02  0.51100000000E-03 0. -1.
        -11    1    3    3    0    0  0.21038043260E+02 -0.16800265530E+02 -0.41491793285E+01  0.27240849389E+02  0.51100000000E-03 0.  1.
         12    1    3    3    0    0 -0.64613667290E+01  0.17600358108E+01 -0.11930656570E+02  0.13681650202E+02  0.00000000000E+00 0. -1.
</event>
<event>
 7    1  0.1360399E-013  0.7246155E+02  0.7816164E-02  0.1226708E+00
        -11   -1    0    0    0    0  0.00000000000E+00  0.00000000000E+00  0.45593999997E+02  0.45594000000E+02  0.51100000000E-03 0.  1.
         11   -1    0    0    0    0 -0.00000000000E+00 -0.00000000000E+00 -0.45593999997E+02  0.45594000000E+02  0.51100000000E-03 0. -1.
    9900012    2    1    2    0    0 -0.22121864437E+01 -0.65663465729E+01  0.17397394782E+02  0.72461547549E+02  0.69999970371E+02 0.  0.
         12    1    1    2    0    0  0.22121864437E+01  0.65663465729E+01 -0.17397394782E+02  0.18726452451E+02  0.00000000000E+00 0. -1.
         11    1    3    3    0    0 -0.94563058850E+01 -0.76203851716E+01 -0.87850717965E+01  0.14988978547E+02  0.51100000000E-03 0. -1.
        -11    1    3    3    0    0  0.24028480277E+02 -0.10750813632E+02  0.29706392740E+01  0.26490990094E+02  0.51100000000E-03 0.  1.
        -12    1    3    3    0    0 -0.16784360836E+02  0.11804852230E+02  0.23211827305E+02  0.30981578909E+02  0.00000000000E+00 0.  1.
</event>
<event>
 7    1  0.1360399E-013  0.7246158E+02  0.7816164E-02  0.1226708E+00
        -11   -1    0    0    0    0  0.00000000000E+00  0.00000000000E+00  0.45593999997E+02  0.45594000000E+02  0.51100000000E-03 0. -1.
         11   -1    0    0    0    0 -0.00000000000E+00 -0.00000000000E+00 -0.45593999997E+02  0.45594000000E+02  0.51100000000E-03 0.  1.
    9900012    2    1    2    0    0 -0.67910283147E+01 -0.26227088691E+01 -0.17253469262E+02  0.72461578319E+02  0.70000010454E+02 0.  0.
         12    1    1    2    0    0  0.67910283147E+01  0.26227088691E+01  0.17253469262E+02  0.18726421681E+02  0.00000000000E+00 0. -1.
         11    1    3    3    0    0  0.22018537625E+02  0.30995079598E+01  0.24804592587E+01  0.22373547487E+02  0.51100000000E-03 0. -1.
        -11    1    3    3    0    0 -0.29405317964E+02  0.66665059431E+01 -0.22199386077E+02  0.37442325896E+02  0.51100000000E-03 0.  1.
        -12    1    3    3    0    0  0.59575202366E+00 -0.12388722772E+02  0.24654575559E+01  0.12645704937E+02  0.00000000000E+00 0.  1.
</event>
<event>
 7    1  0.1360399E-013  0.7246158E+02  0.7816164E-02  0.1226708E+00
        -11   -1    0    0    0    0  0.00000000000E+00  0.00000000000E+00  0.45593999997E+02  0.45594000000E+02  0.51100000000E-03 0.  1.
         11   -1    0    0    0    0 -0.00000000000E+00 -0.00000000000E+00 -0.45593999997E+02  0.45594000000E+02  0.51100000000E-03 0. -1.
    9900012    2    1    2    0    0  0.39012334692E+01  0.60487873785E+01  0.17287896648E+02  0.72461579577E+02  0.70000012093E+02 0.  0.
         12    1    1    2    0    0 -0.39012334692E+01 -0.60487873785E+01 -0.17287896648E+02  0.18726420423E+02  0.00000000000E+00 0. -1.
         11    1    3    3    0    0 -0.84266124465E+01  0.22257218522E+02  0.91060661748E+01  0.25481601502E+02  0.51100000000E-03 0. -1.
        -11    1    3    3    0    0  0.63345992203E+01 -0.20965825391E+02  0.22089095900E+02  0.31106609258E+02  0.51100000000E-03 0.  1.
        -12    1    3    3    0    0  0.59932466954E+01  0.47573942477E+01 -0.13907265426E+02  0.15873368817E+02  0.00000000000E+00 0.  1.
</event>
<event>
 7    1  0.1360399E-013  0.7246148E+02  0.7816164E-02  0.1226708E+00
        -11   -1    0    0    0    0  0.00000000000E+00  0.00000000000E+00  0.45593999997E+02  0.45594000000E+02  0.51100000000E-03 0. -1.
         11   -1    0    0    0    0 -0.00000000000E+00 -0.00000000000E+00 -0.45593999997E+02  0.45594000000E+02  0.51100000000E-03 0.  1.
    9900012    2    1    2    0    0  0.21780933171E+01  0.12677519836E+02 -0.13609518233E+02  0.72461479068E+02  0.69999881161E+02 0.  0.
         12    1    1    2    0    0 -0.21780933171E+01 -0.12677519836E+02  0.13609518233E+02  0.18726520932E+02  0.00000000000E+00 0. -1.
         11    1    3    3    0    0  0.12628772394E+02 -0.74027900590E+01  0.84826873058E+01  0.16918722677E+02  0.51100000000E-03 0. -1.
        -11    1    3    3    0    0 -0.98010349284E+01  0.88983296965E+01 -0.35607935368E+02  0.37989019709E+02  0.51100000000E-03 0.  1.
        -12    1    3    3    0    0 -0.64964414868E+00  0.11181980198E+02  0.13515729829E+02  0.17553736681E+02  0.00000000000E+00 0.  1.
</event>
<event>
 7    1  0.1360399E-013  0.7246164E+02  0.7816164E-02  0.1226708E+00
        -11   -1    0    0    0    0  0.00000000000E+00  0.00000000000E+00  0.45593999997E+02  0.45594000000E+02  0.51100000000E-03 0. -1.
         11   -1    0    0    0    0 -0.00000000000E+00 -0.00000000000E+00 -0.45593999997E+02  0.45594000000E+02  0.51100000000E-03 0.  1.
    9900012    2    1    2    0    0  0.18495121558E+02  0.82749860098E+00 -0.28146656789E+01  0.72461638413E+02  0.70000088738E+02 0.  0.
         12    1    1    2    0    0 -0.18495121558E+02 -0.82749860098E+00  0.28146656789E+01  0.18726361587E+02  0.00000000000E+00 0. -1.
         11    1    3    3    0    0 -0.12560873209E+02  0.39909193469E+01  0.21456993110E+02  0.25181452035E+02  0.51100000000E-03 0. -1.
        -11    1    3    3    0    0  0.33386839364E+02 -0.82260702206E+01 -0.17733410434E+02  0.38688798377E+02  0.51100000000E-03 0.  1.
         12    1    3    3    0    0 -0.23308445957E+01  0.50626494747E+01 -0.65382483550E+01  0.85913880011E+01  0.00000000000E+00 0. -1.
</event>
<event>
 7    1  0.1360399E-013  0.7246157E+02  0.7816164E-02  0.1226708E+00
        -11   -1    0    0    0    0  0.00000000000E+00  0.00000000000E+00  0.45593999997E+02  0.45594000000E+02  0.51100000000E-03 0.  1.
         11   -1    0    0    0    0 -0.00000000000E+00 -0.00000000000E+00 -0.45593999997E+02  0.45594000000E+02  0.51100000000E-03 0. -1.
    9900012    2    1    2    0    0 -0.13797745015E+02 -0.99077438040E+00  0.12622192649E+02  0.72461570852E+02  0.70000000726E+02 0.  0.
         12    1    1    2    0    0  0.13797745015E+02  0.99077438040E+00 -0.12622192649E+02  0.18726429148E+02  0.00000000000E+00 0. -1.
         11    1    3    3    0    0 -0.14376921727E+02 -0.53059804377E+01 -0.12731307325E+02  0.19923240028E+02  0.51100000000E-03 0. -1.
        -11    1    3    3    0    0 -0.87397454852E+01  0.21424346845E+02  0.23481546191E+02  0.32966176616E+02  0.51100000000E-03 0.  1.
        -12    1    3    3    0    0  0.93189221975E+01 -0.17109140787E+02  0.18719537830E+01  0.19572154209E+02  0.00000000000E+00 0.  1.
</event>
<event>
 7    1  0.1360399E-013  0.7246157E+02  0.7816164E-02  0.1226708E+00
        -11   -1    0    0    0    0  0.00000000000E+00  0.00000000000E+00  0.45593999997E+02  0.45594000000E+02  0.51100000000E-03 0. -1.
         11   -1    0    0    0    0 -0.00000000000E+00 -0.00000000000E+00 -0.45593999997E+02  0.45594000000E+02  0.51100000000E-03 0.  1.
    9900012    2    1    2    0    0  0.35763963353E+01  0.10751626704E+02  0.14909432279E+02  0.72461567921E+02  0.69999996908E+02 0.  0.
         12    1    1    2    0    0 -0.35763963353E+01 -0.10751626704E+02 -0.14909432279E+02  0.18726432079E+02  0.00000000000E+00 0. -1.
         11    1    3    3    0    0 -0.12999918408E+02  0.30286687262E+02  0.22174218526E+02  0.39723762050E+02  0.51100000000E-03 0. -1.
        -11    1    3    3    0    0  0.15990588075E+02 -0.16371900332E+02  0.19591172836E+01  0.22969026281E+02  0.51100000000E-03 0.  1.
         12    1    3    3    0    0  0.58572666747E+00 -0.31631602255E+01 -0.92239035300E+01  0.97687795897E+01  0.00000000000E+00 0. -1.
</event>
<event>
 7    1  0.1360399E-013  0.7246147E+02  0.7816164E-02  0.1226708E+00
        -11   -1    0    0    0    0  0.00000000000E+00  0.00000000000E+00  0.45593999997E+02  0.45594000000E+02  0.51100000000E-03 0. -1.
         11   -1    0    0    0    0 -0.00000000000E+00 -0.00000000000E+00 -0.45593999997E+02  0.45594000000E+02  0.51100000000E-03 0.  1.
    9900012    2    1    2    0    0 -0.53872368442E+01  0.17139184710E+02 -0.52828900231E+01  0.72461470681E+02  0.69999870235E+02 0.  0.
         12    1    1    2    0    0  0.53872368442E+01 -0.17139184710E+02  0.52828900231E+01  0.18726529319E+02  0.00000000000E+00 0. -1.
         11    1    3    3    0    0 -0.12448830078E+02 -0.85200089830E+01  0.89142407827E+00  0.15111537332E+02  0.51100000000E-03 0.  1.
        -11    1    3    3    0    0 -0.84757468834E+00  0.40262501613E+02 -0.61767588148E+01  0.40742358408E+02  0.51100000000E-03 0. -1.
        -12    1    3    3    0    0  0.79091679226E+01 -0.14603307919E+02  0.24447133970E-02  0.16607574940E+02  0.00000000000E+00 0.  1.
</event>
<event>
 7    1  0.1360399E-013  0.7246155E+02  0.7816164E-02  0.1226708E+00
        -11   -1    0    0    0    0  0.00000000000E+00  0.00000000000E+00  0.45593999997E+02  0.45594000000E+02  0.51100000000E-03 0. -1.
         11   -1    0    0    0    0 -0.00000000000E+00 -0.00000000000E+00 -0.45593999997E+02  0.45594000000E+02  0.51100000000E-03 0.  1.
    9900012    2    1    2    0    0  0.10092315798E+02  0.16950910308E+01 -0.15682847173E+02  0.72461551666E+02  0.69999975733E+02 0.  0.
         12    1    1    2    0    0 -0.10092315798E+02 -0.16950910308E+01  0.15682847173E+02  0.18726448334E+02  0.00000000000E+00 0. -1.
         11    1    3    3    0    0 -0.14442939648E+02 -0.56977511247E+01  0.81061779779E+01  0.17514936347E+02  0.51100000000E-03 0. -1.
        -11    1    3    3    0    0  0.24302778756E+02 -0.80876506880E+01  0.10981337344E+01  0.25636712872E+02  0.51100000000E-03 0.  1.
        -12    1    3    3    0    0  0.23247668981E+00  0.15480492844E+02 -0.24887158885E+02  0.29309902447E+02  0.00000000000E+00 0.  1.
</event>
<event>
 7    1  0.1360399E-013  0.7246154E+02  0.7816164E-02  0.1226708E+00
        -11   -1    0    0    0    0  0.00000000000E+00  0.00000000000E+00  0.45593999997E+02  0.45594000000E+02  0.51100000000E-03 0. -1.
         11   -1    0    0    0    0 -0.00000000000E+00 -0.00000000000E+00 -0.45593999997E+02  0.45594000000E+02  0.51100000000E-03 0.  1.
    9900012    2    1    2    0    0 -0.36330925571E+00 -0.18365766182E+02  0.36396182189E+01  0.72461543265E+02  0.69999964789E+02 0.  0.
         12    1    1    2    0    0  0.36330925571E+00  0.18365766182E+02 -0.36396182189E+01  0.18726456735E+02  0.00000000000E+00 0. -1.
         11    1    3    3    0    0  0.18072442373E+02  0.51618902185E+01  0.18523706790E+02  0.26389126501E+02  0.51100000000E-03 0. -1.
        -11    1    3    3    0    0 -0.18034900517E+02 -0.16670092187E+02 -0.24212550956E+02  0.34487638862E+02  0.51100000000E-03 0.  1.
        -12    1    3    3    0    0 -0.40085111195E+00 -0.68575642142E+01  0.93284623850E+01  0.11584777902E+02  0.00000000000E+00 0.  1.
</event>
<event>
 7    1  0.1360399E-013  0.7246158E+02  0.7816164E-02  0.1226708E+00
        -11   -1    0    0    0    0  0.00000000000E+00  0.00000000000E+00  0.45593999997E+02  0.45594000000E+02  0.51100000000E-03 0.  1.
         11   -1    0    0    0    0 -0.00000000000E+00 -0.00000000000E+00 -0.45593999997E+02  0.45594000000E+02  0.51100000000E-03 0. -1.
    9900012    2    1    2    0    0 -0.13278471598E+02  0.32102909351E+01  0.12808397530E+02  0.72461579542E+02  0.70000012047E+02 0.  0.
         12    1    1    2    0    0  0.13278471598E+02 -0.32102909351E+01 -0.12808397530E+02  0.18726420458E+02  0.00000000000E+00 0. -1.
         11    1    3    3    0    0 -0.54989012352E+01 -0.24382181636E+02  0.45639792265E+01  0.25407845299E+02  0.51100000000E-03 0. -1.
        -11    1    3    3    0    0 -0.21919280308E+02  0.20445154275E+02  0.20566115866E+01  0.30044780479E+02  0.51100000000E-03 0.  1.
        -12    1    3    3    0    0  0.14139709946E+02  0.71473182961E+01  0.61878067174E+01  0.17008953764E+02  0.00000000000E+00 0.  1.
</event>
<event>
 7    1  0.1360399E-013  0.7246164E+02  0.7816164E-02  0.1226708E+00
        -11   -1    0    0    0    0  0.00000000000E+00  0.00000000000E+00  0.45593999997E+02  0.45594000000E+02  0.51100000000E-03 0. -1.
         11   -1    0    0    0    0 -0.00000000000E+00 -0.00000000000E+00 -0.45593999997E+02  0.45594000000E+02  0.51100000000E-03 0.  1.
    9900012    2    1    2    0    0  0.12665456974E+02 -0.13659869876E+02  0.19158628272E+01  0.72461644888E+02  0.70000097172E+02 0.  0.
         12    1    1    2    0    0 -0.12665456974E+02  0.13659869876E+02 -0.19158628272E+01  0.18726355112E+02  0.00000000000E+00 0. -1.
         11    1    3    3    0    0  0.22676241004E+02  0.21713113600E+01 -0.86051353732E+01  0.24351075010E+02  0.51100000000E-03 0. -1.
        -11    1    3    3    0    0 -0.14444534029E+02 -0.12661286979E+02  0.25641296928E+02  0.32037928456E+02  0.51100000000E-03 0.  1.
        -12    1    3    3    0    0  0.44337499999E+01 -0.31698942571E+01 -0.15120298728E+02  0.16072641422E+02  0.00000000000E+00 0.  1.
</event>
<event>
 7    1  0.1360399E-013  0.7246165E+02  0.7816164E-02  0.1226708E+00
        -11   -1    0    0    0    0  0.00000000000E+00  0.00000000000E+00  0.45593999997E+02  0.45594000000E+02  0.51100000000E-03 0.  1.
         11   -1    0    0    0    0 -0.00000000000E+00 -0.00000000000E+00 -0.45593999997E+02  0.45594000000E+02  0.51100000000E-03 0. -1.
    9900012    2    1    2    0    0 -0.15153691872E+02 -0.56026452058E+01  0.94684830870E+01  0.72461650045E+02  0.70000103890E+02 0.  0.
         12    1    1    2    0    0  0.15153691872E+02  0.56026452058E+01 -0.94684830870E+01  0.18726349955E+02  0.00000000000E+00 0. -1.
         11    1    3    3    0    0 -0.21454873912E+01 -0.91023954514E+01 -0.28855171291E+02  0.30332781435E+02  0.51100000000E-03 0. -1.
        -11    1    3    3    0    0 -0.85156386855E+01  0.57257849397E+01  0.14380203798E+02  0.17666096822E+02  0.51100000000E-03 0.  1.
         12    1    3    3    0    0 -0.44925657956E+01 -0.22260346941E+01  0.23943450580E+02  0.24462771788E+02  0.00000000000E+00 0. -1.
</event>
<event>
 7    1  0.1360399E-013  0.7246151E+02  0.7816164E-02  0.1226708E+00
        -11   -1    0    0    0    0  0.00000000000E+00  0.00000000000E+00  0.45593999997E+02  0.45594000000E+02  0.51100000000E-03 0. -1.
         11   -1    0    0    0    0 -0.00000000000E+00 -0.00000000000E+00 -0.45593999997E+02  0.45594000000E+02  0.51100000000E-03 0.  1.
    9900012    2    1    2    0    0 -0.78670380706E+01  0.91518323315E+01 -0.14319052399E+02  0.72461505810E+02  0.69999915997E+02 0.  0.
         12    1    1    2    0    0  0.78670380706E+01 -0.91518323315E+01  0.14319052399E+02  0.18726494190E+02  0.00000000000E+00 0. -1.
         11    1    3    3    0    0 -0.80908649559E+01  0.69419885434E+00  0.96180821929E+01  0.12587752504E+02  0.51100000000E-03 0. -1.
        -11    1    3    3    0    0  0.24326900007E+02  0.13367068637E+02 -0.21587405297E+02  0.35163797514E+02  0.51100000000E-03 0.  1.
        -12    1    3    3    0    0 -0.24103073122E+02 -0.49094351595E+01 -0.23497292954E+01  0.24709955792E+02  0.00000000000E+00 0.  1.
</event>
<event>
 7    1  0.1360399E-013  0.7246155E+02  0.7816164E-02  0.1226708E+00
        -11   -1    0    0    0    0  0.00000000000E+00  0.00000000000E+00  0.45593999997E+02  0.45594000000E+02  0.51100000000E-03 0.  1.
         11   -1    0    0    0    0 -0.00000000000E+00 -0.00000000000E+00 -0.45593999997E+02  0.45594000000E+02  0.51100000000E-03 0. -1.
    9900012    2    1    2    0    0  0.77445572039E+01  0.89419631154E+01  0.14516991930E+02  0.72461550114E+02  0.69999973711E+02 0.  0.
         12    1    1    2    0    0 -0.77445572039E+01 -0.89419631154E+01 -0.14516991930E+02  0.18726449886E+02  0.00000000000E+00 0. -1.
         11    1    3    3    0    0  0.13678030576E+02  0.77240239318E+01  0.25047608719E+02  0.29565719490E+02  0.51100000000E-03 0. -1.
        -11    1    3    3    0    0 -0.21893788227E+02 -0.56131808248E+00  0.27285476117E+01  0.22070297082E+02  0.51100000000E-03 0.  1.
         12    1    3    3    0    0  0.15960314855E+02  0.17792572661E+01 -0.13259164401E+02  0.20825533542E+02  0.00000000000E+00 0. -1.
</event>
<event>
 7    1  0.1360399E-013  0.7246156E+02  0.7816164E-02  0.1226708E+00
        -11   -1    0    0    0    0  0.00000000000E+00  0.00000000000E+00  0.45593999997E+02  0.45594000000E+02  0.51100000000E-03 0. -1.
         11   -1    0    0    0    0 -0.00000000000E+00 -0.00000000000E+00 -0.45593999997E+02  0.45594000000E+02  0.51100000000E-03 0.  1.
    9900012    2    1    2    0    0 -0.14998345075E+02  0.10389918365E+02 -0.42164896065E+01  0.72461560316E+02  0.69999987002E+02 0.  0.
         12    1    1    2    0    0  0.14998345075E+02 -0.10389918365E+02  0.42164896065E+01  0.18726439684E+02  0.00000000000E+00 0. -1.
         11    1    3    3    0    0  0.91201273895E+00  0.11941626094E+02  0.54950215508E+01  0.13176853309E+02  0.51100000000E-03 0. -1.
        -11    1    3    3    0    0 -0.25531257372E+01 -0.27974409126E+02  0.11087093607E+00  0.28090893713E+02  0.51100000000E-03 0.  1.
        -12    1    3    3    0    0 -0.13357232077E+02  0.26422701397E+02 -0.98223820934E+01  0.31193813294E+02  0.00000000000E+00 0.  1.
</event>
<event>
 7    1  0.1360399E-013  0.7246158E+02  0.7816164E-02  0.1226708E+00
        -11   -1    0    0    0    0  0.00000000000E+00  0.00000000000E+00  0.45593999997E+02  0.45594000000E+02  0.51100000000E-03 0.  1.
         11   -1    0    0    0    0 -0.00000000000E+00 -0.00000000000E+00 -0.45593999997E+02  0.45594000000E+02  0.51100000000E-03 0. -1.
    9900012    2    1    2    0    0 -0.94262737808E+01  0.13039602921E+02 -0.95808562388E+01  0.72461583151E+02  0.70000016748E+02 0.  0.
         12    1    1    2    0    0  0.94262737808E+01 -0.13039602921E+02  0.95808562388E+01  0.18726416849E+02  0.00000000000E+00 0. -1.
         11    1    3    3    0    0  0.13743720276E+01  0.44881553528E+00 -0.63150126574E+01  0.64784040457E+01  0.51100000000E-03 0. -1.
        -11    1    3    3    0    0 -0.15618596091E+02  0.36559960801E+02  0.52334140236E+01  0.40099375309E+02  0.51100000000E-03 0.  1.
        -12    1    3    3    0    0  0.48179502823E+01 -0.23969173415E+02 -0.84992576050E+01  0.25883803796E+02  0.00000000000E+00 0.  1.
</event>
<event>
 8    1  0.1360399E-013  0.7246156E+02  0.7816164E-02  0.1226708E+00
        -11   -1    0    0    0    0  0.00000000000E+00  0.00000000000E+00  0.45593999997E+02  0.45594000000E+02  0.51100000000E-03 0.  1.
         11   -1    0    0    0    0 -0.00000000000E+00 -0.00000000000E+00 -0.45593999997E+02  0.45594000000E+02  0.51100000000E-03 0. -1.
    9900012    2    1    2    0    0  0.18077234593E+02  0.48114874520E+01 -0.86184184380E+00  0.72461558977E+02  0.69999985257E+02 0.  0.
        -24    2    3    3    0    0  0.14556954048E+01  0.10431682346E+02  0.85208424816E+01  0.52564400360E+02  0.50788506406E+02 0.  0.
         12    1    1    2    0    0 -0.18077234593E+02 -0.48114874520E+01  0.86184184380E+00  0.18726441023E+02  0.00000000000E+00 0. -1.
         11    1    4    4    0    0 -0.23494282214E+01  0.29250245919E+02  0.14120460343E+02  0.32565074848E+02  0.51100000000E-03 0. -1.
        -11    1    3    3    0    0  0.16621539188E+02 -0.56201948938E+01 -0.93826843254E+01  0.19897158617E+02  0.51100000000E-03 0.  1.
        -12    1    4    4    0    0  0.38051236262E+01 -0.18818563573E+02 -0.55996178610E+01  0.19999325513E+02  0.00000000000E+00 0.  1.
</event>
<event>
 7    1  0.1360399E-013  0.7246171E+02  0.7816164E-02  0.1226708E+00
        -11   -1    0    0    0    0  0.00000000000E+00  0.00000000000E+00  0.45593999997E+02  0.45594000000E+02  0.51100000000E-03 0. -1.
         11   -1    0    0    0    0 -0.00000000000E+00 -0.00000000000E+00 -0.45593999997E+02  0.45594000000E+02  0.51100000000E-03 0.  1.
    9900012    2    1    2    0    0  0.10663752222E+02  0.14409244765E+02 -0.54158948635E+01  0.72461711972E+02  0.70000184561E+02 0.  0.
         12    1    1    2    0    0 -0.10663752222E+02 -0.14409244765E+02  0.54158948635E+01  0.18726288028E+02  0.00000000000E+00 0. -1.
         11    1    3    3    0    0  0.11605794491E+02 -0.99198303929E+01 -0.26426025172E+01  0.15494542559E+02  0.51100000000E-03 0. -1.
        -11    1    3    3    0    0 -0.19106874637E+02 -0.44231396389E+01  0.81620295563E+01  0.21242776405E+02  0.51100000000E-03 0.  1.
        -12    1    3    3    0    0  0.18164832368E+02  0.28752214797E+02 -0.10935321903E+02  0.35724393008E+02  0.00000000000E+00 0.  1.
</event>
<event>
 7    1  0.1360399E-013  0.7246156E+02  0.7816164E-02  0.1226708E+00
        -11   -1    0    0    0    0  0.00000000000E+00  0.00000000000E+00  0.45593999997E+02  0.45594000000E+02  0.51100000000E-03 0.  1.
         11   -1    0    0    0    0 -0.00000000000E+00 -0.00000000000E+00 -0.45593999997E+02  0.45594000000E+02  0.51100000000E-03 0. -1.
    9900012    2    1    2    0    0  0.18401103168E+02 -0.91551581390E+00  0.33527342446E+01  0.72461558963E+02  0.69999985239E+02 0.  0.
         12    1    1    2    0    0 -0.18401103168E+02  0.91551581390E+00 -0.33527342446E+01  0.18726441037E+02  0.00000000000E+00 0. -1.
         11    1    3    3    0    0  0.30274481565E+02 -0.15973382696E+02 -0.55008477496E+01  0.34669186824E+02  0.51100000000E-03 0. -1.
        -11    1    3    3    0    0 -0.58081078195E+01  0.14356252310E+02 -0.96907557082E+01  0.18268739510E+02  0.51100000000E-03 0.  1.
         12    1    3    3    0    0 -0.60652705779E+01  0.70161457196E+00  0.18544337702E+02  0.19523632628E+02  0.00000000000E+00 0. -1.
</event>
<event>
 7    1  0.1360399E-013  0.7246151E+02  0.7816164E-02  0.1226708E+00
        -11   -1    0    0    0    0  0.00000000000E+00  0.00000000000E+00  0.45593999997E+02  0.45594000000E+02  0.51100000000E-03 0.  1.
         11   -1    0    0    0    0 -0.00000000000E+00 -0.00000000000E+00 -0.45593999997E+02  0.45594000000E+02  0.51100000000E-03 0. -1.
    9900012    2    1    2    0    0 -0.11241947732E+02 -0.87814522299E+01  0.12132028372E+02  0.72461510620E+02  0.69999922263E+02 0.  0.
         12    1    1    2    0    0  0.11241947732E+02  0.87814522299E+01 -0.12132028372E+02  0.18726489380E+02  0.00000000000E+00 0. -1.
         11    1    3    3    0    0 -0.11391659853E+02 -0.34948557706E+02 -0.31885913740E+01  0.36896323871E+02  0.51100000000E-03 0. -1.
        -11    1    3    3    0    0 -0.64757890643E+01  0.20489291045E+02  0.50223093958E+01  0.22067407719E+02  0.51100000000E-03 0.  1.
         12    1    3    3    0    0  0.66255011854E+01  0.56778144316E+01  0.10298310350E+02  0.13497779030E+02  0.00000000000E+00 0. -1.
</event>
<event>
 7    1  0.1360399E-013  0.7246157E+02  0.7816164E-02  0.1226708E+00
        -11   -1    0    0    0    0  0.00000000000E+00  0.00000000000E+00  0.45593999997E+02  0.45594000000E+02  0.51100000000E-03 0. -1.
         11   -1    0    0    0    0 -0.00000000000E+00 -0.00000000000E+00 -0.45593999997E+02  0.45594000000E+02  0.51100000000E-03 0.  1.
    9900012    2    1    2    0    0 -0.71062637389E+01 -0.15402549558E+02 -0.79335731698E+01  0.72461572139E+02  0.70000002402E+02 0.  0.
         12    1    1    2    0    0  0.71062637389E+01  0.15402549558E+02  0.79335731698E+01  0.18726427861E+02  0.00000000000E+00 0. -1.
         11    1    3    3    0    0 -0.21558901085E+02  0.20890915970E+02  0.63010968196E+01  0.30674425952E+02  0.51100000000E-03 0. -1.
        -11    1    3    3    0    0  0.88441148988E+00 -0.31555875601E+01 -0.24429735923E+01  0.40875465462E+01  0.51100000000E-03 0.  1.
         12    1    3    3    0    0  0.13568225857E+02 -0.33137877968E+02 -0.11791696397E+02  0.37699599640E+02  0.00000000000E+00 0. -1.
</event>
<event>
 7    1  0.1360399E-013  0.7246157E+02  0.7816164E-02  0.1226708E+00
        -11   -1    0    0    0    0  0.00000000000E+00  0.00000000000E+00  0.45593999997E+02  0.45594000000E+02  0.51100000000E-03 0.  1.
         11   -1    0    0    0    0 -0.00000000000E+00 -0.00000000000E+00 -0.45593999997E+02  0.45594000000E+02  0.51100000000E-03 0. -1.
    9900012    2    1    2    0    0 -0.17491771802E+02  0.31841133340E+01  0.58803377537E+01  0.72461574004E+02  0.70000004832E+02 0.  0.
         12    1    1    2    0    0  0.17491771802E+02 -0.31841133340E+01 -0.58803377537E+01  0.18726425996E+02  0.00000000000E+00 0. -1.
         11    1    3    3    0    0  0.47097442866E+01  0.29971094849E+01 -0.62430098493E+01  0.83749345519E+01  0.51100000000E-03 0. -1.
        -11    1    3    3    0    0 -0.10440302794E+02 -0.21621432908E+02  0.26242075899E+02  0.35568705785E+02  0.51100000000E-03 0.  1.
        -12    1    3    3    0    0 -0.11761213294E+02  0.21808436757E+02 -0.14118728296E+02  0.28517933667E+02  0.00000000000E+00 0.  1.
</event>
<event>
 7    1  0.1360399E-013  0.7246172E+02  0.7816164E-02  0.1226708E+00
        -11   -1    0    0    0    0  0.00000000000E+00  0.00000000000E+00  0.45593999997E+02  0.45594000000E+02  0.51100000000E-03 0. -1.
         11   -1    0    0    0    0 -0.00000000000E+00 -0.00000000000E+00 -0.45593999997E+02  0.45594000000E+02  0.51100000000E-03 0.  1.
    9900012    2    1    2    0    0 -0.37962796501E+01  0.16984616864E+02 -0.69126404590E+01  0.72461720409E+02  0.70000195552E+02 0.  0.
         12    1    1    2    0    0  0.37962796501E+01 -0.16984616864E+02  0.69126404590E+01  0.18726279591E+02  0.00000000000E+00 0. -1.
         11    1    3    3    0    0 -0.31420467673E+02  0.84638805952E+01  0.31002967778E+01  0.32687840306E+02  0.51100000000E-03 0. -1.
        -11    1    3    3    0    0  0.26058043268E+02  0.24810232947E+01 -0.16364539278E+02  0.30870297077E+02  0.51100000000E-03 0.  1.
        -12    1    3    3    0    0  0.15661447547E+01  0.60397129741E+01  0.63516020415E+01  0.89035830257E+01  0.00000000000E+00 0.  1.
</event>
<event>
 7    1  0.1360399E-013  0.7246156E+02  0.7816164E-02  0.1226708E+00
        -11   -1    0    0    0    0  0.00000000000E+00  0.00000000000E+00  0.45593999997E+02  0.45594000000E+02  0.51100000000E-03 0.  1.
         11   -1    0    0    0    0 -0.00000000000E+00 -0.00000000000E+00 -0.45593999997E+02  0.45594000000E+02  0.51100000000E-03 0. -1.
    9900012    2    1    2    0    0 -0.21282452681E+01  0.21693231827E+01  0.18478210588E+02  0.72461557264E+02  0.69999983026E+02 0.  0.
         12    1    1    2    0    0  0.21282452681E+01 -0.21693231827E+01 -0.18478210588E+02  0.18726442736E+02  0.00000000000E+00 0. -1.
         11    1    3    3    0    0 -0.10714364738E+02  0.28454422653E+02 -0.37185856179E+01  0.30631350925E+02  0.51100000000E-03 0. -1.
        -11    1    3    3    0    0  0.14198470280E+02 -0.21759736113E+02  0.22837311412E+02  0.34592274669E+02  0.51100000000E-03 0.  1.
        -12    1    3    3    0    0 -0.56123508110E+01 -0.45253633573E+01 -0.64051520579E+00  0.72379316707E+01  0.00000000000E+00 0.  1.
</event>
<event>
 7    1  0.1360399E-013  0.7246157E+02  0.7816164E-02  0.1226708E+00
        -11   -1    0    0    0    0  0.00000000000E+00  0.00000000000E+00  0.45593999997E+02  0.45594000000E+02  0.51100000000E-03 0. -1.
         11   -1    0    0    0    0 -0.00000000000E+00 -0.00000000000E+00 -0.45593999997E+02  0.45594000000E+02  0.51100000000E-03 0.  1.
    9900012    2    1    2    0    0 -0.12643976396E+02 -0.96274619151E+01  0.99056041170E+01  0.72461570684E+02  0.70000000507E+02 0.  0.
         12    1    1    2    0    0  0.12643976396E+02  0.96274619151E+01 -0.99056041170E+01  0.18726429316E+02  0.00000000000E+00 0. -1.
         11    1    3    3    0    0 -0.29991082472E+02 -0.17115159679E+02  0.42280341062E+01  0.34788934898E+02  0.51100000000E-03 0. -1.
        -11    1    3    3    0    0  0.23359673356E+02  0.49658623906E+01  0.13544381298E+02  0.27455134194E+02  0.51100000000E-03 0.  1.
        -12    1    3    3    0    0 -0.60125672801E+01  0.25218353729E+01 -0.78668112872E+01  0.10217501592E+02  0.00000000000E+00 0.  1.
</event>
<event>
 7    1  0.1360399E-013  0.7246158E+02  0.7816164E-02  0.1226708E+00
        -11   -1    0    0    0    0  0.00000000000E+00  0.00000000000E+00  0.45593999997E+02  0.45594000000E+02  0.51100000000E-03 0.  1.
         11   -1    0    0    0    0 -0.00000000000E+00 -0.00000000000E+00 -0.45593999997E+02  0.45594000000E+02  0.51100000000E-03 0. -1.
    9900012    2    1    2    0    0  0.44948335499E+01 -0.17627676099E+02  0.44430083277E+01  0.72461579726E+02  0.70000012287E+02 0.  0.
         12    1    1    2    0    0 -0.44948335499E+01  0.17627676099E+02 -0.44430083277E+01  0.18726420274E+02  0.00000000000E+00 0. -1.
         11    1    3    3    0    0  0.42407252286E+01 -0.10869616068E+02  0.56950304680E+01  0.12983284493E+02  0.51100000000E-03 0. -1.
        -11    1    3    3    0    0 -0.16891064720E+02  0.20931764432E+02 -0.54493505376E+00  0.26902486578E+02  0.51100000000E-03 0.  1.
        -12    1    3    3    0    0  0.17145173042E+02 -0.27689824462E+02 -0.70708708652E+00  0.32575808655E+02  0.00000000000E+00 0.  1.
</event>
<event>
 7    1  0.1360399E-013  0.7246165E+02  0.7816164E-02  0.1226708E+00
        -11   -1    0    0    0    0  0.00000000000E+00  0.00000000000E+00  0.45593999997E+02  0.45594000000E+02  0.51100000000E-03 0.  1.
         11   -1    0    0    0    0 -0.00000000000E+00 -0.00000000000E+00 -0.45593999997E+02  0.45594000000E+02  0.51100000000E-03 0. -1.
    9900012    2    1    2    0    0  0.65072704544E+01 -0.12065752972E+01  0.17517868037E+02  0.72461652431E+02  0.70000106998E+02 0.  0.
         12    1    1    2    0    0 -0.65072704544E+01  0.12065752972E+01 -0.17517868037E+02  0.18726347569E+02  0.00000000000E+00 0. -1.
         11    1    3    3    0    0  0.43722239763E+01 -0.15912138539E+01  0.34945987169E+01  0.58189796770E+01  0.51100000000E-03 0. -1.
        -11    1    3    3    0    0 -0.15640854235E+02 -0.25496319841E+02 -0.44086684645E+01  0.30234665609E+02  0.51100000000E-03 0.  1.
        -12    1    3    3    0    0  0.17775900713E+02  0.25880958397E+02  0.18431937785E+02  0.36408007144E+02  0.00000000000E+00 0.  1.
</event>
<event>
 7    1  0.1360399E-013  0.7246155E+02  0.7816164E-02  0.1226708E+00
        -11   -1    0    0    0    0  0.00000000000E+00  0.00000000000E+00  0.45593999997E+02  0.45594000000E+02  0.51100000000E-03 0.  1.
         11   -1    0    0    0    0 -0.00000000000E+00 -0.00000000000E+00 -0.45593999997E+02  0.45594000000E+02  0.51100000000E-03 0. -1.
    9900012    2    1    2    0    0 -0.84807555479E+01 -0.13065806783E+02  0.10394304194E+02  0.72461545951E+02  0.69999968289E+02 0.  0.
         12    1    1    2    0    0  0.84807555479E+01  0.13065806783E+02 -0.10394304194E+02  0.18726454049E+02  0.00000000000E+00 0. -1.
         11    1    3    3    0    0  0.20894162102E+02 -0.13129540781E+02  0.69084513169E+01  0.25625720496E+02  0.51100000000E-03 0. -1.
        -11    1    3    3    0    0 -0.13662311296E+02 -0.17104552961E+02  0.76574574369E+01  0.23191833403E+02  0.51100000000E-03 0.  1.
         12    1    3    3    0    0 -0.15712606355E+02  0.17168286959E+02 -0.41716045600E+01  0.23643992052E+02  0.00000000000E+00 0. -1.
</event>
<event>
 7    1  0.1360399E-013  0.7246156E+02  0.7816164E-02  0.1226708E+00
        -11   -1    0    0    0    0  0.00000000000E+00  0.00000000000E+00  0.45593999997E+02  0.45594000000E+02  0.51100000000E-03 0. -1.
         11   -1    0    0    0    0 -0.00000000000E+00 -0.00000000000E+00 -0.45593999997E+02  0.45594000000E+02  0.51100000000E-03 0.  1.
    9900012    2    1    2    0    0  0.80240975491E+01  0.16770900600E+02 -0.22428321104E+01  0.72461560288E+02  0.69999986965E+02 0.  0.
         12    1    1    2    0    0 -0.80240975491E+01 -0.16770900600E+02  0.22428321104E+01  0.18726439712E+02  0.00000000000E+00 0. -1.
         11    1    3    3    0    0 -0.14899209056E+02 -0.12233033108E+01  0.17811969785E+02  0.23254014049E+02  0.51100000000E-03 0. -1.
        -11    1    3    3    0    0  0.26085236745E+02 -0.29614997372E+00 -0.89597885237E+01  0.27582695508E+02  0.51100000000E-03 0.  1.
         12    1    3    3    0    0 -0.31619301393E+01  0.18290353885E+02 -0.11095013372E+02  0.21624850731E+02  0.00000000000E+00 0. -1.
</event>
<event>
 7    1  0.1360399E-013  0.7246160E+02  0.7816164E-02  0.1226708E+00
        -11   -1    0    0    0    0  0.00000000000E+00  0.00000000000E+00  0.45593999997E+02  0.45594000000E+02  0.51100000000E-03 0.  1.
         11   -1    0    0    0    0 -0.00000000000E+00 -0.00000000000E+00 -0.45593999997E+02  0.45594000000E+02  0.51100000000E-03 0. -1.
    9900012    2    1    2    0    0  0.44942395057E+01 -0.13158344050E+02  0.12543443969E+02  0.72461596355E+02  0.70000033948E+02 0.  0.
         12    1    1    2    0    0 -0.44942395057E+01  0.13158344050E+02 -0.12543443969E+02  0.18726403645E+02  0.00000000000E+00 0. -1.
         11    1    3    3    0    0 -0.18690246287E+01 -0.24196909495E+02 -0.17253085783E+02  0.29776713241E+02  0.51100000000E-03 0. -1.
        -11    1    3    3    0    0  0.36073794903E+01 -0.52931393507E-01  0.30985164691E+02  0.31194493420E+02  0.51100000000E-03 0.  1.
         12    1    3    3    0    0  0.27558846442E+01  0.11091496838E+02 -0.11886349391E+01  0.11490389693E+02  0.00000000000E+00 0. -1.
</event>
<event>
 7    1  0.1360399E-013  0.7246178E+02  0.7816164E-02  0.1226707E+00
        -11   -1    0    0    0    0  0.00000000000E+00  0.00000000000E+00  0.45593999997E+02  0.45594000000E+02  0.51100000000E-03 0. -1.
         11   -1    0    0    0    0 -0.00000000000E+00 -0.00000000000E+00 -0.45593999997E+02  0.45594000000E+02  0.51100000000E-03 0.  1.
    9900012    2    1    2    0    0  0.11727966150E+02 -0.14390744211E+02  0.24561380120E+01  0.72461779802E+02  0.70000272923E+02 0.  0.
         12    1    1    2    0    0 -0.11727966150E+02  0.14390744211E+02 -0.24561380120E+01  0.18726220198E+02  0.00000000000E+00 0. -1.
         11    1    3    3    0    0 -0.22107606704E+02 -0.10739859997E+02 -0.69706331262E+01  0.25547614240E+02  0.51100000000E-03 0. -1.
        -11    1    3    3    0    0  0.16429988886E+02 -0.25952239699E+00 -0.11068560129E+02  0.19812241425E+02  0.51100000000E-03 0.  1.
         12    1    3    3    0    0  0.17405583967E+02 -0.33913618168E+01  0.20495331267E+02  0.27101924138E+02  0.00000000000E+00 0. -1.
</event>
<event>
 7    1  0.1360399E-013  0.7246162E+02  0.7816164E-02  0.1226708E+00
        -11   -1    0    0    0    0  0.00000000000E+00  0.00000000000E+00  0.45593999997E+02  0.45594000000E+02  0.51100000000E-03 0. -1.
         11   -1    0    0    0    0 -0.00000000000E+00 -0.00000000000E+00 -0.45593999997E+02  0.45594000000E+02  0.51100000000E-03 0.  1.
    9900012    2    1    2    0    0 -0.15585654396E+02  0.62351207673E+01 -0.82998665390E+01  0.72461624523E+02  0.70000070643E+02 0.  0.
         12    1    1    2    0    0  0.15585654396E+02 -0.62351207673E+01  0.82998665390E+01  0.18726375477E+02  0.00000000000E+00 0. -1.
         11    1    3    3    0    0 -0.22166559349E+02  0.72179843957E-01  0.15347039811E+02  0.26960956855E+02  0.51100000000E-03 0. -1.
        -11    1    3    3    0    0  0.14121896304E+02  0.18828899367E+02 -0.18323808383E+02  0.29828130355E+02  0.51100000000E-03 0.  1.
        -12    1    3    3    0    0 -0.75409913512E+01 -0.12665958443E+02 -0.53230979672E+01  0.15672537313E+02  0.00000000000E+00 0.  1.
</event>
<event>
 7    1  0.1360399E-013  0.7246106E+02  0.7816164E-02  0.1226709E+00
        -11   -1    0    0    0    0  0.00000000000E+00  0.00000000000E+00  0.45593999997E+02  0.45594000000E+02  0.51100000000E-03 0.  1.
         11   -1    0    0    0    0 -0.00000000000E+00 -0.00000000000E+00 -0.45593999997E+02  0.45594000000E+02  0.51100000000E-03 0. -1.
    9900012    2    1    2    0    0  0.15085982759E+02 -0.11088911992E+02 -0.38388854478E+00  0.72461061772E+02  0.69999337552E+02 0.  0.
         12    1    1    2    0    0 -0.15085982759E+02  0.11088911992E+02  0.38388854478E+00  0.18726938228E+02  0.00000000000E+00 0. -1.
         11    1    3    3    0    0 -0.21672497570E+02 -0.15208300599E+02 -0.11999060064E+02  0.29068316097E+02  0.51100000000E-03 0. -1.
        -11    1    3    3    0    0  0.15478391165E+02  0.10770163121E+02  0.91567942811E+01  0.20962439945E+02  0.51100000000E-03 0.  1.
        -12    1    3    3    0    0  0.21280089164E+02 -0.66507745143E+01  0.24583772377E+01  0.22430305730E+02  0.00000000000E+00 0.  1.
</event>
<event>
 7    1  0.1360399E-013  0.7246101E+02  0.7816164E-02  0.1226709E+00
        -11   -1    0    0    0    0  0.00000000000E+00  0.00000000000E+00  0.45593999997E+02  0.45594000000E+02  0.51100000000E-03 0. -1.
         11   -1    0    0    0    0 -0.00000000000E+00 -0.00000000000E+00 -0.45593999997E+02  0.45594000000E+02  0.51100000000E-03 0.  1.
    9900012    2    1    2    0    0 -0.13502976540E+02 -0.62699354004E+01 -0.11360352921E+02  0.72461011885E+02  0.69999272564E+02 0.  0.
         12    1    1    2    0    0  0.13502976540E+02  0.62699354004E+01  0.11360352921E+02  0.18726988115E+02  0.00000000000E+00 0. -1.
         11    1    3    3    0    0 -0.16636604693E+02 -0.49839587481E+01 -0.26351798166E+01  0.17565894041E+02  0.51100000000E-03 0. -1.
        -11    1    3    3    0    0  0.25841455702E+02 -0.12620640281E+02 -0.33554730073E+01  0.28953766478E+02  0.51100000000E-03 0.  1.
        -12    1    3    3    0    0 -0.22707827549E+02  0.11334663629E+02 -0.53697000967E+01  0.25941351366E+02  0.00000000000E+00 0.  1.
</event>
<event>
 7    1  0.1360399E-013  0.7246125E+02  0.7816164E-02  0.1226709E+00
        -11   -1    0    0    0    0  0.00000000000E+00  0.00000000000E+00  0.45593999997E+02  0.45594000000E+02  0.51100000000E-03 0.  1.
         11   -1    0    0    0    0 -0.00000000000E+00 -0.00000000000E+00 -0.45593999997E+02  0.45594000000E+02  0.51100000000E-03 0. -1.
    9900012    2    1    2    0    0  0.32647240715E+01 -0.15598481802E+02 -0.98346320416E+01  0.72461253214E+02  0.69999586943E+02 0.  0.
         12    1    1    2    0    0 -0.32647240715E+01  0.15598481802E+02  0.98346320416E+01  0.18726746786E+02  0.00000000000E+00 0. -1.
         11    1    3    3    0    0  0.71482932180E+01  0.12560976543E+02 -0.91190146436E+01  0.17088962987E+02  0.51100000000E-03 0. -1.
        -11    1    3    3    0    0  0.16318930408E+02 -0.11424321673E+02  0.14869717718E+02  0.24858220384E+02  0.51100000000E-03 0.  1.
        -12    1    3    3    0    0 -0.20202499555E+02 -0.16735136672E+02 -0.15585335116E+02  0.30514069843E+02  0.00000000000E+00 0.  1.
</event>
<event>
 7    1  0.1360399E-013  0.7246152E+02  0.7816164E-02  0.1226708E+00
        -11   -1    0    0    0    0  0.00000000000E+00  0.00000000000E+00  0.45593999997E+02  0.45594000000E+02  0.51100000000E-03 0. -1.
         11   -1    0    0    0    0 -0.00000000000E+00 -0.00000000000E+00 -0.45593999997E+02  0.45594000000E+02  0.51100000000E-03 0.  1.
    9900012    2    1    2    0    0  0.25043500347E+01 -0.18515651589E+02 -0.12568976828E+01  0.72461523700E+02  0.69999939302E+02 0.  0.
         12    1    1    2    0    0 -0.25043500347E+01  0.18515651589E+02  0.12568976828E+01  0.18726476300E+02  0.00000000000E+00 0. -1.
         11    1    3    3    0    0  0.26249442271E+02  0.14591517647E+02  0.10046150716E+01  0.30049207285E+02  0.51100000000E-03 0. -1.
        -11    1    3    3    0    0 -0.24320535306E+01 -0.87051335663E+01  0.31351473506E+01  0.95667854556E+01  0.51100000000E-03 0.  1.
         12    1    3    3    0    0 -0.21313038706E+02 -0.24402035669E+02 -0.53966601050E+01  0.32845530959E+02  0.00000000000E+00 0. -1.
</event>
<event>
 7    1  0.1360399E-013  0.7246161E+02  0.7816164E-02  0.1226708E+00
        -11   -1    0    0    0    0  0.00000000000E+00  0.00000000000E+00  0.45593999997E+02  0.45594000000E+02  0.51100000000E-03 0.  1.
         11   -1    0    0    0    0 -0.00000000000E+00 -0.00000000000E+00 -0.45593999997E+02  0.45594000000E+02  0.51100000000E-03 0. -1.
    9900012    2    1    2    0    0 -0.23490354759E+01 -0.18550574405E+02  0.10178648738E+01  0.72461606131E+02  0.70000046684E+02 0.  0.
         12    1    1    2    0    0  0.23490354759E+01  0.18550574405E+02 -0.10178648738E+01  0.18726393869E+02  0.00000000000E+00 0. -1.
         11    1    3    3    0    0  0.89053948470E+00 -0.19367647466E+02 -0.43603175956E+01  0.19872372750E+02  0.51100000000E-03 0. -1.
        -11    1    3    3    0    0 -0.13411691954E+02  0.48675153443E+01  0.25763105162E+02  0.29450021640E+02  0.51100000000E-03 0.  1.
        -12    1    3    3    0    0  0.10172116994E+02 -0.40504422834E+01 -0.20384922693E+02  0.23139211742E+02  0.00000000000E+00 0.  1.
</event>
<event>
 7    1  0.1360399E-013  0.7246157E+02  0.7816164E-02  0.1226708E+00
        -11   -1    0    0    0    0  0.00000000000E+00  0.00000000000E+00  0.45593999997E+02  0.45594000000E+02  0.51100000000E-03 0. -1.
         11   -1    0    0    0    0 -0.00000000000E+00 -0.00000000000E+00 -0.45593999997E+02  0.45594000000E+02  0.51100000000E-03 0.  1.
    9900012    2    1    2    0    0  0.10875692550E+02 -0.93042175894E+01 -0.12076015835E+02  0.72461566495E+02  0.69999995050E+02 0.  0.
         12    1    1    2    0    0 -0.10875692550E+02  0.93042175894E+01  0.12076015835E+02  0.18726433505E+02  0.00000000000E+00 0. -1.
         11    1    3    3    0    0 -0.21663151566E+02  0.24603089998E+01  0.13255065956E+02  0.25515525272E+02  0.51100000000E-03 0. -1.
        -11    1    3    3    0    0  0.20683507323E+01 -0.43768211162E+01 -0.11881364417E+02  0.12829709993E+02  0.51100000000E-03 0.  1.
         12    1    3    3    0    0  0.30470493383E+02 -0.73877054729E+01 -0.13449717374E+02  0.34116331230E+02  0.00000000000E+00 0. -1.
</event>
<event>
 7    1  0.1360399E-013  0.7246158E+02  0.7816164E-02  0.1226708E+00
        -11   -1    0    0    0    0  0.00000000000E+00  0.00000000000E+00  0.45593999997E+02  0.45594000000E+02  0.51100000000E-03 0.  1.
         11   -1    0    0    0    0 -0.00000000000E+00 -0.00000000000E+00 -0.45593999997E+02  0.45594000000E+02  0.51100000000E-03 0. -1.
    9900012    2    1    2    0    0  0.15808278605E+02  0.67075688247E+01  0.74689708529E+01  0.72461583429E+02  0.70000017111E+02 0.  0.
         12    1    1    2    0    0 -0.15808278605E+02 -0.67075688247E+01 -0.74689708529E+01  0.18726416571E+02  0.00000000000E+00 0. -1.
         11    1    3    3    0    0  0.61471940215E+01 -0.11005682114E+02 -0.13079566664E+02  0.18165574516E+02  0.51100000000E-03 0. -1.
        -11    1    3    3    0    0 -0.76707554042E+01 -0.25247512363E+01  0.25890355547E+02  0.27120570936E+02  0.51100000000E-03 0.  1.
        -12    1    3    3    0    0  0.17331839987E+02  0.20238002175E+02 -0.53418180309E+01  0.27175437977E+02  0.00000000000E+00 0.  1.
</event>
<event>
 7    1  0.1360399E-013  0.7246123E+02  0.7816164E-02  0.1226709E+00
        -11   -1    0    0    0    0  0.00000000000E+00  0.00000000000E+00  0.45593999997E+02  0.45594000000E+02  0.51100000000E-03 0. -1.
         11   -1    0    0    0    0 -0.00000000000E+00 -0.00000000000E+00 -0.45593999997E+02  0.45594000000E+02  0.51100000000E-03 0.  1.
    9900012    2    1    2    0    0  0.72065566121E+01 -0.17277058558E+02  0.51052251961E+00  0.72461231890E+02  0.69999559164E+02 0.  0.
         12    1    1    2    0    0 -0.72065566121E+01  0.17277058558E+02 -0.51052251961E+00  0.18726768110E+02  0.00000000000E+00 0. -1.
         11    1    3    3    0    0 -0.22850323931E+02 -0.19402461637E+02  0.78637667228E+01  0.30990831687E+02  0.51100000000E-03 0. -1.
        -11    1    3    3    0    0  0.20757542185E+02  0.65767104530E+01  0.78112429973E+01  0.23133183857E+02  0.51100000000E-03 0.  1.
         12    1    3    3    0    0  0.92993383580E+01 -0.44513073735E+01 -0.15164487201E+02  0.18337216345E+02  0.00000000000E+00 0. -1.
</event>
<event>
 7    1  0.1360399E-013  0.7246152E+02  0.7816164E-02  0.1226708E+00
        -11   -1    0    0    0    0  0.00000000000E+00  0.00000000000E+00  0.45593999997E+02  0.45594000000E+02  0.51100000000E-03 0.  1.
         11   -1    0    0    0    0 -0.00000000000E+00 -0.00000000000E+00 -0.45593999997E+02  0.45594000000E+02  0.51100000000E-03 0. -1.
    9900012    2    1    2    0    0 -0.18365564567E+02 -0.24834590836E+01 -0.26869138828E+01  0.72461520429E+02  0.69999935041E+02 0.  0.
         12    1    1    2    0    0  0.18365564567E+02  0.24834590836E+01  0.26869138828E+01  0.18726479571E+02  0.00000000000E+00 0. -1.
         11    1    3    3    0    0  0.16951292540E+02 -0.16640589813E+02  0.12444709463E+02  0.26816531133E+02  0.51100000000E-03 0.  1.
        -11    1    3    3    0    0 -0.34910612469E+02  0.66826210393E+01 -0.11804742690E+02  0.37453440925E+02  0.51100000000E-03 0. -1.
         12    1    3    3    0    0 -0.40624463839E+00  0.74745096906E+01 -0.33268806563E+01  0.81915483714E+01  0.00000000000E+00 0. -1.
</event>
<event>
 7    1  0.1360399E-013  0.7246161E+02  0.7816164E-02  0.1226708E+00
        -11   -1    0    0    0    0  0.00000000000E+00  0.00000000000E+00  0.45593999997E+02  0.45594000000E+02  0.51100000000E-03 0.  1.
         11   -1    0    0    0    0 -0.00000000000E+00 -0.00000000000E+00 -0.45593999997E+02  0.45594000000E+02  0.51100000000E-03 0. -1.
    9900012    2    1    2    0    0  0.47986563486E+01  0.10813218507E+02  0.14516365997E+02  0.72461610092E+02  0.70000051843E+02 0.  0.
         12    1    1    2    0    0 -0.47986563486E+01 -0.10813218507E+02 -0.14516365997E+02  0.18726389908E+02  0.00000000000E+00 0. -1.
         11    1    3    3    0    0  0.12196117336E+02 -0.50405654453E+01  0.11830219171E+02  0.17723054589E+02  0.51100000000E-03 0. -1.
        -11    1    3    3    0    0 -0.23482502681E+02  0.15160116049E+02 -0.14247564913E+02  0.31372761386E+02  0.51100000000E-03 0.  1.
        -12    1    3    3    0    0  0.16085041693E+02  0.69366790411E+00  0.16933711739E+02  0.23365794117E+02  0.00000000000E+00 0.  1.
</event>
<event>
 7    1  0.1360399E-013  0.7246142E+02  0.7816164E-02  0.1226708E+00
        -11   -1    0    0    0    0  0.00000000000E+00  0.00000000000E+00  0.45593999997E+02  0.45594000000E+02  0.51100000000E-03 0.  1.
         11   -1    0    0    0    0 -0.00000000000E+00 -0.00000000000E+00 -0.45593999997E+02  0.45594000000E+02  0.51100000000E-03 0. -1.
    9900012    2    1    2    0    0 -0.11364781489E+02 -0.14173387421E+02  0.45432973717E+01  0.72461422088E+02  0.69999806934E+02 0.  0.
         12    1    1    2    0    0  0.11364781489E+02  0.14173387421E+02 -0.45432973717E+01  0.18726577912E+02  0.00000000000E+00 0. -1.
         11    1    3    3    0    0  0.21971578309E+01  0.16843939342E+01 -0.17210375187E+02  0.17431629292E+02  0.51100000000E-03 0. -1.
        -11    1    3    3    0    0 -0.22764059672E+02 -0.24778122948E+02  0.24869066228E+02  0.41840509615E+02  0.51100000000E-03 0.  1.
         12    1    3    3    0    0  0.92021203522E+01  0.89203415925E+01 -0.31153936692E+01  0.13189283181E+02  0.00000000000E+00 0. -1.
</event>
<event>
 7    1  0.1360399E-013  0.7246158E+02  0.7816164E-02  0.1226708E+00
        -11   -1    0    0    0    0  0.00000000000E+00  0.00000000000E+00  0.45593999997E+02  0.45594000000E+02  0.51100000000E-03 0. -1.
         11   -1    0    0    0    0 -0.00000000000E+00 -0.00000000000E+00 -0.45593999997E+02  0.45594000000E+02  0.51100000000E-03 0.  1.
    9900012    2    1    2    0    0 -0.17227854474E+02  0.73036106135E+01 -0.73294117253E+00  0.72461577477E+02  0.70000009356E+02 0.  0.
         12    1    1    2    0    0  0.17227854474E+02 -0.73036106135E+01  0.73294117253E+00  0.18726422523E+02  0.00000000000E+00 0. -1.
         11    1    3    3    0    0  0.90602216786E+01  0.82140197888E+01  0.22625563031E+02  0.25719133747E+02  0.51100000000E-03 0. -1.
        -11    1    3    3    0    0 -0.27007683880E+02 -0.24975287576E+01 -0.41304934278E+01  0.27435626741E+02  0.51100000000E-03 0.  1.
         12    1    3    3    0    0  0.71960772790E+00  0.15871195823E+01 -0.19228010775E+02  0.19306816989E+02  0.00000000000E+00 0. -1.
</event>
<event>
 7    1  0.1360399E-013  0.7246161E+02  0.7816164E-02  0.1226708E+00
        -11   -1    0    0    0    0  0.00000000000E+00  0.00000000000E+00  0.45593999997E+02  0.45594000000E+02  0.51100000000E-03 0.  1.
         11   -1    0    0    0    0 -0.00000000000E+00 -0.00000000000E+00 -0.45593999997E+02  0.45594000000E+02  0.51100000000E-03 0. -1.
    9900012    2    1    2    0    0 -0.63280327856E+01  0.55227749367E+01  0.16737167137E+02  0.72461606708E+02  0.70000047436E+02 0.  0.
         12    1    1    2    0    0  0.63280327856E+01 -0.55227749367E+01 -0.16737167137E+02  0.18726393292E+02  0.00000000000E+00 0. -1.
         11    1    3    3    0    0  0.91943731063E+01  0.17910712525E+02 -0.67849122784E+01  0.21245356077E+02  0.51100000000E-03 0. -1.
        -11    1    3    3    0    0  0.27778471161E+01 -0.17019494111E+01  0.29116764092E+02  0.29298447363E+02  0.51100000000E-03 0.  1.
        -12    1    3    3    0    0 -0.18300253008E+02 -0.10685988177E+02 -0.55946846766E+01  0.21917803268E+02  0.00000000000E+00 0.  1.
</event>
<event>
 7    1  0.1360399E-013  0.7246139E+02  0.7816164E-02  0.1226708E+00
        -11   -1    0    0    0    0  0.00000000000E+00  0.00000000000E+00  0.45593999997E+02  0.45594000000E+02  0.51100000000E-03 0.  1.
         11   -1    0    0    0    0 -0.00000000000E+00 -0.00000000000E+00 -0.45593999997E+02  0.45594000000E+02  0.51100000000E-03 0. -1.
    9900012    2    1    2    0    0 -0.67109983967E+01  0.10542391596E+02  0.13946552244E+02  0.72461392204E+02  0.69999768004E+02 0.  0.
         12    1    1    2    0    0  0.67109983967E+01 -0.10542391596E+02 -0.13946552244E+02  0.18726607796E+02  0.00000000000E+00 0. -1.
         11    1    3    3    0    0 -0.27525725564E+02 -0.11159578433E+02  0.14764923541E+01  0.29738557271E+02  0.51100000000E-03 0. -1.
        -11    1    3    3    0    0  0.15818467756E+02  0.18290733522E+01 -0.40165263768E+01  0.16422603809E+02  0.51100000000E-03 0.  1.
         12    1    3    3    0    0  0.49962594116E+01  0.19872896677E+02  0.16486586266E+02  0.26300231124E+02  0.00000000000E+00 0. -1.
</event>
<event>
 7    1  0.1360399E-013  0.7246158E+02  0.7816164E-02  0.1226708E+00
        -11   -1    0    0    0    0  0.00000000000E+00  0.00000000000E+00  0.45593999997E+02  0.45594000000E+02  0.51100000000E-03 0.  1.
         11   -1    0    0    0    0 -0.00000000000E+00 -0.00000000000E+00 -0.45593999997E+02  0.45594000000E+02  0.51100000000E-03 0. -1.
    9900012    2    1    2    0    0  0.68323828394E+01  0.15383230144E+02  0.82069136588E+01  0.72461583986E+02  0.70000017836E+02 0.  0.
         12    1    1    2    0    0 -0.68323828394E+01 -0.15383230144E+02 -0.82069136588E+01  0.18726416014E+02  0.00000000000E+00 0. -1.
         11    1    3    3    0    0  0.16333034372E+02  0.15546656652E+02 -0.52454485578E+01  0.23151269418E+02  0.51100000000E-03 0. -1.
        -11    1    3    3    0    0 -0.24531422500E+02 -0.35839639617E+01 -0.49743901238E+01  0.25285965374E+02  0.51100000000E-03 0.  1.
        -12    1    3    3    0    0  0.15030770968E+02  0.34205374534E+01  0.18426752340E+02  0.24024349193E+02  0.00000000000E+00 0.  1.
</event>
<event>
 7    1  0.1360399E-013  0.7246156E+02  0.7816164E-02  0.1226708E+00
        -11   -1    0    0    0    0  0.00000000000E+00  0.00000000000E+00  0.45593999997E+02  0.45594000000E+02  0.51100000000E-03 0. -1.
         11   -1    0    0    0    0 -0.00000000000E+00 -0.00000000000E+00 -0.45593999997E+02  0.45594000000E+02  0.51100000000E-03 0.  1.
    9900012    2    1    2    0    0 -0.17529935663E+02  0.82015541299E-01 -0.65859020801E+01  0.72461562082E+02  0.69999989301E+02 0.  0.
         12    1    1    2    0    0  0.17529935663E+02 -0.82015541299E-01  0.65859020801E+01  0.18726437918E+02  0.00000000000E+00 0. -1.
         11    1    3    3    0    0 -0.11910141214E+02  0.99731838444E+01  0.61863070843E+01  0.16720832974E+02  0.51100000000E-03 0. -1.
        -11    1    3    3    0    0 -0.12512797603E+02 -0.10673662009E+02 -0.31628330847E+02  0.35648961794E+02  0.51100000000E-03 0.  1.
        -12    1    3    3    0    0  0.68930031547E+01  0.78249370540E+00  0.18856121683E+02  0.20091767314E+02  0.00000000000E+00 0.  1.
</event>
<event>
 7    1  0.1360399E-013  0.7246160E+02  0.7816164E-02  0.1226708E+00
        -11   -1    0    0    0    0  0.00000000000E+00  0.00000000000E+00  0.45593999997E+02  0.45594000000E+02  0.51100000000E-03 0. -1.
         11   -1    0    0    0    0 -0.00000000000E+00 -0.00000000000E+00 -0.45593999997E+02  0.45594000000E+02  0.51100000000E-03 0.  1.
    9900012    2    1    2    0    0 -0.79984971662E+00 -0.17727374104E+02 -0.59815208992E+01  0.72461597663E+02  0.70000035653E+02 0.  0.
         12    1    1    2    0    0  0.79984971662E+00  0.17727374104E+02  0.59815208992E+01  0.18726402337E+02  0.00000000000E+00 0. -1.
         11    1    3    3    0    0  0.65608560742E+01  0.19004750569E+02  0.84469518098E+01  0.21807713584E+02  0.51100000000E-03 0. -1.
        -11    1    3    3    0    0 -0.36345045757E+01 -0.38264356086E+02 -0.20350314564E+02  0.43491445978E+02  0.51100000000E-03 0.  1.
        -12    1    3    3    0    0 -0.37262012151E+01  0.15322314125E+01  0.59218418552E+01  0.71624381013E+01  0.00000000000E+00 0.  1.
</event>
<event>
 7    1  0.1360399E-013  0.7246150E+02  0.7816164E-02  0.1226708E+00
        -11   -1    0    0    0    0  0.00000000000E+00  0.00000000000E+00  0.45593999997E+02  0.45594000000E+02  0.51100000000E-03 0.  1.
         11   -1    0    0    0    0 -0.00000000000E+00 -0.00000000000E+00 -0.45593999997E+02  0.45594000000E+02  0.51100000000E-03 0. -1.
    9900012    2    1    2    0    0  0.52316150578E+01  0.12962705758E+02  0.12461148747E+02  0.72461501000E+02  0.69999909732E+02 0.  0.
         12    1    1    2    0    0 -0.52316150578E+01 -0.12962705758E+02 -0.12461148747E+02  0.18726499000E+02  0.00000000000E+00 0. -1.
         11    1    3    3    0    0 -0.44600693593E+01 -0.78610068196E+01 -0.23387716581E+01  0.93358181237E+01  0.51100000000E-03 0. -1.
        -11    1    3    3    0    0 -0.98269869199E+01  0.21907846857E+02  0.29955031973E+02  0.38390459317E+02  0.51100000000E-03 0.  1.
        -12    1    3    3    0    0  0.19518671337E+02 -0.10841342794E+01 -0.15155111568E+02  0.24735223559E+02  0.00000000000E+00 0.  1.
</event>
<event>
 7    1  0.1360399E-013  0.7246155E+02  0.7816164E-02  0.1226708E+00
        -11   -1    0    0    0    0  0.00000000000E+00  0.00000000000E+00  0.45593999997E+02  0.45594000000E+02  0.51100000000E-03 0.  1.
         11   -1    0    0    0    0 -0.00000000000E+00 -0.00000000000E+00 -0.45593999997E+02  0.45594000000E+02  0.51100000000E-03 0. -1.
    9900012    2    1    2    0    0  0.12402094929E+02 -0.12886853096E+02  0.55495096912E+01  0.72461548143E+02  0.69999971144E+02 0.  0.
         12    1    1    2    0    0 -0.12402094929E+02  0.12886853096E+02 -0.55495096912E+01  0.18726451857E+02  0.00000000000E+00 0. -1.
         11    1    3    3    0    0 -0.21705584901E+01 -0.31503779330E+02  0.14943163989E+01  0.31613801068E+02  0.51100000000E-03 0.  1.
        -11    1    3    3    0    0  0.86353863158E+01  0.27628215221E+02 -0.92837596285E+00  0.28961181870E+02  0.51100000000E-03 0. -1.
         12    1    3    3    0    0  0.59372671035E+01 -0.90112889863E+01  0.49835692551E+01  0.11886565205E+02  0.00000000000E+00 0. -1.
</event>
<event>
 7    1  0.1360399E-013  0.7246154E+02  0.7816164E-02  0.1226708E+00
        -11   -1    0    0    0    0  0.00000000000E+00  0.00000000000E+00  0.45593999997E+02  0.45594000000E+02  0.51100000000E-03 0.  1.
         11   -1    0    0    0    0 -0.00000000000E+00 -0.00000000000E+00 -0.45593999997E+02  0.45594000000E+02  0.51100000000E-03 0. -1.
    9900012    2    1    2    0    0  0.18238332321E+00  0.17118151790E+02  0.75905078330E+01  0.72461542953E+02  0.69999964382E+02 0.  0.
         12    1    1    2    0    0 -0.18238332321E+00 -0.17118151790E+02 -0.75905078330E+01  0.18726457047E+02  0.00000000000E+00 0. -1.
         11    1    3    3    0    0  0.67275724471E+01  0.22722029880E+02 -0.20959491942E+02  0.31636232008E+02  0.51100000000E-03 0. -1.
        -11    1    3    3    0    0 -0.14329391855E+02  0.81437937692E+00  0.27054853972E+02  0.30626129505E+02  0.51100000000E-03 0.  1.
         12    1    3    3    0    0  0.77842027315E+01 -0.64182574672E+01  0.14951458031E+01  0.10199181440E+02  0.00000000000E+00 0. -1.
</event>
<event>
 7    1  0.1360399E-013  0.7246157E+02  0.7816164E-02  0.1226708E+00
        -11   -1    0    0    0    0  0.00000000000E+00  0.00000000000E+00  0.45593999997E+02  0.45594000000E+02  0.51100000000E-03 0.  1.
         11   -1    0    0    0    0 -0.00000000000E+00 -0.00000000000E+00 -0.45593999997E+02  0.45594000000E+02  0.51100000000E-03 0. -1.
    9900012    2    1    2    0    0  0.12592371942E+02  0.14465817055E+00 -0.13859663264E+02  0.72461574209E+02  0.70000005100E+02 0.  0.
         12    1    1    2    0    0 -0.12592371942E+02 -0.14465817055E+00  0.13859663264E+02  0.18726425791E+02  0.00000000000E+00 0. -1.
         11    1    3    3    0    0  0.39498928691E+01  0.56899748058E+01 -0.33046132022E+02  0.33764246013E+02  0.51100000000E-03 0. -1.
        -11    1    3    3    0    0  0.73735375013E+01 -0.18847021449E+02  0.11202905175E+02  0.23131890485E+02  0.51100000000E-03 0.  1.
        -12    1    3    3    0    0  0.12689415714E+01  0.13301704814E+02  0.79835635825E+01  0.15565437711E+02  0.00000000000E+00 0.  1.
</event>
<event>
 7    1  0.1360399E-013  0.7246131E+02  0.7816164E-02  0.1226709E+00
        -11   -1    0    0    0    0  0.00000000000E+00  0.00000000000E+00  0.45593999997E+02  0.45594000000E+02  0.51100000000E-03 0.  1.
         11   -1    0    0    0    0 -0.00000000000E+00 -0.00000000000E+00 -0.45593999997E+02  0.45594000000E+02  0.51100000000E-03 0. -1.
    9900012    2    1    2    0    0 -0.87537142802E+01 -0.56783721324E+01  0.15550484085E+02  0.72461308379E+02  0.69999658806E+02 0.  0.
         12    1    1    2    0    0  0.87537142802E+01  0.56783721324E+01 -0.15550484085E+02  0.18726691621E+02  0.00000000000E+00 0. -1.
         11    1    3    3    0    0  0.24117876356E+01 -0.10741088615E+02 -0.20790432256E+02  0.23525088266E+02  0.51100000000E-03 0. -1.
        -11    1    3    3    0    0 -0.20524529984E+02  0.34886609227E+01  0.32713207082E+02  0.38776036466E+02  0.51100000000E-03 0.  1.
         12    1    3    3    0    0  0.93590280683E+01  0.15740555602E+01  0.36277092592E+01  0.10160183648E+02  0.00000000000E+00 0. -1.
</event>
<event>
 7    1  0.1360399E-013  0.7246156E+02  0.7816164E-02  0.1226708E+00
        -11   -1    0    0    0    0  0.00000000000E+00  0.00000000000E+00  0.45593999997E+02  0.45594000000E+02  0.51100000000E-03 0. -1.
         11   -1    0    0    0    0 -0.00000000000E+00 -0.00000000000E+00 -0.45593999997E+02  0.45594000000E+02  0.51100000000E-03 0.  1.
    9900012    2    1    2    0    0  0.18626127645E+02  0.77162495590E+00 -0.17752782196E+01  0.72461557496E+02  0.69999983328E+02 0.  0.
         12    1    1    2    0    0 -0.18626127645E+02 -0.77162495590E+00  0.17752782196E+01  0.18726442504E+02  0.00000000000E+00 0. -1.
         11    1    3    3    0    0 -0.34057758546E+01 -0.90308679672E+01 -0.25830190461E+02  0.27574528553E+02  0.51100000000E-03 0. -1.
        -11    1    3    3    0    0  0.12585493390E+02 -0.72137351934E+01  0.75215250771E+00  0.14525782353E+02  0.51100000000E-03 0.  1.
         12    1    3    3    0    0  0.94464101092E+01  0.17016228117E+02  0.23302759734E+02  0.30361246590E+02  0.00000000000E+00 0. -1.
</event>
<event>
 7    1  0.1360399E-013  0.7246157E+02  0.7816164E-02  0.1226708E+00
        -11   -1    0    0    0    0  0.00000000000E+00  0.00000000000E+00  0.45593999997E+02  0.45594000000E+02  0.51100000000E-03 0.  1.
         11   -1    0    0    0    0 -0.00000000000E+00 -0.00000000000E+00 -0.45593999997E+02  0.45594000000E+02  0.51100000000E-03 0. -1.
    9900012    2    1    2    0    0  0.54118123806E+00  0.10281152426E+02  0.15642387163E+02  0.72461568185E+02  0.69999997253E+02 0.  0.
         12    1    1    2    0    0 -0.54118123806E+00 -0.10281152426E+02 -0.15642387163E+02  0.18726431815E+02  0.00000000000E+00 0. -1.
         11    1    3    3    0    0  0.10040597291E+02  0.61923603662E+01 -0.18791666204E+02  0.22187510898E+02  0.51100000000E-03 0. -1.
        -11    1    3    3    0    0 -0.15337457121E+02  0.14372590584E+02  0.31864560898E+02  0.38172754584E+02  0.51100000000E-03 0.  1.
        -12    1    3    3    0    0  0.58380410675E+01 -0.10283798524E+02  0.25694924685E+01  0.12101302704E+02  0.00000000000E+00 0.  1.
</event>
<event>
 7    1  0.1360399E-013  0.7246155E+02  0.7816164E-02  0.1226708E+00
        -11   -1    0    0    0    0  0.00000000000E+00  0.00000000000E+00  0.45593999997E+02  0.45594000000E+02  0.51100000000E-03 0.  1.
         11   -1    0    0    0    0 -0.00000000000E+00 -0.00000000000E+00 -0.45593999997E+02  0.45594000000E+02  0.51100000000E-03 0. -1.
    9900012    2    1    2    0    0  0.17551521427E+02 -0.65172248585E+01 -0.38687469989E+00  0.72461553559E+02  0.69999978199E+02 0.  0.
         12    1    1    2    0    0 -0.17551521427E+02  0.65172248585E+01  0.38687469989E+00  0.18726446441E+02  0.00000000000E+00 0. -1.
         11    1    3    3    0    0 -0.51240271892E+01 -0.32736377723E+01 -0.14765537201E+02  0.15968514270E+02  0.51100000000E-03 0. -1.
        -11    1    3    3    0    0  0.10522409429E+02  0.14590289279E+02  0.26280556696E+02  0.31847532117E+02  0.51100000000E-03 0.  1.
        -12    1    3    3    0    0  0.12153139188E+02 -0.17833876365E+02 -0.11901894195E+02  0.24645507172E+02  0.00000000000E+00 0.  1.
</event>
<event>
 7    1  0.1360399E-013  0.7246157E+02  0.7816164E-02  0.1226708E+00
        -11   -1    0    0    0    0  0.00000000000E+00  0.00000000000E+00  0.45593999997E+02  0.45594000000E+02  0.51100000000E-03 0. -1.
         11   -1    0    0    0    0 -0.00000000000E+00 -0.00000000000E+00 -0.45593999997E+02  0.45594000000E+02  0.51100000000E-03 0.  1.
    9900012    2    1    2    0    0 -0.14112913391E+02 -0.10600993336E+02 -0.62548975428E+01  0.72461571420E+02  0.70000001466E+02 0.  0.
         12    1    1    2    0    0  0.14112913391E+02  0.10600993336E+02  0.62548975428E+01  0.18726428580E+02  0.00000000000E+00 0. -1.
         11    1    3    3    0    0 -0.13150879526E+02 -0.28828012756E+02  0.21933440782E+02  0.38536680923E+02  0.51100000000E-03 0. -1.
        -11    1    3    3    0    0  0.10990437753E+01  0.92692825014E+01 -0.10945846682E+02  0.14385376435E+02  0.51100000000E-03 0.  1.
         12    1    3    3    0    0 -0.20610776405E+01  0.89577369188E+01 -0.17242491642E+02  0.19539514062E+02  0.00000000000E+00 0. -1.
</event>
<event>
 7    1  0.1360399E-013  0.7246176E+02  0.7816164E-02  0.1226708E+00
        -11   -1    0    0    0    0  0.00000000000E+00  0.00000000000E+00  0.45593999997E+02  0.45594000000E+02  0.51100000000E-03 0. -1.
         11   -1    0    0    0    0 -0.00000000000E+00 -0.00000000000E+00 -0.45593999997E+02  0.45594000000E+02  0.51100000000E-03 0.  1.
    9900012    2    1    2    0    0  0.10157584340E+02  0.12829443237E+02 -0.91049992441E+01  0.72461757862E+02  0.70000244341E+02 0.  0.
         12    1    1    2    0    0 -0.10157584340E+02 -0.12829443237E+02  0.91049992441E+01  0.18726242138E+02  0.00000000000E+00 0. -1.
         11    1    3    3    0    0  0.16920133289E+02  0.13957500240E+02  0.20059802672E+02  0.29723701098E+02  0.51100000000E-03 0. -1.
        -11    1    3    3    0    0 -0.67022393080E+01  0.12525136638E+02 -0.24480335813E+02  0.28303460942E+02  0.51100000000E-03 0.  1.
        -12    1    3    3    0    0 -0.60309640783E-01 -0.13653193641E+02 -0.46844661032E+01  0.14434595821E+02  0.00000000000E+00 0.  1.
</event>
<event>
 7    1  0.1360399E-013  0.7246152E+02  0.7816164E-02  0.1226708E+00
        -11   -1    0    0    0    0  0.00000000000E+00  0.00000000000E+00  0.45593999997E+02  0.45594000000E+02  0.51100000000E-03 0. -1.
         11   -1    0    0    0    0 -0.00000000000E+00 -0.00000000000E+00 -0.45593999997E+02  0.45594000000E+02  0.51100000000E-03 0.  1.
    9900012    2    1    2    0    0  0.96759803601E+01 -0.15884262289E+02 -0.21786470575E+01  0.72461524426E+02  0.69999940249E+02 0.  0.
         12    1    1    2    0    0 -0.96759803601E+01  0.15884262289E+02  0.21786470575E+01  0.18726475574E+02  0.00000000000E+00 0. -1.
         11    1    3    3    0    0 -0.92971589219E+01  0.21670229041E+02 -0.44852584183E+01  0.24003198413E+02  0.51100000000E-03 0. -1.
        -11    1    3    3    0    0 -0.74079915526E+00 -0.21113278366E+02  0.72127841007E+01  0.22323609956E+02  0.51100000000E-03 0.  1.
         12    1    3    3    0    0  0.19713938437E+02 -0.16441212965E+02 -0.49061727398E+01  0.26134716058E+02  0.00000000000E+00 0. -1.
</event>
<event>
 7    1  0.1360399E-013  0.7246159E+02  0.7816164E-02  0.1226708E+00
        -11   -1    0    0    0    0  0.00000000000E+00  0.00000000000E+00  0.45593999997E+02  0.45594000000E+02  0.51100000000E-03 0.  1.
         11   -1    0    0    0    0 -0.00000000000E+00 -0.00000000000E+00 -0.45593999997E+02  0.45594000000E+02  0.51100000000E-03 0. -1.
    9900012    2    1    2    0    0 -0.20876406841E+00 -0.14612122834E+02  0.11709859589E+02  0.72461587430E+02  0.70000022322E+02 0.  0.
         12    1    1    2    0    0  0.20876406841E+00  0.14612122834E+02 -0.11709859589E+02  0.18726412570E+02  0.00000000000E+00 0. -1.
         11    1    3    3    0    0  0.67279104404E+01 -0.17510501901E+02  0.21788108563E+01  0.18884641186E+02  0.51100000000E-03 0. -1.
        -11    1    3    3    0    0 -0.17833558176E+02 -0.38342137184E+00 -0.17041656545E+02  0.24669837195E+02  0.51100000000E-03 0.  1.
        -12    1    3    3    0    0  0.10896883667E+02  0.32818004390E+01  0.26572705278E+02  0.28907109049E+02  0.00000000000E+00 0.  1.
</event>
<event>
 7    1  0.1360399E-013  0.7246156E+02  0.7816164E-02  0.1226708E+00
        -11   -1    0    0    0    0  0.00000000000E+00  0.00000000000E+00  0.45593999997E+02  0.45594000000E+02  0.51100000000E-03 0.  1.
         11   -1    0    0    0    0 -0.00000000000E+00 -0.00000000000E+00 -0.45593999997E+02  0.45594000000E+02  0.51100000000E-03 0. -1.
    9900012    2    1    2    0    0 -0.80041578232E+01 -0.16710197985E+02 -0.27170292607E+01  0.72461561279E+02  0.69999988256E+02 0.  0.
         12    1    1    2    0    0  0.80041578232E+01  0.16710197985E+02  0.27170292607E+01  0.18726438721E+02  0.00000000000E+00 0. -1.
         11    1    3    3    0    0 -0.56801969234E+01 -0.10649688474E+02 -0.10042385080E+02  0.15701273835E+02  0.51100000000E-03 0. -1.
        -11    1    3    3    0    0  0.16329921937E+02  0.14048202656E+02  0.17244413112E+02  0.27593262442E+02  0.51100000000E-03 0.  1.
        -12    1    3    3    0    0 -0.18653882837E+02 -0.20108712167E+02 -0.99190572918E+01  0.29167025002E+02  0.00000000000E+00 0.  1.
</event>
<event>
 7    1  0.1360399E-013  0.7246157E+02  0.7816164E-02  0.1226708E+00
        -11   -1    0    0    0    0  0.00000000000E+00  0.00000000000E+00  0.45593999997E+02  0.45594000000E+02  0.51100000000E-03 0.  1.
         11   -1    0    0    0    0 -0.00000000000E+00 -0.00000000000E+00 -0.45593999997E+02  0.45594000000E+02  0.51100000000E-03 0. -1.
    9900012    2    1    2    0    0  0.54797128017E+00 -0.18685797465E+02  0.11045340946E+01  0.72461566944E+02  0.69999995635E+02 0.  0.
         12    1    1    2    0    0 -0.54797128017E+00  0.18685797465E+02 -0.11045340946E+01  0.18726433056E+02  0.00000000000E+00 0. -1.
         11    1    3    3    0    0  0.12566916748E+02  0.64444142874E+01 -0.39886660100E+01  0.14675398763E+02  0.51100000000E-03 0. -1.
        -11    1    3    3    0    0 -0.27371561616E+02  0.74568479436E+00  0.79649918245E+00  0.27393299223E+02  0.51100000000E-03 0.  1.
        -12    1    3    3    0    0  0.15352616148E+02 -0.25875896547E+02  0.42967009221E+01  0.30392868958E+02  0.00000000000E+00 0.  1.
</event>
<event>
 7    1  0.1360399E-013  0.7246148E+02  0.7816164E-02  0.1226708E+00
        -11   -1    0    0    0    0  0.00000000000E+00  0.00000000000E+00  0.45593999997E+02  0.45594000000E+02  0.51100000000E-03 0.  1.
         11   -1    0    0    0    0 -0.00000000000E+00 -0.00000000000E+00 -0.45593999997E+02  0.45594000000E+02  0.51100000000E-03 0. -1.
    9900012    2    1    2    0    0 -0.17805127672E+02 -0.48430750570E+01  0.31944588852E+01  0.72461480969E+02  0.69999883637E+02 0.  0.
         12    1    1    2    0    0  0.17805127672E+02  0.48430750570E+01 -0.31944588852E+01  0.18726519031E+02  0.00000000000E+00 0. -1.
         11    1    3    3    0    0  0.11742586136E+02  0.24344098881E+02 -0.50316416827E+01  0.27492560772E+02  0.51100000000E-03 0. -1.
        -11    1    3    3    0    0 -0.10143413683E+02 -0.96516690377E+01  0.10261249449E+02  0.17359055184E+02  0.51100000000E-03 0.  1.
         12    1    3    3    0    0 -0.19404300125E+02 -0.19535504901E+02 -0.20351488814E+01  0.27609865013E+02  0.00000000000E+00 0. -1.
</event>
<event>
 7    1  0.1360399E-013  0.7246151E+02  0.7816164E-02  0.1226708E+00
        -11   -1    0    0    0    0  0.00000000000E+00  0.00000000000E+00  0.45593999997E+02  0.45594000000E+02  0.51100000000E-03 0.  1.
         11   -1    0    0    0    0 -0.00000000000E+00 -0.00000000000E+00 -0.45593999997E+02  0.45594000000E+02  0.51100000000E-03 0. -1.
    9900012    2    1    2    0    0  0.11544621269E+02 -0.12458166748E+02 -0.78865337507E+01  0.72461505038E+02  0.69999914991E+02 0.  0.
         12    1    1    2    0    0 -0.11544621269E+02  0.12458166748E+02  0.78865337507E+01  0.18726494962E+02  0.00000000000E+00 0. -1.
         11    1    3    3    0    0  0.23293367243E+02  0.66496042457E+01 -0.28700712656E+01  0.24393349574E+02  0.51100000000E-03 0. -1.
        -11    1    3    3    0    0 -0.84708012526E+01  0.32930242153E+01  0.15204120354E+02  0.17713377949E+02  0.51100000000E-03 0.  1.
         12    1    3    3    0    0 -0.32779447214E+01 -0.22400795209E+02 -0.20220582839E+02  0.30354777515E+02  0.00000000000E+00 0. -1.
</event>
<event>
 7    1  0.1360399E-013  0.7246155E+02  0.7816164E-02  0.1226708E+00
        -11   -1    0    0    0    0  0.00000000000E+00  0.00000000000E+00  0.45593999997E+02  0.45594000000E+02  0.51100000000E-03 0.  1.
         11   -1    0    0    0    0 -0.00000000000E+00 -0.00000000000E+00 -0.45593999997E+02  0.45594000000E+02  0.51100000000E-03 0. -1.
    9900012    2    1    2    0    0 -0.10535318630E+02  0.92899147673E+01  0.12384852787E+02  0.72461547224E+02  0.69999969946E+02 0.  0.
         12    1    1    2    0    0  0.10535318630E+02 -0.92899147673E+01 -0.12384852787E+02  0.18726452776E+02  0.00000000000E+00 0. -1.
         11    1    3    3    0    0 -0.12189600022E+01 -0.34837321786E+00 -0.66277600304E+01  0.67479204699E+01  0.51100000000E-03 0. -1.
        -11    1    3    3    0    0 -0.18971099479E+02 -0.81476287251E+01  0.34516294279E+02  0.40220157139E+02  0.51100000000E-03 0.  1.
        -12    1    3    3    0    0  0.96547408508E+01  0.17785916710E+02 -0.15503681462E+02  0.25493469614E+02  0.00000000000E+00 0.  1.
</event>
<event>
 7    1  0.1360399E-013  0.7246153E+02  0.7816164E-02  0.1226708E+00
        -11   -1    0    0    0    0  0.00000000000E+00  0.00000000000E+00  0.45593999997E+02  0.45594000000E+02  0.51100000000E-03 0.  1.
         11   -1    0    0    0    0 -0.00000000000E+00 -0.00000000000E+00 -0.45593999997E+02  0.45594000000E+02  0.51100000000E-03 0. -1.
    9900012    2    1    2    0    0  0.46082711592E+01 -0.12985439767E+02  0.12681595362E+02  0.72461530233E+02  0.69999947812E+02 0.  0.
         12    1    1    2    0    0 -0.46082711592E+01  0.12985439767E+02 -0.12681595362E+02  0.18726469767E+02  0.00000000000E+00 0. -1.
         11    1    3    3    0    0  0.16442356792E+00 -0.15121418853E+02 -0.18556712379E+02  0.23938168639E+02  0.51100000000E-03 0. -1.
        -11    1    3    3    0    0 -0.15106277555E+02 -0.19271984567E+01  0.21394312655E+02  0.26260813577E+02  0.51100000000E-03 0.  1.
         12    1    3    3    0    0  0.19550125146E+02  0.40631775421E+01  0.98439950855E+01  0.22262548017E+02  0.00000000000E+00 0. -1.
</event>
<event>
 7    1  0.1360399E-013  0.7246151E+02  0.7816164E-02  0.1226708E+00
        -11   -1    0    0    0    0  0.00000000000E+00  0.00000000000E+00  0.45593999997E+02  0.45594000000E+02  0.51100000000E-03 0.  1.
         11   -1    0    0    0    0 -0.00000000000E+00 -0.00000000000E+00 -0.45593999997E+02  0.45594000000E+02  0.51100000000E-03 0. -1.
    9900012    2    1    2    0    0 -0.25084961764E+01 -0.16598240497E+02  0.82998286659E+01  0.72461513502E+02  0.69999926018E+02 0.  0.
         12    1    1    2    0    0  0.25084961764E+01  0.16598240497E+02 -0.82998286659E+01  0.18726486498E+02  0.00000000000E+00 0. -1.
         11    1    3    3    0    0 -0.32781446809E+01 -0.34581928790E+02 -0.10953937128E+01  0.34754221600E+02  0.51100000000E-03 0. -1.
        -11    1    3    3    0    0  0.15054378057E+02  0.15326612452E+02  0.25127456694E+01  0.21629915372E+02  0.51100000000E-03 0.  1.
        -12    1    3    3    0    0 -0.14284729553E+02  0.26570758414E+01  0.68824767093E+01  0.16077376530E+02  0.00000000000E+00 0.  1.
</event>
<event>
 7    1  0.1360399E-013  0.7246156E+02  0.7816164E-02  0.1226708E+00
        -11   -1    0    0    0    0  0.00000000000E+00  0.00000000000E+00  0.45593999997E+02  0.45594000000E+02  0.51100000000E-03 0.  1.
         11   -1    0    0    0    0 -0.00000000000E+00 -0.00000000000E+00 -0.45593999997E+02  0.45594000000E+02  0.51100000000E-03 0. -1.
    9900012    2    1    2    0    0 -0.69865895248E+01 -0.65027722527E+01  0.16111520630E+02  0.72461559410E+02  0.69999985821E+02 0.  0.
         12    1    1    2    0    0  0.69865895248E+01  0.65027722527E+01 -0.16111520630E+02  0.18726440590E+02  0.00000000000E+00 0. -1.
         11    1    3    3    0    0 -0.88795623238E+01  0.45766694247E+01 -0.19927139273E+02  0.22290881767E+02  0.51100000000E-03 0. -1.
        -11    1    3    3    0    0 -0.14279426524E+02 -0.12075233586E+02  0.19464243440E+02  0.26992036992E+02  0.51100000000E-03 0.  1.
         12    1    3    3    0    0  0.16172399323E+02  0.99579190819E+00  0.16574416462E+02  0.23178640651E+02  0.00000000000E+00 0. -1.
</event>
<event>
 7    1  0.1360399E-013  0.7246160E+02  0.7816164E-02  0.1226708E+00
        -11   -1    0    0    0    0  0.00000000000E+00  0.00000000000E+00  0.45593999997E+02  0.45594000000E+02  0.51100000000E-03 0. -1.
         11   -1    0    0    0    0 -0.00000000000E+00 -0.00000000000E+00 -0.45593999997E+02  0.45594000000E+02  0.51100000000E-03 0.  1.
    9900012    2    1    2    0    0  0.76705496088E+01  0.58020668818E+01 -0.16067883958E+02  0.72461596012E+02  0.70000033503E+02 0.  0.
         12    1    1    2    0    0 -0.76705496088E+01 -0.58020668818E+01  0.16067883958E+02  0.18726403988E+02  0.00000000000E+00 0. -1.
         11    1    3    3    0    0 -0.26560795651E+02  0.53816710365E+00 -0.15326095124E+02  0.30670094252E+02  0.51100000000E-03 0. -1.
        -11    1    3    3    0    0  0.21347146721E+02 -0.40530679529E+01  0.85791544000E+01  0.23360863071E+02  0.51100000000E-03 0.  1.
         12    1    3    3    0    0  0.12884198539E+02  0.93169677311E+01 -0.93209432346E+01  0.18430638689E+02  0.00000000000E+00 0. -1.
</event>
<event>
 7    1  0.1360399E-013  0.7246173E+02  0.7816164E-02  0.1226708E+00
        -11   -1    0    0    0    0  0.00000000000E+00  0.00000000000E+00  0.45593999997E+02  0.45594000000E+02  0.51100000000E-03 0.  1.
         11   -1    0    0    0    0 -0.00000000000E+00 -0.00000000000E+00 -0.45593999997E+02  0.45594000000E+02  0.51100000000E-03 0. -1.
    9900012    2    1    2    0    0 -0.16232347873E+02 -0.65994814065E+01  0.66053576110E+01  0.72461734450E+02  0.70000213842E+02 0.  0.
         12    1    1    2    0    0  0.16232347873E+02  0.65994814065E+01 -0.66053576110E+01  0.18726265550E+02  0.00000000000E+00 0. -1.
         11    1    3    3    0    0  0.25603348001E+01  0.12038662332E+02  0.27431523159E+02  0.30066146546E+02  0.51100000000E-03 0. -1.
        -11    1    3    3    0    0 -0.37440961869E+01 -0.17764133474E+02 -0.19792291775E+01  0.18261983538E+02  0.51100000000E-03 0.  1.
         12    1    3    3    0    0 -0.15048586486E+02 -0.87401026435E+00 -0.18846936370E+02  0.24133604366E+02  0.00000000000E+00 0. -1.
</event>
<event>
 7    1  0.1360399E-013  0.7246158E+02  0.7816164E-02  0.1226708E+00
        -11   -1    0    0    0    0  0.00000000000E+00  0.00000000000E+00  0.45593999997E+02  0.45594000000E+02  0.51100000000E-03 0.  1.
         11   -1    0    0    0    0 -0.00000000000E+00 -0.00000000000E+00 -0.45593999997E+02  0.45594000000E+02  0.51100000000E-03 0. -1.
    9900012    2    1    2    0    0 -0.11552831321E+02 -0.14525829435E+02 -0.24922233924E+01  0.72461579901E+02  0.70000012514E+02 0.  0.
         12    1    1    2    0    0  0.11552831321E+02  0.14525829435E+02  0.24922233924E+01  0.18726420099E+02  0.00000000000E+00 0. -1.
         11    1    3    3    0    0 -0.33255061678E+01 -0.15120540055E+01 -0.16639983651E+02  0.17036265869E+02  0.51100000000E-03 0. -1.
        -11    1    3    3    0    0 -0.19197648162E+02  0.73968775376E+00  0.27354521410E+02  0.33427035087E+02  0.51100000000E-03 0.  1.
        -12    1    3    3    0    0  0.10970323009E+02 -0.13753463183E+02 -0.13206761151E+02  0.21998278945E+02  0.00000000000E+00 0.  1.
</event>
<event>
 7    1  0.1360399E-013  0.7246154E+02  0.7816164E-02  0.1226708E+00
        -11   -1    0    0    0    0  0.00000000000E+00  0.00000000000E+00  0.45593999997E+02  0.45594000000E+02  0.51100000000E-03 0.  1.
         11   -1    0    0    0    0 -0.00000000000E+00 -0.00000000000E+00 -0.45593999997E+02  0.45594000000E+02  0.51100000000E-03 0. -1.
    9900012    2    1    2    0    0  0.69791527231E+01 -0.15186664752E+02  0.84461121642E+01  0.72461543589E+02  0.69999965212E+02 0.  0.
         12    1    1    2    0    0 -0.69791527231E+01  0.15186664752E+02 -0.84461121642E+01  0.18726456411E+02  0.00000000000E+00 0. -1.
         11    1    3    3    0    0  0.11111437655E+02  0.40739647830E+01 -0.54619233287E+01  0.13034333221E+02  0.51100000000E-03 0.  1.
        -11    1    3    3    0    0  0.11140162558E+02 -0.24456516055E+02  0.27412779127E+02  0.38388603245E+02  0.51100000000E-03 0. -1.
        -12    1    3    3    0    0 -0.15272447490E+02  0.51958865201E+01 -0.13504743634E+02  0.21038607123E+02  0.00000000000E+00 0.  1.
</event>
<event>
 7    1  0.1360399E-013  0.7246155E+02  0.7816164E-02  0.1226708E+00
        -11   -1    0    0    0    0  0.00000000000E+00  0.00000000000E+00  0.45593999997E+02  0.45594000000E+02  0.51100000000E-03 0. -1.
         11   -1    0    0    0    0 -0.00000000000E+00 -0.00000000000E+00 -0.45593999997E+02  0.45594000000E+02  0.51100000000E-03 0.  1.
    9900012    2    1    2    0    0 -0.92436107278E+01  0.58673643186E+01 -0.15192417377E+02  0.72461552150E+02  0.69999976363E+02 0.  0.
         12    1    1    2    0    0  0.92436107278E+01 -0.58673643186E+01  0.15192417377E+02  0.18726447850E+02  0.00000000000E+00 0. -1.
         11    1    3    3    0    0 -0.10419375034E+02  0.29250698232E+02 -0.29947925287E+01  0.31195119902E+02  0.51100000000E-03 0. -1.
        -11    1    3    3    0    0  0.14722157496E+02 -0.90158884678E+01  0.13547789992E+01  0.17316569886E+02  0.51100000000E-03 0.  1.
        -12    1    3    3    0    0 -0.13546393190E+02 -0.14367445446E+02 -0.13552403847E+02  0.23949862362E+02  0.00000000000E+00 0.  1.
</event>
<event>
 7    1  0.1411085E-013  0.7246153E+02  0.7816164E-02  0.1226708E+00
        -11   -1    0    0    0    0  0.00000000000E+00  0.00000000000E+00  0.45593999997E+02  0.45594000000E+02  0.51100000000E-03 0. -1.
         11   -1    0    0    0    0 -0.00000000000E+00 -0.00000000000E+00 -0.45593999997E+02  0.45594000000E+02  0.51100000000E-03 0.  1.
    9900012    2    1    2    0    0  0.27723190700E+01  0.16554556585E+02 -0.83031151189E+01  0.72461526295E+02  0.69999942683E+02 0.  0.
         12    1    1    2    0    0 -0.27723190700E+01 -0.16554556585E+02  0.83031151189E+01  0.18726473705E+02  0.00000000000E+00 0. -1.
         11    1    3    3    0    0  0.23377298796E+02  0.45921595989E+01  0.11453286719E+02  0.26434140911E+02  0.51100000000E-03 0. -1.
        -11    1    3    3    0    0 -0.14788363262E+02  0.20786811089E+02 -0.22911440096E+01  0.25613210348E+02  0.51100000000E-03 0.  1.
        -12    1    3    3    0    0 -0.58166164643E+01 -0.88244141031E+01 -0.17465257828E+02  0.20414175035E+02  0.00000000000E+00 0.  1.
</event>
<event>
 7    1  0.1360399E-013  0.7246153E+02  0.7816164E-02  0.1226708E+00
        -11   -1    0    0    0    0  0.00000000000E+00  0.00000000000E+00  0.45593999997E+02  0.45594000000E+02  0.51100000000E-03 0.  1.
         11   -1    0    0    0    0 -0.00000000000E+00 -0.00000000000E+00 -0.45593999997E+02  0.45594000000E+02  0.51100000000E-03 0. -1.
    9900012    2    1    2    0    0  0.53063189609E+01  0.61616420109E+01  0.16868841820E+02  0.72461530030E+02  0.69999947548E+02 0.  0.
         12    1    1    2    0    0 -0.53063189609E+01 -0.61616420109E+01 -0.16868841820E+02  0.18726469970E+02  0.00000000000E+00 0. -1.
         11    1    3    3    0    0 -0.27415878758E+02  0.14404864798E+02  0.13073050364E+02  0.33615995954E+02  0.51100000000E-03 0. -1.
        -11    1    3    3    0    0  0.12938762979E+02  0.40553733133E+01  0.71197051729E+01  0.15314954853E+02  0.51100000000E-03 0.  1.
         12    1    3    3    0    0  0.19783434740E+02 -0.12298596100E+02 -0.33239137167E+01  0.23530579222E+02  0.00000000000E+00 0. -1.
</event>
<event>
 7    1  0.1360399E-013  0.7246136E+02  0.7816164E-02  0.1226709E+00
        -11   -1    0    0    0    0  0.00000000000E+00  0.00000000000E+00  0.45593999997E+02  0.45594000000E+02  0.51100000000E-03 0. -1.
         11   -1    0    0    0    0 -0.00000000000E+00 -0.00000000000E+00 -0.45593999997E+02  0.45594000000E+02  0.51100000000E-03 0.  1.
    9900012    2    1    2    0    0 -0.77806870501E+01 -0.13975371188E+02  0.97384307217E+01  0.72461357916E+02  0.69999723338E+02 0.  0.
         12    1    1    2    0    0  0.77806870501E+01  0.13975371188E+02 -0.97384307217E+01  0.18726642084E+02  0.00000000000E+00 0. -1.
         11    1    3    3    0    0  0.22597444571E+02  0.35710442421E+01  0.15525250191E+02  0.27648331810E+02  0.51100000000E-03 0. -1.
        -11    1    3    3    0    0 -0.21257712516E+02 -0.22183696004E+02 -0.11837501775E+02  0.32926177403E+02  0.51100000000E-03 0.  1.
        -12    1    3    3    0    0 -0.91204191041E+01  0.46372805740E+01  0.60506823054E+01  0.11886848704E+02  0.00000000000E+00 0.  1.
</event>
<event>
 7    1  0.1360399E-013  0.7246158E+02  0.7816164E-02  0.1226708E+00
        -11   -1    0    0    0    0  0.00000000000E+00  0.00000000000E+00  0.45593999997E+02  0.45594000000E+02  0.51100000000E-03 0. -1.
         11   -1    0    0    0    0 -0.00000000000E+00 -0.00000000000E+00 -0.45593999997E+02  0.45594000000E+02  0.51100000000E-03 0.  1.
    9900012    2    1    2    0    0  0.64673268707E+01  0.12917941869E+02 -0.11915509835E+02  0.72461577127E+02  0.70000008901E+02 0.  0.
         12    1    1    2    0    0 -0.64673268707E+01 -0.12917941869E+02  0.11915509835E+02  0.18726422873E+02  0.00000000000E+00 0. -1.
         11    1    3    3    0    0  0.30780260912E+01 -0.27025738959E+01  0.21585607504E+02  0.21970812499E+02  0.51100000000E-03 0. -1.
        -11    1    3    3    0    0  0.13733400991E+02  0.14612098729E+02 -0.57556229313E+01  0.20862572411E+02  0.51100000000E-03 0.  1.
         12    1    3    3    0    0 -0.10344100211E+02  0.10084170367E+01 -0.27745494408E+02  0.29628192217E+02  0.00000000000E+00 0. -1.
</event>
<event>
 7    1  0.1360399E-013  0.7246159E+02  0.7816164E-02  0.1226708E+00
        -11   -1    0    0    0    0  0.00000000000E+00  0.00000000000E+00  0.45593999997E+02  0.45594000000E+02  0.51100000000E-03 0. -1.
         11   -1    0    0    0    0 -0.00000000000E+00 -0.00000000000E+00 -0.45593999997E+02  0.45594000000E+02  0.51100000000E-03 0.  1.
    9900012    2    1    2    0    0 -0.17702511612E+02 -0.58220256764E+01 -0.18448407487E+01  0.72461592504E+02  0.70000028932E+02 0.  0.
         12    1    1    2    0    0  0.17702511612E+02  0.58220256764E+01  0.18448407487E+01  0.18726407496E+02  0.00000000000E+00 0. -1.
         11    1    3    3    0    0  0.23881202667E+01  0.34760216312E+00  0.61437706678E+01  0.66007472267E+01  0.51100000000E-03 0. -1.
        -11    1    3    3    0    0 -0.22766322650E+01 -0.27437959898E+02 -0.21566419748E+02  0.34973349265E+02  0.51100000000E-03 0.  1.
        -12    1    3    3    0    0 -0.17813999613E+02  0.21268332058E+02  0.13577808332E+02  0.30887496011E+02  0.00000000000E+00 0.  1.
</event>
<event>
 7    1  0.1360399E-013  0.7246160E+02  0.7816164E-02  0.1226708E+00
        -11   -1    0    0    0    0  0.00000000000E+00  0.00000000000E+00  0.45593999997E+02  0.45594000000E+02  0.51100000000E-03 0.  1.
         11   -1    0    0    0    0 -0.00000000000E+00 -0.00000000000E+00 -0.45593999997E+02  0.45594000000E+02  0.51100000000E-03 0. -1.
    9900012    2    1    2    0    0  0.59473426865E+01 -0.53574969584E+01  0.16929389622E+02  0.72461604413E+02  0.70000044446E+02 0.  0.
         12    1    1    2    0    0 -0.59473426865E+01  0.53574969584E+01 -0.16929389622E+02  0.18726395587E+02  0.00000000000E+00 0. -1.
         11    1    3    3    0    0 -0.78163306147E+01 -0.14779855340E+02 -0.10525967276E+02  0.19756900959E+02  0.51100000000E-03 0. -1.
        -11    1    3    3    0    0  0.16769650946E+02  0.11807179305E+02 -0.41015372023E+01  0.20915383899E+02  0.51100000000E-03 0.  1.
        -12    1    3    3    0    0 -0.30059776444E+01 -0.23848209238E+01  0.31556894101E+02  0.31789319555E+02  0.00000000000E+00 0.  1.
</event>
<event>
 7    1  0.1360399E-013  0.7246158E+02  0.7816164E-02  0.1226708E+00
        -11   -1    0    0    0    0  0.00000000000E+00  0.00000000000E+00  0.45593999997E+02  0.45594000000E+02  0.51100000000E-03 0. -1.
         11   -1    0    0    0    0 -0.00000000000E+00 -0.00000000000E+00 -0.45593999997E+02  0.45594000000E+02  0.51100000000E-03 0.  1.
    9900012    2    1    2    0    0 -0.37066104700E+00  0.10929365050E+02 -0.15201655062E+02  0.72461582119E+02  0.70000015404E+02 0.  0.
         12    1    1    2    0    0  0.37066104700E+00 -0.10929365050E+02  0.15201655062E+02  0.18726417881E+02  0.00000000000E+00 0. -1.
         11    1    3    3    0    0  0.42153058658E+01 -0.20565199199E+02  0.14738803082E+02  0.25650117704E+02  0.51100000000E-03 0. -1.
        -11    1    3    3    0    0  0.20230428963E+01  0.27118366028E+02 -0.27099550768E+02  0.38391198610E+02  0.51100000000E-03 0.  1.
         12    1    3    3    0    0 -0.66090098091E+01  0.43761982213E+01 -0.28409073759E+01  0.84202658062E+01  0.00000000000E+00 0. -1.
</event>
<event>
 7    1  0.1360399E-013  0.7246143E+02  0.7816164E-02  0.1226708E+00
        -11   -1    0    0    0    0  0.00000000000E+00  0.00000000000E+00  0.45593999997E+02  0.45594000000E+02  0.51100000000E-03 0. -1.
         11   -1    0    0    0    0 -0.00000000000E+00 -0.00000000000E+00 -0.45593999997E+02  0.45594000000E+02  0.51100000000E-03 0.  1.
    9900012    2    1    2    0    0 -0.32387204411E+00  0.38583011052E+01 -0.18321926852E+02  0.72461431065E+02  0.69999818627E+02 0.  0.
         12    1    1    2    0    0  0.32387204411E+00 -0.38583011052E+01  0.18321926852E+02  0.18726568935E+02  0.00000000000E+00 0. -1.
         11    1    3    3    0    0 -0.18095862708E+02  0.10867358486E+02 -0.50585982176E+01  0.21705970234E+02  0.51100000000E-03 0. -1.
        -11    1    3    3    0    0  0.67642052466E+01 -0.91517261967E+01  0.15875547669E+02  0.19533089337E+02  0.51100000000E-03 0.  1.
        -12    1    3    3    0    0  0.11007785417E+02  0.21426688162E+01 -0.29138876303E+02  0.31222371494E+02  0.00000000000E+00 0.  1.
</event>
<event>
 7    1  0.1360399E-013  0.7246148E+02  0.7816164E-02  0.1226708E+00
        -11   -1    0    0    0    0  0.00000000000E+00  0.00000000000E+00  0.45593999997E+02  0.45594000000E+02  0.51100000000E-03 0.  1.
         11   -1    0    0    0    0 -0.00000000000E+00 -0.00000000000E+00 -0.45593999997E+02  0.45594000000E+02  0.51100000000E-03 0. -1.
    9900012    2    1    2    0    0 -0.77531221955E+01  0.66683202058E+01 -0.15687742901E+02  0.72461476685E+02  0.69999878056E+02 0.  0.
         12    1    1    2    0    0  0.77531221955E+01 -0.66683202058E+01  0.15687742901E+02  0.18726523315E+02  0.00000000000E+00 0. -1.
         11    1    3    3    0    0  0.81312350361E+01 -0.11943124773E+02 -0.23791324253E+02  0.27834911937E+02  0.51100000000E-03 0. -1.
        -11    1    3    3    0    0 -0.51814688049E+01  0.25468818217E+02 -0.48931822084E+01  0.26447146401E+02  0.51100000000E-03 0.  1.
         12    1    3    3    0    0 -0.10702888427E+02 -0.68573732382E+01  0.12996763560E+02  0.18179418347E+02  0.00000000000E+00 0. -1.
</event>
<event>
 7    1  0.1360399E-013  0.7246156E+02  0.7816164E-02  0.1226708E+00
        -11   -1    0    0    0    0  0.00000000000E+00  0.00000000000E+00  0.45593999997E+02  0.45594000000E+02  0.51100000000E-03 0. -1.
         11   -1    0    0    0    0 -0.00000000000E+00 -0.00000000000E+00 -0.45593999997E+02  0.45594000000E+02  0.51100000000E-03 0.  1.
    9900012    2    1    2    0    0 -0.99431745653E+01  0.52610516061E+01  0.14971108527E+02  0.72461562139E+02  0.69999989376E+02 0.  0.
         12    1    1    2    0    0  0.99431745653E+01 -0.52610516061E+01 -0.14971108527E+02  0.18726437861E+02  0.00000000000E+00 0. -1.
         11    1    3    3    0    0 -0.40445028954E+01  0.32651379679E+01  0.18793578623E+02  0.19499172478E+02  0.51100000000E-03 0. -1.
        -11    1    3    3    0    0 -0.19363877213E+02  0.21616993714E+02 -0.17156623405E+01  0.29072283286E+02  0.51100000000E-03 0.  1.
        -12    1    3    3    0    0  0.13465205543E+02 -0.19621080075E+02 -0.21068077555E+01  0.23890106374E+02  0.00000000000E+00 0.  1.
</event>
<event>
 7    1  0.1360399E-013  0.7246160E+02  0.7816164E-02  0.1226708E+00
        -11   -1    0    0    0    0  0.00000000000E+00  0.00000000000E+00  0.45593999997E+02  0.45594000000E+02  0.51100000000E-03 0. -1.
         11   -1    0    0    0    0 -0.00000000000E+00 -0.00000000000E+00 -0.45593999997E+02  0.45594000000E+02  0.51100000000E-03 0.  1.
    9900012    2    1    2    0    0 -0.16575271106E+02 -0.70982342376E+01 -0.50550431252E+01  0.72461601454E+02  0.70000040591E+02 0.  0.
         12    1    1    2    0    0  0.16575271106E+02  0.70982342376E+01  0.50550431252E+01  0.18726398546E+02  0.00000000000E+00 0. -1.
         11    1    3    3    0    0  0.78724951674E+01  0.27031449110E+02  0.68610613946E+00  0.28162850762E+02  0.51100000000E-03 0. -1.
        -11    1    3    3    0    0 -0.80292025186E+01 -0.14174146723E+02 -0.83859386992E+01  0.18322076753E+02  0.51100000000E-03 0.  1.
         12    1    3    3    0    0 -0.16418563755E+02 -0.19955536625E+02  0.26447894345E+01  0.25976673938E+02  0.00000000000E+00 0. -1.
</event>
<event>
 7    1  0.1360399E-013  0.7246155E+02  0.7816164E-02  0.1226708E+00
        -11   -1    0    0    0    0  0.00000000000E+00  0.00000000000E+00  0.45593999997E+02  0.45594000000E+02  0.51100000000E-03 0. -1.
         11   -1    0    0    0    0 -0.00000000000E+00 -0.00000000000E+00 -0.45593999997E+02  0.45594000000E+02  0.51100000000E-03 0.  1.
    9900012    2    1    2    0    0  0.83057323575E+01  0.80853788295E+01 -0.14707867252E+02  0.72461550793E+02  0.69999974596E+02 0.  0.
         12    1    1    2    0    0 -0.83057323575E+01 -0.80853788295E+01  0.14707867252E+02  0.18726449207E+02  0.00000000000E+00 0. -1.
         11    1    3    3    0    0  0.13792525826E+02  0.73158369266E+01  0.12621437894E+02  0.20076252971E+02  0.51100000000E-03 0. -1.
        -11    1    3    3    0    0  0.16264465624E+02  0.98295839150E+00 -0.25883234690E+02  0.30584978135E+02  0.51100000000E-03 0.  1.
        -12    1    3    3    0    0 -0.21751259092E+02 -0.21341648859E+00 -0.14460704560E+01  0.21800319687E+02  0.00000000000E+00 0.  1.
</event>
<event>
 7    1  0.1360399E-013  0.7246159E+02  0.7816164E-02  0.1226708E+00
        -11   -1    0    0    0    0  0.00000000000E+00  0.00000000000E+00  0.45593999997E+02  0.45594000000E+02  0.51100000000E-03 0.  1.
         11   -1    0    0    0    0 -0.00000000000E+00 -0.00000000000E+00 -0.45593999997E+02  0.45594000000E+02  0.51100000000E-03 0. -1.
    9900012    2    1    2    0    0  0.65251224526E+01  0.12924367261E+02 -0.11876950226E+02  0.72461589805E+02  0.70000025417E+02 0.  0.
         12    1    1    2    0    0 -0.65251224526E+01 -0.12924367261E+02  0.11876950226E+02  0.18726410195E+02  0.00000000000E+00 0. -1.
         11    1    3    3    0    0  0.12957326056E+02 -0.16012962241E+02 -0.49731159216E+01  0.21190543657E+02  0.51100000000E-03 0. -1.
        -11    1    3    3    0    0  0.36056941266E+01  0.32493738416E+02  0.73197675470E+01  0.33502582939E+02  0.51100000000E-03 0.  1.
         12    1    3    3    0    0 -0.10037897730E+02 -0.35564089146E+01 -0.14223601851E+02  0.17768463209E+02  0.00000000000E+00 0. -1.
</event>
<event>
 7    1  0.1360399E-013  0.7246165E+02  0.7816164E-02  0.1226708E+00
        -11   -1    0    0    0    0  0.00000000000E+00  0.00000000000E+00  0.45593999997E+02  0.45594000000E+02  0.51100000000E-03 0. -1.
         11   -1    0    0    0    0 -0.00000000000E+00 -0.00000000000E+00 -0.45593999997E+02  0.45594000000E+02  0.51100000000E-03 0.  1.
    9900012    2    1    2    0    0 -0.10307742946E+02 -0.15059201625E+02 -0.42008212286E+01  0.72461654462E+02  0.70000109644E+02 0.  0.
         12    1    1    2    0    0  0.10307742946E+02  0.15059201625E+02  0.42008212286E+01  0.18726345538E+02  0.00000000000E+00 0. -1.
         11    1    3    3    0    0 -0.23256984562E+02  0.17848919856E+02 -0.76656588416E+01  0.30302369489E+02  0.51100000000E-03 0. -1.
        -11    1    3    3    0    0 -0.10856924440E+01 -0.12100859337E+02 -0.80203412625E+01  0.14558001202E+02  0.51100000000E-03 0.  1.
         12    1    3    3    0    0  0.14034934060E+02 -0.20807262144E+02  0.11485178875E+02  0.27601283771E+02  0.00000000000E+00 0. -1.
</event>
<event>
 7    1  0.1360399E-013  0.7246158E+02  0.7816164E-02  0.1226708E+00
        -11   -1    0    0    0    0  0.00000000000E+00  0.00000000000E+00  0.45593999997E+02  0.45594000000E+02  0.51100000000E-03 0. -1.
         11   -1    0    0    0    0 -0.00000000000E+00 -0.00000000000E+00 -0.45593999997E+02  0.45594000000E+02  0.51100000000E-03 0.  1.
    9900012    2    1    2    0    0  0.97251484523E+01 -0.13569896740E+02 -0.84828139433E+01  0.72461581700E+02  0.70000014858E+02 0.  0.
         12    1    1    2    0    0 -0.97251484523E+01  0.13569896740E+02  0.84828139433E+01  0.18726418300E+02  0.00000000000E+00 0. -1.
         11    1    3    3    0    0 -0.16268018032E+02  0.60816181739E+01 -0.19369634889E+02  0.26015711528E+02  0.51100000000E-03 0.  1.
        -11    1    3    3    0    0  0.23707389509E+02 -0.83648116191E+01  0.19704571426E+02  0.31941830350E+02  0.51100000000E-03 0. -1.
        -12    1    3    3    0    0  0.22857769752E+01 -0.11286703295E+02 -0.88177504800E+01  0.14504039823E+02  0.00000000000E+00 0.  1.
</event>
<event>
 7    1  0.1360399E-013  0.7246161E+02  0.7816164E-02  0.1226708E+00
        -11   -1    0    0    0    0  0.00000000000E+00  0.00000000000E+00  0.45593999997E+02  0.45594000000E+02  0.51100000000E-03 0. -1.
         11   -1    0    0    0    0 -0.00000000000E+00 -0.00000000000E+00 -0.45593999997E+02  0.45594000000E+02  0.51100000000E-03 0.  1.
    9900012    2    1    2    0    0 -0.90548023518E+01  0.16276269784E+02  0.19419472003E+01  0.72461613199E+02  0.70000055891E+02 0.  0.
         12    1    1    2    0    0  0.90548023518E+01 -0.16276269784E+02 -0.19419472003E+01  0.18726386801E+02  0.00000000000E+00 0. -1.
         11    1    3    3    0    0 -0.14256233345E+02 -0.11182955145E+02  0.10319676672E+02  0.20851724193E+02  0.51100000000E-03 0. -1.
        -11    1    3    3    0    0 -0.46028039552E+01  0.75361097906E+01 -0.23259499565E+02  0.24879370476E+02  0.51100000000E-03 0.  1.
        -12    1    3    3    0    0  0.98042349480E+01  0.19923115139E+02  0.14881770093E+02  0.26730518529E+02  0.00000000000E+00 0.  1.
</event>
<event>
 7    1  0.1360399E-013  0.7246156E+02  0.7816164E-02  0.1226708E+00
        -11   -1    0    0    0    0  0.00000000000E+00  0.00000000000E+00  0.45593999997E+02  0.45594000000E+02  0.51100000000E-03 0.  1.
         11   -1    0    0    0    0 -0.00000000000E+00 -0.00000000000E+00 -0.45593999997E+02  0.45594000000E+02  0.51100000000E-03 0. -1.
    9900012    2    1    2    0    0  0.80253291499E+01  0.12407056412E+02  0.11503848284E+02  0.72461561948E+02  0.69999989127E+02 0.  0.
         12    1    1    2    0    0 -0.80253291499E+01 -0.12407056412E+02 -0.11503848284E+02  0.18726438052E+02  0.00000000000E+00 0. -1.
         11    1    3    3    0    0 -0.23768032368E+02 -0.15801663384E+01  0.84571268957E+01  0.25277248345E+02  0.51100000000E-03 0. -1.
        -11    1    3    3    0    0  0.17270614379E+02  0.12222451853E+02  0.16867509307E+02  0.27058738345E+02  0.51100000000E-03 0.  1.
         12    1    3    3    0    0  0.14522747139E+02  0.17647708973E+01 -0.13820787918E+02  0.20125575258E+02  0.00000000000E+00 0. -1.
</event>
<event>
 7    1  0.1360399E-013  0.7246143E+02  0.7816164E-02  0.1226708E+00
        -11   -1    0    0    0    0  0.00000000000E+00  0.00000000000E+00  0.45593999997E+02  0.45594000000E+02  0.51100000000E-03 0. -1.
         11   -1    0    0    0    0 -0.00000000000E+00 -0.00000000000E+00 -0.45593999997E+02  0.45594000000E+02  0.51100000000E-03 0.  1.
    9900012    2    1    2    0    0 -0.11837047403E+02 -0.25220310505E+01 -0.14290134628E+02  0.72461433856E+02  0.69999822264E+02 0.  0.
         12    1    1    2    0    0  0.11837047403E+02  0.25220310505E+01  0.14290134628E+02  0.18726566144E+02  0.00000000000E+00 0. -1.
         11    1    3    3    0    0  0.79123582388E+01 -0.19346130025E+02 -0.23401465274E+01  0.21032223988E+02  0.51100000000E-03 0. -1.
        -11    1    3    3    0    0 -0.10429372444E+02  0.28352690502E+02 -0.18279463332E+02  0.35309851999E+02  0.51100000000E-03 0.  1.
        -12    1    3    3    0    0 -0.93200331981E+01 -0.11528591527E+02  0.63294752307E+01  0.16119357869E+02  0.00000000000E+00 0.  1.
</event>
<event>
 7    1  0.1360399E-013  0.7246168E+02  0.7816164E-02  0.1226708E+00
        -11   -1    0    0    0    0  0.00000000000E+00  0.00000000000E+00  0.45593999997E+02  0.45594000000E+02  0.51100000000E-03 0.  1.
         11   -1    0    0    0    0 -0.00000000000E+00 -0.00000000000E+00 -0.45593999997E+02  0.45594000000E+02  0.51100000000E-03 0. -1.
    9900012    2    1    2    0    0 -0.87941891541E+01  0.11296130686E+02  0.12072067504E+02  0.72461677746E+02  0.70000139975E+02 0.  0.
         12    1    1    2    0    0  0.87941891541E+01 -0.11296130686E+02 -0.12072067504E+02  0.18726322254E+02  0.00000000000E+00 0. -1.
         11    1    3    3    0    0 -0.70494789020E+01 -0.22083571489E+02  0.22190587261E+02  0.32090519562E+02  0.51100000000E-03 0. -1.
        -11    1    3    3    0    0 -0.26528505865E+00  0.35744049010E+02 -0.74541464358E+01  0.36513993415E+02  0.51100000000E-03 0.  1.
        -12    1    3    3    0    0 -0.14794251935E+01 -0.23643468345E+01 -0.26643733217E+01  0.38571647689E+01  0.00000000000E+00 0.  1.
</event>
<event>
 7    1  0.1360399E-013  0.7246152E+02  0.7816164E-02  0.1226708E+00
        -11   -1    0    0    0    0  0.00000000000E+00  0.00000000000E+00  0.45593999997E+02  0.45594000000E+02  0.51100000000E-03 0. -1.
         11   -1    0    0    0    0 -0.00000000000E+00 -0.00000000000E+00 -0.45593999997E+02  0.45594000000E+02  0.51100000000E-03 0.  1.
    9900012    2    1    2    0    0 -0.36035356390E+01 -0.41715770512E+01 -0.17896744571E+02  0.72461521676E+02  0.69999936666E+02 0.  0.
         12    1    1    2    0    0  0.36035356390E+01  0.41715770512E+01  0.17896744571E+02  0.18726478324E+02  0.00000000000E+00 0. -1.
         11    1    3    3    0    0 -0.46242153564E+01 -0.66521523490E+01  0.38535217989E+01  0.89712947256E+01  0.51100000000E-03 0. -1.
        -11    1    3    3    0    0  0.17564796489E+02  0.24457234256E+02 -0.31311282629E+01  0.30273459459E+02  0.51100000000E-03 0.  1.
        -12    1    3    3    0    0 -0.16544116772E+02 -0.21976658958E+02 -0.18619138107E+02  0.33216767491E+02  0.00000000000E+00 0.  1.
</event>
<event>
 7    1  0.1360399E-013  0.7246155E+02  0.7816164E-02  0.1226708E+00
        -11   -1    0    0    0    0  0.00000000000E+00  0.00000000000E+00  0.45593999997E+02  0.45594000000E+02  0.51100000000E-03 0.  1.
         11   -1    0    0    0    0 -0.00000000000E+00 -0.00000000000E+00 -0.45593999997E+02  0.45594000000E+02  0.51100000000E-03 0. -1.
    9900012    2    1    2    0    0  0.66106866708E+01  0.17420083959E+02  0.18760289957E+01  0.72461548436E+02  0.69999971525E+02 0.  0.
         12    1    1    2    0    0 -0.66106866708E+01 -0.17420083959E+02 -0.18760289957E+01  0.18726451564E+02  0.00000000000E+00 0. -1.
         11    1    3    3    0    0 -0.17549992667E+02 -0.58118180928E+01  0.55161971260E+01  0.19292690407E+02  0.51100000000E-03 0. -1.
        -11    1    3    3    0    0  0.24162987989E+02  0.31994989394E+02 -0.11163673648E+02  0.41619189618E+02  0.51100000000E-03 0.  1.
        -12    1    3    3    0    0 -0.23086505775E-02 -0.87630873428E+01  0.75235055178E+01  0.11549668410E+02  0.00000000000E+00 0.  1.
</event>
<event>
 7    1  0.1360399E-013  0.7246151E+02  0.7816164E-02  0.1226708E+00
        -11   -1    0    0    0    0  0.00000000000E+00  0.00000000000E+00  0.45593999997E+02  0.45594000000E+02  0.51100000000E-03 0.  1.
         11   -1    0    0    0    0 -0.00000000000E+00 -0.00000000000E+00 -0.45593999997E+02  0.45594000000E+02  0.51100000000E-03 0. -1.
    9900012    2    1    2    0    0 -0.14178078718E+02 -0.51552612569E+01  0.11094455359E+02  0.72461506082E+02  0.69999916352E+02 0.  0.
         12    1    1    2    0    0  0.14178078718E+02  0.51552612569E+01 -0.11094455359E+02  0.18726493918E+02  0.00000000000E+00 0. -1.
         11    1    3    3    0    0  0.24379180813E+02 -0.10983425686E+02  0.14992695433E+01  0.26781110999E+02  0.51100000000E-03 0. -1.
        -11    1    3    3    0    0 -0.38656015079E+02  0.56317503100E+00  0.55851673102E+01  0.39061474141E+02  0.51100000000E-03 0.  1.
         12    1    3    3    0    0  0.98755548090E-01  0.52649893984E+01  0.40100185050E+01  0.66189209418E+01  0.00000000000E+00 0. -1.
</event>
<event>
 7    1  0.1360399E-013  0.7246155E+02  0.7816164E-02  0.1226708E+00
        -11   -1    0    0    0    0  0.00000000000E+00  0.00000000000E+00  0.45593999997E+02  0.45594000000E+02  0.51100000000E-03 0.  1.
         11   -1    0    0    0    0 -0.00000000000E+00 -0.00000000000E+00 -0.45593999997E+02  0.45594000000E+02  0.51100000000E-03 0. -1.
    9900012    2    1    2    0    0 -0.13920927566E+01 -0.92110036266E+01  0.16244984544E+02  0.72461547243E+02  0.69999969971E+02 0.  0.
         12    1    1    2    0    0  0.13920927566E+01  0.92110036266E+01 -0.16244984544E+02  0.18726452757E+02  0.00000000000E+00 0. -1.
         11    1    3    3    0    0 -0.23705902046E+02  0.17626324176E+02  0.24188080342E+01  0.29639631043E+02  0.51100000000E-03 0. -1.
        -11    1    3    3    0    0  0.19741078473E+02 -0.17167098505E+02  0.18232636697E+02  0.31888061897E+02  0.51100000000E-03 0.  1.
         12    1    3    3    0    0  0.25727308164E+01 -0.96702292979E+01 -0.44064601876E+01  0.10933854303E+02  0.00000000000E+00 0. -1.
</event>
<event>
 7    1  0.1360399E-013  0.7246151E+02  0.7816164E-02  0.1226708E+00
        -11   -1    0    0    0    0  0.00000000000E+00  0.00000000000E+00  0.45593999997E+02  0.45594000000E+02  0.51100000000E-03 0. -1.
         11   -1    0    0    0    0 -0.00000000000E+00 -0.00000000000E+00 -0.45593999997E+02  0.45594000000E+02  0.51100000000E-03 0.  1.
    9900012    2    1    2    0    0 -0.52120339906E+01 -0.52510229520E+01 -0.17202988006E+02  0.72461512431E+02  0.69999924622E+02 0.  0.
         12    1    1    2    0    0  0.52120339906E+01  0.52510229520E+01  0.17202988006E+02  0.18726487569E+02  0.00000000000E+00 0. -1.
         11    1    3    3    0    0  0.61014400172E+01 -0.91755493342E+01 -0.12190457405E+02  0.16432453495E+02  0.51100000000E-03 0. -1.
        -11    1    3    3    0    0 -0.32124216892E+02  0.86294226001E+01  0.26269604401E+01  0.33366647520E+02  0.51100000000E-03 0.  1.
        -12    1    3    3    0    0  0.20810742884E+02 -0.47048962179E+01 -0.76394910407E+01  0.22662411415E+02  0.00000000000E+00 0.  1.
</event>
<event>
 7    1  0.1360399E-013  0.7246188E+02  0.7816164E-02  0.1226707E+00
        -11   -1    0    0    0    0  0.00000000000E+00  0.00000000000E+00  0.45593999997E+02  0.45594000000E+02  0.51100000000E-03 0.  1.
         11   -1    0    0    0    0 -0.00000000000E+00 -0.00000000000E+00 -0.45593999997E+02  0.45594000000E+02  0.51100000000E-03 0. -1.
    9900012    2    1    2    0    0 -0.72644594917E+00 -0.18665110380E+02 -0.13241369637E+01  0.72461884335E+02  0.70000409095E+02 0.  0.
         12    1    1    2    0    0  0.72644594917E+00  0.18665110380E+02  0.13241369637E+01  0.18726115665E+02  0.00000000000E+00 0. -1.
         11    1    3    3    0    0  0.26221618560E+02 -0.43744530963E+01  0.72911644964E+01  0.27565743229E+02  0.51100000000E-03 0. -1.
        -11    1    3    3    0    0 -0.17953427463E+02  0.33962437597E+01  0.70809332873E+01  0.19595908906E+02  0.51100000000E-03 0.  1.
         12    1    3    3    0    0 -0.89946370460E+01 -0.17686901043E+02 -0.15696234747E+02  0.25300232200E+02  0.00000000000E+00 0. -1.
</event>
<event>
 7    1  0.1360399E-013  0.7246162E+02  0.7816164E-02  0.1226708E+00
        -11   -1    0    0    0    0  0.00000000000E+00  0.00000000000E+00  0.45593999997E+02  0.45594000000E+02  0.51100000000E-03 0. -1.
         11   -1    0    0    0    0 -0.00000000000E+00 -0.00000000000E+00 -0.45593999997E+02  0.45594000000E+02  0.51100000000E-03 0.  1.
    9900012    2    1    2    0    0  0.12600424424E+02  0.86459579290E+01 -0.10823777213E+02  0.72461616544E+02  0.70000060249E+02 0.  0.
         12    1    1    2    0    0 -0.12600424424E+02 -0.86459579290E+01  0.10823777213E+02  0.18726383456E+02  0.00000000000E+00 0. -1.
         11    1    3    3    0    0  0.14706397244E+02  0.70396388533E+01  0.66684566544E+01  0.17615417948E+02  0.51100000000E-03 0. -1.
        -11    1    3    3    0    0 -0.14389652265E+02  0.21058454405E+02 -0.18979564486E+02  0.31792207576E+02  0.51100000000E-03 0.  1.
        -12    1    3    3    0    0  0.12283679445E+02 -0.19452135329E+02  0.14873306193E+01  0.23053991020E+02  0.00000000000E+00 0.  1.
</event>
<event>
 7    1  0.1360399E-013  0.7246146E+02  0.7816164E-02  0.1226708E+00
        -11   -1    0    0    0    0  0.00000000000E+00  0.00000000000E+00  0.45593999997E+02  0.45594000000E+02  0.51100000000E-03 0. -1.
         11   -1    0    0    0    0 -0.00000000000E+00 -0.00000000000E+00 -0.45593999997E+02  0.45594000000E+02  0.51100000000E-03 0.  1.
    9900012    2    1    2    0    0 -0.95049509234E+01 -0.13744416067E+02 -0.84516405438E+01  0.72461460198E+02  0.69999856578E+02 0.  0.
         12    1    1    2    0    0  0.95049509234E+01  0.13744416067E+02  0.84516405438E+01  0.18726539802E+02  0.00000000000E+00 0. -1.
         11    1    3    3    0    0  0.50855219115E+01 -0.17625198580E+02 -0.28612909987E+02  0.33988362365E+02  0.51100000000E-03 0.  1.
        -11    1    3    3    0    0 -0.62641933381E+01 -0.56687598354E+01  0.23829727499E+02  0.25283015429E+02  0.51100000000E-03 0. -1.
         12    1    3    3    0    0 -0.83262794967E+01  0.95495423478E+01 -0.36684580559E+01  0.13190082404E+02  0.00000000000E+00 0. -1.
</event>
<event>
 7    1  0.1360399E-013  0.7246149E+02  0.7816164E-02  0.1226708E+00
        -11   -1    0    0    0    0  0.00000000000E+00  0.00000000000E+00  0.45593999997E+02  0.45594000000E+02  0.51100000000E-03 0. -1.
         11   -1    0    0    0    0 -0.00000000000E+00 -0.00000000000E+00 -0.45593999997E+02  0.45594000000E+02  0.51100000000E-03 0.  1.
    9900012    2    1    2    0    0 -0.57958770444E+01  0.33025045191E+01 -0.17498100761E+02  0.72461487857E+02  0.69999892610E+02 0.  0.
         12    1    1    2    0    0  0.57958770444E+01 -0.33025045191E+01  0.17498100761E+02  0.18726512143E+02  0.00000000000E+00 0. -1.
         11    1    3    3    0    0  0.79755412828E+01  0.44568611685E+01  0.91417385871E+01  0.12924560143E+02  0.51100000000E-03 0. -1.
        -11    1    3    3    0    0 -0.27920643939E+02  0.10090993077E+02 -0.30864913396E+01  0.29848231578E+02  0.51100000000E-03 0.  1.
        -12    1    3    3    0    0  0.14149225612E+02 -0.11245349726E+02 -0.23553348008E+02  0.29688696136E+02  0.00000000000E+00 0.  1.
</event>
<event>
 7    1  0.1360399E-013  0.7246154E+02  0.7816164E-02  0.1226708E+00
        -11   -1    0    0    0    0  0.00000000000E+00  0.00000000000E+00  0.45593999997E+02  0.45594000000E+02  0.51100000000E-03 0. -1.
         11   -1    0    0    0    0 -0.00000000000E+00 -0.00000000000E+00 -0.45593999997E+02  0.45594000000E+02  0.51100000000E-03 0.  1.
    9900012    2    1    2    0    0 -0.97174927239E+01 -0.11457313241E+02 -0.11179476222E+02  0.72461537971E+02  0.69999957892E+02 0.  0.
         12    1    1    2    0    0  0.97174927239E+01  0.11457313241E+02  0.11179476222E+02  0.18726462029E+02  0.00000000000E+00 0. -1.
         11    1    3    3    0    0  0.19836017616E+02 -0.25738231685E+02 -0.15783952058E+02  0.36125576922E+02  0.51100000000E-03 0.  1.
        -11    1    3    3    0    0 -0.24392497488E+02  0.74775615710E+01  0.85793218339E+01  0.26916772172E+02  0.51100000000E-03 0. -1.
        -12    1    3    3    0    0 -0.51610128513E+01  0.68033568726E+01 -0.39748459972E+01  0.94191888764E+01  0.00000000000E+00 0.  1.
</event>
<event>
 7    1  0.1360399E-013  0.7246160E+02  0.7816164E-02  0.1226708E+00
        -11   -1    0    0    0    0  0.00000000000E+00  0.00000000000E+00  0.45593999997E+02  0.45594000000E+02  0.51100000000E-03 0. -1.
         11   -1    0    0    0    0 -0.00000000000E+00 -0.00000000000E+00 -0.45593999997E+02  0.45594000000E+02  0.51100000000E-03 0.  1.
    9900012    2    1    2    0    0 -0.11641468429E+02 -0.86897965278E+01 -0.11817014588E+02  0.72461596591E+02  0.70000034256E+02 0.  0.
         12    1    1    2    0    0  0.11641468429E+02  0.86897965278E+01  0.11817014588E+02  0.18726403409E+02  0.00000000000E+00 0. -1.
         11    1    3    3    0    0 -0.47124430490E+01  0.11956804203E+02  0.16643230499E+02  0.21027824613E+02  0.51100000000E-03 0. -1.
        -11    1    3    3    0    0 -0.13370102042E+02 -0.90969032989E+01 -0.33565691693E+02  0.37258139209E+02  0.51100000000E-03 0.  1.
         12    1    3    3    0    0  0.64410766624E+01 -0.11549697432E+02  0.51054466066E+01  0.14175632769E+02  0.00000000000E+00 0. -1.
</event>
<event>
 7    1  0.1360399E-013  0.7246155E+02  0.7816164E-02  0.1226708E+00
        -11   -1    0    0    0    0  0.00000000000E+00  0.00000000000E+00  0.45593999997E+02  0.45594000000E+02  0.51100000000E-03 0.  1.
         11   -1    0    0    0    0 -0.00000000000E+00 -0.00000000000E+00 -0.45593999997E+02  0.45594000000E+02  0.51100000000E-03 0. -1.
    9900012    2    1    2    0    0 -0.18462359415E+02 -0.28998474141E+01  0.11882711822E+01  0.72461552964E+02  0.69999977424E+02 0.  0.
         12    1    1    2    0    0  0.18462359415E+02  0.28998474141E+01 -0.11882711822E+01  0.18726447036E+02  0.00000000000E+00 0. -1.
         11    1    3    3    0    0 -0.12609935595E+02 -0.17699298351E+02 -0.30582919750E+00  0.21734055525E+02  0.51100000000E-03 0. -1.
        -11    1    3    3    0    0 -0.20040458130E+02  0.25520663640E+02  0.42711939636E+01  0.32728692806E+02  0.51100000000E-03 0.  1.
         12    1    3    3    0    0  0.14188034311E+02 -0.10721212703E+02 -0.27770935839E+01  0.17998804632E+02  0.00000000000E+00 0. -1.
</event>
<event>
 8    1  0.1360399E-013  0.7246158E+02  0.7816164E-02  0.1226708E+00
        -11   -1    0    0    0    0  0.00000000000E+00  0.00000000000E+00  0.45593999997E+02  0.45594000000E+02  0.51100000000E-03 0. -1.
         11   -1    0    0    0    0 -0.00000000000E+00 -0.00000000000E+00 -0.45593999997E+02  0.45594000000E+02  0.51100000000E-03 0.  1.
    9900012    2    1    2    0    0 -0.17337130849E+02 -0.26993178895E+01 -0.65434303223E+01  0.72461577396E+02  0.70000009251E+02 0.  0.
         24    2    3    3    0    0 -0.69822583713E+01  0.11740263793E+02 -0.67171287415E+01  0.54692078962E+02  0.52531114178E+02 0.  0.
         12    1    1    2    0    0  0.17337130849E+02  0.26993178895E+01  0.65434303223E+01  0.18726422604E+02  0.00000000000E+00 0. -1.
         11    1    3    3    0    0 -0.10354872478E+02 -0.14439581682E+02  0.17369841913E+00  0.17769498434E+02  0.51100000000E-03 0. -1.
        -11    1    4    4    0    0  0.21554358610E+02  0.94381454458E+01 -0.10587347721E+02  0.25802342851E+02  0.51100000000E-03 0.  1.
         12    1    4    4    0    0 -0.28536616982E+02  0.23021183470E+01  0.38702189794E+01  0.28889736111E+02  0.00000000000E+00 0. -1.
</event>
<event>
 7    1  0.1360399E-013  0.7246161E+02  0.7816164E-02  0.1226708E+00
        -11   -1    0    0    0    0  0.00000000000E+00  0.00000000000E+00  0.45593999997E+02  0.45594000000E+02  0.51100000000E-03 0. -1.
         11   -1    0    0    0    0 -0.00000000000E+00 -0.00000000000E+00 -0.45593999997E+02  0.45594000000E+02  0.51100000000E-03 0.  1.
    9900012    2    1    2    0    0  0.16503586136E+02 -0.67492680929E+01  0.57233486226E+01  0.72461609676E+02  0.70000051301E+02 0.  0.
         12    1    1    2    0    0 -0.16503586136E+02  0.67492680929E+01 -0.57233486226E+01  0.18726390324E+02  0.00000000000E+00 0. -1.
         11    1    3    3    0    0  0.24775584220E+02  0.14743565363E+02  0.18086592777E+02  0.34034205317E+02  0.51100000000E-03 0. -1.
        -11    1    3    3    0    0 -0.13092472154E+02  0.12012039449E+01 -0.53018871819E+01  0.14176238075E+02  0.51100000000E-03 0.  1.
         12    1    3    3    0    0  0.48204740700E+01 -0.22694037401E+02 -0.70613569722E+01  0.24251166283E+02  0.00000000000E+00 0. -1.
</event>
<event>
 7    1  0.1360399E-013  0.7246168E+02  0.7816164E-02  0.1226708E+00
        -11   -1    0    0    0    0  0.00000000000E+00  0.00000000000E+00  0.45593999997E+02  0.45594000000E+02  0.51100000000E-03 0. -1.
         11   -1    0    0    0    0 -0.00000000000E+00 -0.00000000000E+00 -0.45593999997E+02  0.45594000000E+02  0.51100000000E-03 0.  1.
    9900012    2    1    2    0    0 -0.81851934683E+01 -0.16262150936E+02  0.43840867935E+01  0.72461677291E+02  0.70000139383E+02 0.  0.
         12    1    1    2    0    0  0.81851934683E+01  0.16262150936E+02 -0.43840867935E+01  0.18726322709E+02  0.00000000000E+00 0. -1.
         11    1    3    3    0    0 -0.29807890836E+02  0.95085554317E+01 -0.93740764740E+01  0.32661847659E+02  0.51100000000E-03 0. -1.
        -11    1    3    3    0    0  0.12639686815E+02 -0.25008227252E+02  0.81483742065E+01  0.29181657176E+02  0.51100000000E-03 0.  1.
         12    1    3    3    0    0  0.89830105525E+01 -0.76247911579E+00  0.56097890609E+01  0.10618172456E+02  0.00000000000E+00 0. -1.
</event>
<event>
 7    1  0.1360399E-013  0.7246156E+02  0.7816164E-02  0.1226708E+00
        -11   -1    0    0    0    0  0.00000000000E+00  0.00000000000E+00  0.45593999997E+02  0.45594000000E+02  0.51100000000E-03 0. -1.
         11   -1    0    0    0    0 -0.00000000000E+00 -0.00000000000E+00 -0.45593999997E+02  0.45594000000E+02  0.51100000000E-03 0.  1.
    9900012    2    1    2    0    0 -0.15276939941E+02  0.23280531055E+01 -0.10577083264E+02  0.72461563724E+02  0.69999991441E+02 0.  0.
         12    1    1    2    0    0  0.15276939941E+02 -0.23280531055E+01  0.10577083264E+02  0.18726436276E+02  0.00000000000E+00 0. -1.
         11    1    3    3    0    0 -0.97625218081E+01  0.82328112797E+01  0.10825411495E+02  0.16741432075E+02  0.51100000000E-03 0. -1.
        -11    1    3    3    0    0 -0.22474906532E+02 -0.16306719026E+02 -0.22579468548E+02  0.35789145131E+02  0.51100000000E-03 0.  1.
        -12    1    3    3    0    0  0.16960488399E+02  0.10401960852E+02  0.11769737896E+01  0.19930986519E+02  0.00000000000E+00 0.  1.
</event>
<event>
 7    1  0.1360399E-013  0.7246159E+02  0.7816164E-02  0.1226708E+00
        -11   -1    0    0    0    0  0.00000000000E+00  0.00000000000E+00  0.45593999997E+02  0.45594000000E+02  0.51100000000E-03 0. -1.
         11   -1    0    0    0    0 -0.00000000000E+00 -0.00000000000E+00 -0.45593999997E+02  0.45594000000E+02  0.51100000000E-03 0.  1.
    9900012    2    1    2    0    0  0.12393903909E+02  0.32096466366E-01 -0.14038112616E+02  0.72461588434E+02  0.70000023631E+02 0.  0.
         12    1    1    2    0    0 -0.12393903909E+02 -0.32096466366E-01  0.14038112616E+02  0.18726411566E+02  0.00000000000E+00 0. -1.
         11    1    3    3    0    0 -0.13297641460E+02  0.17240891852E+02  0.54802512577E+01  0.22452366788E+02  0.51100000000E-03 0. -1.
        -11    1    3    3    0    0  0.56843646106E+01 -0.17444619309E+02 -0.23289468187E+02  0.29648373860E+02  0.51100000000E-03 0.  1.
        -12    1    3    3    0    0  0.20007180759E+02  0.23582392382E+00  0.37711043126E+01  0.20360847786E+02  0.00000000000E+00 0.  1.
</event>
<event>
 7    1  0.1360399E-013  0.7246156E+02  0.7816164E-02  0.1226708E+00
        -11   -1    0    0    0    0  0.00000000000E+00  0.00000000000E+00  0.45593999997E+02  0.45594000000E+02  0.51100000000E-03 0.  1.
         11   -1    0    0    0    0 -0.00000000000E+00 -0.00000000000E+00 -0.45593999997E+02  0.45594000000E+02  0.51100000000E-03 0. -1.
    9900012    2    1    2    0    0  0.49728648807E+01 -0.21370186430E+01  0.17927165201E+02  0.72461561845E+02  0.69999988994E+02 0.  0.
         12    1    1    2    0    0 -0.49728648807E+01  0.21370186430E+01 -0.17927165201E+02  0.18726438155E+02  0.00000000000E+00 0. -1.
         11    1    3    3    0    0 -0.11039036814E+02  0.18209062937E+02  0.11068570209E+02  0.23998824004E+02  0.51100000000E-03 0. -1.
        -11    1    3    3    0    0  0.56384425453E+01 -0.30203576936E+02 -0.33166451181E+01  0.30903854600E+02  0.51100000000E-03 0.  1.
        -12    1    3    3    0    0  0.10373459149E+02  0.98574953551E+01  0.10175240111E+02  0.17558883242E+02  0.00000000000E+00 0.  1.
</event>
<event>
 7    1  0.1360399E-013  0.7246158E+02  0.7816164E-02  0.1226708E+00
        -11   -1    0    0    0    0  0.00000000000E+00  0.00000000000E+00  0.45593999997E+02  0.45594000000E+02  0.51100000000E-03 0.  1.
         11   -1    0    0    0    0 -0.00000000000E+00 -0.00000000000E+00 -0.45593999997E+02  0.45594000000E+02  0.51100000000E-03 0. -1.
    9900012    2    1    2    0    0  0.67048417222E+01  0.10142150358E+01  0.17455517645E+02  0.72461584675E+02  0.70000018734E+02 0.  0.
         12    1    1    2    0    0 -0.67048417222E+01 -0.10142150358E+01 -0.17455517645E+02  0.18726415325E+02  0.00000000000E+00 0. -1.
         11    1    3    3    0    0  0.11942433453E+02  0.12564125026E+02  0.40258064384E+02  0.43831389468E+02  0.51100000000E-03 0.  1.
        -11    1    3    3    0    0 -0.86781862372E+01 -0.10423694954E+02 -0.16471447285E+02  0.21337125129E+02  0.51100000000E-03 0. -1.
        -12    1    3    3    0    0  0.34405945060E+01 -0.11262150356E+01 -0.63310994542E+01  0.72930700778E+01  0.00000000000E+00 0.  1.
</event>
<event>
 7    1  0.1360399E-013  0.7246159E+02  0.7816164E-02  0.1226708E+00
        -11   -1    0    0    0    0  0.00000000000E+00  0.00000000000E+00  0.45593999997E+02  0.45594000000E+02  0.51100000000E-03 0.  1.
         11   -1    0    0    0    0 -0.00000000000E+00 -0.00000000000E+00 -0.45593999997E+02  0.45594000000E+02  0.51100000000E-03 0. -1.
    9900012    2    1    2    0    0 -0.29424335648E+01  0.63568688202E+01  0.17366947939E+02  0.72461586110E+02  0.70000020603E+02 0.  0.
         12    1    1    2    0    0  0.29424335648E+01 -0.63568688202E+01 -0.17366947939E+02  0.18726413890E+02  0.00000000000E+00 0. -1.
         11    1    3    3    0    0  0.13676643449E+01  0.22509895140E+02 -0.11239700306E+02  0.25197157542E+02  0.51100000000E-03 0. -1.
        -11    1    3    3    0    0 -0.32289384225E+01 -0.21271718786E+02  0.33687265540E+02  0.39971789093E+02  0.51100000000E-03 0.  1.
        -12    1    3    3    0    0 -0.10811594872E+01  0.51186924658E+01 -0.50806172959E+01  0.72926394744E+01  0.00000000000E+00 0.  1.
</event>
<event>
 7    1  0.1360399E-013  0.7246156E+02  0.7816164E-02  0.1226708E+00
        -11   -1    0    0    0    0  0.00000000000E+00  0.00000000000E+00  0.45593999997E+02  0.45594000000E+02  0.51100000000E-03 0. -1.
         11   -1    0    0    0    0 -0.00000000000E+00 -0.00000000000E+00 -0.45593999997E+02  0.45594000000E+02  0.51100000000E-03 0.  1.
    9900012    2    1    2    0    0 -0.12000121722E+02 -0.14220740589E+02 -0.21088124311E+01  0.72461562161E+02  0.69999989405E+02 0.  0.
         12    1    1    2    0    0  0.12000121722E+02  0.14220740589E+02  0.21088124311E+01  0.18726437839E+02  0.00000000000E+00 0. -1.
         11    1    3    3    0    0 -0.16887205530E+02 -0.17450851408E+02  0.10776187463E+02  0.26567576893E+02  0.51100000000E-03 0. -1.
        -11    1    3    3    0    0  0.19812230520E+02  0.91641623289E+01  0.44327554971E+01  0.22274552093E+02  0.51100000000E-03 0.  1.
        -12    1    3    3    0    0 -0.14925146713E+02 -0.59340515100E+01 -0.17317755391E+02  0.23619433175E+02  0.00000000000E+00 0.  1.
</event>
<event>
 7    1  0.1360399E-013  0.7246157E+02  0.7816164E-02  0.1226708E+00
        -11   -1    0    0    0    0  0.00000000000E+00  0.00000000000E+00  0.45593999997E+02  0.45594000000E+02  0.51100000000E-03 0.  1.
         11   -1    0    0    0    0 -0.00000000000E+00 -0.00000000000E+00 -0.45593999997E+02  0.45594000000E+02  0.51100000000E-03 0. -1.
    9900012    2    1    2    0    0  0.28140059825E+01 -0.16634945002E+02 -0.81264372363E+01  0.72461574632E+02  0.70000005651E+02 0.  0.
         12    1    1    2    0    0 -0.28140059825E+01  0.16634945002E+02  0.81264372363E+01  0.18726425368E+02  0.00000000000E+00 0. -1.
         11    1    3    3    0    0  0.38819793959E+00  0.13122987344E+02 -0.87434570722E+01  0.15773761007E+02  0.51100000000E-03 0. -1.
        -11    1    3    3    0    0 -0.14091418636E+02 -0.36065738410E+02  0.30485861778E+01  0.38840693147E+02  0.51100000000E-03 0.  1.
        -12    1    3    3    0    0  0.16517226679E+02  0.63078060635E+01 -0.24315663419E+01  0.17847120478E+02  0.00000000000E+00 0.  1.
</event>
<event>
 7    1  0.1360399E-013  0.7246161E+02  0.7816164E-02  0.1226708E+00
        -11   -1    0    0    0    0  0.00000000000E+00  0.00000000000E+00  0.45593999997E+02  0.45594000000E+02  0.51100000000E-03 0.  1.
         11   -1    0    0    0    0 -0.00000000000E+00 -0.00000000000E+00 -0.45593999997E+02  0.45594000000E+02  0.51100000000E-03 0. -1.
    9900012    2    1    2    0    0  0.16611957939E+02  0.84479020695E+01  0.18312871283E+01  0.72461606634E+02  0.70000047340E+02 0.  0.
         12    1    1    2    0    0 -0.16611957939E+02 -0.84479020695E+01 -0.18312871283E+01  0.18726393366E+02  0.00000000000E+00 0. -1.
         11    1    3    3    0    0  0.17409795636E+02  0.22729948027E+02  0.13415186767E+02  0.31618329457E+02  0.51100000000E-03 0. -1.
        -11    1    3    3    0    0 -0.15595712063E+02 -0.82509126493E+01  0.44603503237E+01  0.18198860392E+02  0.51100000000E-03 0.  1.
         12    1    3    3    0    0  0.14797874366E+02 -0.60311333081E+01 -0.16044249962E+02  0.22644416786E+02  0.00000000000E+00 0. -1.
</event>
<event>
 7    1  0.1360399E-013  0.7246143E+02  0.7816164E-02  0.1226708E+00
        -11   -1    0    0    0    0  0.00000000000E+00  0.00000000000E+00  0.45593999997E+02  0.45594000000E+02  0.51100000000E-03 0.  1.
         11   -1    0    0    0    0 -0.00000000000E+00 -0.00000000000E+00 -0.45593999997E+02  0.45594000000E+02  0.51100000000E-03 0. -1.
    9900012    2    1    2    0    0  0.77139179129E+00 -0.98740025389E+01  0.15893192884E+02  0.72461426595E+02  0.69999812805E+02 0.  0.
         12    1    1    2    0    0 -0.77139179129E+00  0.98740025389E+01 -0.15893192884E+02  0.18726573405E+02  0.00000000000E+00 0. -1.
         11    1    3    3    0    0  0.14546367626E+02  0.12357926689E+02  0.13376554532E+01  0.19133857048E+02  0.51100000000E-03 0. -1.
        -11    1    3    3    0    0  0.20788807177E+01 -0.25784608328E+02  0.23354292601E+02  0.34850979252E+02  0.51100000000E-03 0.  1.
        -12    1    3    3    0    0 -0.15853856553E+02  0.35526791008E+01 -0.87987551694E+01  0.18476590295E+02  0.00000000000E+00 0.  1.
</event>
<event>
 7    1  0.1360399E-013  0.7246159E+02  0.7816164E-02  0.1226708E+00
        -11   -1    0    0    0    0  0.00000000000E+00  0.00000000000E+00  0.45593999997E+02  0.45594000000E+02  0.51100000000E-03 0. -1.
         11   -1    0    0    0    0 -0.00000000000E+00 -0.00000000000E+00 -0.45593999997E+02  0.45594000000E+02  0.51100000000E-03 0.  1.
    9900012    2    1    2    0    0 -0.13667092273E+02  0.12345115597E+02  0.33892687359E+01  0.72461589963E+02  0.70000025622E+02 0.  0.
         12    1    1    2    0    0  0.13667092273E+02 -0.12345115597E+02 -0.33892687359E+01  0.18726410037E+02  0.00000000000E+00 0. -1.
         11    1    3    3    0    0  0.96800351836E+01 -0.98003787380E+01  0.46763108920E+01  0.14547109279E+02  0.51100000000E-03 0. -1.
        -11    1    3    3    0    0  0.15789026176E+01  0.31168314255E+02  0.15976828477E+01  0.31249149392E+02  0.51100000000E-03 0.  1.
        -12    1    3    3    0    0 -0.24926030074E+02 -0.90228199197E+01 -0.28847250037E+01  0.26665331292E+02  0.00000000000E+00 0.  1.
</event>
<event>
 7    1  0.1360399E-013  0.7246155E+02  0.7816164E-02  0.1226708E+00
        -11   -1    0    0    0    0  0.00000000000E+00  0.00000000000E+00  0.45593999997E+02  0.45594000000E+02  0.51100000000E-03 0.  1.
         11   -1    0    0    0    0 -0.00000000000E+00 -0.00000000000E+00 -0.45593999997E+02  0.45594000000E+02  0.51100000000E-03 0. -1.
    9900012    2    1    2    0    0 -0.70879568235E+01 -0.10988972988E+02  0.13404592871E+02  0.72461554280E+02  0.69999979139E+02 0.  0.
         12    1    1    2    0    0  0.70879568235E+01  0.10988972988E+02 -0.13404592871E+02  0.18726445720E+02  0.00000000000E+00 0. -1.
         11    1    3    3    0    0 -0.24627895756E+02 -0.13646556575E+02 -0.11061641652E+01  0.28177745743E+02  0.51100000000E-03 0. -1.
        -11    1    3    3    0    0  0.21884360762E+02 -0.12134321501E+02  0.14391549013E+02  0.28866653556E+02  0.51100000000E-03 0.  1.
        -12    1    3    3    0    0 -0.43444218293E+01  0.14791905088E+02  0.11920802278E+00  0.15417154981E+02  0.00000000000E+00 0.  1.
</event>
<event>
 7    1  0.1360399E-013  0.7246160E+02  0.7816164E-02  0.1226708E+00
        -11   -1    0    0    0    0  0.00000000000E+00  0.00000000000E+00  0.45593999997E+02  0.45594000000E+02  0.51100000000E-03 0. -1.
         11   -1    0    0    0    0 -0.00000000000E+00 -0.00000000000E+00 -0.45593999997E+02  0.45594000000E+02  0.51100000000E-03 0.  1.
    9900012    2    1    2    0    0  0.12370071850E+02  0.14058775337E+02  0.10073171902E+00  0.72461601830E+02  0.70000041081E+02 0.  0.
         12    1    1    2    0    0 -0.12370071850E+02 -0.14058775337E+02 -0.10073171902E+00  0.18726398170E+02  0.00000000000E+00 0. -1.
         11    1    3    3    0    0 -0.70486636629E+01  0.31214791674E+02 -0.11079713055E+02  0.33864537798E+02  0.51100000000E-03 0.  1.
        -11    1    3    3    0    0  0.24472048564E+02 -0.71257158502E+01  0.57833336459E+01  0.26136257108E+02  0.51100000000E-03 0. -1.
         12    1    3    3    0    0 -0.50533130513E+01 -0.10030300487E+02  0.53971111281E+01  0.12460806923E+02  0.00000000000E+00 0. -1.
</event>
<event>
 7    1  0.1360399E-013  0.7246159E+02  0.7816164E-02  0.1226708E+00
        -11   -1    0    0    0    0  0.00000000000E+00  0.00000000000E+00  0.45593999997E+02  0.45594000000E+02  0.51100000000E-03 0.  1.
         11   -1    0    0    0    0 -0.00000000000E+00 -0.00000000000E+00 -0.45593999997E+02  0.45594000000E+02  0.51100000000E-03 0. -1.
    9900012    2    1    2    0    0  0.73832024722E+01  0.16664983504E+02 -0.42947832880E+01  0.72461587705E+02  0.70000022681E+02 0.  0.
         12    1    1    2    0    0 -0.73832024722E+01 -0.16664983504E+02  0.42947832880E+01  0.18726412295E+02  0.00000000000E+00 0. -1.
         11    1    3    3    0    0  0.26080613950E+02  0.20187937063E+02 -0.16469912490E+02  0.36864742567E+02  0.51100000000E-03 0. -1.
        -11    1    3    3    0    0 -0.20758316090E+01 -0.18477530326E+00  0.17656660782E+02  0.17779226334E+02  0.51100000000E-03 0.  1.
         12    1    3    3    0    0 -0.16621579869E+02 -0.33381782553E+01 -0.54815315807E+01  0.17817618805E+02  0.00000000000E+00 0. -1.
</event>
<event>
 7    1  0.1360399E-013  0.7246159E+02  0.7816164E-02  0.1226708E+00
        -11   -1    0    0    0    0  0.00000000000E+00  0.00000000000E+00  0.45593999997E+02  0.45594000000E+02  0.51100000000E-03 0.  1.
         11   -1    0    0    0    0 -0.00000000000E+00 -0.00000000000E+00 -0.45593999997E+02  0.45594000000E+02  0.51100000000E-03 0. -1.
    9900012    2    1    2    0    0  0.16038128300E+02  0.11673439113E+01  0.95965662033E+01  0.72461592601E+02  0.70000029059E+02 0.  0.
         12    1    1    2    0    0 -0.16038128300E+02 -0.11673439113E+01 -0.95965662033E+01  0.18726407399E+02  0.00000000000E+00 0. -1.
         11    1    3    3    0    0  0.32854733973E+02  0.60678008728E+01  0.92276730086E+01  0.34661242062E+02  0.51100000000E-03 0. -1.
        -11    1    3    3    0    0 -0.73314900707E+01  0.13018823655E+02  0.69576904418E+01  0.16481807321E+02  0.51100000000E-03 0.  1.
         12    1    3    3    0    0 -0.94851156027E+01 -0.17919280616E+02 -0.65887972471E+01  0.21318543219E+02  0.00000000000E+00 0. -1.
</event>
<event>
 7    1  0.1360399E-013  0.7246156E+02  0.7816164E-02  0.1226708E+00
        -11   -1    0    0    0    0  0.00000000000E+00  0.00000000000E+00  0.45593999997E+02  0.45594000000E+02  0.51100000000E-03 0.  1.
         11   -1    0    0    0    0 -0.00000000000E+00 -0.00000000000E+00 -0.45593999997E+02  0.45594000000E+02  0.51100000000E-03 0. -1.
    9900012    2    1    2    0    0  0.10441052834E+02 -0.59120413437E+01  0.14377467376E+02  0.72461564533E+02  0.69999992495E+02 0.  0.
         12    1    1    2    0    0 -0.10441052834E+02  0.59120413437E+01 -0.14377467376E+02  0.18726435467E+02  0.00000000000E+00 0. -1.
         11    1    3    3    0    0  0.12718209447E+01 -0.11207506687E+02  0.20435660109E+01  0.11463066647E+02  0.51100000000E-03 0. -1.
        -11    1    3    3    0    0  0.41395742677E+01  0.26493462121E+02  0.24260665326E+02  0.36161021731E+02  0.51100000000E-03 0.  1.
        -12    1    3    3    0    0  0.50296576217E+01 -0.21197996778E+02 -0.11926763961E+02  0.24837476155E+02  0.00000000000E+00 0.  1.
</event>
<event>
 7    1  0.1360399E-013  0.7246160E+02  0.7816164E-02  0.1226708E+00
        -11   -1    0    0    0    0  0.00000000000E+00  0.00000000000E+00  0.45593999997E+02  0.45594000000E+02  0.51100000000E-03 0.  1.
         11   -1    0    0    0    0 -0.00000000000E+00 -0.00000000000E+00 -0.45593999997E+02  0.45594000000E+02  0.51100000000E-03 0. -1.
    9900012    2    1    2    0    0  0.78526112417E+01  0.25307295870E+01  0.16811008791E+02  0.72461598527E+02  0.70000036778E+02 0.  0.
         12    1    1    2    0    0 -0.78526112417E+01 -0.25307295870E+01 -0.16811008791E+02  0.18726401473E+02  0.00000000000E+00 0. -1.
         11    1    3    3    0    0 -0.23532780148E+02  0.89543961450E+01  0.34213701011E+01  0.25410209079E+02  0.51100000000E-03 0. -1.
        -11    1    3    3    0    0  0.26781070004E+02  0.80483047734E+01  0.19387883315E+01  0.28031407755E+02  0.51100000000E-03 0.  1.
         12    1    3    3    0    0  0.46043213861E+01 -0.14471971331E+02  0.11450850359E+02  0.19019981692E+02  0.00000000000E+00 0. -1.
</event>
<event>
 7    1  0.1360399E-013  0.7246160E+02  0.7816164E-02  0.1226708E+00
        -11   -1    0    0    0    0  0.00000000000E+00  0.00000000000E+00  0.45593999997E+02  0.45594000000E+02  0.51100000000E-03 0.  1.
         11   -1    0    0    0    0 -0.00000000000E+00 -0.00000000000E+00 -0.45593999997E+02  0.45594000000E+02  0.51100000000E-03 0. -1.
    9900012    2    1    2    0    0  0.11353581405E+02 -0.22387571406E+01  0.14722848061E+02  0.72461598870E+02  0.70000037225E+02 0.  0.
         12    1    1    2    0    0 -0.11353581405E+02  0.22387571406E+01 -0.14722848061E+02  0.18726401130E+02  0.00000000000E+00 0. -1.
         11    1    3    3    0    0 -0.12038363306E+01 -0.15578450365E+02  0.22578408774E+02  0.27457637931E+02  0.51100000000E-03 0. -1.
        -11    1    3    3    0    0  0.50213812143E+01  0.22937522633E+02  0.81697974372E+01  0.24861411953E+02  0.51100000000E-03 0.  1.
        -12    1    3    3    0    0  0.75360365216E+01 -0.95978294091E+01 -0.16025358151E+02  0.20142548987E+02  0.00000000000E+00 0.  1.
</event>
<event>
 7    1  0.2021099E-013  0.7246153E+02  0.7816164E-02  0.1226708E+00
        -11   -1    0    0    0    0  0.00000000000E+00  0.00000000000E+00  0.45593999997E+02  0.45594000000E+02  0.51100000000E-03 0. -1.
         11   -1    0    0    0    0 -0.00000000000E+00 -0.00000000000E+00 -0.45593999997E+02  0.45594000000E+02  0.51100000000E-03 0.  1.
    9900012    2    1    2    0    0  0.42649133275E+01 -0.77472004020E+01 -0.16506733370E+02  0.72461525524E+02  0.69999941678E+02 0.  0.
         12    1    1    2    0    0 -0.42649133275E+01  0.77472004020E+01  0.16506733370E+02  0.18726474476E+02  0.00000000000E+00 0. -1.
         11    1    3    3    0    0  0.11478756431E+02  0.76895783598E+01  0.11621246855E+02  0.18053942597E+02  0.51100000000E-03 0. -1.
        -11    1    3    3    0    0 -0.11818130637E+01 -0.30303115507E+02 -0.20772676048E+02  0.36758394443E+02  0.51100000000E-03 0.  1.
         12    1    3    3    0    0 -0.60320300402E+01  0.14866336745E+02 -0.73553041770E+01  0.17649188484E+02  0.00000000000E+00 0. -1.
</event>
<event>
 7    1  0.1360399E-013  0.7246156E+02  0.7816164E-02  0.1226708E+00
        -11   -1    0    0    0    0  0.00000000000E+00  0.00000000000E+00  0.45593999997E+02  0.45594000000E+02  0.51100000000E-03 0. -1.
         11   -1    0    0    0    0 -0.00000000000E+00 -0.00000000000E+00 -0.45593999997E+02  0.45594000000E+02  0.51100000000E-03 0.  1.
    9900012    2    1    2    0    0  0.15727944339E+02  0.96494036048E+01  0.31937806275E+01  0.72461562598E+02  0.69999989974E+02 0.  0.
         12    1    1    2    0    0 -0.15727944339E+02 -0.96494036048E+01 -0.31937806275E+01  0.18726437402E+02  0.00000000000E+00 0. -1.
         11    1    3    3    0    0 -0.12334453653E+02 -0.29661740222E+01 -0.11081469105E+02  0.16844461791E+02  0.51100000000E-03 0. -1.
        -11    1    3    3    0    0  0.29374276040E+02  0.99449035666E+00 -0.79982897532E+01  0.30459969520E+02  0.51100000000E-03 0.  1.
         12    1    3    3    0    0 -0.13118780474E+01  0.11621087270E+02  0.22273539485E+02  0.25157131287E+02  0.00000000000E+00 0. -1.
</event>
<event>
 7    1  0.1360399E-013  0.7246156E+02  0.7816164E-02  0.1226708E+00
        -11   -1    0    0    0    0  0.00000000000E+00  0.00000000000E+00  0.45593999997E+02  0.45594000000E+02  0.51100000000E-03 0.  1.
         11   -1    0    0    0    0 -0.00000000000E+00 -0.00000000000E+00 -0.45593999997E+02  0.45594000000E+02  0.51100000000E-03 0. -1.
    9900012    2    1    2    0    0 -0.38831767976E+01 -0.43677124527E+01  0.17791106079E+02  0.72461563350E+02  0.69999990953E+02 0.  0.
         12    1    1    2    0    0  0.38831767976E+01  0.43677124527E+01 -0.17791106079E+02  0.18726436650E+02  0.00000000000E+00 0. -1.
         11    1    3    3    0    0 -0.12354853741E+02  0.57717108747E+01  0.32744369585E+01  0.14024157551E+02  0.51100000000E-03 0. -1.
        -11    1    3    3    0    0  0.28604761343E+01 -0.22801572959E+02  0.29917753740E+02  0.37724872992E+02  0.51100000000E-03 0.  1.
        -12    1    3    3    0    0  0.56112008086E+01  0.12662149631E+02 -0.15401084620E+02  0.20712532807E+02  0.00000000000E+00 0.  1.
</event>
<event>
 7    1  0.1360399E-013  0.7246159E+02  0.7816164E-02  0.1226708E+00
        -11   -1    0    0    0    0  0.00000000000E+00  0.00000000000E+00  0.45593999997E+02  0.45594000000E+02  0.51100000000E-03 0. -1.
         11   -1    0    0    0    0 -0.00000000000E+00 -0.00000000000E+00 -0.45593999997E+02  0.45594000000E+02  0.51100000000E-03 0.  1.
    9900012    2    1    2    0    0 -0.10289866964E+02 -0.10875169067E+02 -0.11248454688E+02  0.72461590915E+02  0.70000026862E+02 0.  0.
         12    1    1    2    0    0  0.10289866964E+02  0.10875169067E+02  0.11248454688E+02  0.18726409085E+02  0.00000000000E+00 0. -1.
         11    1    3    3    0    0  0.35057063647E+01  0.84421916690E+01  0.30932395838E+01  0.96503216877E+01  0.51100000000E-03 0. -1.
        -11    1    3    3    0    0 -0.15661250150E+02  0.55288364010E+01 -0.29350529705E+02  0.33723825145E+02  0.51100000000E-03 0.  1.
        -12    1    3    3    0    0  0.18656768219E+01 -0.24846197137E+02  0.15008835433E+02  0.29087444082E+02  0.00000000000E+00 0.  1.
</event>
<event>
 7    1  0.1360399E-013  0.7246152E+02  0.7816164E-02  0.1226708E+00
        -11   -1    0    0    0    0  0.00000000000E+00  0.00000000000E+00  0.45593999997E+02  0.45594000000E+02  0.51100000000E-03 0. -1.
         11   -1    0    0    0    0 -0.00000000000E+00 -0.00000000000E+00 -0.45593999997E+02  0.45594000000E+02  0.51100000000E-03 0.  1.
    9900012    2    1    2    0    0  0.75495296765E+01  0.15889572636E+02 -0.64192801456E+01  0.72461519432E+02  0.69999933742E+02 0.  0.
         12    1    1    2    0    0 -0.75495296765E+01 -0.15889572636E+02  0.64192801456E+01  0.18726480568E+02  0.00000000000E+00 0. -1.
         11    1    3    3    0    0  0.19456466804E+02  0.53839222235E+01  0.21225177279E+02  0.29292471214E+02  0.51100000000E-03 0. -1.
        -11    1    3    3    0    0 -0.11680072486E+02  0.51905241140E+01 -0.33140579523E+02  0.35519904916E+02  0.51100000000E-03 0.  1.
         12    1    3    3    0    0 -0.22686464241E+00  0.53151262980E+01  0.54961220987E+01  0.76491433019E+01  0.00000000000E+00 0. -1.
</event>
<event>
 7    1  0.1360399E-013  0.7246233E+02  0.7816164E-02  0.1226706E+00
        -11   -1    0    0    0    0  0.00000000000E+00  0.00000000000E+00  0.45593999997E+02  0.45594000000E+02  0.51100000000E-03 0. -1.
         11   -1    0    0    0    0 -0.00000000000E+00 -0.00000000000E+00 -0.45593999997E+02  0.45594000000E+02  0.51100000000E-03 0.  1.
    9900012    2    1    2    0    0  0.75947010336E+01 -0.67244712508E+01  0.15740156836E+02  0.72462334869E+02  0.70000995993E+02 0.  0.
         12    1    1    2    0    0 -0.75947010336E+01  0.67244712508E+01 -0.15740156836E+02  0.18725665131E+02  0.00000000000E+00 0. -1.
         11    1    3    3    0    0  0.23057797993E+02  0.16185642743E+02 -0.90075316271E+01  0.29576556688E+02  0.51100000000E-03 0. -1.
        -11    1    3    3    0    0 -0.67500714855E+01 -0.19938733169E+02  0.26154211997E+02  0.33573193934E+02  0.51100000000E-03 0.  1.
        -12    1    3    3    0    0 -0.87130254735E+01 -0.29713808242E+01 -0.14065235344E+01  0.93125842470E+01  0.00000000000E+00 0.  1.
</event>
<event>
 7    1  0.1360399E-013  0.7246158E+02  0.7816164E-02  0.1226708E+00
        -11   -1    0    0    0    0  0.00000000000E+00  0.00000000000E+00  0.45593999997E+02  0.45594000000E+02  0.51100000000E-03 0. -1.
         11   -1    0    0    0    0 -0.00000000000E+00 -0.00000000000E+00 -0.45593999997E+02  0.45594000000E+02  0.51100000000E-03 0.  1.
    9900012    2    1    2    0    0 -0.57057982074E+01  0.10962391748E+02 -0.14069427229E+02  0.72461576194E+02  0.70000007686E+02 0.  0.
         12    1    1    2    0    0  0.57057982074E+01 -0.10962391748E+02  0.14069427229E+02  0.18726423806E+02  0.00000000000E+00 0. -1.
         11    1    3    3    0    0 -0.17638272599E+02  0.69165198355E+00 -0.30055133197E+02  0.34855388027E+02  0.51100000000E-03 0.  1.
        -11    1    3    3    0    0  0.97276440474E+01  0.20964441885E+02  0.10441721246E+02  0.25360686606E+02  0.51100000000E-03 0. -1.
        -12    1    3    3    0    0  0.22048303446E+01 -0.10693702121E+02  0.55439847220E+01  0.12245501562E+02  0.00000000000E+00 0.  1.
</event>
<event>
 7    1  0.1360399E-013  0.7246158E+02  0.7816164E-02  0.1226708E+00
        -11   -1    0    0    0    0  0.00000000000E+00  0.00000000000E+00  0.45593999997E+02  0.45594000000E+02  0.51100000000E-03 0.  1.
         11   -1    0    0    0    0 -0.00000000000E+00 -0.00000000000E+00 -0.45593999997E+02  0.45594000000E+02  0.51100000000E-03 0. -1.
    9900012    2    1    2    0    0  0.88748713855E+01  0.14200869272E+02 -0.83815764861E+01  0.72461578703E+02  0.70000010954E+02 0.  0.
         12    1    1    2    0    0 -0.88748713855E+01 -0.14200869272E+02  0.83815764861E+01  0.18726421297E+02  0.00000000000E+00 0. -1.
         11    1    3    3    0    0  0.18542576145E+02 -0.22009451581E+01 -0.24021990209E+02  0.30425767099E+02  0.51100000000E-03 0. -1.
        -11    1    3    3    0    0 -0.18852434222E+02  0.42480232575E+00  0.14093884435E+02  0.23542139067E+02  0.51100000000E-03 0.  1.
        -12    1    3    3    0    0  0.91847294624E+01  0.15977012104E+02  0.15465292875E+01  0.18493672537E+02  0.00000000000E+00 0.  1.
</event>
<event>
 7    1  0.1360399E-013  0.7246165E+02  0.7816164E-02  0.1226708E+00
        -11   -1    0    0    0    0  0.00000000000E+00  0.00000000000E+00  0.45593999997E+02  0.45594000000E+02  0.51100000000E-03 0.  1.
         11   -1    0    0    0    0 -0.00000000000E+00 -0.00000000000E+00 -0.45593999997E+02  0.45594000000E+02  0.51100000000E-03 0. -1.
    9900012    2    1    2    0    0  0.81553256919E+01  0.19111822376E+01  0.16748554463E+02  0.72461654086E+02  0.70000109154E+02 0.  0.
         12    1    1    2    0    0 -0.81553256919E+01 -0.19111822376E+01 -0.16748554463E+02  0.18726345914E+02  0.00000000000E+00 0. -1.
         11    1    3    3    0    0  0.15158128737E+02  0.21989497779E+02  0.17627875292E+02  0.32000763537E+02  0.51100000000E-03 0. -1.
        -11    1    3    3    0    0 -0.15582170585E+02  0.23532874292E+01 -0.39573399922E+01  0.16248155032E+02  0.51100000000E-03 0.  1.
         12    1    3    3    0    0  0.85793675403E+01 -0.22431602971E+02  0.30780191629E+01  0.24212735517E+02  0.00000000000E+00 0. -1.
</event>
<event>
 7    1  0.1360399E-013  0.7246159E+02  0.7816164E-02  0.1226708E+00
        -11   -1    0    0    0    0  0.00000000000E+00  0.00000000000E+00  0.45593999997E+02  0.45594000000E+02  0.51100000000E-03 0.  1.
         11   -1    0    0    0    0 -0.00000000000E+00 -0.00000000000E+00 -0.45593999997E+02  0.45594000000E+02  0.51100000000E-03 0. -1.
    9900012    2    1    2    0    0  0.12374566649E+02 -0.56847292833E+01  0.12854274847E+02  0.72461590077E+02  0.70000025770E+02 0.  0.
         12    1    1    2    0    0 -0.12374566649E+02  0.56847292833E+01 -0.12854274847E+02  0.18726409923E+02  0.00000000000E+00 0. -1.
         11    1    3    3    0    0 -0.19366128925E+02  0.10146453336E+02  0.22828388133E+02  0.31609061515E+02  0.51100000000E-03 0. -1.
        -11    1    3    3    0    0  0.70273451316E+01 -0.86280975524E+01  0.36713622359E+01  0.11717787671E+02  0.51100000000E-03 0.  1.
         12    1    3    3    0    0  0.24713350442E+02 -0.72030850671E+01 -0.13645475522E+02  0.29134740891E+02  0.00000000000E+00 0. -1.
</event>
<event>
 7    1  0.1360399E-013  0.7246164E+02  0.7816164E-02  0.1226708E+00
        -11   -1    0    0    0    0  0.00000000000E+00  0.00000000000E+00  0.45593999997E+02  0.45594000000E+02  0.51100000000E-03 0.  1.
         11   -1    0    0    0    0 -0.00000000000E+00 -0.00000000000E+00 -0.45593999997E+02  0.45594000000E+02  0.51100000000E-03 0. -1.
    9900012    2    1    2    0    0 -0.88711704433E+01  0.19890909658E+01  0.16371393516E+02  0.72461636937E+02  0.70000086815E+02 0.  0.
         12    1    1    2    0    0  0.88711704433E+01 -0.19890909658E+01 -0.16371393516E+02  0.18726363063E+02  0.00000000000E+00 0. -1.
         11    1    3    3    0    0  0.90142614819E+01  0.14714579902E+02  0.74763028237E+01  0.18806139315E+02  0.51100000000E-03 0. -1.
        -11    1    3    3    0    0 -0.24217296107E+01 -0.18588731516E+02  0.24546293473E+02  0.30885696321E+02  0.51100000000E-03 0.  1.
        -12    1    3    3    0    0 -0.15463702314E+02  0.58632425792E+01 -0.15651202781E+02  0.22769801302E+02  0.00000000000E+00 0.  1.
</event>
<event>
 7    1  0.1360399E-013  0.7246151E+02  0.7816164E-02  0.1226708E+00
        -11   -1    0    0    0    0  0.00000000000E+00  0.00000000000E+00  0.45593999997E+02  0.45594000000E+02  0.51100000000E-03 0.  1.
         11   -1    0    0    0    0 -0.00000000000E+00 -0.00000000000E+00 -0.45593999997E+02  0.45594000000E+02  0.51100000000E-03 0. -1.
    9900012    2    1    2    0    0  0.18061239012E+01 -0.18383539345E+02  0.30764852745E+01  0.72461511701E+02  0.69999923671E+02 0.  0.
         12    1    1    2    0    0 -0.18061239012E+01  0.18383539345E+02 -0.30764852745E+01  0.18726488299E+02  0.00000000000E+00 0. -1.
         11    1    3    3    0    0  0.44909976960E+01  0.83546445300E+01 -0.16538081355E+02  0.19065080139E+02  0.51100000000E-03 0. -1.
        -11    1    3    3    0    0 -0.14818364737E+02 -0.23391179026E+02  0.27106243970E+02  0.38748930981E+02  0.51100000000E-03 0.  1.
        -12    1    3    3    0    0  0.12133490942E+02 -0.33470048487E+01 -0.74916773407E+01  0.14647500581E+02  0.00000000000E+00 0.  1.
</event>
<event>
 7    1  0.1360399E-013  0.7246142E+02  0.7816164E-02  0.1226708E+00
        -11   -1    0    0    0    0  0.00000000000E+00  0.00000000000E+00  0.45593999997E+02  0.45594000000E+02  0.51100000000E-03 0.  1.
         11   -1    0    0    0    0 -0.00000000000E+00 -0.00000000000E+00 -0.45593999997E+02  0.45594000000E+02  0.51100000000E-03 0. -1.
    9900012    2    1    2    0    0 -0.18308313187E+02  0.31719624062E+01  0.23300382865E+01  0.72461421143E+02  0.69999805702E+02 0.  0.
         12    1    1    2    0    0  0.18308313187E+02 -0.31719624062E+01 -0.23300382865E+01  0.18726578857E+02  0.00000000000E+00 0. -1.
         11    1    3    3    0    0 -0.81889039381E+01  0.75690714449E+01 -0.17849337848E+02  0.21046326333E+02  0.51100000000E-03 0. -1.
        -11    1    3    3    0    0 -0.14409444341E+02 -0.55369401646E+00  0.33734342272E+02  0.36687116432E+02  0.51100000000E-03 0.  1.
        -12    1    3    3    0    0  0.42900350920E+01 -0.38434150222E+01 -0.13554966138E+02  0.14727978378E+02  0.00000000000E+00 0.  1.
</event>
<event>
 7    1  0.1360399E-013  0.7246141E+02  0.7816164E-02  0.1226708E+00
        -11   -1    0    0    0    0  0.00000000000E+00  0.00000000000E+00  0.45593999997E+02  0.45594000000E+02  0.51100000000E-03 0.  1.
         11   -1    0    0    0    0 -0.00000000000E+00 -0.00000000000E+00 -0.45593999997E+02  0.45594000000E+02  0.51100000000E-03 0. -1.
    9900012    2    1    2    0    0  0.11473594845E+02 -0.14727605622E+02  0.14627052543E+01  0.72461407873E+02  0.69999788416E+02 0.  0.
         12    1    1    2    0    0 -0.11473594845E+02  0.14727605622E+02 -0.14627052543E+01  0.18726592127E+02  0.00000000000E+00 0. -1.
         11    1    3    3    0    0  0.18062707654E+02 -0.31942798751E+02 -0.14964463789E+01  0.36726600059E+02  0.51100000000E-03 0. -1.
        -11    1    3    3    0    0 -0.50571965551E+01  0.21775153191E+02  0.12089815019E+02  0.25414487226E+02  0.51100000000E-03 0.  1.
        -12    1    3    3    0    0 -0.15319162539E+01 -0.45599600618E+01 -0.91306633862E+01  0.10320320588E+02  0.00000000000E+00 0.  1.
</event>
<event>
 7    1  0.1360399E-013  0.7246158E+02  0.7816164E-02  0.1226708E+00
        -11   -1    0    0    0    0  0.00000000000E+00  0.00000000000E+00  0.45593999997E+02  0.45594000000E+02  0.51100000000E-03 0.  1.
         11   -1    0    0    0    0 -0.00000000000E+00 -0.00000000000E+00 -0.45593999997E+02  0.45594000000E+02  0.51100000000E-03 0. -1.
    9900012    2    1    2    0    0  0.12901003621E+02 -0.13111753538E+02 -0.35106517710E+01  0.72461584136E+02  0.70000018031E+02 0.  0.
         12    1    1    2    0    0 -0.12901003621E+02  0.13111753538E+02  0.35106517710E+01  0.18726415864E+02  0.00000000000E+00 0. -1.
         11    1    3    3    0    0  0.35573236434E+02 -0.56908020712E+01  0.15569780550E+01  0.36059181349E+02  0.51100000000E-03 0. -1.
        -11    1    3    3    0    0 -0.24759723061E+01  0.43886154342E+01  0.81122135865E+01  0.95497850146E+01  0.51100000000E-03 0.  1.
         12    1    3    3    0    0 -0.20196260507E+02 -0.11809566901E+02 -0.13179843412E+02  0.26852617773E+02  0.00000000000E+00 0. -1.
</event>
<event>
 7    1  0.1360399E-013  0.7246159E+02  0.7816164E-02  0.1226708E+00
        -11   -1    0    0    0    0  0.00000000000E+00  0.00000000000E+00  0.45593999997E+02  0.45594000000E+02  0.51100000000E-03 0.  1.
         11   -1    0    0    0    0 -0.00000000000E+00 -0.00000000000E+00 -0.45593999997E+02  0.45594000000E+02  0.51100000000E-03 0. -1.
    9900012    2    1    2    0    0 -0.97069335746E+01  0.15759675876E+02 -0.28436648919E+01  0.72461591557E+02  0.70000027699E+02 0.  0.
         12    1    1    2    0    0  0.97069335746E+01 -0.15759675876E+02  0.28436648919E+01  0.18726408443E+02  0.00000000000E+00 0. -1.
         11    1    3    3    0    0 -0.11238564330E+02 -0.38835732385E+01 -0.16157866894E+02  0.20061508720E+02  0.51100000000E-03 0. -1.
        -11    1    3    3    0    0 -0.10708844426E+02 -0.14550169717E+01  0.23577895001E+02  0.25936722157E+02  0.51100000000E-03 0.  1.
        -12    1    3    3    0    0  0.12240475181E+02  0.21098266086E+02 -0.10263692999E+02  0.26463360680E+02  0.00000000000E+00 0.  1.
</event>
<event>
 7    1  0.1360399E-013  0.7246153E+02  0.7816164E-02  0.1226708E+00
        -11   -1    0    0    0    0  0.00000000000E+00  0.00000000000E+00  0.45593999997E+02  0.45594000000E+02  0.51100000000E-03 0. -1.
         11   -1    0    0    0    0 -0.00000000000E+00 -0.00000000000E+00 -0.45593999997E+02  0.45594000000E+02  0.51100000000E-03 0.  1.
    9900012    2    1    2    0    0 -0.13672663661E+02  0.28545453435E+01  0.12473589023E+02  0.72461532532E+02  0.69999950807E+02 0.  0.
         12    1    1    2    0    0  0.13672663661E+02 -0.28545453435E+01 -0.12473589023E+02  0.18726467468E+02  0.00000000000E+00 0. -1.
         11    1    3    3    0    0  0.40136326001E+01  0.76020132887E+00  0.15538012464E+02  0.16066019554E+02  0.51100000000E-03 0. -1.
        -11    1    3    3    0    0 -0.23649226249E+02 -0.14535815390E+02 -0.18148319375E+02  0.33165303069E+02  0.51100000000E-03 0.  1.
        -12    1    3    3    0    0  0.59629299878E+01  0.16630159404E+02  0.15083895934E+02  0.23230209909E+02  0.00000000000E+00 0.  1.
</event>
<event>
 7    1  0.1360399E-013  0.7246164E+02  0.7816164E-02  0.1226708E+00
        -11   -1    0    0    0    0  0.00000000000E+00  0.00000000000E+00  0.45593999997E+02  0.45594000000E+02  0.51100000000E-03 0. -1.
         11   -1    0    0    0    0 -0.00000000000E+00 -0.00000000000E+00 -0.45593999997E+02  0.45594000000E+02  0.51100000000E-03 0.  1.
    9900012    2    1    2    0    0 -0.12562210222E+02  0.12606508933E+02 -0.58260924784E+01  0.72461640324E+02  0.70000091227E+02 0.  0.
         12    1    1    2    0    0  0.12562210222E+02 -0.12606508933E+02  0.58260924784E+01  0.18726359676E+02  0.00000000000E+00 0. -1.
         11    1    3    3    0    0  0.20785129683E+02  0.78521598502E+00  0.19428913460E+02  0.28462622131E+02  0.51100000000E-03 0. -1.
        -11    1    3    3    0    0 -0.63609954689E+01  0.35070987360E+01 -0.23348758714E+01  0.76297870544E+01  0.51100000000E-03 0.  1.
         12    1    3    3    0    0 -0.26986344435E+02  0.83141942124E+01 -0.22920130067E+02  0.36369231139E+02  0.00000000000E+00 0. -1.
</event>
<event>
 7    1  0.1360399E-013  0.7246154E+02  0.7816164E-02  0.1226708E+00
        -11   -1    0    0    0    0  0.00000000000E+00  0.00000000000E+00  0.45593999997E+02  0.45594000000E+02  0.51100000000E-03 0.  1.
         11   -1    0    0    0    0 -0.00000000000E+00 -0.00000000000E+00 -0.45593999997E+02  0.45594000000E+02  0.51100000000E-03 0. -1.
    9900012    2    1    2    0    0  0.62697754619E+01 -0.17566618127E+02  0.16685665793E+01  0.72461540880E+02  0.69999961682E+02 0.  0.
         12    1    1    2    0    0 -0.62697754619E+01  0.17566618127E+02 -0.16685665793E+01  0.18726459120E+02  0.00000000000E+00 0. -1.
         11    1    3    3    0    0 -0.12204205574E+02  0.89467439345E+01  0.17281372059E+02  0.22970256446E+02  0.51100000000E-03 0. -1.
        -11    1    3    3    0    0  0.19511914408E+02 -0.91337319907E+00 -0.13579427290E+02  0.23789701558E+02  0.51100000000E-03 0.  1.
         12    1    3    3    0    0 -0.10379333721E+01 -0.25599988862E+02 -0.20333781900E+01  0.25701582875E+02  0.00000000000E+00 0. -1.
</event>
<event>
 7    1  0.1360399E-013  0.7246144E+02  0.7816164E-02  0.1226708E+00
        -11   -1    0    0    0    0  0.00000000000E+00  0.00000000000E+00  0.45593999997E+02  0.45594000000E+02  0.51100000000E-03 0.  1.
         11   -1    0    0    0    0 -0.00000000000E+00 -0.00000000000E+00 -0.45593999997E+02  0.45594000000E+02  0.51100000000E-03 0. -1.
    9900012    2    1    2    0    0 -0.11328976242E+02 -0.14432127989E+02 -0.37486275367E+01  0.72461435195E+02  0.69999824008E+02 0.  0.
         12    1    1    2    0    0  0.11328976242E+02  0.14432127989E+02  0.37486275367E+01  0.18726564805E+02  0.00000000000E+00 0. -1.
         11    1    3    3    0    0  0.20564386136E+02  0.62711550645E+01 -0.45274856903E+01  0.21970878223E+02  0.51100000000E-03 0. -1.
        -11    1    3    3    0    0 -0.93540788419E+01 -0.25325277765E+02  0.38772817242E+01  0.27274563217E+02  0.51100000000E-03 0.  1.
         12    1    3    3    0    0 -0.22539283535E+02  0.46219947117E+01 -0.30984235706E+01  0.23215993755E+02  0.00000000000E+00 0. -1.
</event>
<event>
 7    1  0.1360399E-013  0.7246147E+02  0.7816164E-02  0.1226708E+00
        -11   -1    0    0    0    0  0.00000000000E+00  0.00000000000E+00  0.45593999997E+02  0.45594000000E+02  0.51100000000E-03 0.  1.
         11   -1    0    0    0    0 -0.00000000000E+00 -0.00000000000E+00 -0.45593999997E+02  0.45594000000E+02  0.51100000000E-03 0. -1.
    9900012    2    1    2    0    0 -0.89487411549E+01 -0.95492850233E+01 -0.13394561752E+02  0.72461465424E+02  0.69999863386E+02 0.  0.
         12    1    1    2    0    0  0.89487411549E+01  0.95492850233E+01  0.13394561752E+02  0.18726534576E+02  0.00000000000E+00 0. -1.
         11    1    3    3    0    0  0.10492646488E+02 -0.34615723159E+02 -0.46155792754E+01  0.36464331784E+02  0.51100000000E-03 0. -1.
        -11    1    3    3    0    0 -0.67572645887E+01  0.18437975998E+01 -0.62994014760E+01  0.94203329839E+01  0.51100000000E-03 0.  1.
         12    1    3    3    0    0 -0.12684123054E+02  0.23222640536E+02 -0.24795810006E+01  0.26576800655E+02  0.00000000000E+00 0. -1.
</event>
<event>
 7    1  0.1360399E-013  0.7246161E+02  0.7816164E-02  0.1226708E+00
        -11   -1    0    0    0    0  0.00000000000E+00  0.00000000000E+00  0.45593999997E+02  0.45594000000E+02  0.51100000000E-03 0. -1.
         11   -1    0    0    0    0 -0.00000000000E+00 -0.00000000000E+00 -0.45593999997E+02  0.45594000000E+02  0.51100000000E-03 0.  1.
    9900012    2    1    2    0    0  0.14349437837E+02  0.34734332665E+01 -0.11519838264E+02  0.72461607435E+02  0.70000048382E+02 0.  0.
         12    1    1    2    0    0 -0.14349437837E+02 -0.34734332665E+01  0.11519838264E+02  0.18726392565E+02  0.00000000000E+00 0. -1.
         11    1    3    3    0    0  0.30442180013E+01  0.12910430113E+02 -0.77296763085E+01  0.15352340702E+02  0.51100000000E-03 0. -1.
        -11    1    3    3    0    0 -0.16994641520E+02 -0.48836995534E+01  0.14703718714E+02  0.22997123863E+02  0.51100000000E-03 0.  1.
        -12    1    3    3    0    0  0.28299861355E+02 -0.45532972927E+01 -0.18493880669E+02  0.34112142869E+02  0.00000000000E+00 0.  1.
</event>
<event>
 7    1  0.1360399E-013  0.7246156E+02  0.7816164E-02  0.1226708E+00
        -11   -1    0    0    0    0  0.00000000000E+00  0.00000000000E+00  0.45593999997E+02  0.45594000000E+02  0.51100000000E-03 0.  1.
         11   -1    0    0    0    0 -0.00000000000E+00 -0.00000000000E+00 -0.45593999997E+02  0.45594000000E+02  0.51100000000E-03 0. -1.
    9900012    2    1    2    0    0  0.84015783697E+01  0.76147209282E+01  0.14903325715E+02  0.72461558499E+02  0.69999984635E+02 0.  0.
         12    1    1    2    0    0 -0.84015783697E+01 -0.76147209282E+01 -0.14903325715E+02  0.18726441501E+02  0.00000000000E+00 0. -1.
         11    1    3    3    0    0 -0.16147275128E+02  0.92440367544E+01 -0.72459889979E+00  0.18620197459E+02  0.51100000000E-03 0. -1.
        -11    1    3    3    0    0  0.29977034856E+02 -0.16625132294E+02  0.49147252121E+01  0.34629065346E+02  0.51100000000E-03 0.  1.
        -12    1    3    3    0    0 -0.54281813587E+01  0.14995816468E+02  0.10713199403E+02  0.19212295694E+02  0.00000000000E+00 0.  1.
</event>
<event>
 7    1  0.1360399E-013  0.7246153E+02  0.7816164E-02  0.1226708E+00
        -11   -1    0    0    0    0  0.00000000000E+00  0.00000000000E+00  0.45593999997E+02  0.45594000000E+02  0.51100000000E-03 0.  1.
         11   -1    0    0    0    0 -0.00000000000E+00 -0.00000000000E+00 -0.45593999997E+02  0.45594000000E+02  0.51100000000E-03 0. -1.
    9900012    2    1    2    0    0 -0.14801774870E+02 -0.19133898582E+01 -0.11310481390E+02  0.72461532385E+02  0.69999950616E+02 0.  0.
         12    1    1    2    0    0  0.14801774870E+02  0.19133898582E+01  0.11310481390E+02  0.18726467615E+02  0.00000000000E+00 0. -1.
         11    1    3    3    0    0 -0.40443161074E+01  0.18542390895E+02 -0.10873862579E+02  0.21872760240E+02  0.51100000000E-03 0. -1.
        -11    1    3    3    0    0  0.51875750455E+01 -0.30544841347E+02  0.39036560826E+01  0.31227180450E+02  0.51100000000E-03 0.  1.
        -12    1    3    3    0    0 -0.15945033808E+02  0.10089060594E+02 -0.43402748934E+01  0.19361591695E+02  0.00000000000E+00 0.  1.
</event>
<event>
 7    1  0.1360399E-013  0.7246143E+02  0.7816164E-02  0.1226708E+00
        -11   -1    0    0    0    0  0.00000000000E+00  0.00000000000E+00  0.45593999997E+02  0.45594000000E+02  0.51100000000E-03 0.  1.
         11   -1    0    0    0    0 -0.00000000000E+00 -0.00000000000E+00 -0.45593999997E+02  0.45594000000E+02  0.51100000000E-03 0. -1.
    9900012    2    1    2    0    0 -0.14799629982E+01 -0.94112129690E+01  0.16122131872E+02  0.72461431812E+02  0.69999819600E+02 0.  0.
         12    1    1    2    0    0  0.14799629982E+01  0.94112129690E+01 -0.16122131872E+02  0.18726568188E+02  0.00000000000E+00 0. -1.
         11    1    3    3    0    0  0.14600775245E+02 -0.31622662053E+02 -0.13123734775E+01  0.34855382905E+02  0.51100000000E-03 0. -1.
        -11    1    3    3    0    0 -0.10002441958E+01  0.45035347424E+01  0.13175894921E+02  0.13960176248E+02  0.51100000000E-03 0.  1.
         12    1    3    3    0    0 -0.15080494047E+02  0.17707914341E+02  0.42586104279E+01  0.23645872659E+02  0.00000000000E+00 0. -1.
</event>
<event>
 7    1  0.1360399E-013  0.7246158E+02  0.7816164E-02  0.1226708E+00
        -11   -1    0    0    0    0  0.00000000000E+00  0.00000000000E+00  0.45593999997E+02  0.45594000000E+02  0.51100000000E-03 0. -1.
         11   -1    0    0    0    0 -0.00000000000E+00 -0.00000000000E+00 -0.45593999997E+02  0.45594000000E+02  0.51100000000E-03 0.  1.
    9900012    2    1    2    0    0 -0.90802916743E+01 -0.15131229769E+02 -0.62668227951E+01  0.72461578047E+02  0.70000010099E+02 0.  0.
         12    1    1    2    0    0  0.90802916743E+01  0.15131229769E+02  0.62668227951E+01  0.18726421953E+02  0.00000000000E+00 0. -1.
         11    1    3    3    0    0 -0.40366940994E+01  0.21296510083E+02  0.83671251926E+01  0.23234565312E+02  0.51100000000E-03 0. -1.
        -11    1    3    3    0    0  0.59695153161E+01 -0.32395013179E+02 -0.36214163509E+01  0.33138899327E+02  0.51100000000E-03 0.  1.
        -12    1    3    3    0    0 -0.11013112891E+02 -0.40327266736E+01 -0.11012531637E+02  0.16088113408E+02  0.00000000000E+00 0.  1.
</event>
<event>
 7    1  0.1360399E-013  0.7246158E+02  0.7816164E-02  0.1226708E+00
        -11   -1    0    0    0    0  0.00000000000E+00  0.00000000000E+00  0.45593999997E+02  0.45594000000E+02  0.51100000000E-03 0.  1.
         11   -1    0    0    0    0 -0.00000000000E+00 -0.00000000000E+00 -0.45593999997E+02  0.45594000000E+02  0.51100000000E-03 0. -1.
    9900012    2    1    2    0    0 -0.96748645798E+01 -0.13253073886E+02 -0.90239680358E+01  0.72461575590E+02  0.70000006899E+02 0.  0.
         12    1    1    2    0    0  0.96748645798E+01  0.13253073886E+02  0.90239680358E+01  0.18726424410E+02  0.00000000000E+00 0. -1.
         11    1    3    3    0    0 -0.11260847479E+02 -0.32317821368E+02 -0.92120387396E+01  0.35441641072E+02  0.51100000000E-03 0. -1.
        -11    1    3    3    0    0 -0.11745367149E+02  0.13595178594E+01  0.71152096371E+01  0.13799570527E+02  0.51100000000E-03 0.  1.
         12    1    3    3    0    0  0.13331350048E+02  0.17705229622E+02 -0.69271389333E+01  0.23220363991E+02  0.00000000000E+00 0. -1.
</event>
<event>
 7    1  0.1360399E-013  0.7246157E+02  0.7816164E-02  0.1226708E+00
        -11   -1    0    0    0    0  0.00000000000E+00  0.00000000000E+00  0.45593999997E+02  0.45594000000E+02  0.51100000000E-03 0. -1.
         11   -1    0    0    0    0 -0.00000000000E+00 -0.00000000000E+00 -0.45593999997E+02  0.45594000000E+02  0.51100000000E-03 0.  1.
    9900012    2    1    2    0    0 -0.13692791100E+02  0.64954636638E+01 -0.10999792254E+02  0.72461574662E+02  0.70000005689E+02 0.  0.
         12    1    1    2    0    0  0.13692791100E+02 -0.64954636638E+01  0.10999792254E+02  0.18726425338E+02  0.00000000000E+00 0. -1.
         11    1    3    3    0    0  0.15378034348E+02 -0.16142046124E+00  0.28764194543E+01  0.15645567619E+02  0.51100000000E-03 0. -1.
        -11    1    3    3    0    0 -0.32259315650E+02 -0.10274010041E+01  0.81349262069E+01  0.33285072084E+02  0.51100000000E-03 0.  1.
         12    1    3    3    0    0  0.31884902015E+01  0.76842851292E+01 -0.22011137915E+02  0.23530934959E+02  0.00000000000E+00 0. -1.
</event>
<event>
 7    1  0.1360399E-013  0.7246098E+02  0.7816164E-02  0.1226710E+00
        -11   -1    0    0    0    0  0.00000000000E+00  0.00000000000E+00  0.45593999997E+02  0.45594000000E+02  0.51100000000E-03 0. -1.
         11   -1    0    0    0    0 -0.00000000000E+00 -0.00000000000E+00 -0.45593999997E+02  0.45594000000E+02  0.51100000000E-03 0.  1.
    9900012    2    1    2    0    0 -0.10689745179E+02  0.13444275221E+02 -0.74620492083E+01  0.72460977636E+02  0.69999227949E+02 0.  0.
         12    1    1    2    0    0  0.10689745179E+02 -0.13444275221E+02  0.74620492083E+01  0.18727022364E+02  0.00000000000E+00 0. -1.
         11    1    3    3    0    0 -0.26181260961E+02  0.21608297165E+02  0.14803732688E+02  0.37034138759E+02  0.51100000000E-03 0. -1.
        -11    1    3    3    0    0  0.24683832162E+01 -0.74191707415E+00 -0.20119953416E+02  0.20284375326E+02  0.51100000000E-03 0.  1.
         12    1    3    3    0    0  0.13023132566E+02 -0.74221048695E+01 -0.21458284800E+01  0.15142463551E+02  0.00000000000E+00 0. -1.
</event>
<event>
 7    1  0.1360399E-013  0.7246153E+02  0.7816164E-02  0.1226708E+00
        -11   -1    0    0    0    0  0.00000000000E+00  0.00000000000E+00  0.45593999997E+02  0.45594000000E+02  0.51100000000E-03 0. -1.
         11   -1    0    0    0    0 -0.00000000000E+00 -0.00000000000E+00 -0.45593999997E+02  0.45594000000E+02  0.51100000000E-03 0.  1.
    9900012    2    1    2    0    0 -0.44370297691E+01 -0.89223968170E+01 -0.15855102944E+02  0.72461529764E+02  0.69999947201E+02 0.  0.
         12    1    1    2    0    0  0.44370297691E+01  0.89223968170E+01  0.15855102944E+02  0.18726470236E+02  0.00000000000E+00 0. -1.
         11    1    3    3    0    0  0.20026756943E+02 -0.12400066614E+02  0.11915278812E+02  0.26397092929E+02  0.51100000000E-03 0. -1.
        -11    1    3    3    0    0 -0.28501611342E+02 -0.19618449894E+01 -0.16717905635E+02  0.33101043094E+02  0.51100000000E-03 0.  1.
         12    1    3    3    0    0  0.40378246299E+01  0.54395147863E+01 -0.11052476122E+02  0.12963393741E+02  0.00000000000E+00 0. -1.
</event>
<event>
 7    1  0.1360399E-013  0.7246156E+02  0.7816164E-02  0.1226708E+00
        -11   -1    0    0    0    0  0.00000000000E+00  0.00000000000E+00  0.45593999997E+02  0.45594000000E+02  0.51100000000E-03 0.  1.
         11   -1    0    0    0    0 -0.00000000000E+00 -0.00000000000E+00 -0.45593999997E+02  0.45594000000E+02  0.51100000000E-03 0. -1.
    9900012    2    1    2    0    0 -0.10013600846E+02 -0.13418029009E+02  0.83883145977E+01  0.72461560772E+02  0.69999987595E+02 0.  0.
         12    1    1    2    0    0  0.10013600846E+02  0.13418029009E+02 -0.83883145977E+01  0.18726439228E+02  0.00000000000E+00 0. -1.
         11    1    3    3    0    0 -0.29996096647E+01  0.34644530676E+01 -0.62779504959E+01  0.77725643058E+01  0.51100000000E-03 0. -1.
        -11    1    3    3    0    0  0.13053068588E+02 -0.34119542993E+02  0.77104780536E+01  0.37336005219E+02  0.51100000000E-03 0.  1.
        -12    1    3    3    0    0 -0.20067059769E+02  0.17237060917E+02  0.69557870401E+01  0.27352991247E+02  0.00000000000E+00 0.  1.
</event>
<event>
 7    1  0.1360399E-013  0.7246158E+02  0.7816164E-02  0.1226708E+00
        -11   -1    0    0    0    0  0.00000000000E+00  0.00000000000E+00  0.45593999997E+02  0.45594000000E+02  0.51100000000E-03 0.  1.
         11   -1    0    0    0    0 -0.00000000000E+00 -0.00000000000E+00 -0.45593999997E+02  0.45594000000E+02  0.51100000000E-03 0. -1.
    9900012    2    1    2    0    0  0.84964730164E+01  0.16683047011E+02  0.40591751829E+00  0.72461578016E+02  0.70000010059E+02 0.  0.
         12    1    1    2    0    0 -0.84964730164E+01 -0.16683047011E+02 -0.40591751829E+00  0.18726421984E+02  0.00000000000E+00 0. -1.
         11    1    3    3    0    0 -0.46589420182E+01  0.12595259638E+02 -0.13827704679E+02  0.19275676980E+02  0.51100000000E-03 0. -1.
        -11    1    3    3    0    0  0.29578357350E+02 -0.22827608316E+01 -0.13073097245E+01  0.29695105313E+02  0.51100000000E-03 0.  1.
        -12    1    3    3    0    0 -0.16422942316E+02  0.63705482037E+01  0.15540931922E+02  0.23490795724E+02  0.00000000000E+00 0.  1.
</event>
<event>
 7    1  0.1360399E-013  0.7246155E+02  0.7816164E-02  0.1226708E+00
        -11   -1    0    0    0    0  0.00000000000E+00  0.00000000000E+00  0.45593999997E+02  0.45594000000E+02  0.51100000000E-03 0.  1.
         11   -1    0    0    0    0 -0.00000000000E+00 -0.00000000000E+00 -0.45593999997E+02  0.45594000000E+02  0.51100000000E-03 0. -1.
    9900012    2    1    2    0    0  0.93893144382E+00  0.25300058088E+01  0.18530986626E+02  0.72461548468E+02  0.69999971568E+02 0.  0.
         12    1    1    2    0    0 -0.93893144382E+00 -0.25300058088E+01 -0.18530986626E+02  0.18726451532E+02  0.00000000000E+00 0. -1.
         11    1    3    3    0    0  0.19056199465E+02  0.75361323344E+01  0.15725047507E+02  0.25830391944E+02  0.51100000000E-03 0. -1.
        -11    1    3    3    0    0 -0.87505298302E+01 -0.23020637452E+02 -0.45330437830E+01  0.25041365921E+02  0.51100000000E-03 0.  1.
         12    1    3    3    0    0 -0.93667381912E+01  0.18014510926E+02  0.73389829015E+01  0.21589790603E+02  0.00000000000E+00 0. -1.
</event>
<event>
 7    1  0.1360399E-013  0.7246157E+02  0.7816164E-02  0.1226708E+00
        -11   -1    0    0    0    0  0.00000000000E+00  0.00000000000E+00  0.45593999997E+02  0.45594000000E+02  0.51100000000E-03 0. -1.
         11   -1    0    0    0    0 -0.00000000000E+00 -0.00000000000E+00 -0.45593999997E+02  0.45594000000E+02  0.51100000000E-03 0.  1.
    9900012    2    1    2    0    0 -0.80572801823E+01  0.16479015540E+02 -0.37684625999E+01  0.72461574087E+02  0.70000004941E+02 0.  0.
         12    1    1    2    0    0  0.80572801823E+01 -0.16479015540E+02  0.37684625999E+01  0.18726425913E+02  0.00000000000E+00 0. -1.
         11    1    3    3    0    0 -0.35563222241E+01 -0.86204185068E+00  0.72956450020E+01  0.81619225780E+01  0.51100000000E-03 0. -1.
        -11    1    3    3    0    0  0.12872477057E+02  0.25827644499E+02  0.14460719984E+02  0.32278170777E+02  0.51100000000E-03 0.  1.
        -12    1    3    3    0    0 -0.17373435015E+02 -0.84865871087E+01 -0.25524827586E+02  0.32021480732E+02  0.00000000000E+00 0.  1.
</event>
<event>
 7    1  0.1360399E-013  0.7246164E+02  0.7816164E-02  0.1226708E+00
        -11   -1    0    0    0    0  0.00000000000E+00  0.00000000000E+00  0.45593999997E+02  0.45594000000E+02  0.51100000000E-03 0.  1.
         11   -1    0    0    0    0 -0.00000000000E+00 -0.00000000000E+00 -0.45593999997E+02  0.45594000000E+02  0.51100000000E-03 0. -1.
    9900012    2    1    2    0    0 -0.29711738200E+01 -0.18427023852E+02 -0.15144134488E+01  0.72461640770E+02  0.70000091808E+02 0.  0.
         12    1    1    2    0    0  0.29711738200E+01  0.18427023852E+02  0.15144134488E+01  0.18726359230E+02  0.00000000000E+00 0. -1.
         11    1    3    3    0    0 -0.11582280800E+02  0.13060986108E+01 -0.18941824857E+02  0.22240680100E+02  0.51100000000E-03 0. -1.
        -11    1    3    3    0    0 -0.38229177946E+01 -0.29491987321E+02  0.17319019931E+02  0.34414248041E+02  0.51100000000E-03 0.  1.
        -12    1    3    3    0    0  0.12434024775E+02  0.97588648582E+01  0.10839147686E+00  0.15806712629E+02  0.00000000000E+00 0.  1.
</event>
<event>
 7    1  0.1360399E-013  0.7246157E+02  0.7816164E-02  0.1226708E+00
        -11   -1    0    0    0    0  0.00000000000E+00  0.00000000000E+00  0.45593999997E+02  0.45594000000E+02  0.51100000000E-03 0.  1.
         11   -1    0    0    0    0 -0.00000000000E+00 -0.00000000000E+00 -0.45593999997E+02  0.45594000000E+02  0.51100000000E-03 0. -1.
    9900012    2    1    2    0    0 -0.89705868492E+01  0.70180732566E+01  0.14864536173E+02  0.72461569046E+02  0.69999998373E+02 0.  0.
         12    1    1    2    0    0  0.89705868492E+01 -0.70180732566E+01 -0.14864536173E+02  0.18726430954E+02  0.00000000000E+00 0. -1.
         11    1    3    3    0    0  0.21841369183E+02 -0.18221019811E+02  0.99618963940E+01  0.30137855776E+02  0.51100000000E-03 0.  1.
        -11    1    3    3    0    0 -0.18395105549E+02  0.22465043821E+02  0.56450197512E+01  0.29579120175E+02  0.51100000000E-03 0. -1.
         12    1    3    3    0    0 -0.12416850483E+02  0.27740492462E+01 -0.74237997227E+00  0.12744593095E+02  0.00000000000E+00 0. -1.
</event>
<event>
 7    1  0.1360399E-013  0.7246155E+02  0.7816164E-02  0.1226708E+00
        -11   -1    0    0    0    0  0.00000000000E+00  0.00000000000E+00  0.45593999997E+02  0.45594000000E+02  0.51100000000E-03 0. -1.
         11   -1    0    0    0    0 -0.00000000000E+00 -0.00000000000E+00 -0.45593999997E+02  0.45594000000E+02  0.51100000000E-03 0.  1.
    9900012    2    1    2    0    0 -0.12897818880E+02 -0.12174508333E+02 -0.60089541843E+01  0.72461550380E+02  0.69999974057E+02 0.  0.
         12    1    1    2    0    0  0.12897818880E+02  0.12174508333E+02  0.60089541843E+01  0.18726449620E+02  0.00000000000E+00 0. -1.
         11    1    3    3    0    0  0.26507451617E+01 -0.27050976487E+02 -0.66366910925E+01  0.27979053732E+02  0.51100000000E-03 0.  1.
        -11    1    3    3    0    0 -0.20956293962E+02  0.24318358434E+02 -0.45666772417E+01  0.32425350496E+02  0.51100000000E-03 0. -1.
         12    1    3    3    0    0  0.54077299209E+01 -0.94418902794E+01  0.51944141499E+01  0.12057146151E+02  0.00000000000E+00 0. -1.
</event>
<event>
 7    1  0.1360399E-013  0.7246164E+02  0.7816164E-02  0.1226708E+00
        -11   -1    0    0    0    0  0.00000000000E+00  0.00000000000E+00  0.45593999997E+02  0.45594000000E+02  0.51100000000E-03 0. -1.
         11   -1    0    0    0    0 -0.00000000000E+00 -0.00000000000E+00 -0.45593999997E+02  0.45594000000E+02  0.51100000000E-03 0.  1.
    9900012    2    1    2    0    0  0.42160258706E+01  0.17232279586E+02 -0.59958450144E+01  0.72461641803E+02  0.70000093153E+02 0.  0.
         12    1    1    2    0    0 -0.42160258706E+01 -0.17232279586E+02  0.59958450144E+01  0.18726358197E+02  0.00000000000E+00 0. -1.
         11    1    3    3    0    0  0.68796758303E+01  0.11151960535E+01 -0.48366674009E+01  0.84833338715E+01  0.51100000000E-03 0. -1.
        -11    1    3    3    0    0  0.92309120514E+01  0.33801760233E+02  0.14096015606E+02  0.37768589971E+02  0.51100000000E-03 0.  1.
        -12    1    3    3    0    0 -0.11894562011E+02 -0.17684676700E+02 -0.15255193219E+02  0.26209717961E+02  0.00000000000E+00 0.  1.
</event>
<event>
 7    1  0.1360399E-013  0.7246155E+02  0.7816164E-02  0.1226708E+00
        -11   -1    0    0    0    0  0.00000000000E+00  0.00000000000E+00  0.45593999997E+02  0.45594000000E+02  0.51100000000E-03 0. -1.
         11   -1    0    0    0    0 -0.00000000000E+00 -0.00000000000E+00 -0.45593999997E+02  0.45594000000E+02  0.51100000000E-03 0.  1.
    9900012    2    1    2    0    0  0.42836185550E+00 -0.12374384096E+02 -0.14048884570E+02  0.72461547231E+02  0.69999969956E+02 0.  0.
         12    1    1    2    0    0 -0.42836185550E+00  0.12374384096E+02  0.14048884570E+02  0.18726452769E+02  0.00000000000E+00 0. -1.
         11    1    3    3    0    0  0.38633875171E+01  0.86809450233E+00 -0.41458673925E+02  0.41647340792E+02  0.51100000000E-03 0.  1.
        -11    1    3    3    0    0 -0.38156966657E+01 -0.11766558115E+02  0.22536060618E+02  0.25707692611E+02  0.51100000000E-03 0. -1.
        -12    1    3    3    0    0  0.38067100408E+00 -0.14759204841E+01  0.48737287365E+01  0.51065138290E+01  0.00000000000E+00 0.  1.
</event>
<event>
 7    1  0.1360399E-013  0.7246159E+02  0.7816164E-02  0.1226708E+00
        -11   -1    0    0    0    0  0.00000000000E+00  0.00000000000E+00  0.45593999997E+02  0.45594000000E+02  0.51100000000E-03 0.  1.
         11   -1    0    0    0    0 -0.00000000000E+00 -0.00000000000E+00 -0.45593999997E+02  0.45594000000E+02  0.51100000000E-03 0. -1.
    9900012    2    1    2    0    0 -0.18702620199E+02 -0.55074181897E+00 -0.76634375582E+00  0.72461585457E+02  0.70000019753E+02 0.  0.
         12    1    1    2    0    0  0.18702620199E+02  0.55074181897E+00  0.76634375582E+00  0.18726414543E+02  0.00000000000E+00 0. -1.
         11    1    3    3    0    0  0.80706894079E+01  0.19053319330E+02 -0.66016128165E+01  0.21719721386E+02  0.51100000000E-03 0. -1.
        -11    1    3    3    0    0 -0.13477276705E+02 -0.18339584419E+02  0.20695461653E+02  0.30761655959E+02  0.51100000000E-03 0.  1.
         12    1    3    3    0    0 -0.13296032902E+02 -0.12644767304E+01 -0.14860192593E+02  0.19980208113E+02  0.00000000000E+00 0. -1.
</event>
<event>
 7    1  0.1360399E-013  0.7246161E+02  0.7816164E-02  0.1226708E+00
        -11   -1    0    0    0    0  0.00000000000E+00  0.00000000000E+00  0.45593999997E+02  0.45594000000E+02  0.51100000000E-03 0. -1.
         11   -1    0    0    0    0 -0.00000000000E+00 -0.00000000000E+00 -0.45593999997E+02  0.45594000000E+02  0.51100000000E-03 0.  1.
    9900012    2    1    2    0    0 -0.71080564855E+01 -0.58708489297E+01 -0.16299892880E+02  0.72461605738E+02  0.70000046172E+02 0.  0.
         12    1    1    2    0    0  0.71080564855E+01  0.58708489297E+01  0.16299892880E+02  0.18726394262E+02  0.00000000000E+00 0. -1.
         11    1    3    3    0    0  0.16688885900E+02 -0.71070309682E+01 -0.16816284792E+02  0.24734919370E+02  0.51100000000E-03 0. -1.
        -11    1    3    3    0    0 -0.13324507153E+02 -0.15441730137E+02  0.13207125139E+02  0.24298511790E+02  0.51100000000E-03 0.  1.
        -12    1    3    3    0    0 -0.10472435233E+02  0.16677912175E+02 -0.12690733227E+02  0.23428174579E+02  0.00000000000E+00 0.  1.
</event>
<event>
 7    1  0.1360399E-013  0.7246135E+02  0.7816164E-02  0.1226709E+00
        -11   -1    0    0    0    0  0.00000000000E+00  0.00000000000E+00  0.45593999997E+02  0.45594000000E+02  0.51100000000E-03 0.  1.
         11   -1    0    0    0    0 -0.00000000000E+00 -0.00000000000E+00 -0.45593999997E+02  0.45594000000E+02  0.51100000000E-03 0. -1.
    9900012    2    1    2    0    0 -0.15098298073E+01  0.14242651882E+02  0.12064603121E+02  0.72461351417E+02  0.69999714871E+02 0.  0.
         12    1    1    2    0    0  0.15098298073E+01 -0.14242651882E+02 -0.12064603121E+02  0.18726648583E+02  0.00000000000E+00 0. -1.
         11    1    3    3    0    0  0.15670470848E+02  0.19146110958E+02  0.94177153221E+01  0.26473205011E+02  0.51100000000E-03 0. -1.
        -11    1    3    3    0    0  0.30749129444E+01 -0.20076888170E+02 -0.13965195173E+01  0.20358948775E+02  0.51100000000E-03 0.  1.
        -12    1    3    3    0    0 -0.20255213599E+02  0.15173429095E+02  0.40434073163E+01  0.25629197631E+02  0.00000000000E+00 0.  1.
</event>
<event>
 7    1  0.1360399E-013  0.7246155E+02  0.7816164E-02  0.1226708E+00
        -11   -1    0    0    0    0  0.00000000000E+00  0.00000000000E+00  0.45593999997E+02  0.45594000000E+02  0.51100000000E-03 0.  1.
         11   -1    0    0    0    0 -0.00000000000E+00 -0.00000000000E+00 -0.45593999997E+02  0.45594000000E+02  0.51100000000E-03 0. -1.
    9900012    2    1    2    0    0 -0.53142589959E+01  0.67116639608E+01  0.16655090919E+02  0.72461552517E+02  0.69999976842E+02 0.  0.
         12    1    1    2    0    0  0.53142589959E+01 -0.67116639608E+01 -0.16655090919E+02  0.18726447483E+02  0.00000000000E+00 0. -1.
         11    1    3    3    0    0 -0.20239832595E+02 -0.85181263964E+01 -0.16459594618E+02  0.27443169570E+02  0.51100000000E-03 0. -1.
        -11    1    3    3    0    0  0.11234961914E+02  0.20393012705E+02  0.21058001179E+02  0.31393291486E+02  0.51100000000E-03 0.  1.
        -12    1    3    3    0    0  0.36906116853E+01 -0.51632223479E+01  0.12056684358E+02  0.13625091462E+02  0.00000000000E+00 0.  1.
</event>
<event>
 7    1  0.1360399E-013  0.7246152E+02  0.7816164E-02  0.1226708E+00
        -11   -1    0    0    0    0  0.00000000000E+00  0.00000000000E+00  0.45593999997E+02  0.45594000000E+02  0.51100000000E-03 0. -1.
         11   -1    0    0    0    0 -0.00000000000E+00 -0.00000000000E+00 -0.45593999997E+02  0.45594000000E+02  0.51100000000E-03 0.  1.
    9900012    2    1    2    0    0 -0.14310274170E+02  0.57451581516E+01 -0.10624987766E+02  0.72461517308E+02  0.69999930975E+02 0.  0.
         12    1    1    2    0    0  0.14310274170E+02 -0.57451581516E+01  0.10624987766E+02  0.18726482692E+02  0.00000000000E+00 0. -1.
         11    1    3    3    0    0 -0.19578431720E+02 -0.57322807246E-01  0.11410668768E+02  0.22661015787E+02  0.51100000000E-03 0. -1.
        -11    1    3    3    0    0 -0.12244477380E+02  0.13047262758E+02 -0.24869894749E+02  0.30637721144E+02  0.51100000000E-03 0.  1.
         12    1    3    3    0    0  0.17512634930E+02 -0.72447817996E+01  0.28342382143E+01  0.19162780377E+02  0.00000000000E+00 0. -1.
</event>
<event>
 7    1  0.1360399E-013  0.7246161E+02  0.7816164E-02  0.1226708E+00
        -11   -1    0    0    0    0  0.00000000000E+00  0.00000000000E+00  0.45593999997E+02  0.45594000000E+02  0.51100000000E-03 0.  1.
         11   -1    0    0    0    0 -0.00000000000E+00 -0.00000000000E+00 -0.45593999997E+02  0.45594000000E+02  0.51100000000E-03 0. -1.
    9900012    2    1    2    0    0  0.13066832432E+02 -0.46455861736E+01  0.12583876594E+02  0.72461614048E+02  0.70000056997E+02 0.  0.
         12    1    1    2    0    0 -0.13066832432E+02  0.46455861736E+01 -0.12583876594E+02  0.18726385952E+02  0.00000000000E+00 0. -1.
         11    1    3    3    0    0  0.38227532550E+01  0.22304704476E+02  0.11045519899E+02  0.25181675764E+02  0.51100000000E-03 0. -1.
        -11    1    3    3    0    0  0.18106540190E+02 -0.30307955362E+02 -0.51527884259E+01  0.35678707722E+02  0.51100000000E-03 0.  1.
        -12    1    3    3    0    0 -0.88624610126E+01  0.33576647131E+01  0.66911451208E+01  0.11601230562E+02  0.00000000000E+00 0.  1.
</event>
<event>
 7    1  0.1360399E-013  0.7246157E+02  0.7816164E-02  0.1226708E+00
        -11   -1    0    0    0    0  0.00000000000E+00  0.00000000000E+00  0.45593999997E+02  0.45594000000E+02  0.51100000000E-03 0. -1.
         11   -1    0    0    0    0 -0.00000000000E+00 -0.00000000000E+00 -0.45593999997E+02  0.45594000000E+02  0.51100000000E-03 0.  1.
    9900012    2    1    2    0    0 -0.81755271005E+01 -0.12464286113E+01 -0.16801381646E+02  0.72461568069E+02  0.69999997101E+02 0.  0.
         12    1    1    2    0    0  0.81755271005E+01  0.12464286113E+01  0.16801381646E+02  0.18726431931E+02  0.00000000000E+00 0. -1.
         11    1    3    3    0    0 -0.26042677714E+02  0.34469442809E+01  0.12149044371E+00  0.26270082748E+02  0.51100000000E-03 0. -1.
        -11    1    3    3    0    0  0.72757987647E+01 -0.21450797091E+02 -0.54897294448E+01  0.23306888963E+02  0.51100000000E-03 0.  1.
        -12    1    3    3    0    0  0.10591351849E+02  0.16757424199E+02 -0.11433142645E+02  0.22884596358E+02  0.00000000000E+00 0.  1.
</event>
<event>
 7    1  0.1360399E-013  0.7246158E+02  0.7816164E-02  0.1226708E+00
        -11   -1    0    0    0    0  0.00000000000E+00  0.00000000000E+00  0.45593999997E+02  0.45594000000E+02  0.51100000000E-03 0.  1.
         11   -1    0    0    0    0 -0.00000000000E+00 -0.00000000000E+00 -0.45593999997E+02  0.45594000000E+02  0.51100000000E-03 0. -1.
    9900012    2    1    2    0    0 -0.18609985594E+02 -0.14528894101E+01  0.14954658660E+01  0.72461578302E+02  0.70000010432E+02 0.  0.
         12    1    1    2    0    0  0.18609985594E+02  0.14528894101E+01 -0.14954658660E+01  0.18726421698E+02  0.00000000000E+00 0. -1.
         11    1    3    3    0    0 -0.40750828256E+01 -0.16738521765E+02 -0.15790946852E+02  0.23369604483E+02  0.51100000000E-03 0. -1.
        -11    1    3    3    0    0  0.23835808099E+01  0.20887044962E+02 -0.39267656682E+01  0.21386201009E+02  0.51100000000E-03 0.  1.
         12    1    3    3    0    0 -0.16918483578E+02 -0.56014126068E+01  0.21213178387E+02  0.27705772811E+02  0.00000000000E+00 0. -1.
</event>
<event>
 7    1  0.1360399E-013  0.7246159E+02  0.7816164E-02  0.1226708E+00
        -11   -1    0    0    0    0  0.00000000000E+00  0.00000000000E+00  0.45593999997E+02  0.45594000000E+02  0.51100000000E-03 0. -1.
         11   -1    0    0    0    0 -0.00000000000E+00 -0.00000000000E+00 -0.45593999997E+02  0.45594000000E+02  0.51100000000E-03 0.  1.
    9900012    2    1    2    0    0  0.18302694549E+02  0.18979271572E+01 -0.34767315440E+01  0.72461590374E+02  0.70000026157E+02 0.  0.
         12    1    1    2    0    0 -0.18302694549E+02 -0.18979271572E+01  0.34767315440E+01  0.18726409626E+02  0.00000000000E+00 0. -1.
         11    1    3    3    0    0  0.11519448918E+01  0.10778555745E+02  0.53817084526E+01  0.12102356263E+02  0.51100000000E-03 0. -1.
        -11    1    3    3    0    0  0.34221719365E+02 -0.17222726246E+02 -0.13810262032E+02  0.40724338095E+02  0.51100000000E-03 0.  1.
        -12    1    3    3    0    0 -0.17070969707E+02  0.83420976588E+01  0.49518220352E+01  0.19634896016E+02  0.00000000000E+00 0.  1.
</event>
<event>
 7    1  0.1360399E-013  0.7246156E+02  0.7816164E-02  0.1226708E+00
        -11   -1    0    0    0    0  0.00000000000E+00  0.00000000000E+00  0.45593999997E+02  0.45594000000E+02  0.51100000000E-03 0.  1.
         11   -1    0    0    0    0 -0.00000000000E+00 -0.00000000000E+00 -0.45593999997E+02  0.45594000000E+02  0.51100000000E-03 0. -1.
    9900012    2    1    2    0    0 -0.88369076129E+01 -0.68575716731E+01  0.15018727109E+02  0.72461564424E+02  0.69999992353E+02 0.  0.
         12    1    1    2    0    0  0.88369076129E+01  0.68575716731E+01 -0.15018727109E+02  0.18726435576E+02  0.00000000000E+00 0. -1.
         11    1    3    3    0    0 -0.35800247271E+01 -0.65410646405E+01 -0.68116731770E+01  0.10099554218E+02  0.51100000000E-03 0. -1.
        -11    1    3    3    0    0 -0.26722965932E+01 -0.10489664236E+02  0.39967067559E+02  0.41407012865E+02  0.51100000000E-03 0.  1.
        -12    1    3    3    0    0 -0.25845862925E+01  0.10173157203E+02 -0.18136667273E+02  0.20954997341E+02  0.00000000000E+00 0.  1.
</event>
<event>
 7    1  0.1360399E-013  0.7246165E+02  0.7816164E-02  0.1226708E+00
        -11   -1    0    0    0    0  0.00000000000E+00  0.00000000000E+00  0.45593999997E+02  0.45594000000E+02  0.51100000000E-03 0.  1.
         11   -1    0    0    0    0 -0.00000000000E+00 -0.00000000000E+00 -0.45593999997E+02  0.45594000000E+02  0.51100000000E-03 0. -1.
    9900012    2    1    2    0    0 -0.12051545191E+01 -0.33730874262E+01  0.18380591302E+02  0.72461648172E+02  0.70000101450E+02 0.  0.
         12    1    1    2    0    0  0.12051545191E+01  0.33730874262E+01 -0.18380591302E+02  0.18726351828E+02  0.00000000000E+00 0. -1.
         11    1    3    3    0    0 -0.17637847486E+02 -0.25188820455E+02  0.18320380994E+02  0.35793947810E+02  0.51100000000E-03 0. -1.
        -11    1    3    3    0    0  0.27481149968E+01  0.22377076624E+02 -0.26680749751E+01  0.22702517891E+02  0.51100000000E-03 0.  1.
        -12    1    3    3    0    0  0.13684577970E+02 -0.56134359485E+00  0.27282852830E+01  0.13965182470E+02  0.00000000000E+00 0.  1.
</event>
<event>
 7    1  0.1360399E-013  0.7246136E+02  0.7816164E-02  0.1226709E+00
        -11   -1    0    0    0    0  0.00000000000E+00  0.00000000000E+00  0.45593999997E+02  0.45594000000E+02  0.51100000000E-03 0. -1.
         11   -1    0    0    0    0 -0.00000000000E+00 -0.00000000000E+00 -0.45593999997E+02  0.45594000000E+02  0.51100000000E-03 0.  1.
    9900012    2    1    2    0    0 -0.15901048081E+02  0.61118607511E+01 -0.77774560032E+01  0.72461361386E+02  0.69999727857E+02 0.  0.
         12    1    1    2    0    0  0.15901048081E+02 -0.61118607511E+01  0.77774560032E+01  0.18726638614E+02  0.00000000000E+00 0. -1.
         11    1    3    3    0    0  0.19046658272E+01  0.39917413406E+01  0.14473009038E+02  0.15133728613E+02  0.51100000000E-03 0. -1.
        -11    1    3    3    0    0 -0.34618490805E+02 -0.35852708541E+01 -0.17462829331E+02  0.38938984080E+02  0.51100000000E-03 0.  1.
        -12    1    3    3    0    0  0.16812776897E+02  0.57053902646E+01 -0.47876357108E+01  0.18388648693E+02  0.00000000000E+00 0.  1.
</event>
<event>
 7    1  0.1360399E-013  0.7246156E+02  0.7816164E-02  0.1226708E+00
        -11   -1    0    0    0    0  0.00000000000E+00  0.00000000000E+00  0.45593999997E+02  0.45594000000E+02  0.51100000000E-03 0.  1.
         11   -1    0    0    0    0 -0.00000000000E+00 -0.00000000000E+00 -0.45593999997E+02  0.45594000000E+02  0.51100000000E-03 0. -1.
    9900012    2    1    2    0    0  0.12281320566E+02  0.29248621297E+01  0.13830903340E+02  0.72461560389E+02  0.69999987096E+02 0.  0.
         12    1    1    2    0    0 -0.12281320566E+02 -0.29248621297E+01 -0.13830903340E+02  0.18726439611E+02  0.00000000000E+00 0. -1.
         11    1    3    3    0    0  0.17388701620E+02  0.56978617619E+01  0.34033233035E+01  0.18612232065E+02  0.51100000000E-03 0. -1.
        -11    1    3    3    0    0 -0.22742733769E+02 -0.64010499438E+01  0.22133094572E+02  0.32374052191E+02  0.51100000000E-03 0.  1.
        -12    1    3    3    0    0  0.17635352715E+02  0.36280503116E+01 -0.11705514536E+02  0.21475276133E+02  0.00000000000E+00 0.  1.
</event>
<event>
 7    1  0.1360399E-013  0.7246159E+02  0.7816164E-02  0.1226708E+00
        -11   -1    0    0    0    0  0.00000000000E+00  0.00000000000E+00  0.45593999997E+02  0.45594000000E+02  0.51100000000E-03 0. -1.
         11   -1    0    0    0    0 -0.00000000000E+00 -0.00000000000E+00 -0.45593999997E+02  0.45594000000E+02  0.51100000000E-03 0.  1.
    9900012    2    1    2    0    0 -0.53389539349E+01  0.14225645451E+02 -0.10945548082E+02  0.72461589761E+02  0.70000025359E+02 0.  0.
         12    1    1    2    0    0  0.53389539349E+01 -0.14225645451E+02  0.10945548082E+02  0.18726410239E+02  0.00000000000E+00 0. -1.
         11    1    3    3    0    0  0.20207829853E+02 -0.15395899962E+02 -0.80038595239E+01  0.26635538112E+02  0.51100000000E-03 0. -1.
        -11    1    3    3    0    0 -0.15681048355E+02  0.49804709233E+01 -0.87796181348E+01  0.18648915866E+02  0.51100000000E-03 0.  1.
         12    1    3    3    0    0 -0.98657354328E+01  0.24641074490E+02  0.58379295764E+01  0.27177135783E+02  0.00000000000E+00 0. -1.
</event>
<event>
 7    1  0.1360399E-013  0.7246112E+02  0.7816164E-02  0.1226709E+00
        -11   -1    0    0    0    0  0.00000000000E+00  0.00000000000E+00  0.45593999997E+02  0.45594000000E+02  0.51100000000E-03 0.  1.
         11   -1    0    0    0    0 -0.00000000000E+00 -0.00000000000E+00 -0.45593999997E+02  0.45594000000E+02  0.51100000000E-03 0. -1.
    9900012    2    1    2    0    0 -0.54599710563E+01  0.11851991584E+02  0.13431869947E+02  0.72461117753E+02  0.69999410478E+02 0.  0.
         12    1    1    2    0    0  0.54599710563E+01 -0.11851991584E+02 -0.13431869947E+02  0.18726882247E+02  0.00000000000E+00 0. -1.
         11    1    3    3    0    0  0.18887669700E+02 -0.67142919802E+01 -0.18826973254E+02  0.27500558279E+02  0.51100000000E-03 0. -1.
        -11    1    3    3    0    0 -0.49149519367E+01  0.71499327036E+01  0.10653086361E+02  0.13739233585E+02  0.51100000000E-03 0.  1.
         12    1    3    3    0    0 -0.19432688819E+02  0.11416350860E+02  0.21605756839E+02  0.31221325890E+02  0.00000000000E+00 0. -1.
</event>
<event>
 7    1  0.1360399E-013  0.7246111E+02  0.7816164E-02  0.1226709E+00
        -11   -1    0    0    0    0  0.00000000000E+00  0.00000000000E+00  0.45593999997E+02  0.45594000000E+02  0.51100000000E-03 0.  1.
         11   -1    0    0    0    0 -0.00000000000E+00 -0.00000000000E+00 -0.45593999997E+02  0.45594000000E+02  0.51100000000E-03 0. -1.
    9900012    2    1    2    0    0 -0.94442377385E+01 -0.82487372710E+00  0.16149998179E+02  0.72461107991E+02  0.69999397762E+02 0.  0.
         12    1    1    2    0    0  0.94442377385E+01  0.82487372710E+00 -0.16149998179E+02  0.18726892009E+02  0.00000000000E+00 0. -1.
         11    1    3    3    0    0 -0.64571234101E+01 -0.23952388775E+02  0.65903025344E+01  0.25667946129E+02  0.51100000000E-03 0.  1.
        -11    1    3    3    0    0 -0.10758720981E+02  0.18919007169E+02 -0.11020673618E+02  0.24395371624E+02  0.51100000000E-03 0. -1.
         12    1    3    3    0    0  0.77716066530E+01  0.42085078782E+01  0.20580369263E+02  0.22397790238E+02  0.00000000000E+00 0. -1.
</event>
<event>
 7    1  0.1360399E-013  0.7246164E+02  0.7816164E-02  0.1226708E+00
        -11   -1    0    0    0    0  0.00000000000E+00  0.00000000000E+00  0.45593999997E+02  0.45594000000E+02  0.51100000000E-03 0. -1.
         11   -1    0    0    0    0 -0.00000000000E+00 -0.00000000000E+00 -0.45593999997E+02  0.45594000000E+02  0.51100000000E-03 0.  1.
    9900012    2    1    2    0    0 -0.18480649683E+02  0.79641454414E+00  0.29168062239E+01  0.72461642977E+02  0.70000094682E+02 0.  0.
         12    1    1    2    0    0  0.18480649683E+02 -0.79641454414E+00 -0.29168062239E+01  0.18726357023E+02  0.00000000000E+00 0. -1.
         11    1    3    3    0    0  0.11258437233E+02  0.10026420784E+01  0.10977954700E+02  0.15756687143E+02  0.51100000000E-03 0. -1.
        -11    1    3    3    0    0 -0.14659712945E+02 -0.14380320812E+01 -0.28022313786E+02  0.31657940396E+02  0.51100000000E-03 0.  1.
        -12    1    3    3    0    0 -0.15079373971E+02  0.12318045469E+01  0.19961165311E+02  0.25047015438E+02  0.00000000000E+00 0.  1.
</event>
<event>
 7    1  0.1360399E-013  0.7246155E+02  0.7816164E-02  0.1226708E+00
        -11   -1    0    0    0    0  0.00000000000E+00  0.00000000000E+00  0.45593999997E+02  0.45594000000E+02  0.51100000000E-03 0.  1.
         11   -1    0    0    0    0 -0.00000000000E+00 -0.00000000000E+00 -0.45593999997E+02  0.45594000000E+02  0.51100000000E-03 0. -1.
    9900012    2    1    2    0    0 -0.37215207242E+01  0.51969799510E+01  0.17601750662E+02  0.72461549630E+02  0.69999973080E+02 0.  0.
         12    1    1    2    0    0  0.37215207242E+01 -0.51969799510E+01 -0.17601750662E+02  0.18726450370E+02  0.00000000000E+00 0. -1.
         11    1    3    3    0    0 -0.92263515291E+01 -0.27943849336E+02 -0.65864882850E+00  0.29434980836E+02  0.51100000000E-03 0. -1.
        -11    1    3    3    0    0  0.16542902559E+01  0.21314016742E+02  0.55027014712E+00  0.21385200102E+02  0.51100000000E-03 0.  1.
        -12    1    3    3    0    0  0.38505405490E+01  0.11826812545E+02  0.17710129343E+02  0.21641368692E+02  0.00000000000E+00 0.  1.
</event>
<event>
 7    1  0.1360399E-013  0.7246157E+02  0.7816164E-02  0.1226708E+00
        -11   -1    0    0    0    0  0.00000000000E+00  0.00000000000E+00  0.45593999997E+02  0.45594000000E+02  0.51100000000E-03 0.  1.
         11   -1    0    0    0    0 -0.00000000000E+00 -0.00000000000E+00 -0.45593999997E+02  0.45594000000E+02  0.51100000000E-03 0. -1.
    9900012    2    1    2    0    0  0.14435868432E+02 -0.11843902534E+02  0.14166628992E+01  0.72461567921E+02  0.69999996909E+02 0.  0.
         12    1    1    2    0    0 -0.14435868432E+02  0.11843902534E+02 -0.14166628992E+01  0.18726432079E+02  0.00000000000E+00 0. -1.
         11    1    3    3    0    0 -0.32067602617E+00 -0.11589613342E+02 -0.22471862343E+02  0.25286489831E+02  0.51100000000E-03 0. -1.
        -11    1    3    3    0    0 -0.31548717506E+01  0.15994255246E+02  0.11897303354E+02  0.20182052522E+02  0.51100000000E-03 0.  1.
        -12    1    3    3    0    0  0.17911416209E+02 -0.16248544438E+02  0.11991221888E+02  0.26993025568E+02  0.00000000000E+00 0.  1.
</event>
<event>
 7    1  0.1360399E-013  0.7246163E+02  0.7816164E-02  0.1226708E+00
        -11   -1    0    0    0    0  0.00000000000E+00  0.00000000000E+00  0.45593999997E+02  0.45594000000E+02  0.51100000000E-03 0.  1.
         11   -1    0    0    0    0 -0.00000000000E+00 -0.00000000000E+00 -0.45593999997E+02  0.45594000000E+02  0.51100000000E-03 0. -1.
    9900012    2    1    2    0    0  0.46958531086E+01 -0.17766737229E+02  0.36012658917E+01  0.72461625439E+02  0.70000071836E+02 0.  0.
         12    1    1    2    0    0 -0.46958531086E+01  0.17766737229E+02 -0.36012658917E+01  0.18726374561E+02  0.00000000000E+00 0. -1.
         11    1    3    3    0    0 -0.14254524985E+02 -0.11214038944E+02  0.24737245378E+02  0.30673725909E+02  0.51100000000E-03 0.  1.
        -11    1    3    3    0    0  0.20713976351E+02 -0.62760177405E+01 -0.27604255249E+02  0.35077801001E+02  0.51100000000E-03 0. -1.
         12    1    3    3    0    0 -0.17635982570E+01 -0.27668054405E+00  0.64682757621E+01  0.67100985291E+01  0.00000000000E+00 0. -1.
</event>
<event>
 7    1  0.1360399E-013  0.7246147E+02  0.7816164E-02  0.1226708E+00
        -11   -1    0    0    0    0  0.00000000000E+00  0.00000000000E+00  0.45593999997E+02  0.45594000000E+02  0.51100000000E-03 0.  1.
         11   -1    0    0    0    0 -0.00000000000E+00 -0.00000000000E+00 -0.45593999997E+02  0.45594000000E+02  0.51100000000E-03 0. -1.
    9900012    2    1    2    0    0 -0.11186058408E+01  0.11847929947E+02  0.14458843467E+02  0.72461471292E+02  0.69999871031E+02 0.  0.
         12    1    1    2    0    0  0.11186058408E+01 -0.11847929947E+02 -0.14458843467E+02  0.18726528708E+02  0.00000000000E+00 0. -1.
         11    1    3    3    0    0 -0.95328683564E+01  0.14169842513E+02  0.34445887279E+02  0.38447095685E+02  0.51100000000E-03 0.  1.
        -11    1    3    3    0    0 -0.10214850955E+01 -0.13058681335E+02 -0.79101384945E+01  0.15301728049E+02  0.51100000000E-03 0. -1.
         12    1    3    3    0    0  0.94357476111E+01  0.10736768770E+02 -0.12076905318E+02  0.18712647558E+02  0.00000000000E+00 0. -1.
</event>
<event>
 7    1  0.1360399E-013  0.7246163E+02  0.7816164E-02  0.1226708E+00
        -11   -1    0    0    0    0  0.00000000000E+00  0.00000000000E+00  0.45593999997E+02  0.45594000000E+02  0.51100000000E-03 0.  1.
         11   -1    0    0    0    0 -0.00000000000E+00 -0.00000000000E+00 -0.45593999997E+02  0.45594000000E+02  0.51100000000E-03 0. -1.
    9900012    2    1    2    0    0  0.17202324355E+02 -0.63339441177E+01 -0.38259988303E+01  0.72461626129E+02  0.70000072735E+02 0.  0.
         12    1    1    2    0    0 -0.17202324355E+02  0.63339441177E+01  0.38259988303E+01  0.18726373871E+02  0.00000000000E+00 0. -1.
         11    1    3    3    0    0  0.12143218261E+02 -0.30649858286E+02 -0.25632722696E+01  0.33067233444E+02  0.51100000000E-03 0. -1.
        -11    1    3    3    0    0  0.44593158015E+01  0.10649451046E+02  0.14492497377E+02  0.18529133425E+02  0.51100000000E-03 0.  1.
         12    1    3    3    0    0  0.59979029302E+00  0.13666463122E+02 -0.15755223937E+02  0.20865259260E+02  0.00000000000E+00 0. -1.
</event>
<event>
 7    1  0.1360399E-013  0.7246145E+02  0.7816164E-02  0.1226708E+00
        -11   -1    0    0    0    0  0.00000000000E+00  0.00000000000E+00  0.45593999997E+02  0.45594000000E+02  0.51100000000E-03 0. -1.
         11   -1    0    0    0    0 -0.00000000000E+00 -0.00000000000E+00 -0.45593999997E+02  0.45594000000E+02  0.51100000000E-03 0.  1.
    9900012    2    1    2    0    0 -0.65664671989E+01  0.17493447536E+02  0.12427728544E+01  0.72461449796E+02  0.69999843028E+02 0.  0.
         12    1    1    2    0    0  0.65664671989E+01 -0.17493447536E+02 -0.12427728544E+01  0.18726550204E+02  0.00000000000E+00 0. -1.
         11    1    3    3    0    0 -0.27831450476E+02  0.13558210913E+02 -0.16230960980E+02  0.34955097101E+02  0.51100000000E-03 0. -1.
        -11    1    3    3    0    0  0.19012275181E+02  0.13455478321E+02  0.13688243669E+02  0.27016375023E+02  0.51100000000E-03 0.  1.
        -12    1    3    3    0    0  0.22527080965E+01 -0.95202416981E+01  0.37854901652E+01  0.10489977672E+02  0.00000000000E+00 0.  1.
</event>
<event>
 7    1  0.1360399E-013  0.7246170E+02  0.7816164E-02  0.1226708E+00
        -11   -1    0    0    0    0  0.00000000000E+00  0.00000000000E+00  0.45593999997E+02  0.45594000000E+02  0.51100000000E-03 0.  1.
         11   -1    0    0    0    0 -0.00000000000E+00 -0.00000000000E+00 -0.45593999997E+02  0.45594000000E+02  0.51100000000E-03 0. -1.
    9900012    2    1    2    0    0 -0.12578988717E+02  0.47269249158E+01  0.13042226270E+02  0.72461696511E+02  0.70000164420E+02 0.  0.
         12    1    1    2    0    0  0.12578988717E+02 -0.47269249158E+01 -0.13042226270E+02  0.18726303489E+02  0.00000000000E+00 0. -1.
         11    1    3    3    0    0 -0.11433915545E+02 -0.11785733962E+02 -0.11087717956E+02  0.19813516584E+02  0.51100000000E-03 0. -1.
        -11    1    3    3    0    0  0.12253292914E+02  0.26844226554E+02  0.18447042722E+02  0.34800130344E+02  0.51100000000E-03 0.  1.
        -12    1    3    3    0    0 -0.13398366085E+02 -0.10331567676E+02  0.56829015042E+01  0.17848049583E+02  0.00000000000E+00 0.  1.
</event>
<event>
 7    1  0.1360399E-013  0.7246178E+02  0.7816164E-02  0.1226707E+00
        -11   -1    0    0    0    0  0.00000000000E+00  0.00000000000E+00  0.45593999997E+02  0.45594000000E+02  0.51100000000E-03 0. -1.
         11   -1    0    0    0    0 -0.00000000000E+00 -0.00000000000E+00 -0.45593999997E+02  0.45594000000E+02  0.51100000000E-03 0.  1.
    9900012    2    1    2    0    0  0.23239749342E+01 -0.17404019896E+02  0.65092782873E+01  0.72461775825E+02  0.70000267741E+02 0.  0.
         12    1    1    2    0    0 -0.23239749342E+01  0.17404019896E+02 -0.65092782873E+01  0.18726224175E+02  0.00000000000E+00 0. -1.
         11    1    3    3    0    0 -0.38687361368E+01 -0.52436590462E+01  0.24311198243E+02  0.25169375037E+02  0.51100000000E-03 0. -1.
        -11    1    3    3    0    0 -0.58711474403E+01  0.89756242109E+01 -0.20166582703E+02  0.22841262233E+02  0.51100000000E-03 0.  1.
         12    1    3    3    0    0  0.12063858511E+02 -0.21135985061E+02  0.23646627471E+01  0.24451138554E+02  0.00000000000E+00 0. -1.
</event>
<event>
 7    1  0.1360399E-013  0.7246157E+02  0.7816164E-02  0.1226708E+00
        -11   -1    0    0    0    0  0.00000000000E+00  0.00000000000E+00  0.45593999997E+02  0.45594000000E+02  0.51100000000E-03 0.  1.
         11   -1    0    0    0    0 -0.00000000000E+00 -0.00000000000E+00 -0.45593999997E+02  0.45594000000E+02  0.51100000000E-03 0. -1.
    9900012    2    1    2    0    0 -0.17451108376E+02 -0.65010710985E+01  0.19682658875E+01  0.72461570026E+02  0.69999999650E+02 0.  0.
         12    1    1    2    0    0  0.17451108376E+02  0.65010710985E+01 -0.19682658875E+01  0.18726429974E+02  0.00000000000E+00 0. -1.
         11    1    3    3    0    0 -0.17714463279E+02  0.13379645974E+02 -0.27726980214E+01  0.22371968850E+02  0.51100000000E-03 0. -1.
        -11    1    3    3    0    0  0.86172271874E+01 -0.29932900365E+02  0.13920662822E+02  0.34117737064E+02  0.51100000000E-03 0.  1.
        -12    1    3    3    0    0 -0.83538722841E+01  0.10052183293E+02 -0.91796989130E+01  0.15971864112E+02  0.00000000000E+00 0.  1.
</event>
<event>
 7    1  0.1360399E-013  0.7246154E+02  0.7816164E-02  0.1226708E+00
        -11   -1    0    0    0    0  0.00000000000E+00  0.00000000000E+00  0.45593999997E+02  0.45594000000E+02  0.51100000000E-03 0. -1.
         11   -1    0    0    0    0 -0.00000000000E+00 -0.00000000000E+00 -0.45593999997E+02  0.45594000000E+02  0.51100000000E-03 0.  1.
    9900012    2    1    2    0    0 -0.35777598929E+01  0.18119045536E+02  0.30951682517E+01  0.72461541619E+02  0.69999962645E+02 0.  0.
         12    1    1    2    0    0  0.35777598929E+01 -0.18119045536E+02 -0.30951682517E+01  0.18726458381E+02  0.00000000000E+00 0. -1.
         11    1    3    3    0    0  0.12992886922E+02 -0.11723622519E+02  0.18397477625E+02  0.25391447749E+02  0.51100000000E-03 0. -1.
        -11    1    3    3    0    0 -0.23961937733E+02  0.17612651413E+02 -0.70290470872E+01  0.30557936006E+02  0.51100000000E-03 0.  1.
        -12    1    3    3    0    0  0.73912909181E+01  0.12230016642E+02 -0.82732622864E+01  0.16512157865E+02  0.00000000000E+00 0.  1.
</event>
<event>
 7    1  0.1360399E-013  0.7246154E+02  0.7816164E-02  0.1226708E+00
        -11   -1    0    0    0    0  0.00000000000E+00  0.00000000000E+00  0.45593999997E+02  0.45594000000E+02  0.51100000000E-03 0. -1.
         11   -1    0    0    0    0 -0.00000000000E+00 -0.00000000000E+00 -0.45593999997E+02  0.45594000000E+02  0.51100000000E-03 0.  1.
    9900012    2    1    2    0    0 -0.17468786792E+01  0.14241524972E+02 -0.12033605222E+02  0.72461540824E+02  0.69999961609E+02 0.  0.
         12    1    1    2    0    0  0.17468786792E+01 -0.14241524972E+02  0.12033605222E+02  0.18726459176E+02  0.00000000000E+00 0. -1.
         11    1    3    3    0    0 -0.12435865304E+02  0.67197294989E+01  0.90149867165E+01  0.16765306325E+02  0.51100000000E-03 0. -1.
        -11    1    3    3    0    0 -0.12197728598E+02  0.10955155441E+00 -0.28094658706E+02  0.30628523186E+02  0.51100000000E-03 0.  1.
        -12    1    3    3    0    0  0.22886715223E+02  0.74122439185E+01  0.70460667667E+01  0.25067711313E+02  0.00000000000E+00 0.  1.
</event>
<event>
 7    1  0.1360399E-013  0.7246156E+02  0.7816164E-02  0.1226708E+00
        -11   -1    0    0    0    0  0.00000000000E+00  0.00000000000E+00  0.45593999997E+02  0.45594000000E+02  0.51100000000E-03 0. -1.
         11   -1    0    0    0    0 -0.00000000000E+00 -0.00000000000E+00 -0.45593999997E+02  0.45594000000E+02  0.51100000000E-03 0.  1.
    9900012    2    1    2    0    0 -0.17038072449E+01  0.18266324529E+02 -0.37574147395E+01  0.72461555157E+02  0.69999980281E+02 0.  0.
         12    1    1    2    0    0  0.17038072449E+01 -0.18266324529E+02  0.37574147395E+01  0.18726444843E+02  0.00000000000E+00 0. -1.
         11    1    3    3    0    0 -0.19741775941E+02  0.12941943928E+02  0.17561270178E+02  0.29421588000E+02  0.51100000000E-03 0. -1.
        -11    1    3    3    0    0  0.15761012303E+02 -0.37769403104E+01 -0.27417856826E+02  0.31849861226E+02  0.51100000000E-03 0.  1.
         12    1    3    3    0    0  0.22769563931E+01  0.91013209119E+01  0.60991719087E+01  0.11190105930E+02  0.00000000000E+00 0. -1.
</event>
<event>
 7    1  0.1360399E-013  0.7246154E+02  0.7816164E-02  0.1226708E+00
        -11   -1    0    0    0    0  0.00000000000E+00  0.00000000000E+00  0.45593999997E+02  0.45594000000E+02  0.51100000000E-03 0.  1.
         11   -1    0    0    0    0 -0.00000000000E+00 -0.00000000000E+00 -0.45593999997E+02  0.45594000000E+02  0.51100000000E-03 0. -1.
    9900012    2    1    2    0    0  0.46136212128E+01  0.13169947709E+02  0.12487884873E+02  0.72461540326E+02  0.69999960960E+02 0.  0.
         12    1    1    2    0    0 -0.46136212128E+01 -0.13169947709E+02 -0.12487884873E+02  0.18726459674E+02  0.00000000000E+00 0. -1.
         11    1    3    3    0    0  0.14567322083E+02 -0.73936357566E+00  0.66984999513E+01  0.16050652106E+02  0.51100000000E-03 0. -1.
        -11    1    3    3    0    0 -0.10652608515E+02  0.21052168727E+02 -0.19195206354E+02  0.30415913984E+02  0.51100000000E-03 0.  1.
        -12    1    3    3    0    0  0.69890764560E+00 -0.71428574424E+01  0.24984591275E+02  0.25994974236E+02  0.00000000000E+00 0.  1.
</event>
<event>
 7    1  0.1360399E-013  0.7246157E+02  0.7816164E-02  0.1226708E+00
        -11   -1    0    0    0    0  0.00000000000E+00  0.00000000000E+00  0.45593999997E+02  0.45594000000E+02  0.51100000000E-03 0. -1.
         11   -1    0    0    0    0 -0.00000000000E+00 -0.00000000000E+00 -0.45593999997E+02  0.45594000000E+02  0.51100000000E-03 0.  1.
    9900012    2    1    2    0    0  0.12737911486E+00 -0.17988111218E+02 -0.52048843014E+01  0.72461569715E+02  0.69999999245E+02 0.  0.
         12    1    1    2    0    0 -0.12737911486E+00  0.17988111218E+02  0.52048843014E+01  0.18726430285E+02  0.00000000000E+00 0. -1.
         11    1    3    3    0    0 -0.23143299342E+02  0.83548420785E+01  0.58316671905E+01  0.25286835173E+02  0.51100000000E-03 0. -1.
        -11    1    3    3    0    0  0.11618048594E+02 -0.43188103591E+01 -0.17489157944E+02  0.21435993607E+02  0.51100000000E-03 0.  1.
         12    1    3    3    0    0  0.11652629863E+02 -0.22024142938E+02  0.64526064525E+01  0.25738740934E+02  0.00000000000E+00 0. -1.
</event>
<event>
 7    1  0.1360399E-013  0.7246165E+02  0.7816164E-02  0.1226708E+00
        -11   -1    0    0    0    0  0.00000000000E+00  0.00000000000E+00  0.45593999997E+02  0.45594000000E+02  0.51100000000E-03 0.  1.
         11   -1    0    0    0    0 -0.00000000000E+00 -0.00000000000E+00 -0.45593999997E+02  0.45594000000E+02  0.51100000000E-03 0. -1.
    9900012    2    1    2    0    0  0.88450798538E+01 -0.36438286092E+01  0.16098543659E+02  0.72461654054E+02  0.70000109112E+02 0.  0.
         12    1    1    2    0    0 -0.88450798538E+01  0.36438286092E+01 -0.16098543659E+02  0.18726345946E+02  0.00000000000E+00 0. -1.
         11    1    3    3    0    0 -0.16779371177E+02  0.67359171097E+01 -0.55979621811E+01  0.18927679658E+02  0.51100000000E-03 0. -1.
        -11    1    3    3    0    0  0.31151386076E+02 -0.17584026399E+02  0.72933401060E+01  0.36507528663E+02  0.51100000000E-03 0.  1.
         12    1    3    3    0    0 -0.55269350455E+01  0.72042806801E+01  0.14403165734E+02  0.17026445733E+02  0.00000000000E+00 0. -1.
</event>
<event>
 7    1  0.1360399E-013  0.7246156E+02  0.7816164E-02  0.1226708E+00
        -11   -1    0    0    0    0  0.00000000000E+00  0.00000000000E+00  0.45593999997E+02  0.45594000000E+02  0.51100000000E-03 0. -1.
         11   -1    0    0    0    0 -0.00000000000E+00 -0.00000000000E+00 -0.45593999997E+02  0.45594000000E+02  0.51100000000E-03 0.  1.
    9900012    2    1    2    0    0  0.13348343337E+02  0.69640355788E+01 -0.11135690157E+02  0.72461557288E+02  0.69999983057E+02 0.  0.
         12    1    1    2    0    0 -0.13348343337E+02 -0.69640355788E+01  0.11135690157E+02  0.18726442712E+02  0.00000000000E+00 0. -1.
         11    1    3    3    0    0  0.17896158454E+02  0.36729167846E+01 -0.32639434135E+02  0.37404484571E+02  0.51100000000E-03 0. -1.
        -11    1    3    3    0    0  0.73682649665E+01 -0.82410956442E+01  0.96399635897E+01  0.14667511183E+02  0.51100000000E-03 0.  1.
         12    1    3    3    0    0 -0.11916080084E+02  0.11532214438E+02  0.11863780389E+02  0.20389561534E+02  0.00000000000E+00 0. -1.
</event>
<event>
 7    1  0.1360399E-013  0.7246157E+02  0.7816164E-02  0.1226708E+00
        -11   -1    0    0    0    0  0.00000000000E+00  0.00000000000E+00  0.45593999997E+02  0.45594000000E+02  0.51100000000E-03 0.  1.
         11   -1    0    0    0    0 -0.00000000000E+00 -0.00000000000E+00 -0.45593999997E+02  0.45594000000E+02  0.51100000000E-03 0. -1.
    9900012    2    1    2    0    0  0.12235708810E+02 -0.16132991137E+01  0.14084168618E+02  0.72461571890E+02  0.70000002079E+02 0.  0.
         12    1    1    2    0    0 -0.12235708810E+02  0.16132991137E+01 -0.14084168618E+02  0.18726428110E+02  0.00000000000E+00 0. -1.
         11    1    3    3    0    0  0.32336943986E+02 -0.37026078244E+01 -0.68385704474E+01  0.33258882980E+02  0.51100000000E-03 0.  1.
        -11    1    3    3    0    0 -0.22022989204E+02  0.73559253598E+01  0.23496871696E+02  0.33033689942E+02  0.51100000000E-03 0. -1.
         12    1    3    3    0    0  0.19217540287E+01 -0.52666166492E+01 -0.25741326310E+01  0.61689989689E+01  0.00000000000E+00 0. -1.
</event>
<event>
 7    1  0.1996743E-013  0.7246157E+02  0.7816164E-02  0.1226708E+00
        -11   -1    0    0    0    0  0.00000000000E+00  0.00000000000E+00  0.45593999997E+02  0.45594000000E+02  0.51100000000E-03 0. -1.
         11   -1    0    0    0    0 -0.00000000000E+00 -0.00000000000E+00 -0.45593999997E+02  0.45594000000E+02  0.51100000000E-03 0.  1.
    9900012    2    1    2    0    0  0.29604747726E+01  0.11015047496E+02 -0.14852051952E+02  0.72461571365E+02  0.70000001395E+02 0.  0.
         12    1    1    2    0    0 -0.29604747726E+01 -0.11015047496E+02  0.14852051952E+02  0.18726428635E+02  0.00000000000E+00 0. -1.
         11    1    3    3    0    0 -0.29894558074E+01  0.26558359469E+02  0.74670352049E+01  0.27749593127E+02  0.51100000000E-03 0. -1.
        -11    1    3    3    0    0 -0.44426268762E+01 -0.19239359315E+01 -0.26613533980E+02  0.27050298597E+02  0.51100000000E-03 0.  1.
         12    1    3    3    0    0  0.10392557456E+02 -0.13619376042E+02  0.42944468228E+01  0.17661679641E+02  0.00000000000E+00 0. -1.
</event>
<event>
 7    1  0.1360399E-013  0.7246157E+02  0.7816164E-02  0.1226708E+00
        -11   -1    0    0    0    0  0.00000000000E+00  0.00000000000E+00  0.45593999997E+02  0.45594000000E+02  0.51100000000E-03 0.  1.
         11   -1    0    0    0    0 -0.00000000000E+00 -0.00000000000E+00 -0.45593999997E+02  0.45594000000E+02  0.51100000000E-03 0. -1.
    9900012    2    1    2    0    0  0.15723829465E+02 -0.94624952266E+01  0.37284995917E+01  0.72461565791E+02  0.69999994134E+02 0.  0.
         12    1    1    2    0    0 -0.15723829465E+02  0.94624952266E+01 -0.37284995917E+01  0.18726434209E+02  0.00000000000E+00 0. -1.
         11    1    3    3    0    0  0.15269045024E+02  0.15213714584E+01 -0.17998950367E+02  0.23652072248E+02  0.51100000000E-03 0. -1.
        -11    1    3    3    0    0 -0.17514598010E+02 -0.67129983545E+01 -0.18623335199E+01  0.18849238095E+02  0.51100000000E-03 0.  1.
         12    1    3    3    0    0  0.17969382451E+02 -0.42708683305E+01  0.23589783478E+02  0.29960255448E+02  0.00000000000E+00 0. -1.
</event>
<event>
 7    1  0.1360399E-013  0.7246152E+02  0.7816164E-02  0.1226708E+00
        -11   -1    0    0    0    0  0.00000000000E+00  0.00000000000E+00  0.45593999997E+02  0.45594000000E+02  0.51100000000E-03 0.  1.
         11   -1    0    0    0    0 -0.00000000000E+00 -0.00000000000E+00 -0.45593999997E+02  0.45594000000E+02  0.51100000000E-03 0. -1.
    9900012    2    1    2    0    0  0.15001069231E+01  0.34445453785E+01  0.18345725883E+02  0.72461524843E+02  0.69999940791E+02 0.  0.
         12    1    1    2    0    0 -0.15001069231E+01 -0.34445453785E+01 -0.18345725883E+02  0.18726475157E+02  0.00000000000E+00 0. -1.
         11    1    3    3    0    0  0.93298667815E+01 -0.12702350099E+02 -0.10638097772E+02  0.19014868831E+02  0.51100000000E-03 0. -1.
        -11    1    3    3    0    0 -0.20363347898E+02 -0.35792768189E+01  0.18829825073E+02  0.27964968669E+02  0.51100000000E-03 0.  1.
         12    1    3    3    0    0  0.12533588039E+02  0.19726172296E+02  0.10153998582E+02  0.25481687342E+02  0.00000000000E+00 0. -1.
</event>
<event>
 7    1  0.1360399E-013  0.7246157E+02  0.7816164E-02  0.1226708E+00
        -11   -1    0    0    0    0  0.00000000000E+00  0.00000000000E+00  0.45593999997E+02  0.45594000000E+02  0.51100000000E-03 0.  1.
         11   -1    0    0    0    0 -0.00000000000E+00 -0.00000000000E+00 -0.45593999997E+02  0.45594000000E+02  0.51100000000E-03 0. -1.
    9900012    2    1    2    0    0 -0.14330933022E+02 -0.11901948686E+02  0.19097595600E+01  0.72461569337E+02  0.69999998752E+02 0.  0.
         12    1    1    2    0    0  0.14330933022E+02  0.11901948686E+02 -0.19097595600E+01  0.18726430663E+02  0.00000000000E+00 0. -1.
         11    1    3    3    0    0  0.83155525847E+01 -0.16863013881E+02 -0.22973326989E+01  0.18941683920E+02  0.51100000000E-03 0. -1.
        -11    1    3    3    0    0 -0.34005424348E+02 -0.91730367233E+01  0.26618796944E+01  0.35321368767E+02  0.51100000000E-03 0.  1.
         12    1    3    3    0    0  0.11358938742E+02  0.14134101918E+02  0.15452125644E+01  0.18198516649E+02  0.00000000000E+00 0. -1.
</event>
<event>
 7    1  0.1360399E-013  0.7246155E+02  0.7816164E-02  0.1226708E+00
        -11   -1    0    0    0    0  0.00000000000E+00  0.00000000000E+00  0.45593999997E+02  0.45594000000E+02  0.51100000000E-03 0.  1.
         11   -1    0    0    0    0 -0.00000000000E+00 -0.00000000000E+00 -0.45593999997E+02  0.45594000000E+02  0.51100000000E-03 0. -1.
    9900012    2    1    2    0    0 -0.18206820242E+02 -0.42275404422E+01  0.11487715878E+01  0.72461546047E+02  0.69999968413E+02 0.  0.
         12    1    1    2    0    0  0.18206820242E+02  0.42275404422E+01 -0.11487715878E+01  0.18726453953E+02  0.00000000000E+00 0. -1.
         11    1    3    3    0    0  0.11550642520E+02  0.11832311546E+01 -0.28005806577E+02  0.30317364346E+02  0.51100000000E-03 0. -1.
        -11    1    3    3    0    0 -0.10281470229E+02 -0.22034982898E+01  0.12362146123E+02  0.16229192581E+02  0.51100000000E-03 0.  1.
         12    1    3    3    0    0 -0.19475992532E+02 -0.32072733070E+01  0.16792432042E+02  0.25914989120E+02  0.00000000000E+00 0. -1.
</event>
<event>
 7    1  0.1360399E-013  0.7246134E+02  0.7816164E-02  0.1226709E+00
        -11   -1    0    0    0    0  0.00000000000E+00  0.00000000000E+00  0.45593999997E+02  0.45594000000E+02  0.51100000000E-03 0.  1.
         11   -1    0    0    0    0 -0.00000000000E+00 -0.00000000000E+00 -0.45593999997E+02  0.45594000000E+02  0.51100000000E-03 0. -1.
    9900012    2    1    2    0    0 -0.49611043314E+01  0.79764199702E+01  0.16200366659E+02  0.72461342220E+02  0.69999702890E+02 0.  0.
         12    1    1    2    0    0  0.49611043314E+01 -0.79764199702E+01 -0.16200366659E+02  0.18726657780E+02  0.00000000000E+00 0. -1.
         11    1    3    3    0    0 -0.17554487316E+01  0.26502390730E+02 -0.12857011910E+02  0.29508660935E+02  0.51100000000E-03 0. -1.
        -11    1    3    3    0    0 -0.54243957012E+01 -0.20335635933E+01  0.25217600871E+02  0.25874443831E+02  0.51100000000E-03 0.  1.
         12    1    3    3    0    0  0.22187401014E+01 -0.16492407166E+02  0.38397776984E+01  0.17078237454E+02  0.00000000000E+00 0. -1.
</event>
<event>
 7    1  0.1360399E-013  0.7246163E+02  0.7816164E-02  0.1226708E+00
        -11   -1    0    0    0    0  0.00000000000E+00  0.00000000000E+00  0.45593999997E+02  0.45594000000E+02  0.51100000000E-03 0.  1.
         11   -1    0    0    0    0 -0.00000000000E+00 -0.00000000000E+00 -0.45593999997E+02  0.45594000000E+02  0.51100000000E-03 0. -1.
    9900012    2    1    2    0    0 -0.81030875318E+01  0.13523958475E+02  0.10105408541E+02  0.72461634571E+02  0.70000083733E+02 0.  0.
         12    1    1    2    0    0  0.81030875318E+01 -0.13523958475E+02 -0.10105408541E+02  0.18726365429E+02  0.00000000000E+00 0. -1.
         11    1    3    3    0    0 -0.60986875744E+01  0.22894513738E+02  0.29616399558E+02  0.37927349927E+02  0.51100000000E-03 0.  1.
        -11    1    3    3    0    0  0.24414644210E+01  0.85799121328E+01 -0.11040153976E+02  0.14193683130E+02  0.51100000000E-03 0. -1.
         12    1    3    3    0    0 -0.44458643784E+01 -0.17950467396E+02 -0.84708370409E+01  0.20340601515E+02  0.00000000000E+00 0. -1.
</event>
<event>
 7    1  0.1360399E-013  0.7246162E+02  0.7816164E-02  0.1226708E+00
        -11   -1    0    0    0    0  0.00000000000E+00  0.00000000000E+00  0.45593999997E+02  0.45594000000E+02  0.51100000000E-03 0. -1.
         11   -1    0    0    0    0 -0.00000000000E+00 -0.00000000000E+00 -0.45593999997E+02  0.45594000000E+02  0.51100000000E-03 0.  1.
    9900012    2    1    2    0    0 -0.48000030897E+01 -0.63443098428E+01 -0.16952496605E+02  0.72461616521E+02  0.70000060219E+02 0.  0.
         12    1    1    2    0    0  0.48000030897E+01  0.63443098428E+01  0.16952496605E+02  0.18726383479E+02  0.00000000000E+00 0. -1.
         11    1    3    3    0    0  0.25194226235E+02 -0.19561892290E+02 -0.19084994606E+02  0.37170602429E+02  0.51100000000E-03 0. -1.
        -11    1    3    3    0    0 -0.13113012703E+02 -0.61801176709E+00 -0.13173075387E+01  0.13193496129E+02  0.51100000000E-03 0.  1.
         12    1    3    3    0    0 -0.16881216622E+02  0.13835594214E+02  0.34498055399E+01  0.22097517964E+02  0.00000000000E+00 0. -1.
</event>
<event>
 7    1  0.1360399E-013  0.7246160E+02  0.7816164E-02  0.1226708E+00
        -11   -1    0    0    0    0  0.00000000000E+00  0.00000000000E+00  0.45593999997E+02  0.45594000000E+02  0.51100000000E-03 0. -1.
         11   -1    0    0    0    0 -0.00000000000E+00 -0.00000000000E+00 -0.45593999997E+02  0.45594000000E+02  0.51100000000E-03 0.  1.
    9900012    2    1    2    0    0  0.15379730402E+01 -0.57020613807E+00 -0.18654420843E+02  0.72461603841E+02  0.70000043701E+02 0.  0.
         12    1    1    2    0    0 -0.15379730402E+01  0.57020613807E+00  0.18654420843E+02  0.18726396159E+02  0.00000000000E+00 0. -1.
         11    1    3    3    0    0 -0.25396964473E+02 -0.15983527131E+01 -0.24708251036E+02  0.35469116219E+02  0.51100000000E-03 0.  1.
        -11    1    3    3    0    0  0.20483180767E+02 -0.43074285297E+01 -0.64874065325E+01  0.21913490791E+02  0.51100000000E-03 0. -1.
         12    1    3    3    0    0  0.64517567468E+01  0.53355751047E+01  0.12541236726E+02  0.15078996831E+02  0.00000000000E+00 0. -1.
</event>
<event>
 7    1  0.1360399E-013  0.7246156E+02  0.7816164E-02  0.1226708E+00
        -11   -1    0    0    0    0  0.00000000000E+00  0.00000000000E+00  0.45593999997E+02  0.45594000000E+02  0.51100000000E-03 0. -1.
         11   -1    0    0    0    0 -0.00000000000E+00 -0.00000000000E+00 -0.45593999997E+02  0.45594000000E+02  0.51100000000E-03 0.  1.
    9900012    2    1    2    0    0 -0.45289864800E+01  0.17387849285E+02 -0.52754626032E+01  0.72461560751E+02  0.69999987568E+02 0.  0.
         12    1    1    2    0    0  0.45289864800E+01 -0.17387849285E+02  0.52754626032E+01  0.18726439249E+02  0.00000000000E+00 0. -1.
         11    1    3    3    0    0  0.90881628988E+01  0.78936153045E+01  0.14298731007E+02  0.18691109547E+02  0.51100000000E-03 0. -1.
        -11    1    3    3    0    0 -0.15107220955E+02  0.14389434859E+01 -0.33970774707E+02  0.37206346472E+02  0.51100000000E-03 0.  1.
        -12    1    3    3    0    0  0.14900715763E+01  0.80552904942E+01  0.14396581097E+02  0.16564104731E+02  0.00000000000E+00 0.  1.
</event>
<event>
 7    1  0.1360399E-013  0.7246154E+02  0.7816164E-02  0.1226708E+00
        -11   -1    0    0    0    0  0.00000000000E+00  0.00000000000E+00  0.45593999997E+02  0.45594000000E+02  0.51100000000E-03 0. -1.
         11   -1    0    0    0    0 -0.00000000000E+00 -0.00000000000E+00 -0.45593999997E+02  0.45594000000E+02  0.51100000000E-03 0.  1.
    9900012    2    1    2    0    0  0.28216545248E+01  0.18073720570E+02  0.40073870302E+01  0.72461541170E+02  0.69999962060E+02 0.  0.
         12    1    1    2    0    0 -0.28216545248E+01 -0.18073720570E+02 -0.40073870302E+01  0.18726458830E+02  0.00000000000E+00 0. -1.
         11    1    3    3    0    0 -0.61101795391E+01  0.20101937148E+02 -0.24902235739E+02  0.32581336930E+02  0.51100000000E-03 0. -1.
        -11    1    3    3    0    0  0.24252285125E+01 -0.13754241247E+02  0.16398242713E+02  0.21539806172E+02  0.51100000000E-03 0.  1.
        -12    1    3    3    0    0  0.65066055515E+01  0.11726024669E+02  0.12511380057E+02  0.18340398067E+02  0.00000000000E+00 0.  1.
</event>
<event>
 7    1  0.1360399E-013  0.7246160E+02  0.7816164E-02  0.1226708E+00
        -11   -1    0    0    0    0  0.00000000000E+00  0.00000000000E+00  0.45593999997E+02  0.45594000000E+02  0.51100000000E-03 0.  1.
         11   -1    0    0    0    0 -0.00000000000E+00 -0.00000000000E+00 -0.45593999997E+02  0.45594000000E+02  0.51100000000E-03 0. -1.
    9900012    2    1    2    0    0  0.24311013157E+01  0.75919992309E+01  0.16944892506E+02  0.72461599172E+02  0.70000037619E+02 0.  0.
         12    1    1    2    0    0 -0.24311013157E+01 -0.75919992309E+01 -0.16944892506E+02  0.18726400828E+02  0.00000000000E+00 0. -1.
         11    1    3    3    0    0 -0.42816442229E+01  0.10885564869E+02  0.29614915233E+02  0.31841344261E+02  0.51100000000E-03 0.  1.
        -11    1    3    3    0    0 -0.55004139862E+01 -0.18172714718E+02 -0.90488897726E+01  0.21032938944E+02  0.51100000000E-03 0. -1.
        -12    1    3    3    0    0  0.12213159525E+02  0.14879149080E+02 -0.36211329550E+01  0.19587315967E+02  0.00000000000E+00 0.  1.
</event>
<event>
 7    1  0.1360399E-013  0.7246157E+02  0.7816164E-02  0.1226708E+00
        -11   -1    0    0    0    0  0.00000000000E+00  0.00000000000E+00  0.45593999997E+02  0.45594000000E+02  0.51100000000E-03 0. -1.
         11   -1    0    0    0    0 -0.00000000000E+00 -0.00000000000E+00 -0.45593999997E+02  0.45594000000E+02  0.51100000000E-03 0.  1.
    9900012    2    1    2    0    0 -0.55999591719E+01 -0.12169045517E+02 -0.13085636074E+02  0.72461572605E+02  0.70000003010E+02 0.  0.
         12    1    1    2    0    0  0.55999591719E+01  0.12169045517E+02  0.13085636074E+02  0.18726427395E+02  0.00000000000E+00 0. -1.
         11    1    3    3    0    0  0.18293266236E+02  0.47573759173E+01 -0.14129517117E+02  0.23599141285E+02  0.51100000000E-03 0. -1.
        -11    1    3    3    0    0 -0.46716240589E+01 -0.26820944285E+02  0.10141167154E+01  0.27243633324E+02  0.51100000000E-03 0.  1.
         12    1    3    3    0    0 -0.19221601349E+02  0.98945228512E+01  0.29764327527E-01  0.21618797996E+02  0.00000000000E+00 0. -1.
</event>
<event>
 7    1  0.1360399E-013  0.7246142E+02  0.7816164E-02  0.1226708E+00
        -11   -1    0    0    0    0  0.00000000000E+00  0.00000000000E+00  0.45593999997E+02  0.45594000000E+02  0.51100000000E-03 0.  1.
         11   -1    0    0    0    0 -0.00000000000E+00 -0.00000000000E+00 -0.45593999997E+02  0.45594000000E+02  0.51100000000E-03 0. -1.
    9900012    2    1    2    0    0 -0.14242075254E+02  0.79015944167E+01  0.92419098224E+01  0.72461419986E+02  0.69999804195E+02 0.  0.
         12    1    1    2    0    0  0.14242075254E+02 -0.79015944167E+01 -0.92419098224E+01  0.18726580014E+02  0.00000000000E+00 0. -1.
         11    1    3    3    0    0 -0.21552308501E+02  0.26584955589E+02  0.15503170191E+02  0.37571400714E+02  0.51100000000E-03 0. -1.
        -11    1    3    3    0    0  0.24986412211E+01 -0.10386770785E+02 -0.17258942676E+02  0.20297766326E+02  0.51100000000E-03 0.  1.
         12    1    3    3    0    0  0.48115920263E+01 -0.82965903877E+01  0.10997682307E+02  0.14592252945E+02  0.00000000000E+00 0. -1.
</event>
<event>
 7    1  0.1360399E-013  0.7246158E+02  0.7816164E-02  0.1226708E+00
        -11   -1    0    0    0    0  0.00000000000E+00  0.00000000000E+00  0.45593999997E+02  0.45594000000E+02  0.51100000000E-03 0.  1.
         11   -1    0    0    0    0 -0.00000000000E+00 -0.00000000000E+00 -0.45593999997E+02  0.45594000000E+02  0.51100000000E-03 0. -1.
    9900012    2    1    2    0    0  0.13915046603E+02  0.11846384072E+02  0.40882083382E+01  0.72461580562E+02  0.70000013375E+02 0.  0.
         12    1    1    2    0    0 -0.13915046603E+02 -0.11846384072E+02 -0.40882083382E+01  0.18726419438E+02  0.00000000000E+00 0. -1.
         11    1    3    3    0    0 -0.18006258957E+02  0.70919147577E+01  0.19055796622E+02  0.27159602385E+02  0.51100000000E-03 0. -1.
        -11    1    3    3    0    0  0.26055464837E+02 -0.91856254938E+01 -0.92869878390E+01  0.29146373822E+02  0.51100000000E-03 0.  1.
        -12    1    3    3    0    0  0.58658407222E+01  0.13940094809E+02 -0.56806004450E+01  0.16155604355E+02  0.00000000000E+00 0.  1.
</event>
<event>
 7    1  0.1360399E-013  0.7246155E+02  0.7816164E-02  0.1226708E+00
        -11   -1    0    0    0    0  0.00000000000E+00  0.00000000000E+00  0.45593999997E+02  0.45594000000E+02  0.51100000000E-03 0. -1.
         11   -1    0    0    0    0 -0.00000000000E+00 -0.00000000000E+00 -0.45593999997E+02  0.45594000000E+02  0.51100000000E-03 0.  1.
    9900012    2    1    2    0    0  0.84749264756E+01 -0.18357501777E-01  0.16698959817E+02  0.72461548795E+02  0.69999971993E+02 0.  0.
         12    1    1    2    0    0 -0.84749264756E+01  0.18357501777E-01 -0.16698959817E+02  0.18726451205E+02  0.00000000000E+00 0. -1.
         11    1    3    3    0    0 -0.75770510924E+01 -0.49134917166E+01  0.29531084886E+02  0.30881047244E+02  0.51100000000E-03 0. -1.
        -11    1    3    3    0    0 -0.34419536441E+01 -0.82319209269E+01 -0.15543971263E+02  0.17922795817E+02  0.51100000000E-03 0.  1.
         12    1    3    3    0    0  0.19493931212E+02  0.13127055142E+02  0.27118461942E+01  0.23657705734E+02  0.00000000000E+00 0. -1.
</event>
<event>
 7    1  0.1360399E-013  0.7246156E+02  0.7816164E-02  0.1226708E+00
        -11   -1    0    0    0    0  0.00000000000E+00  0.00000000000E+00  0.45593999997E+02  0.45594000000E+02  0.51100000000E-03 0. -1.
         11   -1    0    0    0    0 -0.00000000000E+00 -0.00000000000E+00 -0.45593999997E+02  0.45594000000E+02  0.51100000000E-03 0.  1.
    9900012    2    1    2    0    0  0.21683153961E+01 -0.18530385664E+02 -0.16133604186E+01  0.72461555694E+02  0.69999980980E+02 0.  0.
         12    1    1    2    0    0 -0.21683153961E+01  0.18530385664E+02  0.16133604186E+01  0.18726444306E+02  0.00000000000E+00 0. -1.
         11    1    3    3    0    0  0.58780882351E+01 -0.36945167753E+02  0.15134347680E+02  0.40355245280E+02  0.51100000000E-03 0. -1.
        -11    1    3    3    0    0 -0.79584824434E+01 -0.42172541022E-01 -0.78575792599E+01  0.11183951601E+02  0.51100000000E-03 0.  1.
         12    1    3    3    0    0  0.42487096044E+01  0.18456954631E+02 -0.88901288390E+01  0.20922358813E+02  0.00000000000E+00 0. -1.
</event>
<event>
 7    1  0.1360399E-013  0.7246139E+02  0.7816164E-02  0.1226708E+00
        -11   -1    0    0    0    0  0.00000000000E+00  0.00000000000E+00  0.45593999997E+02  0.45594000000E+02  0.51100000000E-03 0.  1.
         11   -1    0    0    0    0 -0.00000000000E+00 -0.00000000000E+00 -0.45593999997E+02  0.45594000000E+02  0.51100000000E-03 0. -1.
    9900012    2    1    2    0    0  0.13001176704E+01  0.17744765494E+02  0.58411284880E+01  0.72461393516E+02  0.69999769713E+02 0.  0.
         12    1    1    2    0    0 -0.13001176704E+01 -0.17744765494E+02 -0.58411284880E+01  0.18726606484E+02  0.00000000000E+00 0. -1.
         11    1    3    3    0    0  0.25673330814E+02 -0.10039183354E+02  0.10173432822E+02  0.29383734500E+02  0.51100000000E-03 0. -1.
        -11    1    3    3    0    0 -0.22638633386E+00  0.15250864873E+02  0.12553658487E+01  0.15304119505E+02  0.51100000000E-03 0.  1.
         12    1    3    3    0    0 -0.24146826810E+02  0.12533083975E+02 -0.55876701823E+01  0.27773539511E+02  0.00000000000E+00 0. -1.
</event>
<event>
 7    1  0.1360399E-013  0.7246153E+02  0.7816164E-02  0.1226708E+00
        -11   -1    0    0    0    0  0.00000000000E+00  0.00000000000E+00  0.45593999997E+02  0.45594000000E+02  0.51100000000E-03 0.  1.
         11   -1    0    0    0    0 -0.00000000000E+00 -0.00000000000E+00 -0.45593999997E+02  0.45594000000E+02  0.51100000000E-03 0. -1.
    9900012    2    1    2    0    0  0.12015975143E+02  0.13774474830E+02  0.40694819717E+01  0.72461534797E+02  0.69999953758E+02 0.  0.
         12    1    1    2    0    0 -0.12015975143E+02 -0.13774474830E+02 -0.40694819717E+01  0.18726465203E+02  0.00000000000E+00 0. -1.
         11    1    3    3    0    0 -0.64801252748E+01  0.15988169547E+02  0.21559239277E+02  0.27611852301E+02  0.51100000000E-03 0.  1.
        -11    1    3    3    0    0  0.13142848476E+02  0.12338580034E+02 -0.22243890900E+02  0.28631550883E+02  0.51100000000E-03 0. -1.
         12    1    3    3    0    0  0.53532519425E+01 -0.14552274751E+02  0.47541335948E+01  0.16218131613E+02  0.00000000000E+00 0. -1.
</event>
<event>
 7    1  0.1360399E-013  0.7246155E+02  0.7816164E-02  0.1226708E+00
        -11   -1    0    0    0    0  0.00000000000E+00  0.00000000000E+00  0.45593999997E+02  0.45594000000E+02  0.51100000000E-03 0.  1.
         11   -1    0    0    0    0 -0.00000000000E+00 -0.00000000000E+00 -0.45593999997E+02  0.45594000000E+02  0.51100000000E-03 0. -1.
    9900012    2    1    2    0    0  0.14387968765E+02  0.11514797244E+02  0.33280280319E+01  0.72461548886E+02  0.69999972112E+02 0.  0.
         12    1    1    2    0    0 -0.14387968765E+02 -0.11514797244E+02 -0.33280280319E+01  0.18726451114E+02  0.00000000000E+00 0. -1.
         11    1    3    3    0    0 -0.11088555413E+02  0.55883811891E+01 -0.49246060970E+01  0.13358061646E+02  0.51100000000E-03 0. -1.
        -11    1    3    3    0    0  0.27613870527E+02  0.50970005262E+01  0.27745926975E+02  0.39475837215E+02  0.51100000000E-03 0.  1.
        -12    1    3    3    0    0 -0.21373463494E+01  0.82941552882E+00 -0.19493292846E+02  0.19627650025E+02  0.00000000000E+00 0.  1.
</event>
<event>
 7    1  0.1360399E-013  0.7246149E+02  0.7816164E-02  0.1226708E+00
        -11   -1    0    0    0    0  0.00000000000E+00  0.00000000000E+00  0.45593999997E+02  0.45594000000E+02  0.51100000000E-03 0.  1.
         11   -1    0    0    0    0 -0.00000000000E+00 -0.00000000000E+00 -0.45593999997E+02  0.45594000000E+02  0.51100000000E-03 0. -1.
    9900012    2    1    2    0    0 -0.95543958875E+01  0.11728092655E+02  0.11038460050E+02  0.72461488355E+02  0.69999893259E+02 0.  0.
         12    1    1    2    0    0  0.95543958875E+01 -0.11728092655E+02 -0.11038460050E+02  0.18726511645E+02  0.00000000000E+00 0. -1.
         11    1    3    3    0    0  0.15950932543E+02  0.31837469726E+02  0.10383895069E+02  0.37092883477E+02  0.51100000000E-03 0. -1.
        -11    1    3    3    0    0 -0.17118152609E+02 -0.88679087874E+01  0.62523179039E+01  0.20267274963E+02  0.51100000000E-03 0.  1.
         12    1    3    3    0    0 -0.83871758222E+01 -0.11241468283E+02 -0.55977529230E+01  0.15101329916E+02  0.00000000000E+00 0. -1.
</event>
<event>
 7    1  0.1360399E-013  0.7246158E+02  0.7816164E-02  0.1226708E+00
        -11   -1    0    0    0    0  0.00000000000E+00  0.00000000000E+00  0.45593999997E+02  0.45594000000E+02  0.51100000000E-03 0.  1.
         11   -1    0    0    0    0 -0.00000000000E+00 -0.00000000000E+00 -0.45593999997E+02  0.45594000000E+02  0.51100000000E-03 0. -1.
    9900012    2    1    2    0    0 -0.58064603962E+01 -0.11214228021E+02  0.13827692469E+02  0.72461575583E+02  0.70000006889E+02 0.  0.
         12    1    1    2    0    0  0.58064603962E+01  0.11214228021E+02 -0.13827692469E+02  0.18726424417E+02  0.00000000000E+00 0. -1.
         11    1    3    3    0    0 -0.26271768519E+02 -0.34903394303E+00 -0.76650780182E+01  0.27369345390E+02  0.51100000000E-03 0. -1.
        -11    1    3    3    0    0  0.18863888364E+02  0.79010140636E+01  0.14186454040E+02  0.24890315103E+02  0.51100000000E-03 0.  1.
        -12    1    3    3    0    0  0.16014197590E+01 -0.18766208142E+02  0.73063164467E+01  0.20201915089E+02  0.00000000000E+00 0.  1.
</event>
<event>
 7    1  0.1360399E-013  0.7246169E+02  0.7816164E-02  0.1226708E+00
        -11   -1    0    0    0    0  0.00000000000E+00  0.00000000000E+00  0.45593999997E+02  0.45594000000E+02  0.51100000000E-03 0.  1.
         11   -1    0    0    0    0 -0.00000000000E+00 -0.00000000000E+00 -0.45593999997E+02  0.45594000000E+02  0.51100000000E-03 0. -1.
    9900012    2    1    2    0    0 -0.47680014183E+01 -0.17992052546E+02  0.20559837513E+01  0.72461685319E+02  0.70000149841E+02 0.  0.
         12    1    1    2    0    0  0.47680014183E+01  0.17992052546E+02 -0.20559837513E+01  0.18726314681E+02  0.00000000000E+00 0. -1.
         11    1    3    3    0    0  0.21411491764E+01 -0.28867861461E+02 -0.23229531320E+02  0.37115348183E+02  0.51100000000E-03 0. -1.
        -11    1    3    3    0    0  0.15345942515E+01  0.54762906367E+01 -0.21942694421E+01  0.60958639503E+01  0.51100000000E-03 0.  1.
         12    1    3    3    0    0 -0.84437448462E+01  0.53995182789E+01  0.27479784514E+02  0.29250473186E+02  0.00000000000E+00 0. -1.
</event>
<event>
 7    1  0.1360399E-013  0.7246157E+02  0.7816164E-02  0.1226708E+00
        -11   -1    0    0    0    0  0.00000000000E+00  0.00000000000E+00  0.45593999997E+02  0.45594000000E+02  0.51100000000E-03 0.  1.
         11   -1    0    0    0    0 -0.00000000000E+00 -0.00000000000E+00 -0.45593999997E+02  0.45594000000E+02  0.51100000000E-03 0. -1.
    9900012    2    1    2    0    0  0.15867950771E+02 -0.92756715311E+01  0.35846004179E+01  0.72461566699E+02  0.69999995316E+02 0.  0.
         12    1    1    2    0    0 -0.15867950771E+02  0.92756715311E+01 -0.35846004179E+01  0.18726433301E+02  0.00000000000E+00 0. -1.
         11    1    3    3    0    0 -0.13418681923E+02 -0.16664992487E+02 -0.20476111850E+02  0.29615100133E+02  0.51100000000E-03 0. -1.
        -11    1    3    3    0    0  0.10752331086E+02 -0.41067196457E+01  0.15748237369E+02  0.19506018315E+02  0.51100000000E-03 0.  1.
         12    1    3    3    0    0  0.18534301608E+02  0.11496040601E+02  0.83124748988E+01  0.23340448251E+02  0.00000000000E+00 0. -1.
</event>
<event>
 7    1  0.1360399E-013  0.7246151E+02  0.7816164E-02  0.1226708E+00
        -11   -1    0    0    0    0  0.00000000000E+00  0.00000000000E+00  0.45593999997E+02  0.45594000000E+02  0.51100000000E-03 0.  1.
         11   -1    0    0    0    0 -0.00000000000E+00 -0.00000000000E+00 -0.45593999997E+02  0.45594000000E+02  0.51100000000E-03 0. -1.
    9900012    2    1    2    0    0 -0.42321811134E+01 -0.16212555149E+02 -0.83620073953E+01  0.72461508895E+02  0.69999920016E+02 0.  0.
         12    1    1    2    0    0  0.42321811134E+01  0.16212555149E+02  0.83620073953E+01  0.18726491105E+02  0.00000000000E+00 0. -1.
         11    1    3    3    0    0  0.19255852481E+02 -0.36717274642E+01 -0.23908146003E+02  0.30917129280E+02  0.51100000000E-03 0. -1.
        -11    1    3    3    0    0 -0.39437028460E+01 -0.23245768028E+01  0.18712952913E+02  0.19264762039E+02  0.51100000000E-03 0.  1.
         12    1    3    3    0    0 -0.19544330748E+02 -0.10216250882E+02 -0.31668143053E+01  0.22279617576E+02  0.00000000000E+00 0. -1.
</event>
<event>
 7    1  0.1360399E-013  0.7246152E+02  0.7816164E-02  0.1226708E+00
        -11   -1    0    0    0    0  0.00000000000E+00  0.00000000000E+00  0.45593999997E+02  0.45594000000E+02  0.51100000000E-03 0.  1.
         11   -1    0    0    0    0 -0.00000000000E+00 -0.00000000000E+00 -0.45593999997E+02  0.45594000000E+02  0.51100000000E-03 0. -1.
    9900012    2    1    2    0    0  0.16850132790E+02  0.69498162583E+01  0.42958314539E+01  0.72461519046E+02  0.69999933239E+02 0.  0.
         12    1    1    2    0    0 -0.16850132790E+02 -0.69498162583E+01 -0.42958314539E+01  0.18726480954E+02  0.00000000000E+00 0. -1.
         11    1    3    3    0    0 -0.92107598686E+01 -0.13989462875E+02  0.48341562254E+01  0.17433078774E+02  0.51100000000E-03 0. -1.
        -11    1    3    3    0    0  0.32261684809E+02  0.28780665011E+02 -0.59820848929E+01  0.43645484590E+02  0.51100000000E-03 0.  1.
        -12    1    3    3    0    0 -0.62007921506E+01 -0.78413858780E+01  0.54437601213E+01  0.11382955681E+02  0.00000000000E+00 0.  1.
</event>
<event>
 7    1  0.1360399E-013  0.7246158E+02  0.7816164E-02  0.1226708E+00
        -11   -1    0    0    0    0  0.00000000000E+00  0.00000000000E+00  0.45593999997E+02  0.45594000000E+02  0.51100000000E-03 0.  1.
         11   -1    0    0    0    0 -0.00000000000E+00 -0.00000000000E+00 -0.45593999997E+02  0.45594000000E+02  0.51100000000E-03 0. -1.
    9900012    2    1    2    0    0 -0.99631687254E+01 -0.13564018451E+02 -0.82116565470E+01  0.72461584677E+02  0.70000018736E+02 0.  0.
         12    1    1    2    0    0  0.99631687254E+01  0.13564018451E+02  0.82116565470E+01  0.18726415323E+02  0.00000000000E+00 0. -1.
         11    1    3    3    0    0  0.11508729162E+02  0.14337823602E+02 -0.14218391031E+01  0.18440326984E+02  0.51100000000E-03 0. -1.
        -11    1    3    3    0    0 -0.31421522701E+02 -0.17638052473E+02 -0.13173227636E+02  0.38365960310E+02  0.51100000000E-03 0.  1.
        -12    1    3    3    0    0  0.99496248138E+01 -0.10263789580E+02  0.63834101920E+01  0.15655297383E+02  0.00000000000E+00 0.  1.
</event>
<event>
 7    1  0.1360399E-013  0.7246158E+02  0.7816164E-02  0.1226708E+00
        -11   -1    0    0    0    0  0.00000000000E+00  0.00000000000E+00  0.45593999997E+02  0.45594000000E+02  0.51100000000E-03 0.  1.
         11   -1    0    0    0    0 -0.00000000000E+00 -0.00000000000E+00 -0.45593999997E+02  0.45594000000E+02  0.51100000000E-03 0. -1.
    9900012    2    1    2    0    0  0.15194911378E+02 -0.71406843778E+01  0.82948266420E+01  0.72461578714E+02  0.70000010968E+02 0.  0.
         12    1    1    2    0    0 -0.15194911378E+02  0.71406843778E+01 -0.82948266420E+01  0.18726421286E+02  0.00000000000E+00 0. -1.
         11    1    3    3    0    0  0.95674726273E+01 -0.53067226772E+01 -0.21931578071E+02  0.24509017830E+02  0.51100000000E-03 0. -1.
        -11    1    3    3    0    0  0.13619173083E+02 -0.14512020192E+02  0.86934049366E+01  0.21717640185E+02  0.51100000000E-03 0.  1.
         12    1    3    3    0    0 -0.79917343328E+01  0.12678058492E+02  0.21532999776E+02  0.26234920700E+02  0.00000000000E+00 0. -1.
</event>
<event>
 7    1  0.1360399E-013  0.7246158E+02  0.7816164E-02  0.1226708E+00
        -11   -1    0    0    0    0  0.00000000000E+00  0.00000000000E+00  0.45593999997E+02  0.45594000000E+02  0.51100000000E-03 0. -1.
         11   -1    0    0    0    0 -0.00000000000E+00 -0.00000000000E+00 -0.45593999997E+02  0.45594000000E+02  0.51100000000E-03 0.  1.
    9900012    2    1    2    0    0 -0.10493385799E+02  0.37874275791E+01 -0.15040716214E+02  0.72461577559E+02  0.70000009464E+02 0.  0.
         12    1    1    2    0    0  0.10493385799E+02 -0.37874275791E+01  0.15040716214E+02  0.18726422441E+02  0.00000000000E+00 0. -1.
         11    1    3    3    0    0  0.72043546641E+01  0.14253728909E+02 -0.15263765658E+02  0.22091945506E+02  0.51100000000E-03 0.  1.
        -11    1    3    3    0    0 -0.29995152223E+02 -0.82312631701E+01 -0.11569172855E+02  0.33185970094E+02  0.51100000000E-03 0. -1.
        -12    1    3    3    0    0  0.12297411760E+02 -0.22350381596E+01  0.11792222299E+02  0.17183661959E+02  0.00000000000E+00 0.  1.
</event>
<event>
 8    1  0.1360399E-013  0.7246153E+02  0.7816164E-02  0.1226708E+00
        -11   -1    0    0    0    0  0.00000000000E+00  0.00000000000E+00  0.45593999997E+02  0.45594000000E+02  0.51100000000E-03 0.  1.
         11   -1    0    0    0    0 -0.00000000000E+00 -0.00000000000E+00 -0.45593999997E+02  0.45594000000E+02  0.51100000000E-03 0. -1.
    9900012    2    1    2    0    0 -0.12979451423E+02 -0.12181134305E+02 -0.58167266723E+01  0.72461534733E+02  0.69999953675E+02 0.  0.
         24    2    3    3    0    0 -0.21510342270E+02 -0.10503417752E+02 -0.15457699151E+01  0.62774847820E+02  0.58010994692E+02 0.  0.
         12    1    1    2    0    0  0.12979451423E+02  0.12181134305E+02  0.58167266723E+01  0.18726465267E+02  0.00000000000E+00 0. -1.
         11    1    3    3    0    0  0.85308908468E+01 -0.16777165529E+01 -0.42709567572E+01  0.96866869133E+01  0.51100000000E-03 0. -1.
        -11    1    4    4    0    0 -0.26426441344E+02 -0.20671023949E+02  0.19560942496E+02  0.38836561443E+02  0.51100000000E-03 0.  1.
         12    1    4    4    0    0  0.49160990739E+01  0.10167606196E+02 -0.21106712411E+02  0.23938286377E+02  0.00000000000E+00 0. -1.
</event>
<event>
 7    1  0.1360399E-013  0.7246162E+02  0.7816164E-02  0.1226708E+00
        -11   -1    0    0    0    0  0.00000000000E+00  0.00000000000E+00  0.45593999997E+02  0.45594000000E+02  0.51100000000E-03 0. -1.
         11   -1    0    0    0    0 -0.00000000000E+00 -0.00000000000E+00 -0.45593999997E+02  0.45594000000E+02  0.51100000000E-03 0.  1.
    9900012    2    1    2    0    0  0.12282455832E+02  0.97434567147E+01 -0.10241266860E+02  0.72461622430E+02  0.70000067916E+02 0.  0.
         12    1    1    2    0    0 -0.12282455832E+02 -0.97434567147E+01  0.10241266860E+02  0.18726377570E+02  0.00000000000E+00 0. -1.
         11    1    3    3    0    0  0.57971690620E+01  0.39023128539E+01  0.27178810639E+02  0.28062839535E+02  0.51100000000E-03 0. -1.
        -11    1    3    3    0    0  0.66472805219E+01  0.10777522620E+02 -0.89568300357E+01  0.15510194606E+02  0.51100000000E-03 0.  1.
         12    1    3    3    0    0 -0.16199375218E+00 -0.49363787589E+01 -0.28463247463E+02  0.28888588290E+02  0.00000000000E+00 0. -1.
</event>
<event>
 7    1  0.1360399E-013  0.7246157E+02  0.7816164E-02  0.1226708E+00
        -11   -1    0    0    0    0  0.00000000000E+00  0.00000000000E+00  0.45593999997E+02  0.45594000000E+02  0.51100000000E-03 0. -1.
         11   -1    0    0    0    0 -0.00000000000E+00 -0.00000000000E+00 -0.45593999997E+02  0.45594000000E+02  0.51100000000E-03 0.  1.
    9900012    2    1    2    0    0 -0.11481049183E+02  0.14330587417E+02  0.36741175574E+01  0.72461565051E+02  0.69999993170E+02 0.  0.
         12    1    1    2    0    0  0.11481049183E+02 -0.14330587417E+02 -0.36741175574E+01  0.18726434949E+02  0.00000000000E+00 0. -1.
         11    1    3    3    0    0  0.75028236492E+01  0.17133402133E+02  0.26349790326E+02  0.32313422627E+02  0.51100000000E-03 0. -1.
        -11    1    3    3    0    0 -0.11536195601E+02 -0.14907750912E+02 -0.11641978259E+02  0.22155371905E+02  0.51100000000E-03 0.  1.
        -12    1    3    3    0    0 -0.74476772321E+01  0.12104936196E+02 -0.11033694509E+02  0.17992770520E+02  0.00000000000E+00 0.  1.
</event>
<event>
 7    1  0.1360399E-013  0.7246155E+02  0.7816164E-02  0.1226708E+00
        -11   -1    0    0    0    0  0.00000000000E+00  0.00000000000E+00  0.45593999997E+02  0.45594000000E+02  0.51100000000E-03 0.  1.
         11   -1    0    0    0    0 -0.00000000000E+00 -0.00000000000E+00 -0.45593999997E+02  0.45594000000E+02  0.51100000000E-03 0. -1.
    9900012    2    1    2    0    0  0.45083533214E+01 -0.38806469612E+01  0.17756554406E+02  0.72461550928E+02  0.69999974771E+02 0.  0.
         12    1    1    2    0    0 -0.45083533214E+01  0.38806469612E+01 -0.17756554406E+02  0.18726449072E+02  0.00000000000E+00 0. -1.
         11    1    3    3    0    0 -0.19744039049E+02  0.84933053301E+01  0.10559603438E+02  0.23947203144E+02  0.51100000000E-03 0. -1.
        -11    1    3    3    0    0  0.25163778934E+02  0.87149497564E+01  0.16094339979E+01  0.26678763043E+02  0.51100000000E-03 0.  1.
        -12    1    3    3    0    0 -0.91138656313E+00 -0.21088902048E+02  0.55875169693E+01  0.21835584740E+02  0.00000000000E+00 0.  1.
</event>
<event>
 7    1  0.1360399E-013  0.7246163E+02  0.7816164E-02  0.1226708E+00
        -11   -1    0    0    0    0  0.00000000000E+00  0.00000000000E+00  0.45593999997E+02  0.45594000000E+02  0.51100000000E-03 0.  1.
         11   -1    0    0    0    0 -0.00000000000E+00 -0.00000000000E+00 -0.45593999997E+02  0.45594000000E+02  0.51100000000E-03 0. -1.
    9900012    2    1    2    0    0  0.38633041536E+01  0.15894204577E+02  0.91173488062E+01  0.72461630694E+02  0.70000078682E+02 0.  0.
         12    1    1    2    0    0 -0.38633041536E+01 -0.15894204577E+02 -0.91173488062E+01  0.18726369306E+02  0.00000000000E+00 0. -1.
         11    1    3    3    0    0 -0.23838520187E+02  0.87960515661E+01  0.72725936999E+01  0.26429835172E+02  0.51100000000E-03 0. -1.
        -11    1    3    3    0    0  0.80706009192E+01 -0.11209406606E+02  0.11013663729E+02  0.17665961187E+02  0.51100000000E-03 0.  1.
         12    1    3    3    0    0  0.19631223421E+02  0.18307559618E+02 -0.91689086225E+01  0.28365834335E+02  0.00000000000E+00 0. -1.
</event>
<event>
 7    1  0.1360399E-013  0.7246157E+02  0.7816164E-02  0.1226708E+00
        -11   -1    0    0    0    0  0.00000000000E+00  0.00000000000E+00  0.45593999997E+02  0.45594000000E+02  0.51100000000E-03 0.  1.
         11   -1    0    0    0    0 -0.00000000000E+00 -0.00000000000E+00 -0.45593999997E+02  0.45594000000E+02  0.51100000000E-03 0. -1.
    9900012    2    1    2    0    0 -0.13034113300E+02 -0.13347742381E+02 -0.16214238204E+01  0.72461565439E+02  0.69999993675E+02 0.  0.
         12    1    1    2    0    0  0.13034113300E+02  0.13347742381E+02  0.16214238204E+01  0.18726434561E+02  0.00000000000E+00 0. -1.
         11    1    3    3    0    0  0.19760731673E+02  0.11730020523E+01 -0.43005216865E+00  0.19800186747E+02  0.51100000000E-03 0. -1.
        -11    1    3    3    0    0 -0.19029521937E+02  0.10360764295E+02 -0.85436603930E+01  0.23290819545E+02  0.51100000000E-03 0.  1.
         12    1    3    3    0    0 -0.13765323036E+02 -0.24881508728E+02  0.73522887412E+01  0.29370559147E+02  0.00000000000E+00 0. -1.
</event>
<event>
 7    1  0.1360399E-013  0.7246160E+02  0.7816164E-02  0.1226708E+00
        -11   -1    0    0    0    0  0.00000000000E+00  0.00000000000E+00  0.45593999997E+02  0.45594000000E+02  0.51100000000E-03 0.  1.
         11   -1    0    0    0    0 -0.00000000000E+00 -0.00000000000E+00 -0.45593999997E+02  0.45594000000E+02  0.51100000000E-03 0. -1.
    9900012    2    1    2    0    0  0.76049289200E+01  0.66820650503E+01  0.15754146015E+02  0.72461600083E+02  0.70000038805E+02 0.  0.
         12    1    1    2    0    0 -0.76049289200E+01 -0.66820650503E+01 -0.15754146015E+02  0.18726399917E+02  0.00000000000E+00 0. -1.
         11    1    3    3    0    0 -0.14558825719E+02  0.22771965175E+01 -0.71884204476E+01  0.16395682940E+02  0.51100000000E-03 0. -1.
        -11    1    3    3    0    0  0.99107358318E+01  0.78157617153E+01  0.35812461838E+02  0.37971584627E+02  0.51100000000E-03 0.  1.
         12    1    3    3    0    0  0.12253018807E+02 -0.34108931825E+01 -0.12869895376E+02  0.18094332515E+02  0.00000000000E+00 0. -1.
</event>
<event>
 7    1  0.1360399E-013  0.7246155E+02  0.7816164E-02  0.1226708E+00
        -11   -1    0    0    0    0  0.00000000000E+00  0.00000000000E+00  0.45593999997E+02  0.45594000000E+02  0.51100000000E-03 0.  1.
         11   -1    0    0    0    0 -0.00000000000E+00 -0.00000000000E+00 -0.45593999997E+02  0.45594000000E+02  0.51100000000E-03 0. -1.
    9900012    2    1    2    0    0 -0.14906893088E+02 -0.13185199102E+01  0.11257263089E+02  0.72461550028E+02  0.69999973600E+02 0.  0.
         12    1    1    2    0    0  0.14906893088E+02  0.13185199102E+01 -0.11257263089E+02  0.18726449972E+02  0.00000000000E+00 0. -1.
         11    1    3    3    0    0  0.17124000729E+02 -0.16457503291E+01  0.19271228950E+02  0.25832540731E+02  0.51100000000E-03 0. -1.
        -11    1    3    3    0    0 -0.15096111178E+02  0.82470711750E+01  0.10633925758E+02  0.20223430296E+02  0.51100000000E-03 0.  1.
         12    1    3    3    0    0 -0.16934782639E+02 -0.79198407561E+01 -0.18647891618E+02  0.26405579002E+02  0.00000000000E+00 0. -1.
</event>
<event>
 7    1  0.1360399E-013  0.7246158E+02  0.7816164E-02  0.1226708E+00
        -11   -1    0    0    0    0  0.00000000000E+00  0.00000000000E+00  0.45593999997E+02  0.45594000000E+02  0.51100000000E-03 0.  1.
         11   -1    0    0    0    0 -0.00000000000E+00 -0.00000000000E+00 -0.45593999997E+02  0.45594000000E+02  0.51100000000E-03 0. -1.
    9900012    2    1    2    0    0 -0.79766633377E+01 -0.47947414075E+01  0.16249991566E+02  0.72461576715E+02  0.70000008364E+02 0.  0.
         12    1    1    2    0    0  0.79766633377E+01  0.47947414075E+01 -0.16249991566E+02  0.18726423285E+02  0.00000000000E+00 0. -1.
         11    1    3    3    0    0 -0.25642236677E+02 -0.16031795306E+02  0.24901648305E+02  0.39174415772E+02  0.51100000000E-03 0. -1.
        -11    1    3    3    0    0  0.19095439310E+02  0.12867917431E+02  0.13374518553E+01  0.23065295992E+02  0.51100000000E-03 0.  1.
         12    1    3    3    0    0 -0.14298659712E+01 -0.16308635326E+01 -0.99891085948E+01  0.10221864951E+02  0.00000000000E+00 0. -1.
</event>
<event>
 7    1  0.1360399E-013  0.7246164E+02  0.7816164E-02  0.1226708E+00
        -11   -1    0    0    0    0  0.00000000000E+00  0.00000000000E+00  0.45593999997E+02  0.45594000000E+02  0.51100000000E-03 0.  1.
         11   -1    0    0    0    0 -0.00000000000E+00 -0.00000000000E+00 -0.45593999997E+02  0.45594000000E+02  0.51100000000E-03 0. -1.
    9900012    2    1    2    0    0  0.34879478193E+01 -0.16742293647E+02  0.76293134032E+01  0.72461638913E+02  0.70000089388E+02 0.  0.
         12    1    1    2    0    0 -0.34879478193E+01  0.16742293647E+02 -0.76293134032E+01  0.18726361087E+02  0.00000000000E+00 0. -1.
         11    1    3    3    0    0 -0.11971361853E+02 -0.22139182097E+02 -0.10152167843E+02  0.27138964622E+02  0.51100000000E-03 0. -1.
        -11    1    3    3    0    0  0.20943782234E+02 -0.94317528847E+01  0.18504100466E+02  0.29495791413E+02  0.51100000000E-03 0.  1.
        -12    1    3    3    0    0 -0.54844725616E+01  0.14828641335E+02 -0.72261922007E+00  0.15826882878E+02  0.00000000000E+00 0.  1.
</event>
<event>
 7    1  0.1360399E-013  0.7246153E+02  0.7816164E-02  0.1226708E+00
        -11   -1    0    0    0    0  0.00000000000E+00  0.00000000000E+00  0.45593999997E+02  0.45594000000E+02  0.51100000000E-03 0.  1.
         11   -1    0    0    0    0 -0.00000000000E+00 -0.00000000000E+00 -0.45593999997E+02  0.45594000000E+02  0.51100000000E-03 0. -1.
    9900012    2    1    2    0    0 -0.14259316431E+02 -0.40529132823E+01  0.11442312409E+02  0.72461528778E+02  0.69999945918E+02 0.  0.
         12    1    1    2    0    0  0.14259316431E+02  0.40529132823E+01 -0.11442312409E+02  0.18726471222E+02  0.00000000000E+00 0. -1.
         11    1    3    3    0    0  0.22593439901E+02  0.11058881835E+02  0.10720232657E+01  0.25177601715E+02  0.51100000000E-03 0. -1.
        -11    1    3    3    0    0 -0.22888572237E+02 -0.83492965164E+01  0.17709532937E+02  0.30120176767E+02  0.51100000000E-03 0.  1.
         12    1    3    3    0    0 -0.13964184094E+02 -0.67624986011E+01 -0.73392437940E+01  0.17163750296E+02  0.00000000000E+00 0. -1.
</event>
<event>
 7    1  0.1360399E-013  0.7246158E+02  0.7816164E-02  0.1226708E+00
        -11   -1    0    0    0    0  0.00000000000E+00  0.00000000000E+00  0.45593999997E+02  0.45594000000E+02  0.51100000000E-03 0.  1.
         11   -1    0    0    0    0 -0.00000000000E+00 -0.00000000000E+00 -0.45593999997E+02  0.45594000000E+02  0.51100000000E-03 0. -1.
    9900012    2    1    2    0    0  0.17333738159E+02 -0.46679666738E+01  0.53320347671E+01  0.72461575189E+02  0.70000006376E+02 0.  0.
         12    1    1    2    0    0 -0.17333738159E+02  0.46679666738E+01 -0.53320347671E+01  0.18726424811E+02  0.00000000000E+00 0. -1.
         11    1    3    3    0    0  0.18816191097E+02  0.57828803760E+01 -0.75836804459E-02  0.19684786273E+02  0.51100000000E-03 0. -1.
        -11    1    3    3    0    0  0.65217503662E+01 -0.26272118925E+02 -0.10467593263E+02  0.29022886997E+02  0.51100000000E-03 0.  1.
        -12    1    3    3    0    0 -0.80042033042E+01  0.15821271875E+02  0.15807211711E+02  0.23753901919E+02  0.00000000000E+00 0.  1.
</event>
<event>
 7    1  0.1360399E-013  0.7246133E+02  0.7816164E-02  0.1226709E+00
        -11   -1    0    0    0    0  0.00000000000E+00  0.00000000000E+00  0.45593999997E+02  0.45594000000E+02  0.51100000000E-03 0.  1.
         11   -1    0    0    0    0 -0.00000000000E+00 -0.00000000000E+00 -0.45593999997E+02  0.45594000000E+02  0.51100000000E-03 0. -1.
    9900012    2    1    2    0    0 -0.17721738562E+02  0.58460000911E+01 -0.15660713233E+01  0.72461326133E+02  0.69999681934E+02 0.  0.
         12    1    1    2    0    0  0.17721738562E+02 -0.58460000911E+01  0.15660713233E+01  0.18726673867E+02  0.00000000000E+00 0. -1.
         11    1    3    3    0    0 -0.33919753313E+02 -0.12971576217E+02  0.12658409889E+02  0.38458377442E+02  0.51100000000E-03 0.  1.
        -11    1    3    3    0    0  0.15596082753E+02  0.91595838228E+01 -0.16019510925E+02  0.24161136223E+02  0.51100000000E-03 0. -1.
        -12    1    3    3    0    0  0.60193199751E+00  0.96579924853E+01  0.17950297134E+01  0.98418124676E+01  0.00000000000E+00 0.  1.
</event>
<event>
 7    1  0.1360399E-013  0.7246232E+02  0.7816164E-02  0.1226706E+00
        -11   -1    0    0    0    0  0.00000000000E+00  0.00000000000E+00  0.45593999997E+02  0.45594000000E+02  0.51100000000E-03 0. -1.
         11   -1    0    0    0    0 -0.00000000000E+00 -0.00000000000E+00 -0.45593999997E+02  0.45594000000E+02  0.51100000000E-03 0.  1.
    9900012    2    1    2    0    0 -0.32645101218E+01 -0.17224545162E+02  0.65809690728E+01  0.72462318803E+02  0.70000975064E+02 0.  0.
         12    1    1    2    0    0  0.32645101218E+01  0.17224545162E+02 -0.65809690728E+01  0.18725681197E+02  0.00000000000E+00 0. -1.
         11    1    3    3    0    0 -0.77224147719E+00  0.35890949395E+01 -0.21869686253E+02  0.22175687959E+02  0.51100000000E-03 0.  1.
        -11    1    3    3    0    0  0.21023333716E+01 -0.28329721780E+02  0.10491082370E+02  0.30282928380E+02  0.51100000000E-03 0. -1.
        -12    1    3    3    0    0 -0.45946020163E+01  0.75160816786E+01  0.17959572956E+02  0.20003702464E+02  0.00000000000E+00 0.  1.
</event>
<event>
 7    1  0.1360399E-013  0.7246155E+02  0.7816164E-02  0.1226708E+00
        -11   -1    0    0    0    0  0.00000000000E+00  0.00000000000E+00  0.45593999997E+02  0.45594000000E+02  0.51100000000E-03 0. -1.
         11   -1    0    0    0    0 -0.00000000000E+00 -0.00000000000E+00 -0.45593999997E+02  0.45594000000E+02  0.51100000000E-03 0.  1.
    9900012    2    1    2    0    0  0.18442992722E+02  0.72971855655E+00 -0.31628020802E+01  0.72461553815E+02  0.69999978533E+02 0.  0.
         12    1    1    2    0    0 -0.18442992722E+02 -0.72971855655E+00  0.31628020802E+01  0.18726446185E+02  0.00000000000E+00 0. -1.
         11    1    3    3    0    0 -0.65540270731E+01  0.10016809618E+01  0.24683846618E+01  0.70747126249E+01  0.51100000000E-03 0. -1.
        -11    1    3    3    0    0  0.41726752328E+02 -0.13109730534E+02 -0.76238846778E+00  0.43744349703E+02  0.51100000000E-03 0.  1.
        -12    1    3    3    0    0 -0.16729732533E+02  0.12837768128E+02 -0.48687982742E+01  0.21642491487E+02  0.00000000000E+00 0.  1.
</event>
<event>
 7    1  0.1360399E-013  0.7246149E+02  0.7816164E-02  0.1226708E+00
        -11   -1    0    0    0    0  0.00000000000E+00  0.00000000000E+00  0.45593999997E+02  0.45594000000E+02  0.51100000000E-03 0.  1.
         11   -1    0    0    0    0 -0.00000000000E+00 -0.00000000000E+00 -0.45593999997E+02  0.45594000000E+02  0.51100000000E-03 0. -1.
    9900012    2    1    2    0    0 -0.75831334351E+01 -0.17051231063E+02  0.15600833473E+01  0.72461487951E+02  0.69999892732E+02 0.  0.
         12    1    1    2    0    0  0.75831334351E+01  0.17051231063E+02 -0.15600833473E+01  0.18726512049E+02  0.00000000000E+00 0. -1.
         11    1    3    3    0    0 -0.18203697812E+02  0.21430504225E+01 -0.19443143968E+02  0.26720836940E+02  0.51100000000E-03 0. -1.
        -11    1    3    3    0    0  0.16328081832E+02 -0.26549210701E+02  0.17813336237E+02  0.35899607147E+02  0.51100000000E-03 0.  1.
         12    1    3    3    0    0 -0.57075174554E+01  0.73549292147E+01  0.31898910781E+01  0.98410438647E+01  0.00000000000E+00 0. -1.
</event>
<event>
 7    1  0.1360399E-013  0.7246168E+02  0.7816164E-02  0.1226708E+00
        -11   -1    0    0    0    0  0.00000000000E+00  0.00000000000E+00  0.45593999997E+02  0.45594000000E+02  0.51100000000E-03 0.  1.
         11   -1    0    0    0    0 -0.00000000000E+00 -0.00000000000E+00 -0.45593999997E+02  0.45594000000E+02  0.51100000000E-03 0. -1.
    9900012    2    1    2    0    0 -0.18120881239E+02 -0.43510047394E+01 -0.18378342593E+01  0.72461675911E+02  0.70000137585E+02 0.  0.
         12    1    1    2    0    0  0.18120881239E+02  0.43510047394E+01  0.18378342593E+01  0.18726324089E+02  0.00000000000E+00 0. -1.
         11    1    3    3    0    0 -0.40372949799E+02 -0.52818768805E+01 -0.10591643018E+02  0.42072035854E+02  0.51100000000E-03 0. -1.
        -11    1    3    3    0    0  0.18809687960E+02 -0.79749702091E+00  0.14296733160E+02  0.23639732273E+02  0.51100000000E-03 0.  1.
        -12    1    3    3    0    0  0.34423806000E+01  0.17283691620E+01 -0.55429244017E+01  0.67499077830E+01  0.00000000000E+00 0.  1.
</event>
<event>
 7    1  0.1360399E-013  0.7246143E+02  0.7816164E-02  0.1226708E+00
        -11   -1    0    0    0    0  0.00000000000E+00  0.00000000000E+00  0.45593999997E+02  0.45594000000E+02  0.51100000000E-03 0.  1.
         11   -1    0    0    0    0 -0.00000000000E+00 -0.00000000000E+00 -0.45593999997E+02  0.45594000000E+02  0.51100000000E-03 0. -1.
    9900012    2    1    2    0    0  0.25151406366E+01 -0.59662195558E+01  0.17571650361E+02  0.72461425177E+02  0.69999810957E+02 0.  0.
         12    1    1    2    0    0 -0.25151406366E+01  0.59662195558E+01 -0.17571650361E+02  0.18726574823E+02  0.00000000000E+00 0. -1.
         11    1    3    3    0    0 -0.17309068027E+02  0.36880979422E+01  0.51966272444E+01  0.18444805159E+02  0.51100000000E-03 0. -1.
        -11    1    3    3    0    0  0.34703588246E+02 -0.13381843940E+02  0.77237629315E+01  0.37987751953E+02  0.51100000000E-03 0.  1.
        -12    1    3    3    0    0 -0.14879379582E+02  0.37275264418E+01  0.46512601847E+01  0.16028868065E+02  0.00000000000E+00 0.  1.
</event>
<event>
 7    1  0.1360399E-013  0.7246157E+02  0.7816164E-02  0.1226708E+00
        -11   -1    0    0    0    0  0.00000000000E+00  0.00000000000E+00  0.45593999997E+02  0.45594000000E+02  0.51100000000E-03 0. -1.
         11   -1    0    0    0    0 -0.00000000000E+00 -0.00000000000E+00 -0.45593999997E+02  0.45594000000E+02  0.51100000000E-03 0.  1.
    9900012    2    1    2    0    0  0.12091948965E+02  0.51753964613E+01 -0.13329633128E+02  0.72461572748E+02  0.70000003196E+02 0.  0.
         12    1    1    2    0    0 -0.12091948965E+02 -0.51753964613E+01  0.13329633128E+02  0.18726427252E+02  0.00000000000E+00 0. -1.
         11    1    3    3    0    0  0.43672868059E+01  0.15054845302E+02  0.16413828920E+02  0.22696593163E+02  0.51100000000E-03 0. -1.
        -11    1    3    3    0    0 -0.29507238550E+01 -0.20180720628E+02 -0.51367248721E+01  0.21032218119E+02  0.51100000000E-03 0.  1.
        -12    1    3    3    0    0  0.10675386014E+02  0.10301271788E+02 -0.24606737176E+02  0.28732761466E+02  0.00000000000E+00 0.  1.
</event>
<event>
 7    1  0.1360399E-013  0.7246157E+02  0.7816164E-02  0.1226708E+00
        -11   -1    0    0    0    0  0.00000000000E+00  0.00000000000E+00  0.45593999997E+02  0.45594000000E+02  0.51100000000E-03 0.  1.
         11   -1    0    0    0    0 -0.00000000000E+00 -0.00000000000E+00 -0.45593999997E+02  0.45594000000E+02  0.51100000000E-03 0. -1.
    9900012    2    1    2    0    0  0.30901892077E+01  0.18155842105E+02  0.33904725422E+01  0.72461570123E+02  0.69999999777E+02 0.  0.
         12    1    1    2    0    0 -0.30901892077E+01 -0.18155842105E+02 -0.33904725422E+01  0.18726429877E+02  0.00000000000E+00 0. -1.
         11    1    3    3    0    0 -0.10535016192E+01  0.73967052148E+01 -0.28576156807E+02  0.29536720397E+02  0.51100000000E-03 0. -1.
        -11    1    3    3    0    0  0.14210815445E+02  0.50712897003E+00  0.17279832622E+02  0.22378495729E+02  0.51100000000E-03 0.  1.
        -12    1    3    3    0    0 -0.10067124618E+02  0.10252007920E+02  0.14686796727E+02  0.20546353997E+02  0.00000000000E+00 0.  1.
</event>
<event>
 7    1  0.1360399E-013  0.7246159E+02  0.7816164E-02  0.1226708E+00
        -11   -1    0    0    0    0  0.00000000000E+00  0.00000000000E+00  0.45593999997E+02  0.45594000000E+02  0.51100000000E-03 0. -1.
         11   -1    0    0    0    0 -0.00000000000E+00 -0.00000000000E+00 -0.45593999997E+02  0.45594000000E+02  0.51100000000E-03 0.  1.
    9900012    2    1    2    0    0 -0.14947200348E+02 -0.11239200598E+02 -0.96962323673E+00  0.72461585566E+02  0.70000019895E+02 0.  0.
         12    1    1    2    0    0  0.14947200348E+02  0.11239200598E+02  0.96962323673E+00  0.18726414434E+02  0.00000000000E+00 0. -1.
         11    1    3    3    0    0 -0.43251687420E+01 -0.47571631292E+01  0.87488494387E+01  0.10857258054E+02  0.51100000000E-03 0. -1.
        -11    1    3    3    0    0 -0.23368329855E+02  0.17521440445E+02  0.65451952905E+01  0.29931911017E+02  0.51100000000E-03 0.  1.
        -12    1    3    3    0    0  0.12746298249E+02 -0.24003477913E+02 -0.16263667966E+02  0.31672416496E+02  0.00000000000E+00 0.  1.
</event>
<event>
 7    1  0.1360399E-013  0.7246155E+02  0.7816164E-02  0.1226708E+00
        -11   -1    0    0    0    0  0.00000000000E+00  0.00000000000E+00  0.45593999997E+02  0.45594000000E+02  0.51100000000E-03 0.  1.
         11   -1    0    0    0    0 -0.00000000000E+00 -0.00000000000E+00 -0.45593999997E+02  0.45594000000E+02  0.51100000000E-03 0. -1.
    9900012    2    1    2    0    0  0.18575564171E+02 -0.46633653236E+00 -0.23261008863E+01  0.72461553477E+02  0.69999978093E+02 0.  0.
         12    1    1    2    0    0 -0.18575564171E+02  0.46633653236E+00  0.23261008863E+01  0.18726446523E+02  0.00000000000E+00 0. -1.
         11    1    3    3    0    0 -0.41873043386E+01 -0.20521991493E+01 -0.32845947631E+01  0.57038234538E+01  0.51100000000E-03 0. -1.
        -11    1    3    3    0    0  0.13630743454E+02  0.80867986003E+01  0.30932337144E+02  0.34756336978E+02  0.51100000000E-03 0.  1.
        -12    1    3    3    0    0  0.91321250560E+01 -0.65009359834E+01 -0.29973843267E+02  0.32001393046E+02  0.00000000000E+00 0.  1.
</event>
<event>
 8    1  0.1360399E-013  0.7246161E+02  0.7816164E-02  0.1226708E+00
        -11   -1    0    0    0    0  0.00000000000E+00  0.00000000000E+00  0.45593999997E+02  0.45594000000E+02  0.51100000000E-03 0.  1.
         11   -1    0    0    0    0 -0.00000000000E+00 -0.00000000000E+00 -0.45593999997E+02  0.45594000000E+02  0.51100000000E-03 0. -1.
    9900012    2    1    2    0    0  0.18353757797E+02  0.13613608468E+01  0.34588893717E+01  0.72461611018E+02  0.70000053050E+02 0.  0.
        -24    2    3    3    0    0  0.27720213664E+02 -0.19869101427E+01 -0.30314767167E+01  0.60584478942E+02  0.53748778406E+02 0.  0.
         12    1    1    2    0    0 -0.18353757797E+02 -0.13613608468E+01 -0.34588893717E+01  0.18726388982E+02  0.00000000000E+00 0. -1.
         11    1    4    4    0    0  0.26319638536E+02 -0.25680904885E+02 -0.19654451655E+01  0.36825198212E+02  0.51100000000E-03 0. -1.
        -11    1    3    3    0    0 -0.93664558669E+01  0.33482709895E+01  0.64903660883E+01  0.11877132076E+02  0.51100000000E-03 0.  1.
        -12    1    4    4    0    0  0.14005751273E+01  0.23693994742E+02 -0.10660315512E+01  0.23759280730E+02  0.00000000000E+00 0.  1.
</event>
<event>
 7    1  0.1360399E-013  0.7246164E+02  0.7816164E-02  0.1226708E+00
        -11   -1    0    0    0    0  0.00000000000E+00  0.00000000000E+00  0.45593999997E+02  0.45594000000E+02  0.51100000000E-03 0.  1.
         11   -1    0    0    0    0 -0.00000000000E+00 -0.00000000000E+00 -0.45593999997E+02  0.45594000000E+02  0.51100000000E-03 0. -1.
    9900012    2    1    2    0    0 -0.13662622594E+02  0.24448705529E+01  0.12571074743E+02  0.72461639746E+02  0.70000090474E+02 0.  0.
         12    1    1    2    0    0  0.13662622594E+02 -0.24448705529E+01 -0.12571074743E+02  0.18726360254E+02  0.00000000000E+00 0. -1.
         11    1    3    3    0    0 -0.14664722004E+01  0.55287331869E+01 -0.22743359951E+02  0.23451606629E+02  0.51100000000E-03 0. -1.
        -11    1    3    3    0    0  0.30531500319E+01 -0.54533926075E+01  0.32780627812E+02  0.33371106905E+02  0.51100000000E-03 0.  1.
         12    1    3    3    0    0 -0.15249300425E+02  0.23695299736E+01  0.25338068825E+01  0.15638926212E+02  0.00000000000E+00 0. -1.
</event>
<event>
 7    1  0.1360399E-013  0.7246156E+02  0.7816164E-02  0.1226708E+00
        -11   -1    0    0    0    0  0.00000000000E+00  0.00000000000E+00  0.45593999997E+02  0.45594000000E+02  0.51100000000E-03 0.  1.
         11   -1    0    0    0    0 -0.00000000000E+00 -0.00000000000E+00 -0.45593999997E+02  0.45594000000E+02  0.51100000000E-03 0. -1.
    9900012    2    1    2    0    0  0.43248827259E+01  0.14250234942E+02  0.11353666499E+02  0.72461560150E+02  0.69999986785E+02 0.  0.
         12    1    1    2    0    0 -0.43248827259E+01 -0.14250234942E+02 -0.11353666499E+02  0.18726439850E+02  0.00000000000E+00 0. -1.
         11    1    3    3    0    0  0.15309550454E+02  0.11663309052E+02 -0.22984460826E+02  0.29978334725E+02  0.51100000000E-03 0. -1.
        -11    1    3    3    0    0 -0.54680595709E+01  0.82933800205E+01  0.32963814544E+02  0.34428082973E+02  0.51100000000E-03 0.  1.
         12    1    3    3    0    0 -0.55166081574E+01 -0.57064541305E+01  0.13743127805E+01  0.80551424521E+01  0.00000000000E+00 0. -1.
</event>
<event>
 7    1  0.1360399E-013  0.7246157E+02  0.7816164E-02  0.1226708E+00
        -11   -1    0    0    0    0  0.00000000000E+00  0.00000000000E+00  0.45593999997E+02  0.45594000000E+02  0.51100000000E-03 0.  1.
         11   -1    0    0    0    0 -0.00000000000E+00 -0.00000000000E+00 -0.45593999997E+02  0.45594000000E+02  0.51100000000E-03 0. -1.
    9900012    2    1    2    0    0 -0.91900427552E+01  0.11363793062E+02 -0.11708386946E+02  0.72461574728E+02  0.70000005776E+02 0.  0.
         12    1    1    2    0    0  0.91900427552E+01 -0.11363793062E+02  0.11708386946E+02  0.18726425272E+02  0.00000000000E+00 0. -1.
         11    1    3    3    0    0  0.67540424956E+01 -0.75075440801E+01 -0.50361183921E+00  0.10111079729E+02  0.51100000000E-03 0. -1.
        -11    1    3    3    0    0  0.42975039516E+01  0.35102166832E+02 -0.73562880612E+01  0.36121262863E+02  0.51100000000E-03 0.  1.
        -12    1    3    3    0    0 -0.20241589202E+02 -0.16230829690E+02 -0.38484870452E+01  0.26229232135E+02  0.00000000000E+00 0.  1.
</event>
<event>
 7    1  0.1360399E-013  0.7246094E+02  0.7816164E-02  0.1226710E+00
        -11   -1    0    0    0    0  0.00000000000E+00  0.00000000000E+00  0.45593999997E+02  0.45594000000E+02  0.51100000000E-03 0.  1.
         11   -1    0    0    0    0 -0.00000000000E+00 -0.00000000000E+00 -0.45593999997E+02  0.45594000000E+02  0.51100000000E-03 0. -1.
    9900012    2    1    2    0    0  0.16597977145E+02 -0.71780949106E+01  0.48667158333E+01  0.72460938969E+02  0.69999177577E+02 0.  0.
         12    1    1    2    0    0 -0.16597977145E+02  0.71780949106E+01 -0.48667158333E+01  0.18727061031E+02  0.00000000000E+00 0. -1.
         11    1    3    3    0    0  0.12711607525E+02  0.78346564696E+01  0.22033646924E+02  0.26616694102E+02  0.51100000000E-03 0.  1.
        -11    1    3    3    0    0 -0.41284368417E-02 -0.27347967279E+02 -0.18228998172E+02  0.32866513444E+02  0.51100000000E-03 0. -1.
         12    1    3    3    0    0  0.38904980566E+01  0.12335215899E+02  0.10620670818E+01  0.12977731423E+02  0.00000000000E+00 0. -1.
</event>
<event>
 7    1  0.1360399E-013  0.7246151E+02  0.7816164E-02  0.1226708E+00
        -11   -1    0    0    0    0  0.00000000000E+00  0.00000000000E+00  0.45593999997E+02  0.45594000000E+02  0.51100000000E-03 0.  1.
         11   -1    0    0    0    0 -0.00000000000E+00 -0.00000000000E+00 -0.45593999997E+02  0.45594000000E+02  0.51100000000E-03 0. -1.
    9900012    2    1    2    0    0 -0.43334846375E+01  0.89053972589E+00  0.18196406829E+02  0.72461511499E+02  0.69999923408E+02 0.  0.
         12    1    1    2    0    0  0.43334846375E+01 -0.89053972589E+00 -0.18196406829E+02  0.18726488501E+02  0.00000000000E+00 0. -1.
         11    1    3    3    0    0 -0.13410881182E+02 -0.29728878949E+00 -0.32632560938E+01  0.13805395876E+02  0.51100000000E-03 0. -1.
        -11    1    3    3    0    0  0.30361889730E+02 -0.32081544821E+01  0.40280721578E+01  0.30795486174E+02  0.51100000000E-03 0.  1.
        -12    1    3    3    0    0 -0.21284493185E+02  0.43959829975E+01  0.17431590765E+02  0.27860629448E+02  0.00000000000E+00 0.  1.
</event>
<event>
 7    1  0.1360399E-013  0.7246157E+02  0.7816164E-02  0.1226708E+00
        -11   -1    0    0    0    0  0.00000000000E+00  0.00000000000E+00  0.45593999997E+02  0.45594000000E+02  0.51100000000E-03 0. -1.
         11   -1    0    0    0    0 -0.00000000000E+00 -0.00000000000E+00 -0.45593999997E+02  0.45594000000E+02  0.51100000000E-03 0.  1.
    9900012    2    1    2    0    0  0.15651450470E+02  0.10111395204E+02 -0.18630979766E+01  0.72461565506E+02  0.69999993762E+02 0.  0.
         12    1    1    2    0    0 -0.15651450470E+02 -0.10111395204E+02  0.18630979766E+01  0.18726434494E+02  0.00000000000E+00 0. -1.
         11    1    3    3    0    0  0.47927616951E+01 -0.10992924971E+02  0.23289858637E+02  0.26196039389E+02  0.51100000000E-03 0. -1.
        -11    1    3    3    0    0  0.16802686328E+02  0.33605614015E+01 -0.20988174952E+02  0.27094780472E+02  0.51100000000E-03 0.  1.
        -12    1    3    3    0    0 -0.59439975529E+01  0.17743758773E+02 -0.41647816614E+01  0.19170745645E+02  0.00000000000E+00 0.  1.
</event>
<event>
 7    1  0.1360399E-013  0.7246158E+02  0.7816164E-02  0.1226708E+00
        -11   -1    0    0    0    0  0.00000000000E+00  0.00000000000E+00  0.45593999997E+02  0.45594000000E+02  0.51100000000E-03 0.  1.
         11   -1    0    0    0    0 -0.00000000000E+00 -0.00000000000E+00 -0.45593999997E+02  0.45594000000E+02  0.51100000000E-03 0. -1.
    9900012    2    1    2    0    0 -0.11292071244E+02 -0.59007209908E+01  0.13724045529E+02  0.72461579977E+02  0.70000012613E+02 0.  0.
         12    1    1    2    0    0  0.11292071244E+02  0.59007209908E+01 -0.13724045529E+02  0.18726420023E+02  0.00000000000E+00 0. -1.
         11    1    3    3    0    0 -0.33448899327E+02 -0.87269369277E+01  0.32180801972E+01  0.34718069283E+02  0.51100000000E-03 0. -1.
        -11    1    3    3    0    0  0.15709469251E+02 -0.79027854779E+01  0.16275102310E+02  0.23960809626E+02  0.51100000000E-03 0.  1.
        -12    1    3    3    0    0  0.64473588315E+01  0.10729001415E+02 -0.57691369780E+01  0.13782701068E+02  0.00000000000E+00 0.  1.
</event>
<event>
 7    1  0.1360399E-013  0.7246170E+02  0.7816164E-02  0.1226708E+00
        -11   -1    0    0    0    0  0.00000000000E+00  0.00000000000E+00  0.45593999997E+02  0.45594000000E+02  0.51100000000E-03 0. -1.
         11   -1    0    0    0    0 -0.00000000000E+00 -0.00000000000E+00 -0.45593999997E+02  0.45594000000E+02  0.51100000000E-03 0.  1.
    9900012    2    1    2    0    0  0.69597789465E+01 -0.52371357765E+01 -0.16577341076E+02  0.72461698943E+02  0.70000167589E+02 0.  0.
         12    1    1    2    0    0 -0.69597789465E+01  0.52371357765E+01  0.16577341076E+02  0.18726301057E+02  0.00000000000E+00 0. -1.
         11    1    3    3    0    0 -0.92304008960E+01  0.24626084618E+01 -0.20402009730E+02  0.22527910298E+02  0.51100000000E-03 0.  1.
        -11    1    3    3    0    0  0.28575156688E+02  0.55467055516E+01  0.99976140691E+01  0.30777553665E+02  0.51100000000E-03 0. -1.
         12    1    3    3    0    0 -0.12384976846E+02 -0.13246449790E+02 -0.61729454155E+01  0.19156234980E+02  0.00000000000E+00 0. -1.
</event>
<event>
 7    1  0.1360399E-013  0.7246157E+02  0.7816164E-02  0.1226708E+00
        -11   -1    0    0    0    0  0.00000000000E+00  0.00000000000E+00  0.45593999997E+02  0.45594000000E+02  0.51100000000E-03 0. -1.
         11   -1    0    0    0    0 -0.00000000000E+00 -0.00000000000E+00 -0.45593999997E+02  0.45594000000E+02  0.51100000000E-03 0.  1.
    9900012    2    1    2    0    0  0.12847835925E+02 -0.86571218496E+01  0.10519814451E+02  0.72461571009E+02  0.70000000931E+02 0.  0.
         12    1    1    2    0    0 -0.12847835925E+02  0.86571218496E+01 -0.10519814451E+02  0.18726428991E+02  0.00000000000E+00 0. -1.
         11    1    3    3    0    0 -0.16160241645E+02  0.22410693132E+02 -0.21601105453E+00  0.27630404227E+02  0.51100000000E-03 0. -1.
        -11    1    3    3    0    0  0.19453278465E+02 -0.14003139479E+02  0.59544733869E+01  0.24697645878E+02  0.51100000000E-03 0.  1.
         12    1    3    3    0    0  0.95547991047E+01 -0.17064675502E+02  0.47813521189E+01  0.20133520905E+02  0.00000000000E+00 0. -1.
</event>
<event>
 7    1  0.1360399E-013  0.7246157E+02  0.7816164E-02  0.1226708E+00
        -11   -1    0    0    0    0  0.00000000000E+00  0.00000000000E+00  0.45593999997E+02  0.45594000000E+02  0.51100000000E-03 0.  1.
         11   -1    0    0    0    0 -0.00000000000E+00 -0.00000000000E+00 -0.45593999997E+02  0.45594000000E+02  0.51100000000E-03 0. -1.
    9900012    2    1    2    0    0  0.92819955695E+01  0.96036378978E+01  0.13126081615E+02  0.72461566245E+02  0.69999994724E+02 0.  0.
         12    1    1    2    0    0 -0.92819955695E+01 -0.96036378978E+01 -0.13126081615E+02  0.18726433755E+02  0.00000000000E+00 0. -1.
         11    1    3    3    0    0  0.17067954204E+02 -0.12612656069E+02 -0.18528713441E+02  0.28172812708E+02  0.51100000000E-03 0. -1.
        -11    1    3    3    0    0  0.33831430428E+01  0.14789981751E+02  0.25173880362E+02  0.29392404968E+02  0.51100000000E-03 0.  1.
        -12    1    3    3    0    0 -0.11169101678E+02  0.74263122157E+01  0.64809146935E+01  0.14896348569E+02  0.00000000000E+00 0.  1.
</event>
<event>
 7    1  0.1360399E-013  0.7246158E+02  0.7816164E-02  0.1226708E+00
        -11   -1    0    0    0    0  0.00000000000E+00  0.00000000000E+00  0.45593999997E+02  0.45594000000E+02  0.51100000000E-03 0.  1.
         11   -1    0    0    0    0 -0.00000000000E+00 -0.00000000000E+00 -0.45593999997E+02  0.45594000000E+02  0.51100000000E-03 0. -1.
    9900012    2    1    2    0    0 -0.26003795743E+01 -0.23981979267E+01  0.18389273480E+02  0.72461582661E+02  0.70000016110E+02 0.  0.
         12    1    1    2    0    0  0.26003795743E+01  0.23981979267E+01 -0.18389273480E+02  0.18726417339E+02  0.00000000000E+00 0. -1.
         11    1    3    3    0    0 -0.24260192086E+02 -0.53994547777E+01  0.21047536112E+02  0.32568540167E+02  0.51100000000E-03 0. -1.
        -11    1    3    3    0    0  0.20805752069E+02  0.97243993013E+01  0.10376674586E+02  0.25201560203E+02  0.51100000000E-03 0.  1.
         12    1    3    3    0    0  0.85406044317E+00 -0.67231424503E+01 -0.13034937218E+02  0.14691482291E+02  0.00000000000E+00 0. -1.
</event>
<event>
 7    1  0.1360399E-013  0.7246158E+02  0.7816164E-02  0.1226708E+00
        -11   -1    0    0    0    0  0.00000000000E+00  0.00000000000E+00  0.45593999997E+02  0.45594000000E+02  0.51100000000E-03 0.  1.
         11   -1    0    0    0    0 -0.00000000000E+00 -0.00000000000E+00 -0.45593999997E+02  0.45594000000E+02  0.51100000000E-03 0. -1.
    9900012    2    1    2    0    0 -0.10017731248E+02 -0.77443527774E+01  0.13796695156E+02  0.72461581856E+02  0.70000015061E+02 0.  0.
         12    1    1    2    0    0  0.10017731248E+02  0.77443527774E+01 -0.13796695156E+02  0.18726418144E+02  0.00000000000E+00 0. -1.
         11    1    3    3    0    0 -0.61448842106E+01 -0.14045829895E+02 -0.11323019343E+01  0.15372932295E+02  0.51100000000E-03 0. -1.
        -11    1    3    3    0    0  0.10066765357E+02  0.27751013554E+02  0.78833351247E+01  0.30554958533E+02  0.51100000000E-03 0.  1.
        -12    1    3    3    0    0 -0.13939612394E+02 -0.21449536436E+02  0.70456619654E+01  0.26533691028E+02  0.00000000000E+00 0.  1.
</event>
<event>
 7    1  0.1360399E-013  0.7246155E+02  0.7816164E-02  0.1226708E+00
        -11   -1    0    0    0    0  0.00000000000E+00  0.00000000000E+00  0.45593999997E+02  0.45594000000E+02  0.51100000000E-03 0.  1.
         11   -1    0    0    0    0 -0.00000000000E+00 -0.00000000000E+00 -0.45593999997E+02  0.45594000000E+02  0.51100000000E-03 0. -1.
    9900012    2    1    2    0    0 -0.79295734007E+00 -0.17852072318E+02 -0.55995341097E+01  0.72461546795E+02  0.69999969388E+02 0.  0.
         12    1    1    2    0    0  0.79295734007E+00  0.17852072318E+02  0.55995341097E+01  0.18726453205E+02  0.00000000000E+00 0. -1.
         11    1    3    3    0    0  0.40258506858E+01  0.53231042783E+01 -0.14732968789E+02  0.16174154769E+02  0.51100000000E-03 0. -1.
        -11    1    3    3    0    0 -0.24432042211E+02 -0.14647555168E+02  0.17375375847E+02  0.33367337998E+02  0.51100000000E-03 0.  1.
        -12    1    3    3    0    0  0.19613234185E+02 -0.85276214284E+01 -0.82419411677E+01  0.22920054028E+02  0.00000000000E+00 0.  1.
</event>
<event>
 7    1  0.1360399E-013  0.7246126E+02  0.7816164E-02  0.1226709E+00
        -11   -1    0    0    0    0  0.00000000000E+00  0.00000000000E+00  0.45593999997E+02  0.45594000000E+02  0.51100000000E-03 0.  1.
         11   -1    0    0    0    0 -0.00000000000E+00 -0.00000000000E+00 -0.45593999997E+02  0.45594000000E+02  0.51100000000E-03 0. -1.
    9900012    2    1    2    0    0  0.52524732463E+01 -0.17406126045E+02 -0.44865531090E+01  0.72461258214E+02  0.69999593457E+02 0.  0.
         12    1    1    2    0    0 -0.52524732463E+01  0.17406126045E+02  0.44865531090E+01  0.18726741786E+02  0.00000000000E+00 0. -1.
         11    1    3    3    0    0 -0.28942048878E+01 -0.13961197317E+02 -0.26126916955E+02  0.29764193964E+02  0.51100000000E-03 0. -1.
        -11    1    3    3    0    0 -0.10776989559E+01 -0.17763065832E+02  0.17936552691E+02  0.25266734365E+02  0.51100000000E-03 0.  1.
         12    1    3    3    0    0  0.92243770900E+01  0.14318137104E+02  0.37038111554E+01  0.17430329885E+02  0.00000000000E+00 0. -1.
</event>
<event>
 7    1  0.1360399E-013  0.7246166E+02  0.7816164E-02  0.1226708E+00
        -11   -1    0    0    0    0  0.00000000000E+00  0.00000000000E+00  0.45593999997E+02  0.45594000000E+02  0.51100000000E-03 0.  1.
         11   -1    0    0    0    0 -0.00000000000E+00 -0.00000000000E+00 -0.45593999997E+02  0.45594000000E+02  0.51100000000E-03 0. -1.
    9900012    2    1    2    0    0  0.40678606879E+01 -0.11672490555E+02 -0.14067028378E+02  0.72461659895E+02  0.70000116721E+02 0.  0.
         12    1    1    2    0    0 -0.40678606879E+01  0.11672490555E+02  0.14067028378E+02  0.18726340105E+02  0.00000000000E+00 0. -1.
         11    1    3    3    0    0 -0.14717101217E+02  0.81657836487E+01  0.29742687817E+01  0.17091499814E+02  0.51100000000E-03 0. -1.
        -11    1    3    3    0    0  0.27284554382E+02 -0.14380948651E+02  0.48870826116E+01  0.31227266429E+02  0.51100000000E-03 0.  1.
        -12    1    3    3    0    0 -0.84995924768E+01 -0.54573255530E+01 -0.21928379772E+02  0.24142893652E+02  0.00000000000E+00 0.  1.
</event>
<event>
 7    1  0.1360399E-013  0.7246161E+02  0.7816164E-02  0.1226708E+00
        -11   -1    0    0    0    0  0.00000000000E+00  0.00000000000E+00  0.45593999997E+02  0.45594000000E+02  0.51100000000E-03 0.  1.
         11   -1    0    0    0    0 -0.00000000000E+00 -0.00000000000E+00 -0.45593999997E+02  0.45594000000E+02  0.51100000000E-03 0. -1.
    9900012    2    1    2    0    0  0.17474835171E+02  0.13269223505E+01 -0.65990221942E+01  0.72461610036E+02  0.70000051770E+02 0.  0.
         12    1    1    2    0    0 -0.17474835171E+02 -0.13269223505E+01  0.65990221942E+01  0.18726389964E+02  0.00000000000E+00 0. -1.
         11    1    3    3    0    0 -0.11543762781E+02 -0.74782886801E+01 -0.20100171630E+02  0.24355700781E+02  0.51100000000E-03 0. -1.
        -11    1    3    3    0    0  0.10844531116E+02 -0.10303887589E+02  0.15647063027E+02  0.21647275492E+02  0.51100000000E-03 0.  1.
         12    1    3    3    0    0  0.18174066836E+02  0.19109098620E+02 -0.21459135910E+01  0.26458633762E+02  0.00000000000E+00 0. -1.
</event>
<event>
 7    1  0.1360399E-013  0.7246159E+02  0.7816164E-02  0.1226708E+00
        -11   -1    0    0    0    0  0.00000000000E+00  0.00000000000E+00  0.45593999997E+02  0.45594000000E+02  0.51100000000E-03 0.  1.
         11   -1    0    0    0    0 -0.00000000000E+00 -0.00000000000E+00 -0.45593999997E+02  0.45594000000E+02  0.51100000000E-03 0. -1.
    9900012    2    1    2    0    0 -0.18334089533E+02  0.21784323258E+01 -0.31295624602E+01  0.72461586366E+02  0.70000020936E+02 0.  0.
         12    1    1    2    0    0  0.18334089533E+02 -0.21784323258E+01  0.31295624602E+01  0.18726413634E+02  0.00000000000E+00 0. -1.
         11    1    3    3    0    0 -0.38328546961E+01 -0.27555775216E+02 -0.98491748505E+01  0.29513010154E+02  0.51100000000E-03 0. -1.
        -11    1    3    3    0    0 -0.15905053741E+02  0.45226661147E+01  0.62983279426E+01  0.17694467452E+02  0.51100000000E-03 0.  1.
         12    1    3    3    0    0  0.14038189036E+01  0.25211541427E+02  0.42128444772E+00  0.25254108759E+02  0.00000000000E+00 0. -1.
</event>
<event>
 7    1  0.1360399E-013  0.7246155E+02  0.7816164E-02  0.1226708E+00
        -11   -1    0    0    0    0  0.00000000000E+00  0.00000000000E+00  0.45593999997E+02  0.45594000000E+02  0.51100000000E-03 0. -1.
         11   -1    0    0    0    0 -0.00000000000E+00 -0.00000000000E+00 -0.45593999997E+02  0.45594000000E+02  0.51100000000E-03 0.  1.
    9900012    2    1    2    0    0  0.16280433351E+02  0.91960400433E+01 -0.10297359545E+01  0.72461547621E+02  0.69999970464E+02 0.  0.
         12    1    1    2    0    0 -0.16280433351E+02 -0.91960400433E+01  0.10297359545E+01  0.18726452379E+02  0.00000000000E+00 0. -1.
         11    1    3    3    0    0  0.10207604305E+02 -0.15630173166E+02  0.83346831262E+01  0.20444178680E+02  0.51100000000E-03 0. -1.
        -11    1    3    3    0    0 -0.13762576267E+02  0.27885495022E+02 -0.58330942236E+01  0.31639126515E+02  0.51100000000E-03 0.  1.
        -12    1    3    3    0    0  0.19835405313E+02 -0.30592818128E+01 -0.35313248570E+01  0.20378242426E+02  0.00000000000E+00 0.  1.
</event>
<event>
 7    1  0.1360399E-013  0.7246157E+02  0.7816164E-02  0.1226708E+00
        -11   -1    0    0    0    0  0.00000000000E+00  0.00000000000E+00  0.45593999997E+02  0.45594000000E+02  0.51100000000E-03 0.  1.
         11   -1    0    0    0    0 -0.00000000000E+00 -0.00000000000E+00 -0.45593999997E+02  0.45594000000E+02  0.51100000000E-03 0. -1.
    9900012    2    1    2    0    0 -0.30294748904E+01  0.18147736401E+02  0.34872630126E+01  0.72461573274E+02  0.70000003882E+02 0.  0.
         12    1    1    2    0    0  0.30294748904E+01 -0.18147736401E+02 -0.34872630126E+01  0.18726426726E+02  0.00000000000E+00 0. -1.
         11    1    3    3    0    0  0.14641914910E+02  0.15389280802E+02  0.46180232149E+01  0.21738026003E+02  0.51100000000E-03 0.  1.
        -11    1    3    3    0    0 -0.28524443653E+02 -0.44261092703E+01  0.12872150634E+02  0.31605799961E+02  0.51100000000E-03 0. -1.
         12    1    3    3    0    0  0.10853053853E+02  0.71845648692E+01 -0.14002910837E+02  0.19117747310E+02  0.00000000000E+00 0. -1.
</event>
<event>
 7    1  0.1360399E-013  0.7246153E+02  0.7816164E-02  0.1226708E+00
        -11   -1    0    0    0    0  0.00000000000E+00  0.00000000000E+00  0.45593999997E+02  0.45594000000E+02  0.51100000000E-03 0.  1.
         11   -1    0    0    0    0 -0.00000000000E+00 -0.00000000000E+00 -0.45593999997E+02  0.45594000000E+02  0.51100000000E-03 0. -1.
    9900012    2    1    2    0    0  0.15391669193E+02 -0.54247674793E+01  0.91841779699E+01  0.72461529223E+02  0.69999946497E+02 0.  0.
         12    1    1    2    0    0 -0.15391669193E+02  0.54247674793E+01 -0.91841779699E+01  0.18726470777E+02  0.00000000000E+00 0. -1.
         11    1    3    3    0    0  0.31947213066E+00 -0.98758627628E+01 -0.23238068887E+02  0.25251585566E+02  0.51100000000E-03 0. -1.
        -11    1    3    3    0    0  0.45386394805E+01 -0.11011368237E+02  0.23790716991E+02  0.26605407233E+02  0.51100000000E-03 0.  1.
         12    1    3    3    0    0  0.10533557582E+02  0.15462463520E+02  0.86315298654E+01  0.20604536425E+02  0.00000000000E+00 0. -1.
</event>
<event>
 7    1  0.1360399E-013  0.7246154E+02  0.7816164E-02  0.1226708E+00
        -11   -1    0    0    0    0  0.00000000000E+00  0.00000000000E+00  0.45593999997E+02  0.45594000000E+02  0.51100000000E-03 0. -1.
         11   -1    0    0    0    0 -0.00000000000E+00 -0.00000000000E+00 -0.45593999997E+02  0.45594000000E+02  0.51100000000E-03 0.  1.
    9900012    2    1    2    0    0 -0.18219974111E+02 -0.22294983555E+01  0.37070255117E+01  0.72461543911E+02  0.69999965631E+02 0.  0.
         12    1    1    2    0    0  0.18219974111E+02  0.22294983555E+01 -0.37070255117E+01  0.18726456089E+02  0.00000000000E+00 0. -1.
         11    1    3    3    0    0  0.51856554630E+01  0.10714514955E+02  0.14374674490E+02  0.18663416629E+02  0.51100000000E-03 0. -1.
        -11    1    3    3    0    0  0.65552865563E+01 -0.15148899234E+02 -0.16339060674E+02  0.23225542702E+02  0.51100000000E-03 0.  1.
         12    1    3    3    0    0 -0.29960916130E+02  0.22048859237E+01  0.56714116954E+01  0.30572584580E+02  0.00000000000E+00 0. -1.
</event>
<event>
 7    1  0.1360399E-013  0.7246156E+02  0.7816164E-02  0.1226708E+00
        -11   -1    0    0    0    0  0.00000000000E+00  0.00000000000E+00  0.45593999997E+02  0.45594000000E+02  0.51100000000E-03 0. -1.
         11   -1    0    0    0    0 -0.00000000000E+00 -0.00000000000E+00 -0.45593999997E+02  0.45594000000E+02  0.51100000000E-03 0.  1.
    9900012    2    1    2    0    0  0.83618216959E+01 -0.11568634106E+02 -0.12121304756E+02  0.72461564511E+02  0.69999992466E+02 0.  0.
         12    1    1    2    0    0 -0.83618216959E+01  0.11568634106E+02  0.12121304756E+02  0.18726435489E+02  0.00000000000E+00 0. -1.
         11    1    3    3    0    0 -0.98177648444E+01 -0.29455945621E+02 -0.18186815101E+02  0.35983350077E+02  0.51100000000E-03 0. -1.
        -11    1    3    3    0    0  0.17022482503E+01  0.14051875474E+02 -0.63297893906E+01  0.15505453474E+02  0.51100000000E-03 0.  1.
         12    1    3    3    0    0  0.16477338290E+02  0.38354360416E+01  0.12395299735E+02  0.20972760960E+02  0.00000000000E+00 0. -1.
</event>
<event>
 7    1  0.1360399E-013  0.7246154E+02  0.7816164E-02  0.1226708E+00
        -11   -1    0    0    0    0  0.00000000000E+00  0.00000000000E+00  0.45593999997E+02  0.45594000000E+02  0.51100000000E-03 0. -1.
         11   -1    0    0    0    0 -0.00000000000E+00 -0.00000000000E+00 -0.45593999997E+02  0.45594000000E+02  0.51100000000E-03 0.  1.
    9900012    2    1    2    0    0  0.40695169109E+01 -0.10088829254E+02 -0.15242535833E+02  0.72461538983E+02  0.69999959211E+02 0.  0.
         12    1    1    2    0    0 -0.40695169109E+01  0.10088829254E+02  0.15242535833E+02  0.18726461017E+02  0.00000000000E+00 0. -1.
         11    1    3    3    0    0 -0.14534348766E+02 -0.14317067497E+02 -0.21757745512E+02  0.29826585554E+02  0.51100000000E-03 0. -1.
        -11    1    3    3    0    0  0.20274881982E+02  0.50381154662E+01 -0.11955947939E+02  0.24070690439E+02  0.51100000000E-03 0.  1.
        -12    1    3    3    0    0 -0.16710163045E+01 -0.80987722323E+00  0.18471157618E+02  0.18564262990E+02  0.00000000000E+00 0.  1.
</event>
<event>
 7    1  0.1360399E-013  0.7246154E+02  0.7816164E-02  0.1226708E+00
        -11   -1    0    0    0    0  0.00000000000E+00  0.00000000000E+00  0.45593999997E+02  0.45594000000E+02  0.51100000000E-03 0.  1.
         11   -1    0    0    0    0 -0.00000000000E+00 -0.00000000000E+00 -0.45593999997E+02  0.45594000000E+02  0.51100000000E-03 0. -1.
    9900012    2    1    2    0    0  0.66320801890E+01  0.17497402936E+02  0.73272597177E+00  0.72461535184E+02  0.69999954263E+02 0.  0.
         12    1    1    2    0    0 -0.66320801890E+01 -0.17497402936E+02 -0.73272597177E+00  0.18726464816E+02  0.00000000000E+00 0. -1.
         11    1    3    3    0    0 -0.15009830326E+02 -0.99986624422E+01 -0.75880956919E+01  0.19566488022E+02  0.51100000000E-03 0. -1.
        -11    1    3    3    0    0  0.28188814201E+02  0.31995639444E+02  0.19061625819E+01  0.42684466092E+02  0.51100000000E-03 0.  1.
         12    1    3    3    0    0 -0.65469036861E+01 -0.44995740660E+01  0.64146590818E+01  0.10210581070E+02  0.00000000000E+00 0. -1.
</event>
<event>
 7    1  0.1360399E-013  0.7246156E+02  0.7816164E-02  0.1226708E+00
        -11   -1    0    0    0    0  0.00000000000E+00  0.00000000000E+00  0.45593999997E+02  0.45594000000E+02  0.51100000000E-03 0. -1.
         11   -1    0    0    0    0 -0.00000000000E+00 -0.00000000000E+00 -0.45593999997E+02  0.45594000000E+02  0.51100000000E-03 0.  1.
    9900012    2    1    2    0    0 -0.16075277572E+02  0.66213246898E+01  0.69586790175E+01  0.72461556042E+02  0.69999981433E+02 0.  0.
         12    1    1    2    0    0  0.16075277572E+02 -0.66213246898E+01 -0.69586790175E+01  0.18726443958E+02  0.00000000000E+00 0. -1.
         11    1    3    3    0    0 -0.42170863301E+01  0.35038917384E+01  0.40585534858E+01  0.68215050457E+01  0.51100000000E-03 0. -1.
        -11    1    3    3    0    0 -0.15048435566E+02  0.15192553581E+02 -0.26291010486E+02  0.33889324719E+02  0.51100000000E-03 0.  1.
        -12    1    3    3    0    0  0.31902443243E+01 -0.12075120630E+02  0.29191136018E+02  0.31750726276E+02  0.00000000000E+00 0.  1.
</event>
<event>
 7    1  0.1360399E-013  0.7246157E+02  0.7816164E-02  0.1226708E+00
        -11   -1    0    0    0    0  0.00000000000E+00  0.00000000000E+00  0.45593999997E+02  0.45594000000E+02  0.51100000000E-03 0. -1.
         11   -1    0    0    0    0 -0.00000000000E+00 -0.00000000000E+00 -0.45593999997E+02  0.45594000000E+02  0.51100000000E-03 0.  1.
    9900012    2    1    2    0    0  0.17935299349E+02  0.49051374278E+01 -0.22234825897E+01  0.72461569193E+02  0.69999998566E+02 0.  0.
         12    1    1    2    0    0 -0.17935299349E+02 -0.49051374278E+01  0.22234825897E+01  0.18726430807E+02  0.00000000000E+00 0. -1.
         11    1    3    3    0    0  0.66729437223E+01 -0.92360857428E+01  0.69571394345E+01  0.13350477412E+02  0.51100000000E-03 0. -1.
        -11    1    3    3    0    0 -0.22726575955E+01  0.30235795720E+02 -0.19125298658E+02  0.35848924173E+02  0.51100000000E-03 0.  1.
        -12    1    3    3    0    0  0.13535013222E+02 -0.16094572549E+02  0.99446766337E+01  0.23262167608E+02  0.00000000000E+00 0.  1.
</event>
<event>
 7    1  0.1360399E-013  0.7246160E+02  0.7816164E-02  0.1226708E+00
        -11   -1    0    0    0    0  0.00000000000E+00  0.00000000000E+00  0.45593999997E+02  0.45594000000E+02  0.51100000000E-03 0.  1.
         11   -1    0    0    0    0 -0.00000000000E+00 -0.00000000000E+00 -0.45593999997E+02  0.45594000000E+02  0.51100000000E-03 0. -1.
    9900012    2    1    2    0    0  0.18412488309E+02  0.11850112729E+01 -0.32021832059E+01  0.72461602730E+02  0.70000042253E+02 0.  0.
         12    1    1    2    0    0 -0.18412488309E+02 -0.11850112729E+01  0.32021832059E+01  0.18726397270E+02  0.00000000000E+00 0. -1.
         11    1    3    3    0    0 -0.15458459711E+02  0.10484001477E+02  0.79327313153E+01  0.20293015794E+02  0.51100000000E-03 0. -1.
        -11    1    3    3    0    0  0.36217371214E+02 -0.15936124585E+01  0.24932664829E+01  0.36338051080E+02  0.51100000000E-03 0.  1.
        -12    1    3    3    0    0 -0.23464231936E+01 -0.77053777458E+01 -0.13628181004E+02  0.15830535856E+02  0.00000000000E+00 0.  1.
</event>
<event>
 8    1  0.1360399E-013  0.7246159E+02  0.7816164E-02  0.1226708E+00
        -11   -1    0    0    0    0  0.00000000000E+00  0.00000000000E+00  0.45593999997E+02  0.45594000000E+02  0.51100000000E-03 0. -1.
         11   -1    0    0    0    0 -0.00000000000E+00 -0.00000000000E+00 -0.45593999997E+02  0.45594000000E+02  0.51100000000E-03 0.  1.
    9900012    2    1    2    0    0  0.57224472905E+00 -0.10670295539E+02 -0.15378424645E+02  0.72461585087E+02  0.70000019270E+02 0.  0.
        -24    2    3    3    0    0 -0.14444620863E+02 -0.11407768855E+01 -0.70829157156E+01  0.52836767976E+02  0.50315086320E+02 0.  0.
         12    1    1    2    0    0 -0.57224472905E+00  0.10670295539E+02  0.15378424645E+02  0.18726414913E+02  0.00000000000E+00 0. -1.
         11    1    4    4    0    0 -0.20517601888E+02 -0.50292332989E+00  0.17829622253E+02  0.27186767904E+02  0.51100000000E-03 0. -1.
        -11    1    3    3    0    0  0.15016865592E+02 -0.95295186536E+01 -0.82955089297E+01  0.19624817111E+02  0.51100000000E-03 0.  1.
        -12    1    4    4    0    0  0.60729810248E+01 -0.63785355557E+00 -0.24912537969E+02  0.25650000073E+02  0.00000000000E+00 0.  1.
</event>
<event>
 7    1  0.1360399E-013  0.7246159E+02  0.7816164E-02  0.1226708E+00
        -11   -1    0    0    0    0  0.00000000000E+00  0.00000000000E+00  0.45593999997E+02  0.45594000000E+02  0.51100000000E-03 0. -1.
         11   -1    0    0    0    0 -0.00000000000E+00 -0.00000000000E+00 -0.45593999997E+02  0.45594000000E+02  0.51100000000E-03 0.  1.
    9900012    2    1    2    0    0  0.17269467044E+02  0.70045863359E+01  0.18384319768E+01  0.72461586733E+02  0.70000021415E+02 0.  0.
         12    1    1    2    0    0 -0.17269467044E+02 -0.70045863359E+01 -0.18384319768E+01  0.18726413267E+02  0.00000000000E+00 0. -1.
         11    1    3    3    0    0  0.28573671180E+02  0.57278901661E+01 -0.15475693577E+02  0.32996371049E+02  0.51100000000E-03 0. -1.
        -11    1    3    3    0    0  0.12598918522E+00  0.10631807997E+02  0.21608814763E+02  0.24083024940E+02  0.51100000000E-03 0.  1.
        -12    1    3    3    0    0 -0.11430193322E+02 -0.93551118268E+01 -0.42946892095E+01  0.15382190744E+02  0.00000000000E+00 0.  1.
</event>
<event>
 7    1  0.1360399E-013  0.7246125E+02  0.7816164E-02  0.1226709E+00
        -11   -1    0    0    0    0  0.00000000000E+00  0.00000000000E+00  0.45593999997E+02  0.45594000000E+02  0.51100000000E-03 0. -1.
         11   -1    0    0    0    0 -0.00000000000E+00 -0.00000000000E+00 -0.45593999997E+02  0.45594000000E+02  0.51100000000E-03 0.  1.
    9900012    2    1    2    0    0  0.11274354966E+02  0.96656285195E+00 -0.14921317298E+02  0.72461253524E+02  0.69999587347E+02 0.  0.
         12    1    1    2    0    0 -0.11274354966E+02 -0.96656285195E+00  0.14921317298E+02  0.18726746476E+02  0.00000000000E+00 0. -1.
         11    1    3    3    0    0 -0.44697357790E+01  0.19262347004E+01  0.98580670972E+01  0.10994107750E+02  0.51100000000E-03 0. -1.
        -11    1    3    3    0    0  0.34462167296E+02  0.26975272575E+01 -0.24541896835E+02  0.42393659061E+02  0.51100000000E-03 0.  1.
        -12    1    3    3    0    0 -0.18718076551E+02 -0.36571991060E+01 -0.23748756010E+00  0.19073486714E+02  0.00000000000E+00 0.  1.
</event>
<event>
 7    1  0.1360399E-013  0.7246159E+02  0.7816164E-02  0.1226708E+00
        -11   -1    0    0    0    0  0.00000000000E+00  0.00000000000E+00  0.45593999997E+02  0.45594000000E+02  0.51100000000E-03 0. -1.
         11   -1    0    0    0    0 -0.00000000000E+00 -0.00000000000E+00 -0.45593999997E+02  0.45594000000E+02  0.51100000000E-03 0.  1.
    9900012    2    1    2    0    0  0.54547667270E+01 -0.10385567201E+02 -0.14596713374E+02  0.72461587438E+02  0.70000022333E+02 0.  0.
         12    1    1    2    0    0 -0.54547667270E+01  0.10385567201E+02  0.14596713374E+02  0.18726412562E+02  0.00000000000E+00 0. -1.
         11    1    3    3    0    0 -0.16026336612E+01 -0.76771916070E+01 -0.84226575495E+01  0.11508643103E+02  0.51100000000E-03 0. -1.
        -11    1    3    3    0    0  0.12289972048E+02  0.24783716544E+02 -0.15178836028E+02  0.31554287856E+02  0.51100000000E-03 0.  1.
        -12    1    3    3    0    0 -0.52325716601E+01 -0.27492092137E+02  0.90047802037E+01  0.29398656479E+02  0.00000000000E+00 0.  1.
</event>
<event>
 7    1  0.1360399E-013  0.7246172E+02  0.7816164E-02  0.1226708E+00
        -11   -1    0    0    0    0  0.00000000000E+00  0.00000000000E+00  0.45593999997E+02  0.45594000000E+02  0.51100000000E-03 0.  1.
         11   -1    0    0    0    0 -0.00000000000E+00 -0.00000000000E+00 -0.45593999997E+02  0.45594000000E+02  0.51100000000E-03 0. -1.
    9900012    2    1    2    0    0  0.15521817587E+02 -0.10462685393E+02  0.52830531511E+00  0.72461715977E+02  0.70000189778E+02 0.  0.
         12    1    1    2    0    0 -0.15521817587E+02  0.10462685393E+02 -0.52830531511E+00  0.18726284023E+02  0.00000000000E+00 0. -1.
         11    1    3    3    0    0  0.18687467063E+02 -0.12746930045E+02 -0.30752548028E+02  0.38176234247E+02  0.51100000000E-03 0. -1.
        -11    1    3    3    0    0 -0.77310760523E+01 -0.17280000482E+01  0.16473678989E+02  0.18279431632E+02  0.51100000000E-03 0.  1.
         12    1    3    3    0    0  0.45654265754E+01  0.40122447009E+01  0.14807174354E+02  0.16006050097E+02  0.00000000000E+00 0. -1.
</event>
<event>
 7    1  0.1360399E-013  0.7246179E+02  0.7816164E-02  0.1226707E+00
        -11   -1    0    0    0    0  0.00000000000E+00  0.00000000000E+00  0.45593999997E+02  0.45594000000E+02  0.51100000000E-03 0.  1.
         11   -1    0    0    0    0 -0.00000000000E+00 -0.00000000000E+00 -0.45593999997E+02  0.45594000000E+02  0.51100000000E-03 0. -1.
    9900012    2    1    2    0    0 -0.17721680297E+02  0.28183748069E+01  0.53544047651E+01  0.72461792709E+02  0.70000289736E+02 0.  0.
         12    1    1    2    0    0  0.17721680297E+02 -0.28183748069E+01 -0.53544047651E+01  0.18726207291E+02  0.00000000000E+00 0. -1.
         11    1    3    3    0    0 -0.71894786671E+01  0.16276765599E+02 -0.18542095505E+02  0.25698852267E+02  0.51100000000E-03 0. -1.
        -11    1    3    3    0    0 -0.22962638441E+02 -0.18204114416E+01  0.15608977783E+02  0.27825111854E+02  0.51100000000E-03 0.  1.
         12    1    3    3    0    0  0.12430436811E+02 -0.11637979350E+02  0.82875224867E+01  0.18937828588E+02  0.00000000000E+00 0. -1.
</event>
<event>
 7    1  0.1360399E-013  0.7246157E+02  0.7816164E-02  0.1226708E+00
        -11   -1    0    0    0    0  0.00000000000E+00  0.00000000000E+00  0.45593999997E+02  0.45594000000E+02  0.51100000000E-03 0.  1.
         11   -1    0    0    0    0 -0.00000000000E+00 -0.00000000000E+00 -0.45593999997E+02  0.45594000000E+02  0.51100000000E-03 0. -1.
    9900012    2    1    2    0    0 -0.62133110537E+01  0.15446028601E+02  0.85728638188E+01  0.72461574077E+02  0.70000004928E+02 0.  0.
         12    1    1    2    0    0  0.62133110537E+01 -0.15446028601E+02 -0.85728638188E+01  0.18726425923E+02  0.00000000000E+00 0. -1.
         11    1    3    3    0    0  0.22133826052E+02  0.20654360236E+02  0.71158157668E+01  0.31098933852E+02  0.51100000000E-03 0. -1.
        -11    1    3    3    0    0 -0.14530272645E+02 -0.16537745694E+01  0.15523838367E+02  0.21327291234E+02  0.51100000000E-03 0.  1.
         12    1    3    3    0    0 -0.13816864460E+02 -0.35545570654E+01 -0.14066790315E+02  0.20035348991E+02  0.00000000000E+00 0. -1.
</event>
<event>
 7    1  0.1360399E-013  0.7246153E+02  0.7816164E-02  0.1226708E+00
        -11   -1    0    0    0    0  0.00000000000E+00  0.00000000000E+00  0.45593999997E+02  0.45594000000E+02  0.51100000000E-03 0.  1.
         11   -1    0    0    0    0 -0.00000000000E+00 -0.00000000000E+00 -0.45593999997E+02  0.45594000000E+02  0.51100000000E-03 0. -1.
    9900012    2    1    2    0    0 -0.11798474416E+02  0.13990844987E+02  0.39664980180E+01  0.72461525465E+02  0.69999941601E+02 0.  0.
         12    1    1    2    0    0  0.11798474416E+02 -0.13990844987E+02 -0.39664980180E+01  0.18726474535E+02  0.00000000000E+00 0. -1.
         11    1    3    3    0    0  0.99226804496E+01 -0.18127804130E+02 -0.12642647063E+02  0.24226295526E+02  0.51100000000E-03 0. -1.
        -11    1    3    3    0    0 -0.46351195328E+01  0.20686231160E+02  0.17745077551E+02  0.27645836400E+02  0.51100000000E-03 0.  1.
        -12    1    3    3    0    0 -0.17086035333E+02  0.11432417957E+02 -0.11359324695E+01  0.20589393539E+02  0.00000000000E+00 0.  1.
</event>
<event>
 7    1  0.1360399E-013  0.7246156E+02  0.7816164E-02  0.1226708E+00
        -11   -1    0    0    0    0  0.00000000000E+00  0.00000000000E+00  0.45593999997E+02  0.45594000000E+02  0.51100000000E-03 0.  1.
         11   -1    0    0    0    0 -0.00000000000E+00 -0.00000000000E+00 -0.45593999997E+02  0.45594000000E+02  0.51100000000E-03 0. -1.
    9900012    2    1    2    0    0  0.66302592280E+01 -0.44271821904E+01  0.16944598825E+02  0.72461555892E+02  0.69999981239E+02 0.  0.
         12    1    1    2    0    0 -0.66302592280E+01  0.44271821904E+01 -0.16944598825E+02  0.18726444108E+02  0.00000000000E+00 0. -1.
         11    1    3    3    0    0 -0.10798255847E+02 -0.28492202583E+02 -0.94449202073E+01  0.31900069833E+02  0.51100000000E-03 0. -1.
        -11    1    3    3    0    0  0.10466468364E+02  0.17125611700E+02  0.22049078933E+02  0.29816026197E+02  0.51100000000E-03 0.  1.
         12    1    3    3    0    0  0.69620467103E+01  0.69394086928E+01  0.43404400995E+01  0.10745459863E+02  0.00000000000E+00 0. -1.
</event>
<event>
 7    1  0.1360399E-013  0.7246159E+02  0.7816164E-02  0.1226708E+00
        -11   -1    0    0    0    0  0.00000000000E+00  0.00000000000E+00  0.45593999997E+02  0.45594000000E+02  0.51100000000E-03 0. -1.
         11   -1    0    0    0    0 -0.00000000000E+00 -0.00000000000E+00 -0.45593999997E+02  0.45594000000E+02  0.51100000000E-03 0.  1.
    9900012    2    1    2    0    0 -0.10499679453E+02 -0.10276727749E+02 -0.11611379674E+02  0.72461587109E+02  0.70000021904E+02 0.  0.
         12    1    1    2    0    0  0.10499679453E+02  0.10276727749E+02  0.11611379674E+02  0.18726412891E+02  0.00000000000E+00 0. -1.
         11    1    3    3    0    0  0.53438226557E+01  0.56915745568E+01  0.14538233003E+02  0.16501838705E+02  0.51100000000E-03 0. -1.
        -11    1    3    3    0    0 -0.99510545300E+01 -0.35297357394E+01 -0.36972439921E+02  0.38450537507E+02  0.51100000000E-03 0.  1.
         12    1    3    3    0    0 -0.58924475782E+01 -0.12438566567E+02  0.10822827243E+02  0.17509210897E+02  0.00000000000E+00 0. -1.
</event>
<event>
 7    1  0.1360399E-013  0.7246156E+02  0.7816164E-02  0.1226708E+00
        -11   -1    0    0    0    0  0.00000000000E+00  0.00000000000E+00  0.45593999997E+02  0.45594000000E+02  0.51100000000E-03 0.  1.
         11   -1    0    0    0    0 -0.00000000000E+00 -0.00000000000E+00 -0.45593999997E+02  0.45594000000E+02  0.51100000000E-03 0. -1.
    9900012    2    1    2    0    0  0.11647849452E+02 -0.43895085843E+01  0.13990682106E+02  0.72461564988E+02  0.69999993088E+02 0.  0.
         12    1    1    2    0    0 -0.11647849452E+02  0.43895085843E+01 -0.13990682106E+02  0.18726435012E+02  0.00000000000E+00 0. -1.
         11    1    3    3    0    0 -0.17246633017E+02 -0.30321645439E+01  0.16632700895E+02  0.24151337677E+02  0.51100000000E-03 0. -1.
        -11    1    3    3    0    0  0.35721663973E+02  0.55975190287E+01  0.42026509818E+01  0.36400985863E+02  0.51100000000E-03 0.  1.
         12    1    3    3    0    0 -0.68271815040E+01 -0.69548630690E+01 -0.68446697710E+01  0.11909241448E+02  0.00000000000E+00 0. -1.
</event>
<event>
 7    1  0.1360399E-013  0.7246162E+02  0.7816164E-02  0.1226708E+00
        -11   -1    0    0    0    0  0.00000000000E+00  0.00000000000E+00  0.45593999997E+02  0.45594000000E+02  0.51100000000E-03 0.  1.
         11   -1    0    0    0    0 -0.00000000000E+00 -0.00000000000E+00 -0.45593999997E+02  0.45594000000E+02  0.51100000000E-03 0. -1.
    9900012    2    1    2    0    0 -0.60741545741E+01 -0.19567645101E+01  0.17605486821E+02  0.72461616277E+02  0.70000059901E+02 0.  0.
         12    1    1    2    0    0  0.60741545741E+01  0.19567645101E+01 -0.17605486821E+02  0.18726383723E+02  0.00000000000E+00 0. -1.
         11    1    3    3    0    0 -0.19017519575E+02  0.25321120984E+01 -0.15011128972E+02  0.24360041785E+02  0.51100000000E-03 0. -1.
        -11    1    3    3    0    0  0.19220037368E+02 -0.12560076465E+02  0.14083904779E+02  0.26935510601E+02  0.51100000000E-03 0.  1.
        -12    1    3    3    0    0 -0.62766723671E+01  0.80711998566E+01  0.18532711014E+02  0.21166063891E+02  0.00000000000E+00 0.  1.
</event>
<event>
 7    1  0.1360399E-013  0.7246169E+02  0.7816164E-02  0.1226708E+00
        -11   -1    0    0    0    0  0.00000000000E+00  0.00000000000E+00  0.45593999997E+02  0.45594000000E+02  0.51100000000E-03 0. -1.
         11   -1    0    0    0    0 -0.00000000000E+00 -0.00000000000E+00 -0.45593999997E+02  0.45594000000E+02  0.51100000000E-03 0.  1.
    9900012    2    1    2    0    0  0.64759158645E+00 -0.47986424955E+01 -0.18089454721E+02  0.72461689185E+02  0.70000154877E+02 0.  0.
         12    1    1    2    0    0 -0.64759158645E+00  0.47986424955E+01  0.18089454721E+02  0.18726310815E+02  0.00000000000E+00 0. -1.
         11    1    3    3    0    0 -0.15486858964E+02  0.21494992396E+02  0.12168703272E+02  0.29153984946E+02  0.51100000000E-03 0. -1.
        -11    1    3    3    0    0  0.54007284273E+01 -0.11496967747E+02 -0.12629700059E+02  0.17912494487E+02  0.51100000000E-03 0.  1.
         12    1    3    3    0    0  0.10733722123E+02 -0.14796667144E+02 -0.17628457933E+02  0.25395209751E+02  0.00000000000E+00 0. -1.
</event>
<event>
 7    1  0.1631094E-013  0.7246160E+02  0.7816164E-02  0.1226708E+00
        -11   -1    0    0    0    0  0.00000000000E+00  0.00000000000E+00  0.45593999997E+02  0.45594000000E+02  0.51100000000E-03 0. -1.
         11   -1    0    0    0    0 -0.00000000000E+00 -0.00000000000E+00 -0.45593999997E+02  0.45594000000E+02  0.51100000000E-03 0.  1.
    9900012    2    1    2    0    0 -0.37840705759E+01  0.12537482476E+02 -0.13385455850E+02  0.72461599244E+02  0.70000037713E+02 0.  0.
         12    1    1    2    0    0  0.37840705759E+01 -0.12537482476E+02  0.13385455850E+02  0.18726400756E+02  0.00000000000E+00 0. -1.
         11    1    3    3    0    0  0.15473981132E+02  0.20448704838E+02  0.63707547419E+01  0.26423098566E+02  0.51100000000E-03 0. -1.
        -11    1    3    3    0    0 -0.21162937861E+02  0.49081119222E+01 -0.24027600253E+02  0.32392670092E+02  0.51100000000E-03 0.  1.
         12    1    3    3    0    0  0.19048861530E+01 -0.12819334284E+02  0.42713896612E+01  0.13645830586E+02  0.00000000000E+00 0. -1.
</event>
<event>
 7    1  0.1360399E-013  0.7246167E+02  0.7816164E-02  0.1226708E+00
        -11   -1    0    0    0    0  0.00000000000E+00  0.00000000000E+00  0.45593999997E+02  0.45594000000E+02  0.51100000000E-03 0.  1.
         11   -1    0    0    0    0 -0.00000000000E+00 -0.00000000000E+00 -0.45593999997E+02  0.45594000000E+02  0.51100000000E-03 0. -1.
    9900012    2    1    2    0    0  0.17826131016E+02  0.56892030727E+01  0.73320137255E+00  0.72461666594E+02  0.70000125448E+02 0.  0.
         12    1    1    2    0    0 -0.17826131016E+02 -0.56892030727E+01 -0.73320137255E+00  0.18726333406E+02  0.00000000000E+00 0. -1.
         11    1    3    3    0    0 -0.12535002815E+02  0.46717256263E+01 -0.42384778765E+01  0.14032676540E+02  0.51100000000E-03 0. -1.
        -11    1    3    3    0    0  0.21184413206E+02 -0.17897622563E+02  0.18583630787E+02  0.33383462819E+02  0.51100000000E-03 0.  1.
        -12    1    3    3    0    0  0.91767206245E+01  0.18915100009E+02 -0.13611951538E+02  0.25045527235E+02  0.00000000000E+00 0.  1.
</event>
<event>
 7    1  0.1360399E-013  0.7246158E+02  0.7816164E-02  0.1226708E+00
        -11   -1    0    0    0    0  0.00000000000E+00  0.00000000000E+00  0.45593999997E+02  0.45594000000E+02  0.51100000000E-03 0.  1.
         11   -1    0    0    0    0 -0.00000000000E+00 -0.00000000000E+00 -0.45593999997E+02  0.45594000000E+02  0.51100000000E-03 0. -1.
    9900012    2    1    2    0    0  0.83299653777E+01  0.12818434565E+02 -0.10815649521E+02  0.72461578493E+02  0.70000010680E+02 0.  0.
         12    1    1    2    0    0 -0.83299653777E+01 -0.12818434565E+02  0.10815649521E+02  0.18726421507E+02  0.00000000000E+00 0. -1.
         11    1    3    3    0    0 -0.11050771262E+02  0.20538695768E+02 -0.32938275839E+02  0.40359479492E+02  0.51100000000E-03 0.  1.
        -11    1    3    3    0    0  0.12013568675E+02 -0.96619256210E+01  0.12627041730E+02  0.19927890559E+02  0.51100000000E-03 0. -1.
        -12    1    3    3    0    0  0.73671679654E+01  0.19416644183E+01  0.94955845879E+01  0.12174208443E+02  0.00000000000E+00 0.  1.
</event>
<event>
 7    1  0.1360399E-013  0.7246097E+02  0.7816164E-02  0.1226710E+00
        -11   -1    0    0    0    0  0.00000000000E+00  0.00000000000E+00  0.45593999997E+02  0.45594000000E+02  0.51100000000E-03 0. -1.
         11   -1    0    0    0    0 -0.00000000000E+00 -0.00000000000E+00 -0.45593999997E+02  0.45594000000E+02  0.51100000000E-03 0.  1.
    9900012    2    1    2    0    0  0.93323400668E+01 -0.11526671336E+02 -0.11434380305E+02  0.72460966701E+02  0.69999213703E+02 0.  0.
         12    1    1    2    0    0 -0.93323400668E+01  0.11526671336E+02  0.11434380305E+02  0.18727033299E+02  0.00000000000E+00 0. -1.
         11    1    3    3    0    0 -0.13535442761E+02 -0.18617165135E+02  0.12457457929E+02  0.26172414996E+02  0.51100000000E-03 0. -1.
        -11    1    3    3    0    0  0.59761960570E+01  0.14331298398E+02 -0.23175705430E+02  0.27896493607E+02  0.51100000000E-03 0.  1.
        -12    1    3    3    0    0  0.16891586771E+02 -0.72408045996E+01 -0.71613280393E+00  0.18392058098E+02  0.00000000000E+00 0.  1.
</event>
<event>
 7    1  0.1360399E-013  0.7246158E+02  0.7816164E-02  0.1226708E+00
        -11   -1    0    0    0    0  0.00000000000E+00  0.00000000000E+00  0.45593999997E+02  0.45594000000E+02  0.51100000000E-03 0. -1.
         11   -1    0    0    0    0 -0.00000000000E+00 -0.00000000000E+00 -0.45593999997E+02  0.45594000000E+02  0.51100000000E-03 0.  1.
    9900012    2    1    2    0    0  0.15762890578E+01 -0.38098245062E+01 -0.18266890801E+02  0.72461581509E+02  0.70000014609E+02 0.  0.
         12    1    1    2    0    0 -0.15762890578E+01  0.38098245062E+01  0.18266890801E+02  0.18726418491E+02  0.00000000000E+00 0. -1.
         11    1    3    3    0    0 -0.10496764181E+02  0.32318428832E+01  0.22268721136E+02  0.24829877325E+02  0.51100000000E-03 0. -1.
        -11    1    3    3    0    0 -0.24231587197E+01  0.53445522889E+01 -0.11196470836E+02  0.12641079732E+02  0.51100000000E-03 0.  1.
         12    1    3    3    0    0  0.14496211958E+02 -0.12386219678E+02 -0.29339141100E+02  0.34990624452E+02  0.00000000000E+00 0. -1.
</event>
<event>
 7    1  0.1360399E-013  0.7246160E+02  0.7816164E-02  0.1226708E+00
        -11   -1    0    0    0    0  0.00000000000E+00  0.00000000000E+00  0.45593999997E+02  0.45594000000E+02  0.51100000000E-03 0.  1.
         11   -1    0    0    0    0 -0.00000000000E+00 -0.00000000000E+00 -0.45593999997E+02  0.45594000000E+02  0.51100000000E-03 0. -1.
    9900012    2    1    2    0    0  0.14639092456E+02  0.80265971224E+01  0.84822637210E+01  0.72461599194E+02  0.70000037647E+02 0.  0.
         12    1    1    2    0    0 -0.14639092456E+02 -0.80265971224E+01 -0.84822637210E+01  0.18726400806E+02  0.00000000000E+00 0. -1.
         11    1    3    3    0    0 -0.25837016778E+02 -0.13735305137E+01 -0.23671922309E+01  0.25981563105E+02  0.51100000000E-03 0. -1.
        -11    1    3    3    0    0  0.35826803616E+02  0.13528351327E+02  0.63823362717E+01  0.38824095141E+02  0.51100000000E-03 0.  1.
         12    1    3    3    0    0  0.46493056179E+01 -0.41282236908E+01  0.44671196803E+01  0.76559409486E+01  0.00000000000E+00 0. -1.
</event>
<event>
 7    1  0.1360399E-013  0.7246158E+02  0.7816164E-02  0.1226708E+00
        -11   -1    0    0    0    0  0.00000000000E+00  0.00000000000E+00  0.45593999997E+02  0.45594000000E+02  0.51100000000E-03 0.  1.
         11   -1    0    0    0    0 -0.00000000000E+00 -0.00000000000E+00 -0.45593999997E+02  0.45594000000E+02  0.51100000000E-03 0. -1.
    9900012    2    1    2    0    0 -0.17897441080E+02 -0.71954420665E+00 -0.54628311706E+01  0.72461583753E+02  0.70000017532E+02 0.  0.
         12    1    1    2    0    0  0.17897441080E+02  0.71954420665E+00  0.54628311706E+01  0.18726416247E+02  0.00000000000E+00 0. -1.
         11    1    3    3    0    0 -0.22551893576E+02  0.11958064143E+02 -0.31807109852E+02  0.40783274014E+02  0.51100000000E-03 0. -1.
        -11    1    3    3    0    0 -0.20956596865E+01  0.47126415697E+00  0.10704795207E+01  0.23999596023E+01  0.51100000000E-03 0.  1.
         12    1    3    3    0    0  0.67501121825E+01 -0.13148872507E+02  0.25273799161E+02  0.29278350136E+02  0.00000000000E+00 0. -1.
</event>
<event>
 7    1  0.1360399E-013  0.7246155E+02  0.7816164E-02  0.1226708E+00
        -11   -1    0    0    0    0  0.00000000000E+00  0.00000000000E+00  0.45593999997E+02  0.45594000000E+02  0.51100000000E-03 0.  1.
         11   -1    0    0    0    0 -0.00000000000E+00 -0.00000000000E+00 -0.45593999997E+02  0.45594000000E+02  0.51100000000E-03 0. -1.
    9900012    2    1    2    0    0  0.14786038569E+01 -0.18560216209E+02  0.20029617763E+01  0.72461554770E+02  0.69999979776E+02 0.  0.
         12    1    1    2    0    0 -0.14786038569E+01  0.18560216209E+02 -0.20029617763E+01  0.18726445230E+02  0.00000000000E+00 0. -1.
         11    1    3    3    0    0 -0.17280712569E+02 -0.15469895736E+02 -0.28277872033E+02  0.36572923699E+02  0.51100000000E-03 0. -1.
        -11    1    3    3    0    0  0.68503651836E+01 -0.26396972136E+01  0.11179770055E+02  0.13374706100E+02  0.51100000000E-03 0.  1.
         12    1    3    3    0    0  0.11908951243E+02 -0.45062325969E+00  0.19101063754E+02  0.22513924970E+02  0.00000000000E+00 0. -1.
</event>
<event>
 7    1  0.1360399E-013  0.7246151E+02  0.7816164E-02  0.1226708E+00
        -11   -1    0    0    0    0  0.00000000000E+00  0.00000000000E+00  0.45593999997E+02  0.45594000000E+02  0.51100000000E-03 0.  1.
         11   -1    0    0    0    0 -0.00000000000E+00 -0.00000000000E+00 -0.45593999997E+02  0.45594000000E+02  0.51100000000E-03 0. -1.
    9900012    2    1    2    0    0 -0.16721727794E+02 -0.78389614181E+01  0.31009773273E+01  0.72461506550E+02  0.69999916961E+02 0.  0.
         12    1    1    2    0    0  0.16721727794E+02  0.78389614181E+01 -0.31009773273E+01  0.18726493450E+02  0.00000000000E+00 0. -1.
         11    1    3    3    0    0 -0.22567670318E+02  0.25338382623E+01 -0.22355859345E+02  0.31866981771E+02  0.51100000000E-03 0. -1.
        -11    1    3    3    0    0  0.99811187490E+01 -0.94806154886E+01 -0.99931104174E+00  0.13802297792E+02  0.51100000000E-03 0.  1.
         12    1    3    3    0    0 -0.41351762258E+01 -0.89218419177E+00  0.26456147714E+02  0.26792226987E+02  0.00000000000E+00 0. -1.
</event>
<event>
 7    1  0.1360399E-013  0.7246147E+02  0.7816164E-02  0.1226708E+00
        -11   -1    0    0    0    0  0.00000000000E+00  0.00000000000E+00  0.45593999997E+02  0.45594000000E+02  0.51100000000E-03 0.  1.
         11   -1    0    0    0    0 -0.00000000000E+00 -0.00000000000E+00 -0.45593999997E+02  0.45594000000E+02  0.51100000000E-03 0. -1.
    9900012    2    1    2    0    0  0.58136861500E+01 -0.64108350476E+01  0.16606779236E+02  0.72461471511E+02  0.69999871317E+02 0.  0.
         12    1    1    2    0    0 -0.58136861500E+01  0.64108350476E+01 -0.16606779236E+02  0.18726528489E+02  0.00000000000E+00 0. -1.
         11    1    3    3    0    0  0.42517456176E+01 -0.25052439180E+02 -0.62103535637E+01  0.26158565352E+02  0.51100000000E-03 0. -1.
        -11    1    3    3    0    0  0.99939270213E+01  0.97270630017E+01  0.29281983227E+02  0.32433453006E+02  0.51100000000E-03 0.  1.
        -12    1    3    3    0    0 -0.84319864890E+01  0.89145411303E+01 -0.64648504274E+01  0.13869453153E+02  0.00000000000E+00 0.  1.
</event>
<event>
 7    1  0.1360399E-013  0.7246157E+02  0.7816164E-02  0.1226708E+00
        -11   -1    0    0    0    0  0.00000000000E+00  0.00000000000E+00  0.45593999997E+02  0.45594000000E+02  0.51100000000E-03 0. -1.
         11   -1    0    0    0    0 -0.00000000000E+00 -0.00000000000E+00 -0.45593999997E+02  0.45594000000E+02  0.51100000000E-03 0.  1.
    9900012    2    1    2    0    0  0.16728518456E+02  0.20037717560E+01 -0.81744036440E+01  0.72461566652E+02  0.69999995256E+02 0.  0.
         12    1    1    2    0    0 -0.16728518456E+02 -0.20037717560E+01  0.81744036440E+01  0.18726433348E+02  0.00000000000E+00 0. -1.
         11    1    3    3    0    0 -0.11187650192E+02 -0.23006515738E+02  0.20231022558E+01  0.25662350364E+02  0.51100000000E-03 0.  1.
        -11    1    3    3    0    0  0.16790891578E+02  0.21478870189E+02 -0.18081137111E+02  0.32713963748E+02  0.51100000000E-03 0. -1.
         12    1    3    3    0    0  0.11125277070E+02  0.35314173048E+01  0.78836312114E+01  0.14085252541E+02  0.00000000000E+00 0. -1.
</event>
<event>
 7    1  0.1360399E-013  0.7246148E+02  0.7816164E-02  0.1226708E+00
        -11   -1    0    0    0    0  0.00000000000E+00  0.00000000000E+00  0.45593999997E+02  0.45594000000E+02  0.51100000000E-03 0.  1.
         11   -1    0    0    0    0 -0.00000000000E+00 -0.00000000000E+00 -0.45593999997E+02  0.45594000000E+02  0.51100000000E-03 0. -1.
    9900012    2    1    2    0    0 -0.14791328525E+02  0.11416035870E+02  0.12543334908E+01  0.72461477978E+02  0.69999879741E+02 0.  0.
         12    1    1    2    0    0  0.14791328525E+02 -0.11416035870E+02 -0.12543334908E+01  0.18726522022E+02  0.00000000000E+00 0. -1.
         11    1    3    3    0    0  0.10265344555E+02  0.28773987644E+02  0.46033206748E+01  0.30895148895E+02  0.51100000000E-03 0. -1.
        -11    1    3    3    0    0 -0.18723687543E+02 -0.16175225929E+01  0.87470497510E+01  0.20729296518E+02  0.51100000000E-03 0.  1.
         12    1    3    3    0    0 -0.63329855370E+01 -0.15740429180E+02 -0.12096036935E+02  0.20837032565E+02  0.00000000000E+00 0. -1.
</event>
<event>
 7    1  0.1360399E-013  0.7246147E+02  0.7816164E-02  0.1226708E+00
        -11   -1    0    0    0    0  0.00000000000E+00  0.00000000000E+00  0.45593999997E+02  0.45594000000E+02  0.51100000000E-03 0. -1.
         11   -1    0    0    0    0 -0.00000000000E+00 -0.00000000000E+00 -0.45593999997E+02  0.45594000000E+02  0.51100000000E-03 0.  1.
    9900012    2    1    2    0    0  0.16999995995E+02  0.77516466373E+01  0.12629404467E+01  0.72461470477E+02  0.69999869969E+02 0.  0.
         12    1    1    2    0    0 -0.16999995995E+02 -0.77516466373E+01 -0.12629404467E+01  0.18726529523E+02  0.00000000000E+00 0. -1.
         11    1    3    3    0    0 -0.14263519770E+02  0.64797245872E+01 -0.18653517518E+02  0.24359567792E+02  0.51100000000E-03 0. -1.
        -11    1    3    3    0    0  0.35721603196E+02 -0.16921740793E+01  0.10502132543E+02  0.37271855014E+02  0.51100000000E-03 0.  1.
         12    1    3    3    0    0 -0.44580874308E+01  0.29640961295E+01  0.94143254214E+01  0.10830047670E+02  0.00000000000E+00 0. -1.
</event>
<event>
 7    1  0.1360399E-013  0.7246157E+02  0.7816164E-02  0.1226708E+00
        -11   -1    0    0    0    0  0.00000000000E+00  0.00000000000E+00  0.45593999997E+02  0.45594000000E+02  0.51100000000E-03 0. -1.
         11   -1    0    0    0    0 -0.00000000000E+00 -0.00000000000E+00 -0.45593999997E+02  0.45594000000E+02  0.51100000000E-03 0.  1.
    9900012    2    1    2    0    0  0.77519859803E+01 -0.16008142884E+02  0.58587656034E+01  0.72461573229E+02  0.70000003823E+02 0.  0.
         12    1    1    2    0    0 -0.77519859803E+01  0.16008142884E+02 -0.58587656034E+01  0.18726426771E+02  0.00000000000E+00 0. -1.
         11    1    3    3    0    0 -0.23589406513E+02  0.92324206513E+01 -0.68520189259E+01  0.26242100799E+02  0.51100000000E-03 0. -1.
        -11    1    3    3    0    0  0.24808002236E+02 -0.27821044471E+02  0.11999085012E+02  0.39158977665E+02  0.51100000000E-03 0.  1.
         12    1    3    3    0    0  0.65333902575E+01  0.25804809361E+01  0.71169951732E+00  0.70604947647E+01  0.00000000000E+00 0. -1.
</event>
<event>
 7    1  0.1360399E-013  0.7246156E+02  0.7816164E-02  0.1226708E+00
        -11   -1    0    0    0    0  0.00000000000E+00  0.00000000000E+00  0.45593999997E+02  0.45594000000E+02  0.51100000000E-03 0. -1.
         11   -1    0    0    0    0 -0.00000000000E+00 -0.00000000000E+00 -0.45593999997E+02  0.45594000000E+02  0.51100000000E-03 0.  1.
    9900012    2    1    2    0    0  0.11525274801E+02  0.10465399747E+02 -0.10407830853E+02  0.72461561626E+02  0.69999988708E+02 0.  0.
         12    1    1    2    0    0 -0.11525274801E+02 -0.10465399747E+02  0.10407830853E+02  0.18726438374E+02  0.00000000000E+00 0. -1.
         11    1    3    3    0    0 -0.17976302296E+02  0.25292453217E+01 -0.12911327984E+02  0.22276600206E+02  0.51100000000E-03 0.  1.
        -11    1    3    3    0    0  0.22539633094E+02  0.58371463966E+01  0.20344303666E+02  0.30919217810E+02  0.51100000000E-03 0. -1.
         12    1    3    3    0    0  0.69619440034E+01  0.20990080288E+01 -0.17840806535E+02  0.19265743610E+02  0.00000000000E+00 0. -1.
</event>
<event>
 7    1  0.1360399E-013  0.7246158E+02  0.7816164E-02  0.1226708E+00
        -11   -1    0    0    0    0  0.00000000000E+00  0.00000000000E+00  0.45593999997E+02  0.45594000000E+02  0.51100000000E-03 0. -1.
         11   -1    0    0    0    0 -0.00000000000E+00 -0.00000000000E+00 -0.45593999997E+02  0.45594000000E+02  0.51100000000E-03 0.  1.
    9900012    2    1    2    0    0 -0.11947731147E+02  0.86638144756E+01 -0.11526869587E+02  0.72461583276E+02  0.70000016911E+02 0.  0.
         12    1    1    2    0    0  0.11947731147E+02 -0.86638144756E+01  0.11526869587E+02  0.18726416724E+02  0.00000000000E+00 0. -1.
         11    1    3    3    0    0 -0.11552074254E+02  0.24523938187E+02  0.14023124294E+00  0.27108921573E+02  0.51100000000E-03 0. -1.
        -11    1    3    3    0    0 -0.17667388688E+01 -0.71940819220E+01 -0.26830217252E+02  0.27834093105E+02  0.51100000000E-03 0.  1.
        -12    1    3    3    0    0  0.13710819759E+01 -0.86660417897E+01  0.15163116422E+02  0.17518568598E+02  0.00000000000E+00 0.  1.
</event>
<event>
 7    1  0.1360399E-013  0.7246163E+02  0.7816164E-02  0.1226708E+00
        -11   -1    0    0    0    0  0.00000000000E+00  0.00000000000E+00  0.45593999997E+02  0.45594000000E+02  0.51100000000E-03 0. -1.
         11   -1    0    0    0    0 -0.00000000000E+00 -0.00000000000E+00 -0.45593999997E+02  0.45594000000E+02  0.51100000000E-03 0.  1.
    9900012    2    1    2    0    0 -0.86765242156E+01 -0.78354994591E+01 -0.14628734537E+02  0.72461628264E+02  0.70000075517E+02 0.  0.
         12    1    1    2    0    0  0.86765242156E+01  0.78354994591E+01  0.14628734537E+02  0.18726371736E+02  0.00000000000E+00 0. -1.
         11    1    3    3    0    0 -0.97408554460E+01 -0.31543999551E+02  0.52603198857E+01  0.33430212953E+02  0.51100000000E-03 0. -1.
        -11    1    3    3    0    0 -0.10917350660E+02  0.71989037634E+01 -0.93059821720E+01  0.16050360285E+02  0.51100000000E-03 0.  1.
         12    1    3    3    0    0  0.11981681891E+02  0.16509596329E+02 -0.10583072250E+02  0.22981055026E+02  0.00000000000E+00 0. -1.
</event>
<event>
 7    1  0.1360399E-013  0.7246162E+02  0.7816164E-02  0.1226708E+00
        -11   -1    0    0    0    0  0.00000000000E+00  0.00000000000E+00  0.45593999997E+02  0.45594000000E+02  0.51100000000E-03 0.  1.
         11   -1    0    0    0    0 -0.00000000000E+00 -0.00000000000E+00 -0.45593999997E+02  0.45594000000E+02  0.51100000000E-03 0. -1.
    9900012    2    1    2    0    0 -0.72341171150E+01  0.14320543068E+02  0.96574717022E+01  0.72461623846E+02  0.70000069760E+02 0.  0.
         12    1    1    2    0    0  0.72341171150E+01 -0.14320543068E+02 -0.96574717022E+01  0.18726376154E+02  0.00000000000E+00 0. -1.
         11    1    3    3    0    0 -0.68668521328E+01 -0.44118199305E+01 -0.19681437792E+02  0.21306731498E+02  0.51100000000E-03 0. -1.
        -11    1    3    3    0    0 -0.58813847027E+01  0.10574279307E+02  0.36840167785E+02  0.38776333395E+02  0.51100000000E-03 0.  1.
        -12    1    3    3    0    0  0.55141197204E+01  0.81580836914E+01 -0.75012582906E+01  0.12378558953E+02  0.00000000000E+00 0.  1.
</event>
<event>
 7    1  0.1360399E-013  0.7246154E+02  0.7816164E-02  0.1226708E+00
        -11   -1    0    0    0    0  0.00000000000E+00  0.00000000000E+00  0.45593999997E+02  0.45594000000E+02  0.51100000000E-03 0.  1.
         11   -1    0    0    0    0 -0.00000000000E+00 -0.00000000000E+00 -0.45593999997E+02  0.45594000000E+02  0.51100000000E-03 0. -1.
    9900012    2    1    2    0    0  0.63274246964E+01 -0.19901995110E+01  0.17512367249E+02  0.72461542672E+02  0.69999964017E+02 0.  0.
         12    1    1    2    0    0 -0.63274246964E+01  0.19901995110E+01 -0.17512367249E+02  0.18726457328E+02  0.00000000000E+00 0. -1.
         11    1    3    3    0    0 -0.22813465491E+02 -0.32260557133E-03  0.10973617259E+01  0.22839842618E+02  0.51100000000E-03 0. -1.
        -11    1    3    3    0    0  0.32846222457E+02 -0.82949085280E+01  0.25834587182E+01  0.33975786913E+02  0.51100000000E-03 0.  1.
         12    1    3    3    0    0 -0.37053322693E+01  0.63050316226E+01  0.13831546805E+02  0.15645913141E+02  0.00000000000E+00 0. -1.
</event>
<event>
 7    1  0.1360399E-013  0.7246155E+02  0.7816164E-02  0.1226708E+00
        -11   -1    0    0    0    0  0.00000000000E+00  0.00000000000E+00  0.45593999997E+02  0.45594000000E+02  0.51100000000E-03 0.  1.
         11   -1    0    0    0    0 -0.00000000000E+00 -0.00000000000E+00 -0.45593999997E+02  0.45594000000E+02  0.51100000000E-03 0. -1.
    9900012    2    1    2    0    0  0.18609039437E+02 -0.44110581276E+00 -0.20466698301E+01  0.72461553981E+02  0.69999978749E+02 0.  0.
         12    1    1    2    0    0 -0.18609039437E+02  0.44110581276E+00  0.20466698301E+01  0.18726446019E+02  0.00000000000E+00 0. -1.
         11    1    3    3    0    0  0.25607912879E+02  0.13678400507E+02 -0.24137873584E+02  0.37755804638E+02  0.51100000000E-03 0. -1.
        -11    1    3    3    0    0  0.12333042854E+01 -0.78420532730E+01  0.22982512448E+02  0.24314907314E+02  0.51100000000E-03 0.  1.
         12    1    3    3    0    0 -0.82321777278E+01 -0.62774530470E+01 -0.89130869420E+00  0.10390842030E+02  0.00000000000E+00 0. -1.
</event>
<event>
 7    1  0.1360399E-013  0.7246160E+02  0.7816164E-02  0.1226708E+00
        -11   -1    0    0    0    0  0.00000000000E+00  0.00000000000E+00  0.45593999997E+02  0.45594000000E+02  0.51100000000E-03 0.  1.
         11   -1    0    0    0    0 -0.00000000000E+00 -0.00000000000E+00 -0.45593999997E+02  0.45594000000E+02  0.51100000000E-03 0. -1.
    9900012    2    1    2    0    0 -0.11461133596E+02  0.81440312554E+01  0.12369117567E+02  0.72461604250E+02  0.70000044233E+02 0.  0.
         12    1    1    2    0    0  0.11461133596E+02 -0.81440312554E+01 -0.12369117567E+02  0.18726395750E+02  0.00000000000E+00 0. -1.
         11    1    3    3    0    0  0.57982942699E+01  0.10379303026E+02 -0.18343228974E+02  0.21859190223E+02  0.51100000000E-03 0. -1.
        -11    1    3    3    0    0  0.32240228266E+01 -0.13370155915E+02  0.21523910807E+02  0.25542790158E+02  0.51100000000E-03 0.  1.
         12    1    3    3    0    0 -0.20483450693E+02  0.11134884145E+02  0.91884357345E+01  0.25059623869E+02  0.00000000000E+00 0. -1.
</event>
<event>
 7    1  0.1360399E-013  0.7246165E+02  0.7816164E-02  0.1226708E+00
        -11   -1    0    0    0    0  0.00000000000E+00  0.00000000000E+00  0.45593999997E+02  0.45594000000E+02  0.51100000000E-03 0.  1.
         11   -1    0    0    0    0 -0.00000000000E+00 -0.00000000000E+00 -0.45593999997E+02  0.45594000000E+02  0.51100000000E-03 0. -1.
    9900012    2    1    2    0    0 -0.15008159350E+02  0.10624661825E+02 -0.35423130207E+01  0.72461647779E+02  0.70000100939E+02 0.  0.
         12    1    1    2    0    0  0.15008159350E+02 -0.10624661825E+02  0.35423130207E+01  0.18726352221E+02  0.00000000000E+00 0. -1.
         11    1    3    3    0    0  0.49943746937E+01 -0.43877737556E+01 -0.12542483533E+02  0.14195429918E+02  0.51100000000E-03 0. -1.
        -11    1    3    3    0    0 -0.96647785776E+01 -0.11158711115E+02  0.22614929959E+02  0.27006662808E+02  0.51100000000E-03 0.  1.
        -12    1    3    3    0    0 -0.10337755466E+02  0.26171146695E+02 -0.13614759446E+02  0.31259555054E+02  0.00000000000E+00 0.  1.
</event>
<event>
 7    1  0.1360399E-013  0.7246156E+02  0.7816164E-02  0.1226708E+00
        -11   -1    0    0    0    0  0.00000000000E+00  0.00000000000E+00  0.45593999997E+02  0.45594000000E+02  0.51100000000E-03 0. -1.
         11   -1    0    0    0    0 -0.00000000000E+00 -0.00000000000E+00 -0.45593999997E+02  0.45594000000E+02  0.51100000000E-03 0.  1.
    9900012    2    1    2    0    0 -0.12323842071E+02  0.11717684997E+02 -0.78420902436E+01  0.72461558681E+02  0.69999984872E+02 0.  0.
         12    1    1    2    0    0  0.12323842071E+02 -0.11717684997E+02  0.78420902436E+01  0.18726441319E+02  0.00000000000E+00 0. -1.
         11    1    3    3    0    0  0.28389104840E+01  0.36909789552E+01  0.23606011984E+02  0.24060892345E+02  0.51100000000E-03 0. -1.
        -11    1    3    3    0    0 -0.22043892736E+02 -0.28057565715E+01 -0.26651626584E+02  0.34700355571E+02  0.51100000000E-03 0.  1.
        -12    1    3    3    0    0  0.68811401812E+01  0.10832462613E+02 -0.47964756435E+01  0.13700310765E+02  0.00000000000E+00 0.  1.
</event>
<event>
 7    1  0.1360399E-013  0.7246144E+02  0.7816164E-02  0.1226708E+00
        -11   -1    0    0    0    0  0.00000000000E+00  0.00000000000E+00  0.45593999997E+02  0.45594000000E+02  0.51100000000E-03 0. -1.
         11   -1    0    0    0    0 -0.00000000000E+00 -0.00000000000E+00 -0.45593999997E+02  0.45594000000E+02  0.51100000000E-03 0.  1.
    9900012    2    1    2    0    0 -0.24900166401E+01 -0.17298771107E+02 -0.67257976473E+01  0.72461440821E+02  0.69999831337E+02 0.  0.
         12    1    1    2    0    0  0.24900166401E+01  0.17298771107E+02  0.67257976473E+01  0.18726559179E+02  0.00000000000E+00 0. -1.
         11    1    3    3    0    0  0.23551614166E+02 -0.23364976498E+02 -0.19791793714E+02  0.38630502912E+02  0.51100000000E-03 0. -1.
        -11    1    3    3    0    0 -0.18702383136E+02  0.28176985720E+01  0.49947600506E+00  0.18920043255E+02  0.51100000000E-03 0.  1.
         12    1    3    3    0    0 -0.73392476698E+01  0.32485068185E+01  0.12566520062E+02  0.14910894654E+02  0.00000000000E+00 0. -1.
</event>
<event>
 7    1  0.1360399E-013  0.7246161E+02  0.7816164E-02  0.1226708E+00
        -11   -1    0    0    0    0  0.00000000000E+00  0.00000000000E+00  0.45593999997E+02  0.45594000000E+02  0.51100000000E-03 0. -1.
         11   -1    0    0    0    0 -0.00000000000E+00 -0.00000000000E+00 -0.45593999997E+02  0.45594000000E+02  0.51100000000E-03 0.  1.
    9900012    2    1    2    0    0 -0.18546990156E+02 -0.25552621033E+01  0.39690860607E+00  0.72461608337E+02  0.70000049558E+02 0.  0.
         12    1    1    2    0    0  0.18546990156E+02  0.25552621033E+01 -0.39690860607E+00  0.18726391663E+02  0.00000000000E+00 0. -1.
         11    1    3    3    0    0 -0.33458347675E+01  0.19869350260E+02 -0.55779806658E+01  0.20906926092E+02  0.51100000000E-03 0. -1.
        -11    1    3    3    0    0 -0.17510523297E+02 -0.34395264195E+02  0.73378286388E+01  0.39287356167E+02  0.51100000000E-03 0.  1.
        -12    1    3    3    0    0  0.23093679081E+01  0.11970651832E+02 -0.13629393669E+01  0.12267326079E+02  0.00000000000E+00 0.  1.
</event>
<event>
 7    1  0.1360399E-013  0.7246154E+02  0.7816164E-02  0.1226708E+00
        -11   -1    0    0    0    0  0.00000000000E+00  0.00000000000E+00  0.45593999997E+02  0.45594000000E+02  0.51100000000E-03 0.  1.
         11   -1    0    0    0    0 -0.00000000000E+00 -0.00000000000E+00 -0.45593999997E+02  0.45594000000E+02  0.51100000000E-03 0. -1.
    9900012    2    1    2    0    0 -0.93519959107E+00  0.16653727350E+02  0.85122868310E+01  0.72461541178E+02  0.69999962071E+02 0.  0.
         12    1    1    2    0    0  0.93519959107E+00 -0.16653727350E+02 -0.85122868310E+01  0.18726458822E+02  0.00000000000E+00 0. -1.
         11    1    3    3    0    0  0.84502777258E+01 -0.20781041119E+02  0.31120528890E+01  0.22648261237E+02  0.51100000000E-03 0. -1.
        -11    1    3    3    0    0 -0.20733959065E+02  0.21982407091E+02  0.15439381241E+01  0.30257346632E+02  0.51100000000E-03 0.  1.
         12    1    3    3    0    0  0.11348481748E+02  0.15452361377E+02  0.38562958179E+01  0.19555933308E+02  0.00000000000E+00 0. -1.
</event>
<event>
 7    1  0.1360399E-013  0.7246156E+02  0.7816164E-02  0.1226708E+00
        -11   -1    0    0    0    0  0.00000000000E+00  0.00000000000E+00  0.45593999997E+02  0.45594000000E+02  0.51100000000E-03 0.  1.
         11   -1    0    0    0    0 -0.00000000000E+00 -0.00000000000E+00 -0.45593999997E+02  0.45594000000E+02  0.51100000000E-03 0. -1.
    9900012    2    1    2    0    0 -0.12966587424E+02  0.68787028719E+01  0.11628875242E+02  0.72461556611E+02  0.69999982175E+02 0.  0.
         12    1    1    2    0    0  0.12966587424E+02 -0.68787028719E+01 -0.11628875242E+02  0.18726443389E+02  0.00000000000E+00 0. -1.
         11    1    3    3    0    0 -0.10153956914E+01 -0.16718421206E+02 -0.10779504821E+02  0.19918191697E+02  0.51100000000E-03 0. -1.
        -11    1    3    3    0    0 -0.12692415547E+02 -0.30861521970E+01  0.22306504236E+02  0.25849601144E+02  0.51100000000E-03 0.  1.
         12    1    3    3    0    0  0.74122381513E+00  0.26683276275E+02  0.10187582762E+00  0.26693763770E+02  0.00000000000E+00 0. -1.
</event>
<event>
 7    1  0.1360399E-013  0.7246157E+02  0.7816164E-02  0.1226708E+00
        -11   -1    0    0    0    0  0.00000000000E+00  0.00000000000E+00  0.45593999997E+02  0.45594000000E+02  0.51100000000E-03 0. -1.
         11   -1    0    0    0    0 -0.00000000000E+00 -0.00000000000E+00 -0.45593999997E+02  0.45594000000E+02  0.51100000000E-03 0.  1.
    9900012    2    1    2    0    0 -0.60166038247E+01 -0.14980432019E+02 -0.94903321690E+01  0.72461567619E+02  0.69999996515E+02 0.  0.
         12    1    1    2    0    0  0.60166038247E+01  0.14980432019E+02  0.94903321690E+01  0.18726432381E+02  0.00000000000E+00 0. -1.
         11    1    3    3    0    0 -0.19913503090E+02  0.52772466938E+01  0.12024535314E+02  0.23853435555E+02  0.51100000000E-03 0. -1.
        -11    1    3    3    0    0  0.16249183080E+02 -0.20625970731E+02  0.69903186058E+00  0.26266999546E+02  0.51100000000E-03 0.  1.
         12    1    3    3    0    0 -0.23522838138E+01  0.36829201890E+00 -0.22213899343E+02  0.22341132518E+02  0.00000000000E+00 0. -1.
</event>
<event>
 7    1  0.1360399E-013  0.7246157E+02  0.7816164E-02  0.1226708E+00
        -11   -1    0    0    0    0  0.00000000000E+00  0.00000000000E+00  0.45593999997E+02  0.45594000000E+02  0.51100000000E-03 0. -1.
         11   -1    0    0    0    0 -0.00000000000E+00 -0.00000000000E+00 -0.45593999997E+02  0.45594000000E+02  0.51100000000E-03 0.  1.
    9900012    2    1    2    0    0 -0.56446797581E+01  0.16734460641E+02 -0.62269225713E+01  0.72461570890E+02  0.70000000775E+02 0.  0.
         12    1    1    2    0    0  0.56446797581E+01 -0.16734460641E+02  0.62269225713E+01  0.18726429110E+02  0.00000000000E+00 0. -1.
         11    1    3    3    0    0 -0.46406605844E+01  0.76042468086E+01  0.29503970967E+02  0.30819549044E+02  0.51100000000E-03 0. -1.
        -11    1    3    3    0    0 -0.46701279273E+01 -0.45476337589E+01 -0.67341064789E+01  0.93722600259E+01  0.51100000000E-03 0.  1.
         12    1    3    3    0    0  0.36661087536E+01  0.13677847591E+02 -0.28996787060E+02  0.32269761820E+02  0.00000000000E+00 0. -1.
</event>
<event>
 7    1  0.1360399E-013  0.7246150E+02  0.7816164E-02  0.1226708E+00
        -11   -1    0    0    0    0  0.00000000000E+00  0.00000000000E+00  0.45593999997E+02  0.45594000000E+02  0.51100000000E-03 0.  1.
         11   -1    0    0    0    0 -0.00000000000E+00 -0.00000000000E+00 -0.45593999997E+02  0.45594000000E+02  0.51100000000E-03 0. -1.
    9900012    2    1    2    0    0 -0.41877550255E+01 -0.15742159075E+02 -0.92373591198E+01  0.72461503584E+02  0.69999913097E+02 0.  0.
         12    1    1    2    0    0  0.41877550255E+01  0.15742159075E+02  0.92373591198E+01  0.18726496416E+02  0.00000000000E+00 0. -1.
         11    1    3    3    0    0 -0.28391769181E+02 -0.19136315953E+02 -0.20139566160E+02  0.39722704727E+02  0.51100000000E-03 0. -1.
        -11    1    3    3    0    0  0.14594619959E+01  0.75468545820E+01  0.18260686173E+01  0.79006056891E+01  0.51100000000E-03 0.  1.
         12    1    3    3    0    0  0.22744552159E+02 -0.41526977042E+01  0.90761384231E+01  0.24838193168E+02  0.00000000000E+00 0. -1.
</event>
<event>
 7    1  0.1360399E-013  0.7246166E+02  0.7816164E-02  0.1226708E+00
        -11   -1    0    0    0    0  0.00000000000E+00  0.00000000000E+00  0.45593999997E+02  0.45594000000E+02  0.51100000000E-03 0. -1.
         11   -1    0    0    0    0 -0.00000000000E+00 -0.00000000000E+00 -0.45593999997E+02  0.45594000000E+02  0.51100000000E-03 0.  1.
    9900012    2    1    2    0    0  0.14741204638E+02  0.11524177150E+02 -0.75223059094E+00  0.72461664960E+02  0.70000123319E+02 0.  0.
         12    1    1    2    0    0 -0.14741204638E+02 -0.11524177150E+02  0.75223059094E+00  0.18726335040E+02  0.00000000000E+00 0. -1.
         11    1    3    3    0    0  0.20770379834E+01 -0.10431246049E+02  0.71639309975E+01  0.12823684670E+02  0.51100000000E-03 0. -1.
        -11    1    3    3    0    0  0.10104297648E+02  0.19853308153E+02 -0.29966886391E+02  0.37339857469E+02  0.51100000000E-03 0.  1.
        -12    1    3    3    0    0  0.25598690072E+01  0.21021150457E+01  0.22050724803E+02  0.22298122821E+02  0.00000000000E+00 0.  1.
</event>
<event>
 7    1  0.1360399E-013  0.7246157E+02  0.7816164E-02  0.1226708E+00
        -11   -1    0    0    0    0  0.00000000000E+00  0.00000000000E+00  0.45593999997E+02  0.45594000000E+02  0.51100000000E-03 0.  1.
         11   -1    0    0    0    0 -0.00000000000E+00 -0.00000000000E+00 -0.45593999997E+02  0.45594000000E+02  0.51100000000E-03 0. -1.
    9900012    2    1    2    0    0  0.14476550657E+01 -0.12118729329E+02  0.14202810605E+02  0.72461571221E+02  0.70000001207E+02 0.  0.
         12    1    1    2    0    0 -0.14476550657E+01  0.12118729329E+02 -0.14202810605E+02  0.18726428779E+02  0.00000000000E+00 0. -1.
         11    1    3    3    0    0 -0.19855835725E+02  0.14862783667E+00  0.42678031865E+01  0.20309860829E+02  0.51100000000E-03 0. -1.
        -11    1    3    3    0    0  0.13407123873E+02 -0.19029653060E+02  0.24799023791E+02  0.34012795348E+02  0.51100000000E-03 0.  1.
         12    1    3    3    0    0  0.78963669179E+01  0.67622958938E+01 -0.14864016373E+02  0.18138915045E+02  0.00000000000E+00 0. -1.
</event>
<event>
 7    1  0.1360399E-013  0.7246158E+02  0.7816164E-02  0.1226708E+00
        -11   -1    0    0    0    0  0.00000000000E+00  0.00000000000E+00  0.45593999997E+02  0.45594000000E+02  0.51100000000E-03 0.  1.
         11   -1    0    0    0    0 -0.00000000000E+00 -0.00000000000E+00 -0.45593999997E+02  0.45594000000E+02  0.51100000000E-03 0. -1.
    9900012    2    1    2    0    0 -0.12605512041E+02 -0.13463408918E+02 -0.32428929870E+01  0.72461583674E+02  0.70000017429E+02 0.  0.
         12    1    1    2    0    0  0.12605512041E+02  0.13463408918E+02  0.32428929870E+01  0.18726416326E+02  0.00000000000E+00 0. -1.
         11    1    3    3    0    0  0.65910154040E+01  0.12191995180E+02 -0.13158713186E+02  0.19111199949E+02  0.51100000000E-03 0. -1.
        -11    1    3    3    0    0 -0.19302335221E+02 -0.34197147644E+02 -0.12537872040E+01  0.39288637474E+02  0.51100000000E-03 0.  1.
        -12    1    3    3    0    0  0.10580777643E+00  0.85417435461E+01  0.11169607403E+02  0.14061746251E+02  0.00000000000E+00 0.  1.
</event>
<event>
 7    1  0.1360399E-013  0.7246159E+02  0.7816164E-02  0.1226708E+00
        -11   -1    0    0    0    0  0.00000000000E+00  0.00000000000E+00  0.45593999997E+02  0.45594000000E+02  0.51100000000E-03 0. -1.
         11   -1    0    0    0    0 -0.00000000000E+00 -0.00000000000E+00 -0.45593999997E+02  0.45594000000E+02  0.51100000000E-03 0.  1.
    9900012    2    1    2    0    0 -0.32636863573E+01 -0.22727039047E+01  0.18299228679E+02  0.72461585450E+02  0.70000019743E+02 0.  0.
         12    1    1    2    0    0  0.32636863573E+01  0.22727039047E+01 -0.18299228679E+02  0.18726414550E+02  0.00000000000E+00 0. -1.
         11    1    3    3    0    0 -0.23109123876E+02 -0.53815379655E+01  0.13598112939E+02  0.27347782962E+02  0.51100000000E-03 0. -1.
        -11    1    3    3    0    0  0.21243309104E+02  0.25696609317E+01  0.20269023324E+02  0.29473965559E+02  0.51100000000E-03 0.  1.
        -12    1    3    3    0    0 -0.13978715856E+01  0.53917312898E+00 -0.15567907584E+02  0.15639836929E+02  0.00000000000E+00 0.  1.
</event>
<event>
 7    1  0.1360399E-013  0.7246169E+02  0.7816164E-02  0.1226708E+00
        -11   -1    0    0    0    0  0.00000000000E+00  0.00000000000E+00  0.45593999997E+02  0.45594000000E+02  0.51100000000E-03 0.  1.
         11   -1    0    0    0    0 -0.00000000000E+00 -0.00000000000E+00 -0.45593999997E+02  0.45594000000E+02  0.51100000000E-03 0. -1.
    9900012    2    1    2    0    0  0.21856860880E+00  0.46424164157E+01  0.18140426084E+02  0.72461685335E+02  0.70000149862E+02 0.  0.
         12    1    1    2    0    0 -0.21856860880E+00 -0.46424164157E+01 -0.18140426084E+02  0.18726314665E+02  0.00000000000E+00 0. -1.
         11    1    3    3    0    0 -0.41470758364E+01  0.74211894102E-01 -0.70177542527E+01  0.81518476685E+01  0.51100000000E-03 0. -1.
        -11    1    3    3    0    0  0.56902233925E+01  0.11293039649E+02  0.43198506933E+02  0.45011358437E+02  0.51100000000E-03 0.  1.
        -12    1    3    3    0    0 -0.13245789472E+01 -0.67248351277E+01 -0.18040326596E+02  0.19298479230E+02  0.00000000000E+00 0.  1.
</event>
<event>
 7    1  0.1360399E-013  0.7246166E+02  0.7816164E-02  0.1226708E+00
        -11   -1    0    0    0    0  0.00000000000E+00  0.00000000000E+00  0.45593999997E+02  0.45594000000E+02  0.51100000000E-03 0. -1.
         11   -1    0    0    0    0 -0.00000000000E+00 -0.00000000000E+00 -0.45593999997E+02  0.45594000000E+02  0.51100000000E-03 0.  1.
    9900012    2    1    2    0    0  0.16357426973E+02 -0.63938442812E+01 -0.64983909454E+01  0.72461661684E+02  0.70000119052E+02 0.  0.
         12    1    1    2    0    0 -0.16357426973E+02  0.63938442812E+01  0.64983909454E+01  0.18726338316E+02  0.00000000000E+00 0. -1.
         11    1    3    3    0    0 -0.54265376875E+01  0.56564685488E+01  0.94853936179E+01  0.12305106260E+02  0.51100000000E-03 0. -1.
        -11    1    3    3    0    0  0.25689431667E+02  0.43258558755E+01 -0.28921257806E+02  0.38924273683E+02  0.51100000000E-03 0.  1.
        -12    1    3    3    0    0 -0.39054670070E+01 -0.16376168706E+02  0.12937473243E+02  0.21232281741E+02  0.00000000000E+00 0.  1.
</event>
<event>
 7    1  0.1360399E-013  0.7246151E+02  0.7816164E-02  0.1226708E+00
        -11   -1    0    0    0    0  0.00000000000E+00  0.00000000000E+00  0.45593999997E+02  0.45594000000E+02  0.51100000000E-03 0.  1.
         11   -1    0    0    0    0 -0.00000000000E+00 -0.00000000000E+00 -0.45593999997E+02  0.45594000000E+02  0.51100000000E-03 0. -1.
    9900012    2    1    2    0    0  0.81346823300E+01  0.16756795952E+02  0.19282273811E+01  0.72461512662E+02  0.69999924923E+02 0.  0.
         12    1    1    2    0    0 -0.81346823300E+01 -0.16756795952E+02 -0.19282273811E+01  0.18726487338E+02  0.00000000000E+00 0. -1.
         11    1    3    3    0    0  0.48377610976E+01  0.23971343136E+01 -0.21638380497E+02  0.22301786838E+02  0.51100000000E-03 0. -1.
        -11    1    3    3    0    0 -0.80295490655E+00  0.26928300718E+02  0.50524996329E+01  0.27409959302E+02  0.51100000000E-03 0.  1.
        -12    1    3    3    0    0  0.40998761389E+01 -0.12568639080E+02  0.18514108245E+02  0.22749766522E+02  0.00000000000E+00 0.  1.
</event>
<event>
 7    1  0.1360399E-013  0.7246168E+02  0.7816164E-02  0.1226708E+00
        -11   -1    0    0    0    0  0.00000000000E+00  0.00000000000E+00  0.45593999997E+02  0.45594000000E+02  0.51100000000E-03 0.  1.
         11   -1    0    0    0    0 -0.00000000000E+00 -0.00000000000E+00 -0.45593999997E+02  0.45594000000E+02  0.51100000000E-03 0. -1.
    9900012    2    1    2    0    0  0.51816981887E+01  0.94129343391E+01  0.15336944840E+02  0.72461676121E+02  0.70000137859E+02 0.  0.
         12    1    1    2    0    0 -0.51816981887E+01 -0.94129343391E+01 -0.15336944840E+02  0.18726323879E+02  0.00000000000E+00 0. -1.
         11    1    3    3    0    0  0.23739011702E+02  0.14255314174E+02  0.32359529890E+01  0.27878774198E+02  0.51100000000E-03 0. -1.
        -11    1    3    3    0    0 -0.24794938924E+02 -0.16398192692E+02  0.73909459201E+01  0.30631940873E+02  0.51100000000E-03 0.  1.
         12    1    3    3    0    0  0.62376254100E+01  0.11555812857E+02  0.47100459305E+01  0.13950961050E+02  0.00000000000E+00 0. -1.
</event>
<event>
 7    1  0.1360399E-013  0.7246156E+02  0.7816164E-02  0.1226708E+00
        -11   -1    0    0    0    0  0.00000000000E+00  0.00000000000E+00  0.45593999997E+02  0.45594000000E+02  0.51100000000E-03 0. -1.
         11   -1    0    0    0    0 -0.00000000000E+00 -0.00000000000E+00 -0.45593999997E+02  0.45594000000E+02  0.51100000000E-03 0.  1.
    9900012    2    1    2    0    0  0.46842261865E+00  0.18609523245E+02 -0.20360954900E+01  0.72461562538E+02  0.69999989896E+02 0.  0.
         12    1    1    2    0    0 -0.46842261865E+00 -0.18609523245E+02  0.20360954900E+01  0.18726437462E+02  0.00000000000E+00 0. -1.
         11    1    3    3    0    0 -0.25692661851E+02 -0.93936495343E+01  0.69756840868E+00  0.27364943385E+02  0.51100000000E-03 0. -1.
        -11    1    3    3    0    0  0.75660522218E+01  0.86043041930E+01 -0.12076559740E+02  0.16646996494E+02  0.51100000000E-03 0.  1.
         12    1    3    3    0    0  0.18595032247E+02  0.19398868586E+02  0.93428958415E+01  0.28449622659E+02  0.00000000000E+00 0. -1.
</event>
<event>
 7    1  0.1360399E-013  0.7246153E+02  0.7816164E-02  0.1226708E+00
        -11   -1    0    0    0    0  0.00000000000E+00  0.00000000000E+00  0.45593999997E+02  0.45594000000E+02  0.51100000000E-03 0. -1.
         11   -1    0    0    0    0 -0.00000000000E+00 -0.00000000000E+00 -0.45593999997E+02  0.45594000000E+02  0.51100000000E-03 0.  1.
    9900012    2    1    2    0    0 -0.13975939507E+02 -0.16798407666E+01 -0.12350380549E+02  0.72461530770E+02  0.69999948512E+02 0.  0.
         12    1    1    2    0    0  0.13975939507E+02  0.16798407666E+01  0.12350380549E+02  0.18726469230E+02  0.00000000000E+00 0. -1.
         11    1    3    3    0    0 -0.15696037466E+02  0.25034222654E+02 -0.10103351117E+00  0.29548064303E+02  0.51100000000E-03 0.  1.
        -11    1    3    3    0    0  0.20084764000E+01 -0.21933218733E+02 -0.22569902488E+02  0.31535702941E+02  0.51100000000E-03 0. -1.
         12    1    3    3    0    0 -0.28837844136E+00 -0.47808446878E+01  0.10320555450E+02  0.11377763526E+02  0.00000000000E+00 0. -1.
</event>
<event>
 7    1  0.1360399E-013  0.7246155E+02  0.7816164E-02  0.1226708E+00
        -11   -1    0    0    0    0  0.00000000000E+00  0.00000000000E+00  0.45593999997E+02  0.45594000000E+02  0.51100000000E-03 0.  1.
         11   -1    0    0    0    0 -0.00000000000E+00 -0.00000000000E+00 -0.45593999997E+02  0.45594000000E+02  0.51100000000E-03 0. -1.
    9900012    2    1    2    0    0 -0.33400895489E+01 -0.71650949099E+01  0.16976013701E+02  0.72461552808E+02  0.69999977220E+02 0.  0.
         12    1    1    2    0    0  0.33400895489E+01  0.71650949099E+01 -0.16976013701E+02  0.18726447192E+02  0.00000000000E+00 0. -1.
         11    1    3    3    0    0 -0.92917032345E+01  0.14272649046E+02 -0.73744332186E+01  0.18558731782E+02  0.51100000000E-03 0. -1.
        -11    1    3    3    0    0 -0.18161046113E+02 -0.13706368601E+02  0.12188251397E+02  0.25811656447E+02  0.51100000000E-03 0.  1.
        -12    1    3    3    0    0  0.24112659799E+02 -0.77313753551E+01  0.12162195523E+02  0.28091164579E+02  0.00000000000E+00 0.  1.
</event>
<event>
 7    1  0.1360399E-013  0.7246158E+02  0.7816164E-02  0.1226708E+00
        -11   -1    0    0    0    0  0.00000000000E+00  0.00000000000E+00  0.45593999997E+02  0.45594000000E+02  0.51100000000E-03 0. -1.
         11   -1    0    0    0    0 -0.00000000000E+00 -0.00000000000E+00 -0.45593999997E+02  0.45594000000E+02  0.51100000000E-03 0.  1.
    9900012    2    1    2    0    0 -0.38032789642E+01  0.11758311867E+02  0.14069685171E+02  0.72461578301E+02  0.70000010430E+02 0.  0.
         12    1    1    2    0    0  0.38032789642E+01 -0.11758311867E+02 -0.14069685171E+02  0.18726421699E+02  0.00000000000E+00 0. -1.
         11    1    3    3    0    0 -0.13229197255E+02  0.87140134345E+01  0.40609670067E+02  0.43590033189E+02  0.51100000000E-03 0. -1.
        -11    1    3    3    0    0  0.76901385490E+01  0.42311993892E+01 -0.24110278421E+02  0.25658269719E+02  0.51100000000E-03 0.  1.
         12    1    3    3    0    0  0.17357797422E+01 -0.11869009567E+01 -0.24297064747E+01  0.32132753924E+01  0.00000000000E+00 0. -1.
</event>
<event>
 7    1  0.1360399E-013  0.7246155E+02  0.7816164E-02  0.1226708E+00
        -11   -1    0    0    0    0  0.00000000000E+00  0.00000000000E+00  0.45593999997E+02  0.45594000000E+02  0.51100000000E-03 0.  1.
         11   -1    0    0    0    0 -0.00000000000E+00 -0.00000000000E+00 -0.45593999997E+02  0.45594000000E+02  0.51100000000E-03 0. -1.
    9900012    2    1    2    0    0 -0.20786950654E+01  0.95785566087E+01  0.15956504796E+02  0.72461554390E+02  0.69999979282E+02 0.  0.
         12    1    1    2    0    0  0.20786950654E+01 -0.95785566087E+01 -0.15956504796E+02  0.18726445610E+02  0.00000000000E+00 0. -1.
         11    1    3    3    0    0  0.15444632588E+01  0.34081630360E+02 -0.15893655486E+01  0.34153608563E+02  0.51100000000E-03 0. -1.
        -11    1    3    3    0    0 -0.14150744712E+01 -0.14385427739E+02  0.22566677361E+02  0.26799214436E+02  0.51100000000E-03 0.  1.
         12    1    3    3    0    0 -0.22080838530E+01 -0.10117646013E+02 -0.50208070173E+01  0.11508731391E+02  0.00000000000E+00 0. -1.
</event>
<event>
 7    1  0.1360399E-013  0.7246157E+02  0.7816164E-02  0.1226708E+00
        -11   -1    0    0    0    0  0.00000000000E+00  0.00000000000E+00  0.45593999997E+02  0.45594000000E+02  0.51100000000E-03 0.  1.
         11   -1    0    0    0    0 -0.00000000000E+00 -0.00000000000E+00 -0.45593999997E+02  0.45594000000E+02  0.51100000000E-03 0. -1.
    9900012    2    1    2    0    0  0.98575188465E+01 -0.19650365899E+01  0.15800227639E+02  0.72461568411E+02  0.69999997546E+02 0.  0.
         12    1    1    2    0    0 -0.98575188465E+01  0.19650365899E+01 -0.15800227639E+02  0.18726431589E+02  0.00000000000E+00 0. -1.
         11    1    3    3    0    0  0.83316232598E+01  0.76189003257E+01  0.25526443914E+02  0.27911698756E+02  0.51100000000E-03 0.  1.
        -11    1    3    3    0    0  0.12498299099E+02  0.66785684556E+01 -0.18295822052E+02  0.23141907048E+02  0.51100000000E-03 0. -1.
        -12    1    3    3    0    0 -0.10972403512E+02 -0.16262505371E+02  0.85696057781E+01  0.21407962607E+02  0.00000000000E+00 0.  1.
</event>
<event>
 7    1  0.1360399E-013  0.7246153E+02  0.7816164E-02  0.1226708E+00
        -11   -1    0    0    0    0  0.00000000000E+00  0.00000000000E+00  0.45593999997E+02  0.45594000000E+02  0.51100000000E-03 0.  1.
         11   -1    0    0    0    0 -0.00000000000E+00 -0.00000000000E+00 -0.45593999997E+02  0.45594000000E+02  0.51100000000E-03 0. -1.
    9900012    2    1    2    0    0  0.15111890376E+02 -0.71169541119E+01  0.84652463409E+01  0.72461530440E+02  0.69999948083E+02 0.  0.
         12    1    1    2    0    0 -0.15111890376E+02  0.71169541119E+01 -0.84652463409E+01  0.18726469560E+02  0.00000000000E+00 0. -1.
         11    1    3    3    0    0 -0.33088936572E+01 -0.34362749322E+02  0.12894757817E+02  0.36851351367E+02  0.51100000000E-03 0.  1.
        -11    1    3    3    0    0  0.11834469413E+02  0.18664780078E+02 -0.90055762352E+01  0.23864808510E+02  0.51100000000E-03 0. -1.
         12    1    3    3    0    0  0.65863146198E+01  0.85810151325E+01  0.45760647595E+01  0.11745370563E+02  0.00000000000E+00 0. -1.
</event>
<event>
 7    1  0.1360399E-013  0.7246160E+02  0.7816164E-02  0.1226708E+00
        -11   -1    0    0    0    0  0.00000000000E+00  0.00000000000E+00  0.45593999997E+02  0.45594000000E+02  0.51100000000E-03 0. -1.
         11   -1    0    0    0    0 -0.00000000000E+00 -0.00000000000E+00 -0.45593999997E+02  0.45594000000E+02  0.51100000000E-03 0.  1.
    9900012    2    1    2    0    0  0.79407653146E+01  0.21914336519E+01 -0.16817249708E+02  0.72461600908E+02  0.70000039880E+02 0.  0.
         12    1    1    2    0    0 -0.79407653146E+01 -0.21914336519E+01  0.16817249708E+02  0.18726399092E+02  0.00000000000E+00 0. -1.
         11    1    3    3    0    0  0.24451388829E+02 -0.14234356940E+00 -0.47018435827E+01  0.24899759249E+02  0.51100000000E-03 0. -1.
        -11    1    3    3    0    0 -0.25255925843E+02  0.15878743306E+02 -0.69488267075E+01  0.30631396835E+02  0.51100000000E-03 0.  1.
        -12    1    3    3    0    0  0.87453023291E+01 -0.13544966085E+02 -0.51665794174E+01  0.16930444824E+02  0.00000000000E+00 0.  1.
</event>
<event>
 7    1  0.1360399E-013  0.7246154E+02  0.7816164E-02  0.1226708E+00
        -11   -1    0    0    0    0  0.00000000000E+00  0.00000000000E+00  0.45593999997E+02  0.45594000000E+02  0.51100000000E-03 0. -1.
         11   -1    0    0    0    0 -0.00000000000E+00 -0.00000000000E+00 -0.45593999997E+02  0.45594000000E+02  0.51100000000E-03 0.  1.
    9900012    2    1    2    0    0  0.95582645459E+01  0.33910196911E+01 -0.15742326282E+02  0.72461540846E+02  0.69999961638E+02 0.  0.
         12    1    1    2    0    0 -0.95582645459E+01 -0.33910196911E+01  0.15742326282E+02  0.18726459154E+02  0.00000000000E+00 0. -1.
         11    1    3    3    0    0  0.69524464656E+01 -0.75974504057E+01 -0.31285881755E+02  0.32937276177E+02  0.51100000000E-03 0.  1.
        -11    1    3    3    0    0 -0.13411135640E+02  0.10626435448E+02  0.16098748114E+02  0.23493602972E+02  0.51100000000E-03 0. -1.
         12    1    3    3    0    0  0.16016953721E+02  0.36203464876E+00 -0.55519264117E+00  0.16030661697E+02  0.00000000000E+00 0. -1.
</event>
<event>
 7    1  0.1360399E-013  0.7246150E+02  0.7816164E-02  0.1226708E+00
        -11   -1    0    0    0    0  0.00000000000E+00  0.00000000000E+00  0.45593999997E+02  0.45594000000E+02  0.51100000000E-03 0.  1.
         11   -1    0    0    0    0 -0.00000000000E+00 -0.00000000000E+00 -0.45593999997E+02  0.45594000000E+02  0.51100000000E-03 0. -1.
    9900012    2    1    2    0    0 -0.89155142318E+01  0.22886075757E+01  0.16308209236E+02  0.72461499870E+02  0.69999908259E+02 0.  0.
         12    1    1    2    0    0  0.89155142318E+01 -0.22886075757E+01 -0.16308209236E+02  0.18726500130E+02  0.00000000000E+00 0. -1.
         11    1    3    3    0    0  0.71224493307E+01  0.19652592959E+02 -0.10469984102E+02  0.23378927730E+02  0.51100000000E-03 0. -1.
        -11    1    3    3    0    0 -0.15046681020E+02 -0.18537987474E+02  0.16773752206E+01  0.23934769211E+02  0.51100000000E-03 0.  1.
         12    1    3    3    0    0 -0.99128254290E+00  0.11740020910E+01  0.25100818117E+02  0.25147802929E+02  0.00000000000E+00 0. -1.
</event>
<event>
 7    1  0.1360399E-013  0.7246162E+02  0.7816164E-02  0.1226708E+00
        -11   -1    0    0    0    0  0.00000000000E+00  0.00000000000E+00  0.45593999997E+02  0.45594000000E+02  0.51100000000E-03 0.  1.
         11   -1    0    0    0    0 -0.00000000000E+00 -0.00000000000E+00 -0.45593999997E+02  0.45594000000E+02  0.51100000000E-03 0. -1.
    9900012    2    1    2    0    0  0.70130741170E+01 -0.15018459772E+02  0.87143498639E+01  0.72461621919E+02  0.70000067250E+02 0.  0.
         12    1    1    2    0    0 -0.70130741170E+01  0.15018459772E+02 -0.87143498639E+01  0.18726378081E+02  0.00000000000E+00 0. -1.
         11    1    3    3    0    0 -0.46733617091E+01  0.64127022810E+01 -0.16867434246E+02  0.18640638361E+02  0.51100000000E-03 0. -1.
        -11    1    3    3    0    0  0.10448571957E+02 -0.33024791321E+02  0.23798380911E+02  0.42025854328E+02  0.51100000000E-03 0.  1.
        -12    1    3    3    0    0  0.12378638696E+01  0.11593629268E+02  0.17834031992E+01  0.11795129229E+02  0.00000000000E+00 0.  1.
</event>
<event>
 7    1  0.1360399E-013  0.7246156E+02  0.7816164E-02  0.1226708E+00
        -11   -1    0    0    0    0  0.00000000000E+00  0.00000000000E+00  0.45593999997E+02  0.45594000000E+02  0.51100000000E-03 0.  1.
         11   -1    0    0    0    0 -0.00000000000E+00 -0.00000000000E+00 -0.45593999997E+02  0.45594000000E+02  0.51100000000E-03 0. -1.
    9900012    2    1    2    0    0  0.10878225013E+02  0.20886901569E+01  0.15099044234E+02  0.72461560328E+02  0.69999987017E+02 0.  0.
         12    1    1    2    0    0 -0.10878225013E+02 -0.20886901569E+01 -0.15099044234E+02  0.18726439672E+02  0.00000000000E+00 0. -1.
         11    1    3    3    0    0  0.38159109192E+01  0.14645843758E+02 -0.24980437549E+02  0.29207604762E+02  0.51100000000E-03 0. -1.
        -11    1    3    3    0    0  0.33978457883E+01 -0.34796435714E+01  0.23518369599E+02  0.24015973523E+02  0.51100000000E-03 0.  1.
        -12    1    3    3    0    0  0.36644683056E+01 -0.90775100300E+01  0.16561112184E+02  0.19237982043E+02  0.00000000000E+00 0.  1.
</event>
<event>
 7    1  0.1360399E-013  0.7246157E+02  0.7816164E-02  0.1226708E+00
        -11   -1    0    0    0    0  0.00000000000E+00  0.00000000000E+00  0.45593999997E+02  0.45594000000E+02  0.51100000000E-03 0.  1.
         11   -1    0    0    0    0 -0.00000000000E+00 -0.00000000000E+00 -0.45593999997E+02  0.45594000000E+02  0.51100000000E-03 0. -1.
    9900012    2    1    2    0    0 -0.89902783041E+01  0.16316019453E+02  0.19083095657E+01  0.72461568408E+02  0.69999997543E+02 0.  0.
         12    1    1    2    0    0  0.89902783041E+01 -0.16316019453E+02 -0.19083095657E+01  0.18726431592E+02  0.00000000000E+00 0. -1.
         11    1    3    3    0    0  0.19558378550E+02 -0.91740942564E+00  0.70378870780E+01  0.20806337168E+02  0.51100000000E-03 0. -1.
        -11    1    3    3    0    0 -0.30203136576E+02  0.17231117892E+02 -0.17670968997E+02  0.39005179507E+02  0.51100000000E-03 0.  1.
        -12    1    3    3    0    0  0.16544797216E+01  0.23109866878E-02  0.12541391485E+02  0.12650051733E+02  0.00000000000E+00 0.  1.
</event>
<event>
 7    1  0.1360399E-013  0.7246181E+02  0.7816164E-02  0.1226707E+00
        -11   -1    0    0    0    0  0.00000000000E+00  0.00000000000E+00  0.45593999997E+02  0.45594000000E+02  0.51100000000E-03 0.  1.
         11   -1    0    0    0    0 -0.00000000000E+00 -0.00000000000E+00 -0.45593999997E+02  0.45594000000E+02  0.51100000000E-03 0. -1.
    9900012    2    1    2    0    0  0.10372929551E+02 -0.14279883358E+02 -0.62575905978E+01  0.72461810417E+02  0.70000312804E+02 0.  0.
         12    1    1    2    0    0 -0.10372929551E+02  0.14279883358E+02  0.62575905978E+01  0.18726189583E+02  0.00000000000E+00 0. -1.
         11    1    3    3    0    0 -0.33776456155E+01 -0.83522596611E+01 -0.24435314066E+02  0.26043296740E+02  0.51100000000E-03 0. -1.
        -11    1    3    3    0    0 -0.21162528643E+01  0.13984484912E+02  0.15235147528E+02  0.20788315586E+02  0.51100000000E-03 0.  1.
         12    1    3    3    0    0  0.15866828031E+02 -0.19912108609E+02  0.29425759401E+01  0.25630198091E+02  0.00000000000E+00 0. -1.
</event>
<event>
 7    1  0.1360399E-013  0.7246163E+02  0.7816164E-02  0.1226708E+00
        -11   -1    0    0    0    0  0.00000000000E+00  0.00000000000E+00  0.45593999997E+02  0.45594000000E+02  0.51100000000E-03 0.  1.
         11   -1    0    0    0    0 -0.00000000000E+00 -0.00000000000E+00 -0.45593999997E+02  0.45594000000E+02  0.51100000000E-03 0. -1.
    9900012    2    1    2    0    0  0.16845388306E+02  0.76471512474E+01  0.29036076781E+01  0.72461629104E+02  0.70000076610E+02 0.  0.
         12    1    1    2    0    0 -0.16845388306E+02 -0.76471512474E+01 -0.29036076781E+01  0.18726370896E+02  0.00000000000E+00 0. -1.
         11    1    3    3    0    0 -0.10106738889E+02  0.16164111650E+02 -0.22837408386E+02  0.29748477246E+02  0.51100000000E-03 0. -1.
        -11    1    3    3    0    0  0.14933744828E+02  0.45613368081E+01  0.77528509192E+01  0.17433566064E+02  0.51100000000E-03 0.  1.
         12    1    3    3    0    0  0.12018382367E+02 -0.13078297211E+02  0.17988165145E+02  0.25279585794E+02  0.00000000000E+00 0. -1.
</event>
<event>
 7    1  0.1360399E-013  0.7246156E+02  0.7816164E-02  0.1226708E+00
        -11   -1    0    0    0    0  0.00000000000E+00  0.00000000000E+00  0.45593999997E+02  0.45594000000E+02  0.51100000000E-03 0.  1.
         11   -1    0    0    0    0 -0.00000000000E+00 -0.00000000000E+00 -0.45593999997E+02  0.45594000000E+02  0.51100000000E-03 0. -1.
    9900012    2    1    2    0    0 -0.12177742085E+02  0.38428405511E+01  0.13697248432E+02  0.72461563062E+02  0.69999990578E+02 0.  0.
         12    1    1    2    0    0  0.12177742085E+02 -0.38428405511E+01 -0.13697248432E+02  0.18726436938E+02  0.00000000000E+00 0. -1.
         11    1    3    3    0    0 -0.36866224487E+01 -0.25771160504E+02  0.23208805278E+01  0.26136763102E+02  0.51100000000E-03 0. -1.
        -11    1    3    3    0    0 -0.13966042185E+02  0.30458020921E+02 -0.18164612815E+00  0.33507825479E+02  0.51100000000E-03 0.  1.
        -12    1    3    3    0    0  0.54749225488E+01 -0.84401986644E+00  0.11558014033E+02  0.12816974480E+02  0.00000000000E+00 0.  1.
</event>
<event>
 7    1  0.1360399E-013  0.7246148E+02  0.7816164E-02  0.1226708E+00
        -11   -1    0    0    0    0  0.00000000000E+00  0.00000000000E+00  0.45593999997E+02  0.45594000000E+02  0.51100000000E-03 0.  1.
         11   -1    0    0    0    0 -0.00000000000E+00 -0.00000000000E+00 -0.45593999997E+02  0.45594000000E+02  0.51100000000E-03 0. -1.
    9900012    2    1    2    0    0 -0.15558627195E+02  0.67387004546E+01  0.79499502700E+01  0.72461476743E+02  0.69999878132E+02 0.  0.
         12    1    1    2    0    0  0.15558627195E+02 -0.67387004546E+01 -0.79499502700E+01  0.18726523257E+02  0.00000000000E+00 0. -1.
         11    1    3    3    0    0 -0.21097693564E+02 -0.14956512232E+02 -0.39509709572E+01  0.26161423960E+02  0.51100000000E-03 0.  1.
        -11    1    3    3    0    0  0.17965760351E+02  0.21538748033E+02 -0.14177496382E+01  0.28083735972E+02  0.51100000000E-03 0. -1.
         12    1    3    3    0    0 -0.12426693982E+02  0.15646465291E+00  0.13318670865E+02  0.18216316811E+02  0.00000000000E+00 0. -1.
</event>
<event>
 7    1  0.1360399E-013  0.7246154E+02  0.7816164E-02  0.1226708E+00
        -11   -1    0    0    0    0  0.00000000000E+00  0.00000000000E+00  0.45593999997E+02  0.45594000000E+02  0.51100000000E-03 0. -1.
         11   -1    0    0    0    0 -0.00000000000E+00 -0.00000000000E+00 -0.45593999997E+02  0.45594000000E+02  0.51100000000E-03 0.  1.
    9900012    2    1    2    0    0  0.17741488028E+02  0.50935876315E+01  0.31583420356E+01  0.72461543933E+02  0.69999965660E+02 0.  0.
         12    1    1    2    0    0 -0.17741488028E+02 -0.50935876315E+01 -0.31583420356E+01  0.18726456067E+02  0.00000000000E+00 0. -1.
         11    1    3    3    0    0 -0.39923039709E+01 -0.17338128094E+02 -0.21623831894E+02  0.28002487083E+02  0.51100000000E-03 0.  1.
        -11    1    3    3    0    0  0.18126525111E+02  0.52706745168E+01  0.16472343549E+02  0.25053722772E+02  0.51100000000E-03 0. -1.
        -12    1    3    3    0    0  0.36072668880E+01  0.17161041208E+02  0.83098303805E+01  0.19405334079E+02  0.00000000000E+00 0.  1.
</event>
<event>
 7    1  0.1360399E-013  0.7246162E+02  0.7816164E-02  0.1226708E+00
        -11   -1    0    0    0    0  0.00000000000E+00  0.00000000000E+00  0.45593999997E+02  0.45594000000E+02  0.51100000000E-03 0. -1.
         11   -1    0    0    0    0 -0.00000000000E+00 -0.00000000000E+00 -0.45593999997E+02  0.45594000000E+02  0.51100000000E-03 0.  1.
    9900012    2    1    2    0    0  0.79823595153E+01  0.13141272167E+01 -0.16888826685E+02  0.72461615924E+02  0.70000059441E+02 0.  0.
         12    1    1    2    0    0 -0.79823595153E+01 -0.13141272167E+01  0.16888826685E+02  0.18726384076E+02  0.00000000000E+00 0. -1.
         11    1    3    3    0    0  0.24832969134E+02 -0.25076839802E+02 -0.50916822056E+01  0.35657390235E+02  0.51100000000E-03 0. -1.
        -11    1    3    3    0    0 -0.54561873793E+01  0.16631163251E+02  0.34005241864E+00  0.17506604688E+02  0.51100000000E-03 0.  1.
         12    1    3    3    0    0 -0.11394422239E+02  0.97598037681E+01 -0.12137196898E+02  0.19297621001E+02  0.00000000000E+00 0. -1.
</event>
<event>
 7    1  0.1360399E-013  0.7246160E+02  0.7816164E-02  0.1226708E+00
        -11   -1    0    0    0    0  0.00000000000E+00  0.00000000000E+00  0.45593999997E+02  0.45594000000E+02  0.51100000000E-03 0.  1.
         11   -1    0    0    0    0 -0.00000000000E+00 -0.00000000000E+00 -0.45593999997E+02  0.45594000000E+02  0.51100000000E-03 0. -1.
    9900012    2    1    2    0    0 -0.71585157808E+00  0.18542901468E+02  0.25152079209E+01  0.72461603945E+02  0.70000043836E+02 0.  0.
         12    1    1    2    0    0  0.71585157808E+00 -0.18542901468E+02 -0.25152079209E+01  0.18726396055E+02  0.00000000000E+00 0. -1.
         11    1    3    3    0    0  0.91850556729E+01 -0.13793229355E+02 -0.23686301151E+02  0.28907772073E+02  0.51100000000E-03 0. -1.
        -11    1    3    3    0    0 -0.18545350157E+00  0.79231895494E+01  0.97028690060E+01  0.12528247796E+02  0.51100000000E-03 0.  1.
         12    1    3    3    0    0 -0.97154537494E+01  0.24412941274E+02  0.16498640066E+02  0.31025584075E+02  0.00000000000E+00 0. -1.
</event>
<event>
 7    1  0.1360399E-013  0.7246154E+02  0.7816164E-02  0.1226708E+00
        -11   -1    0    0    0    0  0.00000000000E+00  0.00000000000E+00  0.45593999997E+02  0.45594000000E+02  0.51100000000E-03 0.  1.
         11   -1    0    0    0    0 -0.00000000000E+00 -0.00000000000E+00 -0.45593999997E+02  0.45594000000E+02  0.51100000000E-03 0. -1.
    9900012    2    1    2    0    0  0.69991250088E+01  0.70166149724E+01  0.15888981284E+02  0.72461538433E+02  0.69999958495E+02 0.  0.
         12    1    1    2    0    0 -0.69991250088E+01 -0.70166149724E+01 -0.15888981284E+02  0.18726461567E+02  0.00000000000E+00 0. -1.
         11    1    3    3    0    0 -0.90733161369E+01  0.34270256650E+02  0.12117357688E+01  0.35471733259E+02  0.51100000000E-03 0. -1.
        -11    1    3    3    0    0  0.73274718131E+01 -0.21244735178E+02  0.13734510421E+02  0.26337566188E+02  0.51100000000E-03 0.  1.
         12    1    3    3    0    0  0.87449693327E+01 -0.60089064994E+01  0.94273509456E+00  0.10652238986E+02  0.00000000000E+00 0. -1.
</event>
<event>
 7    1  0.1360399E-013  0.7246166E+02  0.7816164E-02  0.1226708E+00
        -11   -1    0    0    0    0  0.00000000000E+00  0.00000000000E+00  0.45593999997E+02  0.45594000000E+02  0.51100000000E-03 0. -1.
         11   -1    0    0    0    0 -0.00000000000E+00 -0.00000000000E+00 -0.45593999997E+02  0.45594000000E+02  0.51100000000E-03 0.  1.
    9900012    2    1    2    0    0  0.13012772270E+01 -0.75519537549E+01 -0.17086554758E+02  0.72461663427E+02  0.70000121323E+02 0.  0.
         12    1    1    2    0    0 -0.13012772270E+01  0.75519537549E+01  0.17086554758E+02  0.18726336573E+02  0.00000000000E+00 0. -1.
         11    1    3    3    0    0 -0.96239782566E+01  0.10257514988E+02  0.33706053689E+01  0.14463697730E+02  0.51100000000E-03 0. -1.
        -11    1    3    3    0    0  0.15259975574E+02 -0.19543433049E+02 -0.34904424432E+02  0.42815084667E+02  0.51100000000E-03 0.  1.
        -12    1    3    3    0    0 -0.43347200906E+01  0.17339643061E+01  0.14447264305E+02  0.15182881030E+02  0.00000000000E+00 0.  1.
</event>
<event>
 7    1  0.1360399E-013  0.7246160E+02  0.7816164E-02  0.1226708E+00
        -11   -1    0    0    0    0  0.00000000000E+00  0.00000000000E+00  0.45593999997E+02  0.45594000000E+02  0.51100000000E-03 0.  1.
         11   -1    0    0    0    0 -0.00000000000E+00 -0.00000000000E+00 -0.45593999997E+02  0.45594000000E+02  0.51100000000E-03 0. -1.
    9900012    2    1    2    0    0 -0.11342171619E+02  0.12011360245E+02  0.88181949931E+01  0.72461596317E+02  0.70000033899E+02 0.  0.
         12    1    1    2    0    0  0.11342171619E+02 -0.12011360245E+02 -0.88181949931E+01  0.18726403683E+02  0.00000000000E+00 0. -1.
         11    1    3    3    0    0  0.20715681048E+01 -0.73318609979E+01  0.25604698827E+01  0.80376356217E+01  0.51100000000E-03 0. -1.
        -11    1    3    3    0    0 -0.31491494884E+02  0.29355478296E+02  0.75904741082E+01  0.43715828408E+02  0.51100000000E-03 0.  1.
        -12    1    3    3    0    0  0.18077755160E+02 -0.10012257053E+02 -0.13327489978E+01  0.20708132287E+02  0.00000000000E+00 0.  1.
</event>
<event>
 7    1  0.1360399E-013  0.7246165E+02  0.7816164E-02  0.1226708E+00
        -11   -1    0    0    0    0  0.00000000000E+00  0.00000000000E+00  0.45593999997E+02  0.45594000000E+02  0.51100000000E-03 0. -1.
         11   -1    0    0    0    0 -0.00000000000E+00 -0.00000000000E+00 -0.45593999997E+02  0.45594000000E+02  0.51100000000E-03 0.  1.
    9900012    2    1    2    0    0 -0.96354897802E+01  0.11204619905E+02 -0.11501747094E+02  0.72461645396E+02  0.70000097834E+02 0.  0.
         12    1    1    2    0    0  0.96354897802E+01 -0.11204619905E+02  0.11501747094E+02  0.18726354604E+02  0.00000000000E+00 0. -1.
         11    1    3    3    0    0  0.25077326754E+02  0.16872253351E+02 -0.16700777438E+02  0.34532031761E+02  0.51100000000E-03 0. -1.
        -11    1    3    3    0    0 -0.11971392303E+02 -0.37137796307E+01 -0.42368390728E+01  0.13230918275E+02  0.51100000000E-03 0.  1.
         12    1    3    3    0    0 -0.22741424232E+02 -0.19538538145E+01  0.94358694173E+01  0.24698695360E+02  0.00000000000E+00 0. -1.
</event>
<event>
 7    1  0.1360399E-013  0.7246155E+02  0.7816164E-02  0.1226708E+00
        -11   -1    0    0    0    0  0.00000000000E+00  0.00000000000E+00  0.45593999997E+02  0.45594000000E+02  0.51100000000E-03 0. -1.
         11   -1    0    0    0    0 -0.00000000000E+00 -0.00000000000E+00 -0.45593999997E+02  0.45594000000E+02  0.51100000000E-03 0.  1.
    9900012    2    1    2    0    0 -0.45923736122E+01  0.11918864767E+02 -0.13694182583E+02  0.72461551609E+02  0.69999975659E+02 0.  0.
         12    1    1    2    0    0  0.45923736122E+01 -0.11918864767E+02  0.13694182583E+02  0.18726448391E+02  0.00000000000E+00 0. -1.
         11    1    3    3    0    0 -0.65916299448E+01 -0.13092846496E+02  0.25765355223E+00  0.14660784437E+02  0.51100000000E-03 0. -1.
        -11    1    3    3    0    0 -0.13905723682E+02  0.31204220013E+02  0.22910924534E+01  0.34239182272E+02  0.51100000000E-03 0.  1.
        -12    1    3    3    0    0  0.15904980015E+02 -0.61925087505E+01 -0.16242928588E+02  0.23561584900E+02  0.00000000000E+00 0.  1.
</event>
<event>
 7    1  0.1360399E-013  0.7246154E+02  0.7816164E-02  0.1226708E+00
        -11   -1    0    0    0    0  0.00000000000E+00  0.00000000000E+00  0.45593999997E+02  0.45594000000E+02  0.51100000000E-03 0. -1.
         11   -1    0    0    0    0 -0.00000000000E+00 -0.00000000000E+00 -0.45593999997E+02  0.45594000000E+02  0.51100000000E-03 0.  1.
    9900012    2    1    2    0    0  0.10956758029E+02 -0.43048422430E+01 -0.14563586369E+02  0.72461541147E+02  0.69999962030E+02 0.  0.
         12    1    1    2    0    0 -0.10956758029E+02  0.43048422430E+01  0.14563586369E+02  0.18726458853E+02  0.00000000000E+00 0. -1.
         11    1    3    3    0    0 -0.23994559595E+01  0.22819800976E+00  0.16570949356E+02  0.16745322513E+02  0.51100000000E-03 0. -1.
        -11    1    3    3    0    0 -0.15659495539E+02  0.18444290939E+01 -0.15645068453E+02  0.22212381376E+02  0.51100000000E-03 0.  1.
        -12    1    3    3    0    0  0.29015709528E+02 -0.63774693466E+01 -0.15489467272E+02  0.33503837259E+02  0.00000000000E+00 0.  1.
</event>
<event>
 7    1  0.1360399E-013  0.7246150E+02  0.7816164E-02  0.1226708E+00
        -11   -1    0    0    0    0  0.00000000000E+00  0.00000000000E+00  0.45593999997E+02  0.45594000000E+02  0.51100000000E-03 0. -1.
         11   -1    0    0    0    0 -0.00000000000E+00 -0.00000000000E+00 -0.45593999997E+02  0.45594000000E+02  0.51100000000E-03 0.  1.
    9900012    2    1    2    0    0 -0.14001883634E+02 -0.48443037977E+01 -0.11452584625E+02  0.72461502218E+02  0.69999911318E+02 0.  0.
         12    1    1    2    0    0  0.14001883634E+02  0.48443037977E+01  0.11452584625E+02  0.18726497782E+02  0.00000000000E+00 0. -1.
         11    1    3    3    0    0 -0.80670134113E+01  0.10488865313E+02  0.20453302368E+02  0.24360430599E+02  0.51100000000E-03 0. -1.
        -11    1    3    3    0    0 -0.15938630605E+02  0.19186689567E+01 -0.14276814907E+02  0.21483684048E+02  0.51100000000E-03 0.  1.
         12    1    3    3    0    0  0.10003760383E+02 -0.17251838068E+02 -0.17629072086E+02  0.26617387571E+02  0.00000000000E+00 0. -1.
</event>
<event>
 7    1  0.1360399E-013  0.7246154E+02  0.7816164E-02  0.1226708E+00
        -11   -1    0    0    0    0  0.00000000000E+00  0.00000000000E+00  0.45593999997E+02  0.45594000000E+02  0.51100000000E-03 0. -1.
         11   -1    0    0    0    0 -0.00000000000E+00 -0.00000000000E+00 -0.45593999997E+02  0.45594000000E+02  0.51100000000E-03 0.  1.
    9900012    2    1    2    0    0 -0.15457355422E+02 -0.99329092748E+01 -0.36176874504E+01  0.72461543160E+02  0.69999964652E+02 0.  0.
         12    1    1    2    0    0  0.15457355422E+02  0.99329092748E+01  0.36176874504E+01  0.18726456840E+02  0.00000000000E+00 0. -1.
         11    1    3    3    0    0  0.19010249890E+02  0.18727058611E+01 -0.31966697842E+01  0.19367894209E+02  0.51100000000E-03 0. -1.
        -11    1    3    3    0    0 -0.23811979530E+02 -0.25795901117E+02  0.27900692242E+01  0.35216805223E+02  0.51100000000E-03 0.  1.
         12    1    3    3    0    0 -0.10655625782E+02  0.13990285981E+02 -0.32110868905E+01  0.17876843728E+02  0.00000000000E+00 0. -1.
</event>
<event>
 7    1  0.1360399E-013  0.7246150E+02  0.7816164E-02  0.1226708E+00
        -11   -1    0    0    0    0  0.00000000000E+00  0.00000000000E+00  0.45593999997E+02  0.45594000000E+02  0.51100000000E-03 0.  1.
         11   -1    0    0    0    0 -0.00000000000E+00 -0.00000000000E+00 -0.45593999997E+02  0.45594000000E+02  0.51100000000E-03 0. -1.
    9900012    2    1    2    0    0 -0.19884539594E+01  0.17212147966E+02  0.71042032033E+01  0.72461502999E+02  0.69999912336E+02 0.  0.
         12    1    1    2    0    0  0.19884539594E+01 -0.17212147966E+02 -0.71042032033E+01  0.18726497001E+02  0.00000000000E+00 0. -1.
         11    1    3    3    0    0  0.16731067442E+02  0.26775846881E+02 -0.71708034043E+01  0.32377384324E+02  0.51100000000E-03 0. -1.
        -11    1    3    3    0    0  0.35210502419E+01 -0.70115993132E+01  0.15805029144E+02  0.17645375208E+02  0.51100000000E-03 0.  1.
         12    1    3    3    0    0 -0.22240571644E+02 -0.25520996016E+01 -0.15300225360E+01  0.22438743467E+02  0.00000000000E+00 0. -1.
</event>
<event>
 7    1  0.1360399E-013  0.7246150E+02  0.7816164E-02  0.1226708E+00
        -11   -1    0    0    0    0  0.00000000000E+00  0.00000000000E+00  0.45593999997E+02  0.45594000000E+02  0.51100000000E-03 0. -1.
         11   -1    0    0    0    0 -0.00000000000E+00 -0.00000000000E+00 -0.45593999997E+02  0.45594000000E+02  0.51100000000E-03 0.  1.
    9900012    2    1    2    0    0  0.41721766533E+01 -0.10576367576E+02 -0.14880027179E+02  0.72461499580E+02  0.69999907881E+02 0.  0.
         12    1    1    2    0    0 -0.41721766533E+01  0.10576367576E+02  0.14880027179E+02  0.18726500420E+02  0.00000000000E+00 0. -1.
         11    1    3    3    0    0  0.20234003132E+02 -0.81083986060E+01  0.20969605839E+02  0.30247072255E+02  0.51100000000E-03 0. -1.
        -11    1    3    3    0    0 -0.12374028978E+01 -0.59765460451E+01 -0.16466757125E+02  0.17561445243E+02  0.51100000000E-03 0.  1.
         12    1    3    3    0    0 -0.14824423581E+02  0.35085770756E+01 -0.19382875893E+02  0.24652982081E+02  0.00000000000E+00 0. -1.
</event>
<event>
 7    1  0.1360399E-013  0.7246152E+02  0.7816164E-02  0.1226708E+00
        -11   -1    0    0    0    0  0.00000000000E+00  0.00000000000E+00  0.45593999997E+02  0.45594000000E+02  0.51100000000E-03 0. -1.
         11   -1    0    0    0    0 -0.00000000000E+00 -0.00000000000E+00 -0.45593999997E+02  0.45594000000E+02  0.51100000000E-03 0.  1.
    9900012    2    1    2    0    0  0.14262494238E+02 -0.46844347336E+01 -0.11194565928E+02  0.72461522035E+02  0.69999937133E+02 0.  0.
         12    1    1    2    0    0 -0.14262494238E+02  0.46844347336E+01  0.11194565928E+02  0.18726477965E+02  0.00000000000E+00 0. -1.
         11    1    3    3    0    0  0.24176195573E+02  0.12342752672E+02  0.10357074333E+02  0.29053415719E+02  0.51100000000E-03 0. -1.
        -11    1    3    3    0    0 -0.17977134841E+02 -0.12818816443E+02 -0.24038979118E+01  0.22209866221E+02  0.51100000000E-03 0.  1.
        -12    1    3    3    0    0  0.80634335058E+01 -0.42083709625E+01 -0.19147742349E+02  0.21198240095E+02  0.00000000000E+00 0.  1.
</event>
<event>
 7    1  0.1360399E-013  0.7246157E+02  0.7816164E-02  0.1226708E+00
        -11   -1    0    0    0    0  0.00000000000E+00  0.00000000000E+00  0.45593999997E+02  0.45594000000E+02  0.51100000000E-03 0.  1.
         11   -1    0    0    0    0 -0.00000000000E+00 -0.00000000000E+00 -0.45593999997E+02  0.45594000000E+02  0.51100000000E-03 0. -1.
    9900012    2    1    2    0    0 -0.16345640513E+02 -0.81930300130E+01  0.40464104529E+01  0.72461571026E+02  0.70000000953E+02 0.  0.
         12    1    1    2    0    0  0.16345640513E+02  0.81930300130E+01 -0.40464104529E+01  0.18726428974E+02  0.00000000000E+00 0. -1.
         11    1    3    3    0    0 -0.18587986887E+02  0.14958496340E+02 -0.30195131847E+01  0.24049684600E+02  0.51100000000E-03 0. -1.
        -11    1    3    3    0    0  0.39038179667E+01 -0.12027705819E+02  0.24554208632E+02  0.27619099619E+02  0.51100000000E-03 0.  1.
         12    1    3    3    0    0 -0.16614715926E+01 -0.11123820534E+02 -0.17488284994E+02  0.20792786806E+02  0.00000000000E+00 0. -1.
</event>
<event>
 7    1  0.1360399E-013  0.7246156E+02  0.7816164E-02  0.1226708E+00
        -11   -1    0    0    0    0  0.00000000000E+00  0.00000000000E+00  0.45593999997E+02  0.45594000000E+02  0.51100000000E-03 0.  1.
         11   -1    0    0    0    0 -0.00000000000E+00 -0.00000000000E+00 -0.45593999997E+02  0.45594000000E+02  0.51100000000E-03 0. -1.
    9900012    2    1    2    0    0  0.10635343846E+02 -0.14920765054E+02  0.38652189613E+01  0.72461556500E+02  0.69999982030E+02 0.  0.
         12    1    1    2    0    0 -0.10635343846E+02  0.14920765054E+02 -0.38652189613E+01  0.18726443500E+02  0.00000000000E+00 0. -1.
         11    1    3    3    0    0 -0.10202817496E+02 -0.12405698056E+02 -0.14078294389E+02  0.21358773426E+02  0.51100000000E-03 0. -1.
        -11    1    3    3    0    0 -0.26173716369E+01  0.23361035348E+01  0.25690665366E+02  0.25929101435E+02  0.51100000000E-03 0.  1.
         12    1    3    3    0    0  0.23455532979E+02 -0.48511705329E+01 -0.77471520164E+01  0.25173681639E+02  0.00000000000E+00 0. -1.
</event>
<event>
 7    1  0.1360399E-013  0.7246159E+02  0.7816164E-02  0.1226708E+00
        -11   -1    0    0    0    0  0.00000000000E+00  0.00000000000E+00  0.45593999997E+02  0.45594000000E+02  0.51100000000E-03 0.  1.
         11   -1    0    0    0    0 -0.00000000000E+00 -0.00000000000E+00 -0.45593999997E+02  0.45594000000E+02  0.51100000000E-03 0. -1.
    9900012    2    1    2    0    0  0.60988921423E+01 -0.17535357488E+02  0.24480913881E+01  0.72461590866E+02  0.70000026799E+02 0.  0.
         12    1    1    2    0    0 -0.60988921423E+01  0.17535357488E+02 -0.24480913881E+01  0.18726409134E+02  0.00000000000E+00 0. -1.
         11    1    3    3    0    0  0.92767507191E+01 -0.35371497100E+01 -0.14812227920E+02  0.17831758976E+02  0.51100000000E-03 0. -1.
        -11    1    3    3    0    0 -0.26511581595E+02 -0.86946079841E+01  0.90716932982E+01  0.29338639815E+02  0.51100000000E-03 0.  1.
        -12    1    3    3    0    0  0.23333723018E+02 -0.53035997940E+01  0.81886260097E+01  0.25291192075E+02  0.00000000000E+00 0.  1.
</event>
<event>
 7    1  0.1360399E-013  0.7246152E+02  0.7816164E-02  0.1226708E+00
        -11   -1    0    0    0    0  0.00000000000E+00  0.00000000000E+00  0.45593999997E+02  0.45594000000E+02  0.51100000000E-03 0.  1.
         11   -1    0    0    0    0 -0.00000000000E+00 -0.00000000000E+00 -0.45593999997E+02  0.45594000000E+02  0.51100000000E-03 0. -1.
    9900012    2    1    2    0    0 -0.61558494864E+01 -0.17636780911E+02 -0.13155203752E+01  0.72461518279E+02  0.69999932240E+02 0.  0.
         12    1    1    2    0    0  0.61558494864E+01  0.17636780911E+02  0.13155203752E+01  0.18726481721E+02  0.00000000000E+00 0. -1.
         11    1    3    3    0    0  0.39643687183E+01  0.10937295332E+02  0.74576419509E+01  0.13818721802E+02  0.51100000000E-03 0. -1.
        -11    1    3    3    0    0 -0.22064435868E+02 -0.53303222384E+01 -0.19949863073E+02  0.30220005000E+02  0.51100000000E-03 0.  1.
        -12    1    3    3    0    0  0.11944217663E+02 -0.23243754004E+02  0.11176700747E+02  0.28422791477E+02  0.00000000000E+00 0.  1.
</event>
<event>
 7    1  0.1360399E-013  0.7246158E+02  0.7816164E-02  0.1226708E+00
        -11   -1    0    0    0    0  0.00000000000E+00  0.00000000000E+00  0.45593999997E+02  0.45594000000E+02  0.51100000000E-03 0. -1.
         11   -1    0    0    0    0 -0.00000000000E+00 -0.00000000000E+00 -0.45593999997E+02  0.45594000000E+02  0.51100000000E-03 0.  1.
    9900012    2    1    2    0    0 -0.25979811339E+01 -0.17032899485E+02 -0.73355177311E+01  0.72461575055E+02  0.70000006202E+02 0.  0.
         12    1    1    2    0    0  0.25979811339E+01  0.17032899485E+02  0.73355177311E+01  0.18726424945E+02  0.00000000000E+00 0. -1.
         11    1    3    3    0    0  0.27234895552E+02 -0.10468141385E+02  0.29335194863E+01  0.29324512896E+02  0.51100000000E-03 0. -1.
        -11    1    3    3    0    0 -0.10022298818E+02 -0.95513075035E+01  0.80288144397E+01  0.16004243506E+02  0.51100000000E-03 0.  1.
         12    1    3    3    0    0 -0.19810577868E+02  0.29865494035E+01 -0.18297851657E+02  0.27132818653E+02  0.00000000000E+00 0. -1.
</event>
<event>
 7    1  0.1360399E-013  0.7246164E+02  0.7816164E-02  0.1226708E+00
        -11   -1    0    0    0    0  0.00000000000E+00  0.00000000000E+00  0.45593999997E+02  0.45594000000E+02  0.51100000000E-03 0. -1.
         11   -1    0    0    0    0 -0.00000000000E+00 -0.00000000000E+00 -0.45593999997E+02  0.45594000000E+02  0.51100000000E-03 0.  1.
    9900012    2    1    2    0    0 -0.72520146120E+01 -0.50131843026E+01 -0.16521281236E+02  0.72461642467E+02  0.70000094018E+02 0.  0.
         12    1    1    2    0    0  0.72520146120E+01  0.50131843026E+01  0.16521281236E+02  0.18726357533E+02  0.00000000000E+00 0. -1.
         11    1    3    3    0    0  0.61686772702E+01  0.25234455387E+01  0.15327167475E+02  0.16713540012E+02  0.51100000000E-03 0. -1.
        -11    1    3    3    0    0 -0.28495012478E+02 -0.45659872166E+01 -0.27298462772E+02  0.39724300439E+02  0.51100000000E-03 0.  1.
        -12    1    3    3    0    0  0.15074320595E+02 -0.29706426247E+01 -0.45499859393E+01  0.16023802017E+02  0.00000000000E+00 0.  1.
</event>
<event>
 7    1  0.1360399E-013  0.7246157E+02  0.7816164E-02  0.1226708E+00
        -11   -1    0    0    0    0  0.00000000000E+00  0.00000000000E+00  0.45593999997E+02  0.45594000000E+02  0.51100000000E-03 0.  1.
         11   -1    0    0    0    0 -0.00000000000E+00 -0.00000000000E+00 -0.45593999997E+02  0.45594000000E+02  0.51100000000E-03 0. -1.
    9900012    2    1    2    0    0 -0.62265768783E+01 -0.74459682912E-01  0.17660782068E+02  0.72461574097E+02  0.70000004953E+02 0.  0.
         12    1    1    2    0    0  0.62265768783E+01  0.74459682912E-01 -0.17660782068E+02  0.18726425903E+02  0.00000000000E+00 0. -1.
         11    1    3    3    0    0 -0.11448168017E+02 -0.13273114600E+02  0.36084940953E+02  0.40116817994E+02  0.51100000000E-03 0.  1.
        -11    1    3    3    0    0 -0.73923407829E+01  0.38068389713E+00 -0.10115419469E+02  0.12534485780E+02  0.51100000000E-03 0. -1.
         12    1    3    3    0    0  0.12613931921E+02  0.12817971020E+02 -0.83087394160E+01  0.19810270323E+02  0.00000000000E+00 0. -1.
</event>
<event>
 7    1  0.1360399E-013  0.7246153E+02  0.7816164E-02  0.1226708E+00
        -11   -1    0    0    0    0  0.00000000000E+00  0.00000000000E+00  0.45593999997E+02  0.45594000000E+02  0.51100000000E-03 0. -1.
         11   -1    0    0    0    0 -0.00000000000E+00 -0.00000000000E+00 -0.45593999997E+02  0.45594000000E+02  0.51100000000E-03 0.  1.
    9900012    2    1    2    0    0  0.63763253316E+01  0.67026264750E+01  0.16281827781E+02  0.72461530971E+02  0.69999948775E+02 0.  0.
         12    1    1    2    0    0 -0.63763253316E+01 -0.67026264750E+01 -0.16281827781E+02  0.18726469029E+02  0.00000000000E+00 0. -1.
         11    1    3    3    0    0  0.99486885999E+00  0.25542823933E+02  0.27505133369E+02  0.37549407192E+02  0.51100000000E-03 0. -1.
        -11    1    3    3    0    0  0.15465897663E+02 -0.57483183144E+01 -0.48180967949E+01  0.17188694277E+02  0.51100000000E-03 0.  1.
         12    1    3    3    0    0 -0.10084441191E+02 -0.13091879144E+02 -0.64052087937E+01  0.17723429503E+02  0.00000000000E+00 0. -1.
</event>
<event>
 7    1  0.1360399E-013  0.7246157E+02  0.7816164E-02  0.1226708E+00
        -11   -1    0    0    0    0  0.00000000000E+00  0.00000000000E+00  0.45593999997E+02  0.45594000000E+02  0.51100000000E-03 0.  1.
         11   -1    0    0    0    0 -0.00000000000E+00 -0.00000000000E+00 -0.45593999997E+02  0.45594000000E+02  0.51100000000E-03 0. -1.
    9900012    2    1    2    0    0  0.15449389267E+02 -0.10319882287E+02  0.23442968877E+01  0.72461566088E+02  0.69999994521E+02 0.  0.
         12    1    1    2    0    0 -0.15449389267E+02  0.10319882287E+02 -0.23442968877E+01  0.18726433912E+02  0.00000000000E+00 0. -1.
         11    1    3    3    0    0 -0.44005921343E+01  0.16644196695E+02  0.91471739868E+01  0.19495263193E+02  0.51100000000E-03 0. -1.
        -11    1    3    3    0    0  0.14486435667E+02 -0.15551723587E+02 -0.23731438551E+02  0.31857402607E+02  0.51100000000E-03 0.  1.
        -12    1    3    3    0    0  0.53635457343E+01 -0.11412355395E+02  0.16928561452E+02  0.21108900288E+02  0.00000000000E+00 0.  1.
</event>
<event>
 7    1  0.1360399E-013  0.7246100E+02  0.7816164E-02  0.1226710E+00
        -11   -1    0    0    0    0  0.00000000000E+00  0.00000000000E+00  0.45593999997E+02  0.45594000000E+02  0.51100000000E-03 0.  1.
         11   -1    0    0    0    0 -0.00000000000E+00 -0.00000000000E+00 -0.45593999997E+02  0.45594000000E+02  0.51100000000E-03 0. -1.
    9900012    2    1    2    0    0  0.61455784003E+01  0.10769984378E+02  0.14033523139E+02  0.72461001600E+02  0.69999259166E+02 0.  0.
         12    1    1    2    0    0 -0.61455784003E+01 -0.10769984378E+02 -0.14033523139E+02  0.18726998400E+02  0.00000000000E+00 0. -1.
         11    1    3    3    0    0  0.13999661080E+02 -0.24189046999E+02  0.10218431040E+02  0.29757634957E+02  0.51100000000E-03 0. -1.
        -11    1    3    3    0    0 -0.15410967751E+00  0.59817365569E+01  0.10406810878E+02  0.12004442300E+02  0.51100000000E-03 0.  1.
         12    1    3    3    0    0 -0.76999730026E+01  0.28977294820E+02 -0.65917187794E+01  0.30698924343E+02  0.00000000000E+00 0. -1.
</event>
<event>
 7    1  0.1360399E-013  0.7246159E+02  0.7816164E-02  0.1226708E+00
        -11   -1    0    0    0    0  0.00000000000E+00  0.00000000000E+00  0.45593999997E+02  0.45594000000E+02  0.51100000000E-03 0. -1.
         11   -1    0    0    0    0 -0.00000000000E+00 -0.00000000000E+00 -0.45593999997E+02  0.45594000000E+02  0.51100000000E-03 0.  1.
    9900012    2    1    2    0    0 -0.18013746699E+02 -0.47076567571E+01 -0.20053622128E+01  0.72461586037E+02  0.70000020508E+02 0.  0.
         12    1    1    2    0    0  0.18013746699E+02  0.47076567571E+01  0.20053622128E+01  0.18726413963E+02  0.00000000000E+00 0. -1.
         11    1    3    3    0    0 -0.19353586608E+02  0.18615061623E+02  0.19255252847E+02  0.33043102098E+02  0.51100000000E-03 0. -1.
        -11    1    3    3    0    0 -0.59157584867E+00 -0.19837130625E+02 -0.26329174811E+02  0.32971004836E+02  0.51100000000E-03 0.  1.
        -12    1    3    3    0    0  0.19314157569E+01 -0.34855877554E+01  0.50685597518E+01  0.64474791030E+01  0.00000000000E+00 0.  1.
</event>
<event>
 7    1  0.1360399E-013  0.7246156E+02  0.7816164E-02  0.1226708E+00
        -11   -1    0    0    0    0  0.00000000000E+00  0.00000000000E+00  0.45593999997E+02  0.45594000000E+02  0.51100000000E-03 0.  1.
         11   -1    0    0    0    0 -0.00000000000E+00 -0.00000000000E+00 -0.45593999997E+02  0.45594000000E+02  0.51100000000E-03 0. -1.
    9900012    2    1    2    0    0 -0.58414292536E+01 -0.55941468999E+01  0.16889720404E+02  0.72461563324E+02  0.69999990920E+02 0.  0.
         12    1    1    2    0    0  0.58414292536E+01  0.55941468999E+01 -0.16889720404E+02  0.18726436676E+02  0.00000000000E+00 0. -1.
         11    1    3    3    0    0 -0.80357576898E+01 -0.33059259215E+02  0.22184281875E+02  0.40615642111E+02  0.51100000000E-03 0. -1.
        -11    1    3    3    0    0  0.34790476495E+01  0.22780972953E+02  0.19460124110E+01  0.23127115380E+02  0.51100000000E-03 0.  1.
         12    1    3    3    0    0 -0.12847192133E+01  0.46841393622E+01 -0.72405738823E+01  0.87188058338E+01  0.00000000000E+00 0. -1.
</event>
<event>
 7    1  0.1360399E-013  0.7246155E+02  0.7816164E-02  0.1226708E+00
        -11   -1    0    0    0    0  0.00000000000E+00  0.00000000000E+00  0.45593999997E+02  0.45594000000E+02  0.51100000000E-03 0.  1.
         11   -1    0    0    0    0 -0.00000000000E+00 -0.00000000000E+00 -0.45593999997E+02  0.45594000000E+02  0.51100000000E-03 0. -1.
    9900012    2    1    2    0    0  0.16170394495E+02  0.94427074842E+01  0.18352600109E+00  0.72461546397E+02  0.69999968869E+02 0.  0.
         12    1    1    2    0    0 -0.16170394495E+02 -0.94427074842E+01 -0.18352600109E+00  0.18726453603E+02  0.00000000000E+00 0. -1.
         11    1    3    3    0    0 -0.12950260943E+02  0.94890558377E+01 -0.27747480482E+01  0.16292656818E+02  0.51100000000E-03 0. -1.
        -11    1    3    3    0    0  0.11292152285E+02 -0.22265063948E+02 -0.71052015404E+01  0.25956302992E+02  0.51100000000E-03 0.  1.
        -12    1    3    3    0    0  0.17828503153E+02  0.22218715594E+02  0.10063475590E+02  0.30212586587E+02  0.00000000000E+00 0.  1.
</event>
<event>
 7    1  0.1360399E-013  0.7246134E+02  0.7816164E-02  0.1226709E+00
        -11   -1    0    0    0    0  0.00000000000E+00  0.00000000000E+00  0.45593999997E+02  0.45594000000E+02  0.51100000000E-03 0. -1.
         11   -1    0    0    0    0 -0.00000000000E+00 -0.00000000000E+00 -0.45593999997E+02  0.45594000000E+02  0.51100000000E-03 0.  1.
    9900012    2    1    2    0    0  0.60898187981E+01  0.18249671359E+01 -0.17614517519E+02  0.72461344520E+02  0.69999705887E+02 0.  0.
         12    1    1    2    0    0 -0.60898187981E+01 -0.18249671359E+01  0.17614517519E+02  0.18726655480E+02  0.00000000000E+00 0. -1.
         11    1    3    3    0    0 -0.68355778611E+01 -0.90321428742E+01 -0.35760220462E+01  0.11878243285E+02  0.51100000000E-03 0. -1.
        -11    1    3    3    0    0  0.32786983980E+02  0.13080184600E+02 -0.18862711710E+02  0.40023486117E+02  0.51100000000E-03 0.  1.
        -12    1    3    3    0    0 -0.19861587320E+02 -0.22230745897E+01  0.48242162378E+01  0.20559615119E+02  0.00000000000E+00 0.  1.
</event>
<event>
 7    1  0.1360399E-013  0.7246158E+02  0.7816164E-02  0.1226708E+00
        -11   -1    0    0    0    0  0.00000000000E+00  0.00000000000E+00  0.45593999997E+02  0.45594000000E+02  0.51100000000E-03 0.  1.
         11   -1    0    0    0    0 -0.00000000000E+00 -0.00000000000E+00 -0.45593999997E+02  0.45594000000E+02  0.51100000000E-03 0. -1.
    9900012    2    1    2    0    0  0.88394347987E+01 -0.11741152419E+02  0.11605545729E+02  0.72461575906E+02  0.70000007310E+02 0.  0.
         12    1    1    2    0    0 -0.88394347987E+01  0.11741152419E+02 -0.11605545729E+02  0.18726424094E+02  0.00000000000E+00 0. -1.
         11    1    3    3    0    0 -0.35364618436E+01 -0.23967234396E+01 -0.35324599934E+01  0.55433852007E+01  0.51100000000E-03 0. -1.
        -11    1    3    3    0    0  0.15288018671E+02  0.64153593487E+01  0.36572245997E+02  0.40154819486E+02  0.51100000000E-03 0.  1.
        -12    1    3    3    0    0 -0.29121220291E+01 -0.15759788328E+02 -0.21434240274E+02  0.26763371219E+02  0.00000000000E+00 0.  1.
</event>
<event>
 7    1  0.1360399E-013  0.7246161E+02  0.7816164E-02  0.1226708E+00
        -11   -1    0    0    0    0  0.00000000000E+00  0.00000000000E+00  0.45593999997E+02  0.45594000000E+02  0.51100000000E-03 0. -1.
         11   -1    0    0    0    0 -0.00000000000E+00 -0.00000000000E+00 -0.45593999997E+02  0.45594000000E+02  0.51100000000E-03 0.  1.
    9900012    2    1    2    0    0 -0.58177931122E+01 -0.16812553550E+01 -0.17720163894E+02  0.72461613677E+02  0.70000056514E+02 0.  0.
         12    1    1    2    0    0  0.58177931122E+01  0.16812553550E+01  0.17720163894E+02  0.18726386323E+02  0.00000000000E+00 0. -1.
         11    1    3    3    0    0 -0.13641340061E+02 -0.11382123901E+02  0.18073319091E+02  0.25343317983E+02  0.51100000000E-03 0. -1.
        -11    1    3    3    0    0  0.11142206288E+02  0.18299855351E+02 -0.24942647962E+02  0.32881136758E+02  0.51100000000E-03 0.  1.
        -12    1    3    3    0    0 -0.33186593392E+01 -0.85989868057E+01 -0.10850835023E+02  0.14237158937E+02  0.00000000000E+00 0.  1.
</event>
<event>
 7    1  0.1360399E-013  0.7246161E+02  0.7816164E-02  0.1226708E+00
        -11   -1    0    0    0    0  0.00000000000E+00  0.00000000000E+00  0.45593999997E+02  0.45594000000E+02  0.51100000000E-03 0. -1.
         11   -1    0    0    0    0 -0.00000000000E+00 -0.00000000000E+00 -0.45593999997E+02  0.45594000000E+02  0.51100000000E-03 0.  1.
    9900012    2    1    2    0    0 -0.13770926566E+02  0.12430805355E+02 -0.25522891049E+01  0.72461614339E+02  0.70000057376E+02 0.  0.
         12    1    1    2    0    0  0.13770926566E+02 -0.12430805355E+02  0.25522891049E+01  0.18726385661E+02  0.00000000000E+00 0. -1.
         11    1    3    3    0    0 -0.19367565822E+02  0.66896008834E+01 -0.68107188633E+01  0.21592574130E+02  0.51100000000E-03 0. -1.
        -11    1    3    3    0    0  0.95176693844E+01 -0.18843566512E+02  0.12633873545E+02  0.24602454968E+02  0.51100000000E-03 0.  1.
        -12    1    3    3    0    0 -0.39210301280E+01  0.24584770984E+02 -0.83754437869E+01  0.26266585241E+02  0.00000000000E+00 0.  1.
</event>
<event>
 7    1  0.1360399E-013  0.7246157E+02  0.7816164E-02  0.1226708E+00
        -11   -1    0    0    0    0  0.00000000000E+00  0.00000000000E+00  0.45593999997E+02  0.45594000000E+02  0.51100000000E-03 0. -1.
         11   -1    0    0    0    0 -0.00000000000E+00 -0.00000000000E+00 -0.45593999997E+02  0.45594000000E+02  0.51100000000E-03 0.  1.
    9900012    2    1    2    0    0 -0.73234659002E+01  0.14828248306E+02 -0.87845934767E+01  0.72461569930E+02  0.69999999525E+02 0.  0.
         12    1    1    2    0    0  0.73234659002E+01 -0.14828248306E+02  0.87845934767E+01  0.18726430070E+02  0.00000000000E+00 0. -1.
         11    1    3    3    0    0 -0.99244079641E+01 -0.69384668991E+01 -0.19136859233E+01  0.12259624400E+02  0.51100000000E-03 0. -1.
        -11    1    3    3    0    0  0.98516392308E+01  0.28217822999E+02  0.17034453510E+02  0.34401641487E+02  0.51100000000E-03 0.  1.
        -12    1    3    3    0    0 -0.72506971669E+01 -0.64511077942E+01 -0.23905361063E+02  0.25800304044E+02  0.00000000000E+00 0.  1.
</event>
<event>
 7    1  0.1360399E-013  0.7246162E+02  0.7816164E-02  0.1226708E+00
        -11   -1    0    0    0    0  0.00000000000E+00  0.00000000000E+00  0.45593999997E+02  0.45594000000E+02  0.51100000000E-03 0.  1.
         11   -1    0    0    0    0 -0.00000000000E+00 -0.00000000000E+00 -0.45593999997E+02  0.45594000000E+02  0.51100000000E-03 0. -1.
    9900012    2    1    2    0    0  0.86283080577E+00 -0.32740668721E+01  0.18417747791E+02  0.72461616885E+02  0.70000060693E+02 0.  0.
         12    1    1    2    0    0 -0.86283080577E+00  0.32740668721E+01 -0.18417747791E+02  0.18726383115E+02  0.00000000000E+00 0. -1.
         11    1    3    3    0    0  0.25595488110E+02  0.48449397365E+00  0.13832557334E+02  0.29098168133E+02  0.51100000000E-03 0. -1.
        -11    1    3    3    0    0 -0.47210468375E+01  0.17634461842E+01 -0.14384741337E+02  0.15242008046E+02  0.51100000000E-03 0.  1.
         12    1    3    3    0    0 -0.20011610467E+02 -0.55220070300E+01  0.18969931793E+02  0.28121440706E+02  0.00000000000E+00 0. -1.
</event>
<event>
 7    1  0.1360399E-013  0.7246157E+02  0.7816164E-02  0.1226708E+00
        -11   -1    0    0    0    0  0.00000000000E+00  0.00000000000E+00  0.45593999997E+02  0.45594000000E+02  0.51100000000E-03 0.  1.
         11   -1    0    0    0    0 -0.00000000000E+00 -0.00000000000E+00 -0.45593999997E+02  0.45594000000E+02  0.51100000000E-03 0. -1.
    9900012    2    1    2    0    0  0.13291649023E+02  0.38490357173E+01  0.12617294186E+02  0.72461571556E+02  0.70000001643E+02 0.  0.
         12    1    1    2    0    0 -0.13291649023E+02 -0.38490357173E+01 -0.12617294186E+02  0.18726428444E+02  0.00000000000E+00 0. -1.
         11    1    3    3    0    0  0.28430762314E+02 -0.19258659871E+02  0.61823754369E+01  0.34891632121E+02  0.51100000000E-03 0. -1.
        -11    1    3    3    0    0 -0.98563580536E-01  0.19902056547E+02 -0.20474544062E+01  0.20007339638E+02  0.51100000000E-03 0.  1.
        -12    1    3    3    0    0 -0.15040549711E+02  0.32056390414E+01  0.84823731553E+01  0.17562599796E+02  0.00000000000E+00 0.  1.
</event>
<event>
 7    1  0.1360399E-013  0.7246157E+02  0.7816164E-02  0.1226708E+00
        -11   -1    0    0    0    0  0.00000000000E+00  0.00000000000E+00  0.45593999997E+02  0.45594000000E+02  0.51100000000E-03 0.  1.
         11   -1    0    0    0    0 -0.00000000000E+00 -0.00000000000E+00 -0.45593999997E+02  0.45594000000E+02  0.51100000000E-03 0. -1.
    9900012    2    1    2    0    0 -0.26576375718E+01 -0.17439553070E+02  0.62831495798E+01  0.72461574356E+02  0.70000005291E+02 0.  0.
         12    1    1    2    0    0  0.26576375718E+01  0.17439553070E+02 -0.62831495798E+01  0.18726425644E+02  0.00000000000E+00 0. -1.
         11    1    3    3    0    0  0.16560240260E+02  0.13016557877E+00  0.19105745354E+02  0.25284145356E+02  0.51100000000E-03 0.  1.
        -11    1    3    3    0    0 -0.26588787936E+02 -0.26643256928E+00 -0.77987392231E+01  0.27710196029E+02  0.51100000000E-03 0. -1.
         12    1    3    3    0    0  0.73709101037E+01 -0.17303286080E+02 -0.50238565513E+01  0.19467232972E+02  0.00000000000E+00 0. -1.
</event>
<event>
 7    1  0.1360399E-013  0.7246154E+02  0.7816164E-02  0.1226708E+00
        -11   -1    0    0    0    0  0.00000000000E+00  0.00000000000E+00  0.45593999997E+02  0.45594000000E+02  0.51100000000E-03 0.  1.
         11   -1    0    0    0    0 -0.00000000000E+00 -0.00000000000E+00 -0.45593999997E+02  0.45594000000E+02  0.51100000000E-03 0. -1.
    9900012    2    1    2    0    0 -0.11010722878E+02  0.15127278215E+02  0.78078299742E+00  0.72461543139E+02  0.69999964625E+02 0.  0.
         12    1    1    2    0    0  0.11010722878E+02 -0.15127278215E+02 -0.78078299742E+00  0.18726456861E+02  0.00000000000E+00 0. -1.
         11    1    3    3    0    0  0.60252836601E+01  0.21681636675E+02  0.54423499246E+01  0.23152031985E+02  0.51100000000E-03 0. -1.
        -11    1    3    3    0    0 -0.28528401624E+02 -0.32617761318E+01  0.99874186642E+01  0.30401602172E+02  0.51100000000E-03 0.  1.
         12    1    3    3    0    0  0.11492395086E+02 -0.32925823283E+01 -0.14648985591E+02  0.18907908982E+02  0.00000000000E+00 0. -1.
</event>
<event>
 7    1  0.1360399E-013  0.7246156E+02  0.7816164E-02  0.1226708E+00
        -11   -1    0    0    0    0  0.00000000000E+00  0.00000000000E+00  0.45593999997E+02  0.45594000000E+02  0.51100000000E-03 0. -1.
         11   -1    0    0    0    0 -0.00000000000E+00 -0.00000000000E+00 -0.45593999997E+02  0.45594000000E+02  0.51100000000E-03 0.  1.
    9900012    2    1    2    0    0  0.82681509700E+00 -0.23914697970E+01 -0.18554696280E+02  0.72461561336E+02  0.69999988330E+02 0.  0.
         12    1    1    2    0    0 -0.82681509700E+00  0.23914697970E+01  0.18554696280E+02  0.18726438664E+02  0.00000000000E+00 0. -1.
         11    1    3    3    0    0  0.11272330872E+02  0.49997518377E+01 -0.34807485199E+02  0.36927279725E+02  0.51100000000E-03 0. -1.
        -11    1    3    3    0    0 -0.15555164625E+02 -0.14194732090E+02  0.53924773955E+01  0.21737809879E+02  0.51100000000E-03 0.  1.
         12    1    3    3    0    0  0.51096488499E+01  0.68035104551E+01  0.10860311524E+02  0.13796471733E+02  0.00000000000E+00 0. -1.
</event>
<event>
 7    1  0.1360399E-013  0.7246155E+02  0.7816164E-02  0.1226708E+00
        -11   -1    0    0    0    0  0.00000000000E+00  0.00000000000E+00  0.45593999997E+02  0.45594000000E+02  0.51100000000E-03 0.  1.
         11   -1    0    0    0    0 -0.00000000000E+00 -0.00000000000E+00 -0.45593999997E+02  0.45594000000E+02  0.51100000000E-03 0. -1.
    9900012    2    1    2    0    0  0.51433226883E+01 -0.14888037816E+02  0.10127799637E+02  0.72461554428E+02  0.69999979331E+02 0.  0.
         12    1    1    2    0    0 -0.51433226883E+01  0.14888037816E+02 -0.10127799637E+02  0.18726445572E+02  0.00000000000E+00 0. -1.
         11    1    3    3    0    0  0.10325601784E+02 -0.19626920608E+02 -0.10549307245E+02  0.24558541251E+02  0.51100000000E-03 0. -1.
        -11    1    3    3    0    0 -0.23763648788E+02  0.28675060933E+01  0.76344148179E+01  0.25124049928E+02  0.51100000000E-03 0.  1.
        -12    1    3    3    0    0  0.18581369693E+02  0.18713766991E+01  0.13042692064E+02  0.22778963249E+02  0.00000000000E+00 0.  1.
</event>
<event>
 7    1  0.1360399E-013  0.7246166E+02  0.7816164E-02  0.1226708E+00
        -11   -1    0    0    0    0  0.00000000000E+00  0.00000000000E+00  0.45593999997E+02  0.45594000000E+02  0.51100000000E-03 0.  1.
         11   -1    0    0    0    0 -0.00000000000E+00 -0.00000000000E+00 -0.45593999997E+02  0.45594000000E+02  0.51100000000E-03 0. -1.
    9900012    2    1    2    0    0  0.16470125955E+02  0.72866062239E+01  0.51299099403E+01  0.72461664127E+02  0.70000122234E+02 0.  0.
         12    1    1    2    0    0 -0.16470125955E+02 -0.72866062239E+01 -0.51299099403E+01  0.18726335873E+02  0.00000000000E+00 0. -1.
         11    1    3    3    0    0 -0.54947514839E+01 -0.42107727173E+01 -0.14348861863E+02  0.15931501429E+02  0.51100000000E-03 0. -1.
        -11    1    3    3    0    0 -0.11606681937E+02  0.58135326211E+01  0.18330477882E+02  0.22461492532E+02  0.51100000000E-03 0.  1.
         12    1    3    3    0    0  0.33571559376E+02  0.56838463201E+01  0.11482939212E+01  0.34068670166E+02  0.00000000000E+00 0. -1.
</event>
<event>
 7    1  0.1360399E-013  0.7246162E+02  0.7816164E-02  0.1226708E+00
        -11   -1    0    0    0    0  0.00000000000E+00  0.00000000000E+00  0.45593999997E+02  0.45594000000E+02  0.51100000000E-03 0. -1.
         11   -1    0    0    0    0 -0.00000000000E+00 -0.00000000000E+00 -0.45593999997E+02  0.45594000000E+02  0.51100000000E-03 0.  1.
    9900012    2    1    2    0    0 -0.18198638728E+02  0.24642437916E+00 -0.44075238149E+01  0.72461616401E+02  0.70000060063E+02 0.  0.
         12    1    1    2    0    0  0.18198638728E+02 -0.24642437916E+00  0.44075238149E+01  0.18726383599E+02  0.00000000000E+00 0. -1.
         11    1    3    3    0    0 -0.29256306664E+02  0.19823975400E+02  0.11025150429E+00  0.35340255176E+02  0.51100000000E-03 0. -1.
        -11    1    3    3    0    0  0.63946510640E+01 -0.14424567611E+02 -0.16775943987E+02  0.23030241204E+02  0.51100000000E-03 0.  1.
        -12    1    3    3    0    0  0.46630168721E+01 -0.51529834096E+01  0.12258168668E+02  0.14091120021E+02  0.00000000000E+00 0.  1.
</event>
<event>
 7    1  0.1360399E-013  0.7246156E+02  0.7816164E-02  0.1226708E+00
        -11   -1    0    0    0    0  0.00000000000E+00  0.00000000000E+00  0.45593999997E+02  0.45594000000E+02  0.51100000000E-03 0. -1.
         11   -1    0    0    0    0 -0.00000000000E+00 -0.00000000000E+00 -0.45593999997E+02  0.45594000000E+02  0.51100000000E-03 0.  1.
    9900012    2    1    2    0    0  0.14788090245E+02 -0.11427448487E+02  0.11854058525E+01  0.72461564699E+02  0.69999992711E+02 0.  0.
         12    1    1    2    0    0 -0.14788090245E+02  0.11427448487E+02 -0.11854058525E+01  0.18726435301E+02  0.00000000000E+00 0. -1.
         11    1    3    3    0    0 -0.65580211124E+01  0.25260333566E+01  0.22431445043E+02  0.23506556796E+02  0.51100000000E-03 0.  1.
        -11    1    3    3    0    0  0.25639062807E+02 -0.21188415707E+02 -0.96577024122E+01  0.34634978244E+02  0.51100000000E-03 0. -1.
        -12    1    3    3    0    0 -0.42929514496E+01  0.72349338631E+01 -0.11588336778E+02  0.14320029659E+02  0.00000000000E+00 0.  1.
</event>
<event>
 7    1  0.1360399E-013  0.7246154E+02  0.7816164E-02  0.1226708E+00
        -11   -1    0    0    0    0  0.00000000000E+00  0.00000000000E+00  0.45593999997E+02  0.45594000000E+02  0.51100000000E-03 0.  1.
         11   -1    0    0    0    0 -0.00000000000E+00 -0.00000000000E+00 -0.45593999997E+02  0.45594000000E+02  0.51100000000E-03 0. -1.
    9900012    2    1    2    0    0  0.40786803220E+01 -0.13458446709E+02  0.12365873280E+02  0.72461541633E+02  0.69999962663E+02 0.  0.
         12    1    1    2    0    0 -0.40786803220E+01  0.13458446709E+02 -0.12365873280E+02  0.18726458367E+02  0.00000000000E+00 0. -1.
         11    1    3    3    0    0 -0.10439305983E+01  0.19854905630E+02  0.35976917485E+01  0.20205208607E+02  0.51100000000E-03 0. -1.
        -11    1    3    3    0    0 -0.10360370848E+02 -0.34276294559E+02  0.81907993474E+01  0.36732694524E+02  0.51100000000E-03 0.  1.
        -12    1    3    3    0    0  0.15482981768E+02  0.96294221918E+00  0.57738218415E+00  0.15523638502E+02  0.00000000000E+00 0.  1.
</event>
<event>
 7    1  0.1360399E-013  0.7246156E+02  0.7816164E-02  0.1226708E+00
        -11   -1    0    0    0    0  0.00000000000E+00  0.00000000000E+00  0.45593999997E+02  0.45594000000E+02  0.51100000000E-03 0.  1.
         11   -1    0    0    0    0 -0.00000000000E+00 -0.00000000000E+00 -0.45593999997E+02  0.45594000000E+02  0.51100000000E-03 0. -1.
    9900012    2    1    2    0    0  0.95424619829E+01  0.84310720677E+01  0.13730908801E+02  0.72461563782E+02  0.69999991517E+02 0.  0.
         12    1    1    2    0    0 -0.95424619829E+01 -0.84310720677E+01 -0.13730908801E+02  0.18726436218E+02  0.00000000000E+00 0. -1.
         11    1    3    3    0    0  0.24435551876E+02 -0.18374872375E+02 -0.59559925015E+01  0.31148129594E+02  0.51100000000E-03 0.  1.
        -11    1    3    3    0    0 -0.16843249601E+02  0.21648518434E+02  0.82926928196E+01  0.28655229226E+02  0.51100000000E-03 0. -1.
        -12    1    3    3    0    0  0.19501597074E+01  0.51574260084E+01  0.11394208483E+02  0.12658204962E+02  0.00000000000E+00 0.  1.
</event>
<event>
 7    1  0.1360399E-013  0.7246159E+02  0.7816164E-02  0.1226708E+00
        -11   -1    0    0    0    0  0.00000000000E+00  0.00000000000E+00  0.45593999997E+02  0.45594000000E+02  0.51100000000E-03 0. -1.
         11   -1    0    0    0    0 -0.00000000000E+00 -0.00000000000E+00 -0.45593999997E+02  0.45594000000E+02  0.51100000000E-03 0.  1.
    9900012    2    1    2    0    0  0.14462380194E+02 -0.11590224416E+02 -0.26804121583E+01  0.72461592116E+02  0.70000028427E+02 0.  0.
         12    1    1    2    0    0 -0.14462380194E+02  0.11590224416E+02  0.26804121583E+01  0.18726407884E+02  0.00000000000E+00 0. -1.
         11    1    3    3    0    0 -0.30253933875E+01 -0.10942552656E+02  0.15157348297E+02  0.18937731422E+02  0.51100000000E-03 0. -1.
        -11    1    3    3    0    0  0.61174759902E+00  0.22104067384E+02 -0.86415268193E+01  0.23741103935E+02  0.51100000000E-03 0.  1.
        -12    1    3    3    0    0  0.16876025983E+02 -0.22751739144E+02 -0.91962336361E+01  0.29782756759E+02  0.00000000000E+00 0.  1.
</event>
<event>
 7    1  0.1360399E-013  0.7246155E+02  0.7816164E-02  0.1226708E+00
        -11   -1    0    0    0    0  0.00000000000E+00  0.00000000000E+00  0.45593999997E+02  0.45594000000E+02  0.51100000000E-03 0. -1.
         11   -1    0    0    0    0 -0.00000000000E+00 -0.00000000000E+00 -0.45593999997E+02  0.45594000000E+02  0.51100000000E-03 0.  1.
    9900012    2    1    2    0    0  0.90161376573E+01  0.82661506885E+01 -0.14179556458E+02  0.72461553279E+02  0.69999977834E+02 0.  0.
         12    1    1    2    0    0 -0.90161376573E+01 -0.82661506885E+01  0.14179556458E+02  0.18726446721E+02  0.00000000000E+00 0. -1.
         11    1    3    3    0    0  0.34014934353E+01 -0.10572400721E+01  0.15485157755E+01  0.38840462830E+01  0.51100000000E-03 0. -1.
        -11    1    3    3    0    0 -0.10677142785E+02  0.31894725660E+02  0.48202407651E+01  0.33978075641E+02  0.51100000000E-03 0.  1.
        -12    1    3    3    0    0  0.16291787007E+02 -0.22571334899E+02 -0.20548312998E+02  0.34599431355E+02  0.00000000000E+00 0.  1.
</event>
<event>
 8    1  0.1360399E-013  0.7246148E+02  0.7816164E-02  0.1226708E+00
        -11   -1    0    0    0    0  0.00000000000E+00  0.00000000000E+00  0.45593999997E+02  0.45594000000E+02  0.51100000000E-03 0.  1.
         11   -1    0    0    0    0 -0.00000000000E+00 -0.00000000000E+00 -0.45593999997E+02  0.45594000000E+02  0.51100000000E-03 0. -1.
    9900012    2    1    2    0    0 -0.84669755580E+01 -0.20033151374E+01  0.16582510624E+02  0.72461478560E+02  0.69999880499E+02 0.  0.
        -24    2    3    3    0    0 -0.13653476650E+02  0.77113927567E+01  0.25306237630E+01  0.54608443309E+02  0.52247440330E+02 0.  0.
         12    1    1    2    0    0  0.84669755580E+01  0.20033151374E+01 -0.16582510624E+02  0.18726521440E+02  0.00000000000E+00 0. -1.
         11    1    4    4    0    0  0.14271119790E+02  0.13608724375E+02 -0.11476415578E+02  0.22816010912E+02  0.51100000000E-03 0. -1.
        -11    1    3    3    0    0  0.51865010923E+01 -0.97147078942E+01  0.14051886861E+02  0.17853035251E+02  0.51100000000E-03 0.  1.
        -12    1    4    4    0    0 -0.27924596441E+02 -0.58973316180E+01  0.14007039341E+02  0.31792432396E+02  0.00000000000E+00 0.  1.
</event>
<event>
 7    1  0.1360399E-013  0.7246153E+02  0.7816164E-02  0.1226708E+00
        -11   -1    0    0    0    0  0.00000000000E+00  0.00000000000E+00  0.45593999997E+02  0.45594000000E+02  0.51100000000E-03 0. -1.
         11   -1    0    0    0    0 -0.00000000000E+00 -0.00000000000E+00 -0.45593999997E+02  0.45594000000E+02  0.51100000000E-03 0.  1.
    9900012    2    1    2    0    0  0.14216357297E+02 -0.11699646196E+02  0.34196479523E+01  0.72461534022E+02  0.69999952749E+02 0.  0.
         12    1    1    2    0    0 -0.14216357297E+02  0.11699646196E+02 -0.34196479523E+01  0.18726465978E+02  0.00000000000E+00 0. -1.
         11    1    3    3    0    0  0.70809238301E+01  0.15851148300E+02  0.25496702010E+02  0.30846072657E+02  0.51100000000E-03 0. -1.
        -11    1    3    3    0    0 -0.63523449695E+01 -0.86553167478E+01 -0.12564265854E+02  0.16526571675E+02  0.51100000000E-03 0.  1.
         12    1    3    3    0    0  0.13487778436E+02 -0.18895477748E+02 -0.95127882036E+01  0.25088889690E+02  0.00000000000E+00 0. -1.
</event>
<event>
 7    1  0.1360399E-013  0.7246160E+02  0.7816164E-02  0.1226708E+00
        -11   -1    0    0    0    0  0.00000000000E+00  0.00000000000E+00  0.45593999997E+02  0.45594000000E+02  0.51100000000E-03 0.  1.
         11   -1    0    0    0    0 -0.00000000000E+00 -0.00000000000E+00 -0.45593999997E+02  0.45594000000E+02  0.51100000000E-03 0. -1.
    9900012    2    1    2    0    0 -0.18646402211E+02  0.17054040183E+01 -0.28524428925E+00  0.72461599315E+02  0.70000037805E+02 0.  0.
         12    1    1    2    0    0  0.18646402211E+02 -0.17054040183E+01  0.28524428925E+00  0.18726400685E+02  0.00000000000E+00 0. -1.
         11    1    3    3    0    0 -0.19169577436E+02 -0.16290104017E+02 -0.17212434203E+02  0.30481274242E+02  0.51100000000E-03 0. -1.
        -11    1    3    3    0    0 -0.10474930118E+02  0.15317899202E+02  0.22662573761E+02  0.29290859439E+02  0.51100000000E-03 0.  1.
        -12    1    3    3    0    0  0.10998105343E+02  0.26776088339E+01 -0.57353838473E+01  0.12689465634E+02  0.00000000000E+00 0.  1.
</event>
<event>
 7    1  0.1360399E-013  0.7246163E+02  0.7816164E-02  0.1226708E+00
        -11   -1    0    0    0    0  0.00000000000E+00  0.00000000000E+00  0.45593999997E+02  0.45594000000E+02  0.51100000000E-03 0. -1.
         11   -1    0    0    0    0 -0.00000000000E+00 -0.00000000000E+00 -0.45593999997E+02  0.45594000000E+02  0.51100000000E-03 0.  1.
    9900012    2    1    2    0    0 -0.59450627271E+01 -0.85345296315E+01 -0.15572252825E+02  0.72461627556E+02  0.70000074594E+02 0.  0.
         12    1    1    2    0    0  0.59450627271E+01  0.85345296315E+01  0.15572252825E+02  0.18726372444E+02  0.00000000000E+00 0. -1.
         11    1    3    3    0    0 -0.11132912510E+02 -0.22845899940E+02  0.18552294723E+02  0.31465290794E+02  0.51100000000E-03 0. -1.
        -11    1    3    3    0    0  0.56198937098E+01  0.87310132526E+01 -0.33834346242E+02  0.35391761521E+02  0.51100000000E-03 0.  1.
         12    1    3    3    0    0 -0.43204392676E+00  0.55803570560E+01 -0.29020130620E+00  0.56045752403E+01  0.00000000000E+00 0. -1.
</event>
<event>
 7    1  0.1360399E-013  0.7246156E+02  0.7816164E-02  0.1226708E+00
        -11   -1    0    0    0    0  0.00000000000E+00  0.00000000000E+00  0.45593999997E+02  0.45594000000E+02  0.51100000000E-03 0. -1.
         11   -1    0    0    0    0 -0.00000000000E+00 -0.00000000000E+00 -0.45593999997E+02  0.45594000000E+02  0.51100000000E-03 0.  1.
    9900012    2    1    2    0    0  0.11803069251E+02 -0.68273840741E+01 -0.12835649216E+02  0.72461561261E+02  0.69999988232E+02 0.  0.
         12    1    1    2    0    0 -0.11803069251E+02  0.68273840741E+01  0.12835649216E+02  0.18726438739E+02  0.00000000000E+00 0. -1.
         11    1    3    3    0    0  0.26281338087E+02 -0.19559584537E+01  0.80530282664E+01  0.27556955013E+02  0.51100000000E-03 0. -1.
        -11    1    3    3    0    0  0.27702448668E+00 -0.14807461357E+02 -0.22614262447E+02  0.27032249642E+02  0.51100000000E-03 0.  1.
         12    1    3    3    0    0 -0.14755293322E+02  0.99360357364E+01  0.17255849646E+01  0.17872356606E+02  0.00000000000E+00 0. -1.
</event>
<event>
 7    1  0.1360399E-013  0.7246159E+02  0.7816164E-02  0.1226708E+00
        -11   -1    0    0    0    0  0.00000000000E+00  0.00000000000E+00  0.45593999997E+02  0.45594000000E+02  0.51100000000E-03 0.  1.
         11   -1    0    0    0    0 -0.00000000000E+00 -0.00000000000E+00 -0.45593999997E+02  0.45594000000E+02  0.51100000000E-03 0. -1.
    9900012    2    1    2    0    0 -0.13705417242E+02  0.11694734441E+02  0.51061716710E+01  0.72461594457E+02  0.70000031477E+02 0.  0.
         12    1    1    2    0    0  0.13705417242E+02 -0.11694734441E+02 -0.51061716710E+01  0.18726405543E+02  0.00000000000E+00 0. -1.
         11    1    3    3    0    0  0.83337012704E+01 -0.22407232223E+02 -0.66025782452E+01  0.24801787688E+02  0.51100000000E-03 0. -1.
        -11    1    3    3    0    0 -0.98957195202E+01  0.44276396819E+01 -0.44938111639E+01  0.11735569735E+02  0.51100000000E-03 0.  1.
         12    1    3    3    0    0 -0.12143398992E+02  0.29674326982E+02  0.16202561080E+02  0.35924237034E+02  0.00000000000E+00 0. -1.
</event>
<event>
 7    1  0.1360399E-013  0.7246155E+02  0.7816164E-02  0.1226708E+00
        -11   -1    0    0    0    0  0.00000000000E+00  0.00000000000E+00  0.45593999997E+02  0.45594000000E+02  0.51100000000E-03 0. -1.
         11   -1    0    0    0    0 -0.00000000000E+00 -0.00000000000E+00 -0.45593999997E+02  0.45594000000E+02  0.51100000000E-03 0.  1.
    9900012    2    1    2    0    0  0.11470425224E+02 -0.98080040162E+00  0.14769807492E+02  0.72461552457E+02  0.69999976763E+02 0.  0.
         12    1    1    2    0    0 -0.11470425224E+02  0.98080040162E+00 -0.14769807492E+02  0.18726447543E+02  0.00000000000E+00 0. -1.
         11    1    3    3    0    0  0.21901689916E+02  0.10926832004E+01  0.18872926390E+02  0.28932081303E+02  0.51100000000E-03 0. -1.
        -11    1    3    3    0    0 -0.14842693930E+02  0.16649676987E+02 -0.83739810504E+01  0.23825214915E+02  0.51100000000E-03 0.  1.
        -12    1    3    3    0    0  0.44114292377E+01 -0.18723160589E+02  0.42708621523E+01  0.19704256238E+02  0.00000000000E+00 0.  1.
</event>
<event>
 7    1  0.1360399E-013  0.7246160E+02  0.7816164E-02  0.1226708E+00
        -11   -1    0    0    0    0  0.00000000000E+00  0.00000000000E+00  0.45593999997E+02  0.45594000000E+02  0.51100000000E-03 0.  1.
         11   -1    0    0    0    0 -0.00000000000E+00 -0.00000000000E+00 -0.45593999997E+02  0.45594000000E+02  0.51100000000E-03 0. -1.
    9900012    2    1    2    0    0  0.62614954262E+01  0.17069872348E+02  0.44822989482E+01  0.72461604970E+02  0.70000045171E+02 0.  0.
         12    1    1    2    0    0 -0.62614954262E+01 -0.17069872348E+02 -0.44822989482E+01  0.18726395030E+02  0.00000000000E+00 0. -1.
         11    1    3    3    0    0 -0.19515525485E+02  0.10583653023E+02  0.85778442899E+01  0.23800186117E+02  0.51100000000E-03 0. -1.
        -11    1    3    3    0    0  0.90807020507E+01 -0.16534091020E+02  0.35929498197E+01  0.19202723876E+02  0.51100000000E-03 0.  1.
         12    1    3    3    0    0  0.16696318861E+02  0.23020310346E+02 -0.76884951613E+01  0.29458694977E+02  0.00000000000E+00 0. -1.
</event>
<event>
 7    1  0.1360399E-013  0.7246151E+02  0.7816164E-02  0.1226708E+00
        -11   -1    0    0    0    0  0.00000000000E+00  0.00000000000E+00  0.45593999997E+02  0.45594000000E+02  0.51100000000E-03 0. -1.
         11   -1    0    0    0    0 -0.00000000000E+00 -0.00000000000E+00 -0.45593999997E+02  0.45594000000E+02  0.51100000000E-03 0.  1.
    9900012    2    1    2    0    0  0.17396804074E+01  0.50297543404E+00 -0.18638726621E+02  0.72461505340E+02  0.69999915384E+02 0.  0.
         12    1    1    2    0    0 -0.17396804074E+01 -0.50297543404E+00  0.18638726621E+02  0.18726494660E+02  0.00000000000E+00 0. -1.
         11    1    3    3    0    0 -0.32221712203E+01  0.61954368920E+01  0.13944831730E+01  0.71211241554E+01  0.51100000000E-03 0. -1.
        -11    1    3    3    0    0  0.28149725442E+01 -0.32801903850E+02 -0.25719199188E+01  0.33022776064E+02  0.51100000000E-03 0.  1.
        -12    1    3    3    0    0  0.21468790835E+01  0.27109442392E+02 -0.17461289875E+02  0.32317605121E+02  0.00000000000E+00 0.  1.
</event>
<event>
 7    1  0.1360399E-013  0.7246154E+02  0.7816164E-02  0.1226708E+00
        -11   -1    0    0    0    0  0.00000000000E+00  0.00000000000E+00  0.45593999997E+02  0.45594000000E+02  0.51100000000E-03 0.  1.
         11   -1    0    0    0    0 -0.00000000000E+00 -0.00000000000E+00 -0.45593999997E+02  0.45594000000E+02  0.51100000000E-03 0. -1.
    9900012    2    1    2    0    0 -0.58315385066E+00 -0.82862967110E+01  0.16783245826E+02  0.72461544861E+02  0.69999966869E+02 0.  0.
         12    1    1    2    0    0  0.58315385066E+00  0.82862967110E+01 -0.16783245826E+02  0.18726455139E+02  0.00000000000E+00 0. -1.
         11    1    3    3    0    0 -0.73098417292E+00  0.52721072357E+01 -0.49014138276E+01  0.72355587439E+01  0.51100000000E-03 0. -1.
        -11    1    3    3    0    0  0.15070057096E+02 -0.32325626028E+02  0.20681434230E+02  0.41228320861E+02  0.51100000000E-03 0.  1.
        -12    1    3    3    0    0 -0.14922226773E+02  0.18767222081E+02  0.10032254236E+01  0.23997665256E+02  0.00000000000E+00 0.  1.
</event>
<event>
 7    1  0.1360399E-013  0.7246151E+02  0.7816164E-02  0.1226708E+00
        -11   -1    0    0    0    0  0.00000000000E+00  0.00000000000E+00  0.45593999997E+02  0.45594000000E+02  0.51100000000E-03 0.  1.
         11   -1    0    0    0    0 -0.00000000000E+00 -0.00000000000E+00 -0.45593999997E+02  0.45594000000E+02  0.51100000000E-03 0. -1.
    9900012    2    1    2    0    0  0.91974010697E+01  0.28737172362E+01  0.16057120582E+02  0.72461506506E+02  0.69999916904E+02 0.  0.
         12    1    1    2    0    0 -0.91974010697E+01 -0.28737172362E+01 -0.16057120582E+02  0.18726493494E+02  0.00000000000E+00 0. -1.
         11    1    3    3    0    0 -0.22209743894E+02  0.14883605982E+02 -0.94563647862E+01  0.28358725044E+02  0.51100000000E-03 0. -1.
        -11    1    3    3    0    0  0.22212545285E+02 -0.90405511648E+01  0.10344174820E+02  0.26117631714E+02  0.51100000000E-03 0.  1.
         12    1    3    3    0    0  0.91945996791E+01 -0.29693375806E+01  0.15169310549E+02  0.17985149748E+02  0.00000000000E+00 0. -1.
</event>
<event>
 7    1  0.1360399E-013  0.7246159E+02  0.7816164E-02  0.1226708E+00
        -11   -1    0    0    0    0  0.00000000000E+00  0.00000000000E+00  0.45593999997E+02  0.45594000000E+02  0.51100000000E-03 0.  1.
         11   -1    0    0    0    0 -0.00000000000E+00 -0.00000000000E+00 -0.45593999997E+02  0.45594000000E+02  0.51100000000E-03 0. -1.
    9900012    2    1    2    0    0  0.86026422773E+01  0.32722061657E+01  0.16308447499E+02  0.72461594921E+02  0.70000032081E+02 0.  0.
         12    1    1    2    0    0 -0.86026422773E+01 -0.32722061657E+01 -0.16308447499E+02  0.18726405079E+02  0.00000000000E+00 0. -1.
         11    1    3    3    0    0 -0.22167546811E+02 -0.65780446554E+01  0.63084342540E+01  0.23968044270E+02  0.51100000000E-03 0. -1.
        -11    1    3    3    0    0  0.19643599047E+02  0.99043832782E+01 -0.11098912380E+02  0.24640487980E+02  0.51100000000E-03 0.  1.
        -12    1    3    3    0    0  0.11126590042E+02 -0.54132457106E-01  0.21098925625E+02  0.23853062671E+02  0.00000000000E+00 0.  1.
</event>
<event>
 7    1  0.1360399E-013  0.7246156E+02  0.7816164E-02  0.1226708E+00
        -11   -1    0    0    0    0  0.00000000000E+00  0.00000000000E+00  0.45593999997E+02  0.45594000000E+02  0.51100000000E-03 0. -1.
         11   -1    0    0    0    0 -0.00000000000E+00 -0.00000000000E+00 -0.45593999997E+02  0.45594000000E+02  0.51100000000E-03 0.  1.
    9900012    2    1    2    0    0  0.15785777374E+02 -0.28107877328E+00 -0.10070240300E+02  0.72461561143E+02  0.69999988078E+02 0.  0.
         12    1    1    2    0    0 -0.15785777374E+02  0.28107877328E+00  0.10070240300E+02  0.18726438857E+02  0.00000000000E+00 0. -1.
         11    1    3    3    0    0  0.83713262537E+01  0.31866982752E+02 -0.63589708512E+01  0.33556224512E+02  0.51100000000E-03 0.  1.
        -11    1    3    3    0    0  0.89251039860E-01 -0.30512211429E+02 -0.59202625399E+01  0.31081385440E+02  0.51100000000E-03 0. -1.
         12    1    3    3    0    0  0.73252000805E+01 -0.16358500961E+01  0.22089930910E+01  0.78239511905E+01  0.00000000000E+00 0. -1.
</event>
<event>
 7    1  0.1360399E-013  0.7246155E+02  0.7816164E-02  0.1226708E+00
        -11   -1    0    0    0    0  0.00000000000E+00  0.00000000000E+00  0.45593999997E+02  0.45594000000E+02  0.51100000000E-03 0. -1.
         11   -1    0    0    0    0 -0.00000000000E+00 -0.00000000000E+00 -0.45593999997E+02  0.45594000000E+02  0.51100000000E-03 0.  1.
    9900012    2    1    2    0    0 -0.59370325364E+01  0.15800679107E+01 -0.17689968734E+02  0.72461549089E+02  0.69999972376E+02 0.  0.
         12    1    1    2    0    0  0.59370325364E+01 -0.15800679107E+01  0.17689968734E+02  0.18726450911E+02  0.00000000000E+00 0. -1.
         11    1    3    3    0    0 -0.20033303806E+02  0.23388054052E+02 -0.12448970404E+01  0.30820189854E+02  0.51100000000E-03 0.  1.
        -11    1    3    3    0    0  0.21710421259E+02 -0.13905685844E+02 -0.16604959646E+02  0.30666515536E+02  0.51100000000E-03 0. -1.
         12    1    3    3    0    0 -0.76141499886E+01 -0.79023002980E+01  0.15988795272E+00  0.10974843699E+02  0.00000000000E+00 0. -1.
</event>
<event>
 7    1  0.1360399E-013  0.7246166E+02  0.7816164E-02  0.1226708E+00
        -11   -1    0    0    0    0  0.00000000000E+00  0.00000000000E+00  0.45593999997E+02  0.45594000000E+02  0.51100000000E-03 0. -1.
         11   -1    0    0    0    0 -0.00000000000E+00 -0.00000000000E+00 -0.45593999997E+02  0.45594000000E+02  0.51100000000E-03 0.  1.
    9900012    2    1    2    0    0  0.28288113526E+01 -0.92396775504E+01 -0.16040632859E+02  0.72461662467E+02  0.70000120071E+02 0.  0.
         12    1    1    2    0    0 -0.28288113526E+01  0.92396775504E+01  0.16040632859E+02  0.18726337533E+02  0.00000000000E+00 0. -1.
         11    1    3    3    0    0 -0.13184496940E+00 -0.14092951317E+02  0.24139037720E+02  0.27952134126E+02  0.51100000000E-03 0. -1.
        -11    1    3    3    0    0 -0.27530066263E+01 -0.85316702661E+00 -0.34539650129E+02  0.34659693748E+02  0.51100000000E-03 0.  1.
        -12    1    3    3    0    0  0.57136629482E+01  0.57064407928E+01 -0.56400204503E+01  0.98498345919E+01  0.00000000000E+00 0.  1.
</event>
<event>
 7    1  0.1360399E-013  0.7246152E+02  0.7816164E-02  0.1226708E+00
        -11   -1    0    0    0    0  0.00000000000E+00  0.00000000000E+00  0.45593999997E+02  0.45594000000E+02  0.51100000000E-03 0.  1.
         11   -1    0    0    0    0 -0.00000000000E+00 -0.00000000000E+00 -0.45593999997E+02  0.45594000000E+02  0.51100000000E-03 0. -1.
    9900012    2    1    2    0    0 -0.68132545541E+01  0.36646004277E+01  0.17053773722E+02  0.72461523234E+02  0.69999938695E+02 0.  0.
         12    1    1    2    0    0  0.68132545541E+01 -0.36646004277E+01 -0.17053773722E+02  0.18726476766E+02  0.00000000000E+00 0. -1.
         11    1    3    3    0    0  0.22579316820E+02 -0.17696058442E+02  0.43238667269E+01  0.29011581414E+02  0.51100000000E-03 0. -1.
        -11    1    3    3    0    0 -0.24995038410E+02  0.62887566464E+01  0.66919728110E+01  0.26628610659E+02  0.51100000000E-03 0.  1.
        -12    1    3    3    0    0 -0.43975329640E+01  0.15071902223E+02  0.60379341842E+01  0.16821331160E+02  0.00000000000E+00 0.  1.
</event>
<event>
 7    1  0.1360399E-013  0.7246165E+02  0.7816164E-02  0.1226708E+00
        -11   -1    0    0    0    0  0.00000000000E+00  0.00000000000E+00  0.45593999997E+02  0.45594000000E+02  0.51100000000E-03 0.  1.
         11   -1    0    0    0    0 -0.00000000000E+00 -0.00000000000E+00 -0.45593999997E+02  0.45594000000E+02  0.51100000000E-03 0. -1.
    9900012    2    1    2    0    0  0.38508331161E+01 -0.18216809906E+02 -0.19987388721E+01  0.72461653962E+02  0.70000108993E+02 0.  0.
         12    1    1    2    0    0 -0.38508331161E+01  0.18216809906E+02  0.19987388721E+01  0.18726346038E+02  0.00000000000E+00 0. -1.
         11    1    3    3    0    0 -0.10959079852E+01 -0.31090328836E+02  0.22314206310E+02  0.38284897348E+02  0.51100000000E-03 0.  1.
        -11    1    3    3    0    0  0.89825002757E+00  0.17691581100E+02 -0.18406267353E+02  0.25545832793E+02  0.51100000000E-03 0. -1.
         12    1    3    3    0    0  0.40484910738E+01 -0.48180621696E+01 -0.59066778284E+01  0.86309238216E+01  0.00000000000E+00 0. -1.
</event>
<event>
 7    1  0.1360399E-013  0.7246164E+02  0.7816164E-02  0.1226708E+00
        -11   -1    0    0    0    0  0.00000000000E+00  0.00000000000E+00  0.45593999997E+02  0.45594000000E+02  0.51100000000E-03 0. -1.
         11   -1    0    0    0    0 -0.00000000000E+00 -0.00000000000E+00 -0.45593999997E+02  0.45594000000E+02  0.51100000000E-03 0.  1.
    9900012    2    1    2    0    0 -0.96957272433E+01  0.38309159913E+01 -0.15556138419E+02  0.72461641928E+02  0.70000093316E+02 0.  0.
         12    1    1    2    0    0  0.96957272433E+01 -0.38309159913E+01  0.15556138419E+02  0.18726358072E+02  0.00000000000E+00 0. -1.
         11    1    3    3    0    0  0.68209068501E+00 -0.13385177706E+02 -0.19266697490E+02  0.23469850071E+02  0.51100000000E-03 0. -1.
        -11    1    3    3    0    0 -0.20273815140E+02  0.23307550058E+02 -0.85968950174E+01  0.32065184768E+02  0.51100000000E-03 0.  1.
         12    1    3    3    0    0  0.98959972116E+01 -0.60914563602E+01  0.12307454088E+02  0.16926607089E+02  0.00000000000E+00 0. -1.
</event>
<event>
 7    1  0.1360399E-013  0.7246165E+02  0.7816164E-02  0.1226708E+00
        -11   -1    0    0    0    0  0.00000000000E+00  0.00000000000E+00  0.45593999997E+02  0.45594000000E+02  0.51100000000E-03 0. -1.
         11   -1    0    0    0    0 -0.00000000000E+00 -0.00000000000E+00 -0.45593999997E+02  0.45594000000E+02  0.51100000000E-03 0.  1.
    9900012    2    1    2    0    0 -0.39401870838E+01 -0.30079073521E+01 -0.18058335941E+02  0.72461652843E+02  0.70000107535E+02 0.  0.
         12    1    1    2    0    0  0.39401870838E+01  0.30079073521E+01  0.18058335941E+02  0.18726347157E+02  0.00000000000E+00 0. -1.
         11    1    3    3    0    0 -0.26687331504E+02  0.31511420719E+01 -0.18873384045E+01  0.26938919906E+02  0.51100000000E-03 0. -1.
        -11    1    3    3    0    0  0.19477768831E+02  0.37295538671E+01 -0.24970817373E+02  0.31887846764E+02  0.51100000000E-03 0.  1.
         12    1    3    3    0    0  0.32693755900E+01 -0.98886032912E+01  0.87998198372E+01  0.13634886174E+02  0.00000000000E+00 0. -1.
</event>
<event>
 7    1  0.1360399E-013  0.7246170E+02  0.7816164E-02  0.1226708E+00
        -11   -1    0    0    0    0  0.00000000000E+00  0.00000000000E+00  0.45593999997E+02  0.45594000000E+02  0.51100000000E-03 0.  1.
         11   -1    0    0    0    0 -0.00000000000E+00 -0.00000000000E+00 -0.45593999997E+02  0.45594000000E+02  0.51100000000E-03 0. -1.
    9900012    2    1    2    0    0  0.69881880248E+01 -0.96096946321E+01  0.14473882557E+02  0.72461700871E+02  0.70000170101E+02 0.  0.
         12    1    1    2    0    0 -0.69881880248E+01  0.96096946321E+01 -0.14473882557E+02  0.18726299129E+02  0.00000000000E+00 0. -1.
         11    1    3    3    0    0  0.18513639542E+02 -0.31834661367E+02 -0.64103124463E+01  0.37380377464E+02  0.51100000000E-03 0. -1.
        -11    1    3    3    0    0 -0.30898603344E+01  0.13455241094E+02  0.41981669855E+01  0.14429669299E+02  0.51100000000E-03 0.  1.
         12    1    3    3    0    0 -0.84355911828E+01  0.87697256412E+01  0.16686028017E+02  0.20651654109E+02  0.00000000000E+00 0. -1.
</event>
<event>
 7    1  0.1360399E-013  0.7246160E+02  0.7816164E-02  0.1226708E+00
        -11   -1    0    0    0    0  0.00000000000E+00  0.00000000000E+00  0.45593999997E+02  0.45594000000E+02  0.51100000000E-03 0. -1.
         11   -1    0    0    0    0 -0.00000000000E+00 -0.00000000000E+00 -0.45593999997E+02  0.45594000000E+02  0.51100000000E-03 0.  1.
    9900012    2    1    2    0    0 -0.14766015552E+01  0.62728898694E+01 -0.17582624211E+02  0.72461596886E+02  0.70000034640E+02 0.  0.
         12    1    1    2    0    0  0.14766015552E+01 -0.62728898694E+01  0.17582624211E+02  0.18726403114E+02  0.00000000000E+00 0. -1.
         11    1    3    3    0    0 -0.17058680262E+02  0.54510950547E+01  0.73014380571E+01  0.19339700296E+02  0.51100000000E-03 0. -1.
        -11    1    3    3    0    0  0.14701409745E+01 -0.88717121615E+01 -0.32979755723E+02  0.34183810188E+02  0.51100000000E-03 0.  1.
         12    1    3    3    0    0  0.14111937732E+02  0.96935069762E+01  0.80956934551E+01  0.18938086402E+02  0.00000000000E+00 0. -1.
</event>
<event>
 7    1  0.1360399E-013  0.7246153E+02  0.7816164E-02  0.1226708E+00
        -11   -1    0    0    0    0  0.00000000000E+00  0.00000000000E+00  0.45593999997E+02  0.45594000000E+02  0.51100000000E-03 0. -1.
         11   -1    0    0    0    0 -0.00000000000E+00 -0.00000000000E+00 -0.45593999997E+02  0.45594000000E+02  0.51100000000E-03 0.  1.
    9900012    2    1    2    0    0 -0.73393153181E+01  0.14692915399E+02 -0.89962937161E+01  0.72461531756E+02  0.69999949797E+02 0.  0.
         12    1    1    2    0    0  0.73393153181E+01 -0.14692915399E+02  0.89962937161E+01  0.18726468244E+02  0.00000000000E+00 0. -1.
         11    1    3    3    0    0 -0.17322165091E+02  0.72916794222E+00  0.75242495924E+01  0.18899825966E+02  0.51100000000E-03 0. -1.
        -11    1    3    3    0    0 -0.45388484642E+00 -0.85234318567E+01 -0.25734993429E+02  0.27113553605E+02  0.51100000000E-03 0.  1.
        -12    1    3    3    0    0  0.10436734620E+02  0.22487179313E+02  0.92144501204E+01  0.26448152185E+02  0.00000000000E+00 0.  1.
</event>
<event>
 7    1  0.1360399E-013  0.7246156E+02  0.7816164E-02  0.1226708E+00
        -11   -1    0    0    0    0  0.00000000000E+00  0.00000000000E+00  0.45593999997E+02  0.45594000000E+02  0.51100000000E-03 0. -1.
         11   -1    0    0    0    0 -0.00000000000E+00 -0.00000000000E+00 -0.45593999997E+02  0.45594000000E+02  0.51100000000E-03 0.  1.
    9900012    2    1    2    0    0 -0.11670606485E+02 -0.11625811628E+02 -0.89060000494E+01  0.72461564444E+02  0.69999992379E+02 0.  0.
         12    1    1    2    0    0  0.11670606485E+02  0.11625811628E+02  0.89060000494E+01  0.18726435556E+02  0.00000000000E+00 0. -1.
         11    1    3    3    0    0 -0.19073318099E+01  0.63633216059E+01  0.44273307787E+01  0.79831719622E+01  0.51100000000E-03 0. -1.
        -11    1    3    3    0    0 -0.57291149680E+01 -0.39002223730E+02 -0.16711168277E+02  0.42816578094E+02  0.51100000000E-03 0.  1.
        -12    1    3    3    0    0 -0.40341597076E+01  0.21013090497E+02  0.33778374491E+01  0.21661814388E+02  0.00000000000E+00 0.  1.
</event>
<event>
 7    1  0.1360399E-013  0.7246158E+02  0.7816164E-02  0.1226708E+00
        -11   -1    0    0    0    0  0.00000000000E+00  0.00000000000E+00  0.45593999997E+02  0.45594000000E+02  0.51100000000E-03 0.  1.
         11   -1    0    0    0    0 -0.00000000000E+00 -0.00000000000E+00 -0.45593999997E+02  0.45594000000E+02  0.51100000000E-03 0. -1.
    9900012    2    1    2    0    0 -0.97306622727E+01  0.10136260782E+02  0.12379385700E+02  0.72461581196E+02  0.70000014201E+02 0.  0.
         12    1    1    2    0    0  0.97306622727E+01 -0.10136260782E+02 -0.12379385700E+02  0.18726418804E+02  0.00000000000E+00 0. -1.
         11    1    3    3    0    0  0.50542919354E+01 -0.16906097901E+02 -0.16404800598E+02  0.24093142098E+02  0.51100000000E-03 0. -1.
        -11    1    3    3    0    0 -0.74663938966E+01  0.39293016448E+01  0.21433766591E+02  0.23034600056E+02  0.51100000000E-03 0.  1.
         12    1    3    3    0    0 -0.73185603115E+01  0.23113057039E+02  0.73504197080E+01  0.25333839042E+02  0.00000000000E+00 0. -1.
</event>
<event>
 7    1  0.1360399E-013  0.7246161E+02  0.7816164E-02  0.1226708E+00
        -11   -1    0    0    0    0  0.00000000000E+00  0.00000000000E+00  0.45593999997E+02  0.45594000000E+02  0.51100000000E-03 0. -1.
         11   -1    0    0    0    0 -0.00000000000E+00 -0.00000000000E+00 -0.45593999997E+02  0.45594000000E+02  0.51100000000E-03 0.  1.
    9900012    2    1    2    0    0 -0.72620797771E+01  0.63205345364E+01 -0.16062089744E+02  0.72461609893E+02  0.70000051584E+02 0.  0.
         12    1    1    2    0    0  0.72620797771E+01 -0.63205345364E+01  0.16062089744E+02  0.18726390107E+02  0.00000000000E+00 0. -1.
         11    1    3    3    0    0 -0.38059883805E+01  0.20887475659E+02  0.14956481616E+02  0.25970531946E+02  0.51100000000E-03 0. -1.
        -11    1    3    3    0    0  0.84612654054E+01 -0.25221031681E+01 -0.27898332324E+02  0.29262107979E+02  0.51100000000E-03 0.  1.
         12    1    3    3    0    0 -0.11917356802E+02 -0.12044837955E+02 -0.31202390358E+01  0.17228969968E+02  0.00000000000E+00 0. -1.
</event>
<event>
 7    1  0.1360399E-013  0.7246157E+02  0.7816164E-02  0.1226708E+00
        -11   -1    0    0    0    0  0.00000000000E+00  0.00000000000E+00  0.45593999997E+02  0.45594000000E+02  0.51100000000E-03 0.  1.
         11   -1    0    0    0    0 -0.00000000000E+00 -0.00000000000E+00 -0.45593999997E+02  0.45594000000E+02  0.51100000000E-03 0. -1.
    9900012    2    1    2    0    0  0.47537937488E+01  0.37265474496E+01  0.17725498408E+02  0.72461574695E+02  0.70000005732E+02 0.  0.
         12    1    1    2    0    0 -0.47537937488E+01 -0.37265474496E+01 -0.17725498408E+02  0.18726425305E+02  0.00000000000E+00 0. -1.
         11    1    3    3    0    0  0.62312142036E+01 -0.13790908767E+02  0.48428007505E+01  0.15889301886E+02  0.51100000000E-03 0. -1.
        -11    1    3    3    0    0 -0.13564019725E+02  0.18925441855E+02  0.28481981987E+02  0.36788289967E+02  0.51100000000E-03 0.  1.
        -12    1    3    3    0    0  0.12086599270E+02 -0.14079856388E+01 -0.15599284330E+02  0.19783982842E+02  0.00000000000E+00 0.  1.
</event>
<event>
 7    1  0.1360399E-013  0.7246151E+02  0.7816164E-02  0.1226708E+00
        -11   -1    0    0    0    0  0.00000000000E+00  0.00000000000E+00  0.45593999997E+02  0.45594000000E+02  0.51100000000E-03 0.  1.
         11   -1    0    0    0    0 -0.00000000000E+00 -0.00000000000E+00 -0.45593999997E+02  0.45594000000E+02  0.51100000000E-03 0. -1.
    9900012    2    1    2    0    0  0.14300305161E+02 -0.20449079602E+01  0.11916413739E+02  0.72461513606E+02  0.69999926153E+02 0.  0.
         12    1    1    2    0    0 -0.14300305161E+02  0.20449079602E+01 -0.11916413739E+02  0.18726486394E+02  0.00000000000E+00 0. -1.
         11    1    3    3    0    0 -0.16708060259E+02 -0.10329502808E+02  0.16970684944E+02  0.25958853087E+02  0.51100000000E-03 0. -1.
        -11    1    3    3    0    0  0.18168126149E+02  0.53731189755E+01  0.13847684066E+02  0.23467201996E+02  0.51100000000E-03 0.  1.
         12    1    3    3    0    0  0.12840239271E+02  0.29114758720E+01 -0.18901955271E+02  0.23035458523E+02  0.00000000000E+00 0. -1.
</event>
<event>
 7    1  0.1360399E-013  0.7246160E+02  0.7816164E-02  0.1226708E+00
        -11   -1    0    0    0    0  0.00000000000E+00  0.00000000000E+00  0.45593999997E+02  0.45594000000E+02  0.51100000000E-03 0.  1.
         11   -1    0    0    0    0 -0.00000000000E+00 -0.00000000000E+00 -0.45593999997E+02  0.45594000000E+02  0.51100000000E-03 0. -1.
    9900012    2    1    2    0    0  0.56115795842E+01 -0.17540395732E+02  0.33945263777E+01  0.72461598392E+02  0.70000036602E+02 0.  0.
         12    1    1    2    0    0 -0.56115795842E+01  0.17540395732E+02 -0.33945263777E+01  0.18726401608E+02  0.00000000000E+00 0. -1.
         11    1    3    3    0    0 -0.54745582250E+01  0.25822621328E+01 -0.10551194925E+02  0.12164151433E+02  0.51100000000E-03 0. -1.
        -11    1    3    3    0    0  0.11583596611E+02 -0.45912017834E+01  0.33254534825E+02  0.35512292674E+02  0.51100000000E-03 0.  1.
        -12    1    3    3    0    0 -0.49745880174E+00 -0.15531456081E+02 -0.19308813523E+02  0.24785154285E+02  0.00000000000E+00 0.  1.
</event>
<event>
 7    1  0.1360399E-013  0.7246159E+02  0.7816164E-02  0.1226708E+00
        -11   -1    0    0    0    0  0.00000000000E+00  0.00000000000E+00  0.45593999997E+02  0.45594000000E+02  0.51100000000E-03 0.  1.
         11   -1    0    0    0    0 -0.00000000000E+00 -0.00000000000E+00 -0.45593999997E+02  0.45594000000E+02  0.51100000000E-03 0. -1.
    9900012    2    1    2    0    0  0.17928005336E+02 -0.39981652945E+01 -0.36441280761E+01  0.72461591629E+02  0.70000027792E+02 0.  0.
         12    1    1    2    0    0 -0.17928005336E+02  0.39981652945E+01  0.36441280761E+01  0.18726408371E+02  0.00000000000E+00 0. -1.
         11    1    3    3    0    0 -0.20890780146E+01 -0.22376049679E+02 -0.38267145671E+01  0.22796832912E+02  0.51100000000E-03 0. -1.
        -11    1    3    3    0    0  0.23697317697E+01 -0.28572267927E+01  0.16956495939E+02  0.17358056585E+02  0.51100000000E-03 0.  1.
         12    1    3    3    0    0  0.17647351581E+02  0.21235111177E+02 -0.16773909448E+02  0.32306702132E+02  0.00000000000E+00 0. -1.
</event>
<event>
 7    1  0.1360399E-013  0.7246159E+02  0.7816164E-02  0.1226708E+00
        -11   -1    0    0    0    0  0.00000000000E+00  0.00000000000E+00  0.45593999997E+02  0.45594000000E+02  0.51100000000E-03 0. -1.
         11   -1    0    0    0    0 -0.00000000000E+00 -0.00000000000E+00 -0.45593999997E+02  0.45594000000E+02  0.51100000000E-03 0.  1.
    9900012    2    1    2    0    0  0.10452410954E+02  0.93623105386E+01 -0.12400513777E+02  0.72461588296E+02  0.70000023451E+02 0.  0.
         12    1    1    2    0    0 -0.10452410954E+02 -0.93623105386E+01  0.12400513777E+02  0.18726411704E+02  0.00000000000E+00 0. -1.
         11    1    3    3    0    0  0.19398880049E+00  0.21988895955E+02 -0.16797651312E+01  0.22053815728E+02  0.51100000000E-03 0. -1.
        -11    1    3    3    0    0  0.26861080480E+02 -0.16145936211E+02 -0.11588333086E+02  0.33414044422E+02  0.51100000000E-03 0.  1.
         12    1    3    3    0    0 -0.16602658327E+02  0.35193507940E+01  0.86758443984E+00  0.16993728146E+02  0.00000000000E+00 0. -1.
</event>
<event>
 7    1  0.1360399E-013  0.7246160E+02  0.7816164E-02  0.1226708E+00
        -11   -1    0    0    0    0  0.00000000000E+00  0.00000000000E+00  0.45593999997E+02  0.45594000000E+02  0.51100000000E-03 0.  1.
         11   -1    0    0    0    0 -0.00000000000E+00 -0.00000000000E+00 -0.45593999997E+02  0.45594000000E+02  0.51100000000E-03 0. -1.
    9900012    2    1    2    0    0 -0.16915635692E+01 -0.18379418640E+02  0.31644402587E+01  0.72461598877E+02  0.70000037234E+02 0.  0.
         12    1    1    2    0    0  0.16915635692E+01  0.18379418640E+02 -0.31644402587E+01  0.18726401123E+02  0.00000000000E+00 0. -1.
         11    1    3    3    0    0 -0.19239633644E+02  0.14056077384E+02  0.67575010886E+01  0.24766926240E+02  0.51100000000E-03 0.  1.
        -11    1    3    3    0    0  0.25853203182E+02 -0.26841564471E+02 -0.70849662651E+00  0.37274115224E+02  0.51100000000E-03 0. -1.
         12    1    3    3    0    0 -0.83051331073E+01 -0.55939315536E+01 -0.28845642033E+01  0.10420557413E+02  0.00000000000E+00 0. -1.
</event>
<event>
 7    1  0.1360399E-013  0.7246167E+02  0.7816164E-02  0.1226708E+00
        -11   -1    0    0    0    0  0.00000000000E+00  0.00000000000E+00  0.45593999997E+02  0.45594000000E+02  0.51100000000E-03 0. -1.
         11   -1    0    0    0    0 -0.00000000000E+00 -0.00000000000E+00 -0.45593999997E+02  0.45594000000E+02  0.51100000000E-03 0.  1.
    9900012    2    1    2    0    0 -0.79948943766E+01 -0.11868739446E+01  0.16892260075E+02  0.72461669438E+02  0.70000129153E+02 0.  0.
         12    1    1    2    0    0  0.79948943766E+01  0.11868739446E+01 -0.16892260075E+02  0.18726330562E+02  0.00000000000E+00 0. -1.
         11    1    3    3    0    0 -0.29996196401E+01 -0.20069546978E+02  0.98765707688E+01  0.22568364679E+02  0.51100000000E-03 0. -1.
        -11    1    3    3    0    0 -0.15382847556E+01  0.25155796540E+02  0.21891515065E+02  0.33382912570E+02  0.51100000000E-03 0.  1.
        -12    1    3    3    0    0 -0.34569899809E+01 -0.62731235068E+01 -0.14875825758E+02  0.16510392189E+02  0.00000000000E+00 0.  1.
</event>
<event>
 7    1  0.1360399E-013  0.7246156E+02  0.7816164E-02  0.1226708E+00
        -11   -1    0    0    0    0  0.00000000000E+00  0.00000000000E+00  0.45593999997E+02  0.45594000000E+02  0.51100000000E-03 0. -1.
         11   -1    0    0    0    0 -0.00000000000E+00 -0.00000000000E+00 -0.45593999997E+02  0.45594000000E+02  0.51100000000E-03 0.  1.
    9900012    2    1    2    0    0  0.67006539426E+01  0.11391891957E+02 -0.13266710960E+02  0.72461559192E+02  0.69999985537E+02 0.  0.
         12    1    1    2    0    0 -0.67006539426E+01 -0.11391891957E+02  0.13266710960E+02  0.18726440808E+02  0.00000000000E+00 0. -1.
         11    1    3    3    0    0 -0.85277601214E+01 -0.13801379640E+02  0.11394987883E+02  0.19825400924E+02  0.51100000000E-03 0. -1.
        -11    1    3    3    0    0  0.56295735986E+01  0.20308122884E+02 -0.32903784408E+02  0.39073916909E+02  0.51100000000E-03 0.  1.
         12    1    3    3    0    0  0.95988404654E+01  0.48851487143E+01  0.82420855648E+01  0.13562241360E+02  0.00000000000E+00 0. -1.
</event>
<event>
 7    1  0.1360399E-013  0.7246159E+02  0.7816164E-02  0.1226708E+00
        -11   -1    0    0    0    0  0.00000000000E+00  0.00000000000E+00  0.45593999997E+02  0.45594000000E+02  0.51100000000E-03 0.  1.
         11   -1    0    0    0    0 -0.00000000000E+00 -0.00000000000E+00 -0.45593999997E+02  0.45594000000E+02  0.51100000000E-03 0. -1.
    9900012    2    1    2    0    0 -0.13275831558E+02 -0.60711764339E+01  0.11729094521E+02  0.72461586965E+02  0.70000021717E+02 0.  0.
         12    1    1    2    0    0  0.13275831558E+02  0.60711764339E+01 -0.11729094521E+02  0.18726413035E+02  0.00000000000E+00 0. -1.
         11    1    3    3    0    0 -0.36260868466E+02 -0.18730368352E+02  0.43731489648E+01  0.41046336165E+02  0.51100000000E-03 0. -1.
        -11    1    3    3    0    0  0.98581808268E+01  0.39283431454E+01  0.10946812694E+02  0.15246255852E+02  0.51100000000E-03 0.  1.
         12    1    3    3    0    0  0.13126856080E+02  0.87308487723E+01 -0.35908671371E+01  0.16168994948E+02  0.00000000000E+00 0. -1.
</event>
<event>
 7    1  0.1360399E-013  0.7246156E+02  0.7816164E-02  0.1226708E+00
        -11   -1    0    0    0    0  0.00000000000E+00  0.00000000000E+00  0.45593999997E+02  0.45594000000E+02  0.51100000000E-03 0. -1.
         11   -1    0    0    0    0 -0.00000000000E+00 -0.00000000000E+00 -0.45593999997E+02  0.45594000000E+02  0.51100000000E-03 0.  1.
    9900012    2    1    2    0    0 -0.37438530034E+01 -0.18295759397E+02 -0.13886205987E+01  0.72461561086E+02  0.69999988005E+02 0.  0.
         12    1    1    2    0    0  0.37438530034E+01  0.18295759397E+02  0.13886205987E+01  0.18726438914E+02  0.00000000000E+00 0. -1.
         11    1    3    3    0    0  0.18998010697E+02  0.11603376977E+02  0.17205298952E+02  0.28135121823E+02  0.51100000000E-03 0. -1.
        -11    1    3    3    0    0 -0.19836773873E+02 -0.19954787993E+02 -0.74412320558E+01  0.29104348408E+02  0.51100000000E-03 0.  1.
         12    1    3    3    0    0 -0.29050898280E+01 -0.99443483816E+01 -0.11152687494E+02  0.15222090855E+02  0.00000000000E+00 0. -1.
</event>
<event>
 8    1  0.1360399E-013  0.7246163E+02  0.7816164E-02  0.1226708E+00
        -11   -1    0    0    0    0  0.00000000000E+00  0.00000000000E+00  0.45593999997E+02  0.45594000000E+02  0.51100000000E-03 0.  1.
         11   -1    0    0    0    0 -0.00000000000E+00 -0.00000000000E+00 -0.45593999997E+02  0.45594000000E+02  0.51100000000E-03 0. -1.
    9900012    2    1    2    0    0 -0.72850932708E+00  0.65808907518E+01  0.17516791739E+02  0.72461632446E+02  0.70000080964E+02 0.  0.
        -24    2    3    3    0    0  0.39198922383E+01  0.15123125057E+02  0.27152096048E+02  0.58771618078E+02  0.49727178736E+02 0.  0.
         12    1    1    2    0    0  0.72850932708E+00 -0.65808907518E+01 -0.17516791739E+02  0.18726367554E+02  0.00000000000E+00 0. -1.
         11    1    4    4    0    0  0.26822765676E+02  0.71697773850E+01  0.16433582430E+02  0.32263432831E+02  0.51100000000E-03 0. -1.
        -11    1    3    3    0    0 -0.46484015653E+01 -0.85422343048E+01 -0.96353043087E+01  0.13690014369E+02  0.51100000000E-03 0.  1.
        -12    1    4    4    0    0 -0.22902873438E+02  0.79533476716E+01  0.10718513618E+02  0.26508185247E+02  0.00000000000E+00 0.  1.
</event>
<event>
 7    1  0.1360399E-013  0.7246160E+02  0.7816164E-02  0.1226708E+00
        -11   -1    0    0    0    0  0.00000000000E+00  0.00000000000E+00  0.45593999997E+02  0.45594000000E+02  0.51100000000E-03 0. -1.
         11   -1    0    0    0    0 -0.00000000000E+00 -0.00000000000E+00 -0.45593999997E+02  0.45594000000E+02  0.51100000000E-03 0.  1.
    9900012    2    1    2    0    0 -0.12316468256E+02 -0.12204194558E+02 -0.70739072314E+01  0.72461603693E+02  0.70000043509E+02 0.  0.
         12    1    1    2    0    0  0.12316468256E+02  0.12204194558E+02  0.70739072314E+01  0.18726396307E+02  0.00000000000E+00 0. -1.
         11    1    3    3    0    0 -0.23454689508E+02 -0.11883527923E+02  0.11419072774E+02  0.28665936564E+02  0.51100000000E-03 0. -1.
        -11    1    3    3    0    0  0.17506688798E+01 -0.18146667020E+02 -0.14412644407E+02  0.23239851216E+02  0.51100000000E-03 0.  1.
        -12    1    3    3    0    0  0.93875523725E+01  0.17826000385E+02 -0.40803355983E+01  0.20555815914E+02  0.00000000000E+00 0.  1.
</event>
<event>
 7    1  0.1360399E-013  0.7246162E+02  0.7816164E-02  0.1226708E+00
        -11   -1    0    0    0    0  0.00000000000E+00  0.00000000000E+00  0.45593999997E+02  0.45594000000E+02  0.51100000000E-03 0.  1.
         11   -1    0    0    0    0 -0.00000000000E+00 -0.00000000000E+00 -0.45593999997E+02  0.45594000000E+02  0.51100000000E-03 0. -1.
    9900012    2    1    2    0    0 -0.62290184493E+01  0.17155619080E+02 -0.41906337172E+01  0.72461618934E+02  0.70000063363E+02 0.  0.
         12    1    1    2    0    0  0.62290184493E+01 -0.17155619080E+02  0.41906337172E+01  0.18726381066E+02  0.00000000000E+00 0. -1.
         11    1    3    3    0    0 -0.17148781965E+02  0.29719886753E+02 -0.10521296181E+02  0.35889414387E+02  0.51100000000E-03 0. -1.
        -11    1    3    3    0    0 -0.83108880204E+01 -0.74984824058E+01  0.11475538756E+02  0.16030785635E+02  0.51100000000E-03 0.  1.
         12    1    3    3    0    0  0.19230651536E+02 -0.50657852669E+01 -0.51448762920E+01  0.20541418912E+02  0.00000000000E+00 0. -1.
</event>
<event>
 7    1  0.1360399E-013  0.7246156E+02  0.7816164E-02  0.1226708E+00
        -11   -1    0    0    0    0  0.00000000000E+00  0.00000000000E+00  0.45593999997E+02  0.45594000000E+02  0.51100000000E-03 0.  1.
         11   -1    0    0    0    0 -0.00000000000E+00 -0.00000000000E+00 -0.45593999997E+02  0.45594000000E+02  0.51100000000E-03 0. -1.
    9900012    2    1    2    0    0  0.16710880318E+02  0.78453890197E+01  0.31426165869E+01  0.72461556428E+02  0.69999981936E+02 0.  0.
         12    1    1    2    0    0 -0.16710880318E+02 -0.78453890197E+01 -0.31426165869E+01  0.18726443572E+02  0.00000000000E+00 0. -1.
         11    1    3    3    0    0  0.27302753627E+02 -0.23411349433E+02 -0.63113070841E+01  0.36515260307E+02  0.51100000000E-03 0. -1.
        -11    1    3    3    0    0 -0.48011260898E+00  0.39653391943E+01  0.51622893974E+01  0.65271475491E+01  0.51100000000E-03 0.  1.
         12    1    3    3    0    0 -0.10111760701E+02  0.27291399258E+02  0.42916342735E+01  0.29419148572E+02  0.00000000000E+00 0. -1.
</event>
<event>
 7    1  0.1360399E-013  0.7246164E+02  0.7816164E-02  0.1226708E+00
        -11   -1    0    0    0    0  0.00000000000E+00  0.00000000000E+00  0.45593999997E+02  0.45594000000E+02  0.51100000000E-03 0.  1.
         11   -1    0    0    0    0 -0.00000000000E+00 -0.00000000000E+00 -0.45593999997E+02  0.45594000000E+02  0.51100000000E-03 0. -1.
    9900012    2    1    2    0    0  0.17191641708E+01  0.18318260515E+02  0.34874706055E+01  0.72461637701E+02  0.70000087809E+02 0.  0.
         12    1    1    2    0    0 -0.17191641708E+01 -0.18318260515E+02 -0.34874706055E+01  0.18726362299E+02  0.00000000000E+00 0. -1.
         11    1    3    3    0    0 -0.16772356431E+02 -0.35264805555E+01  0.20938368895E+02  0.27058516176E+02  0.51100000000E-03 0. -1.
        -11    1    3    3    0    0  0.21952916487E+01  0.24481330403E+02 -0.59670565315E+01  0.25293489432E+02  0.51100000000E-03 0.  1.
         12    1    3    3    0    0  0.16296228953E+02 -0.26365893326E+01 -0.11483841758E+02  0.20109632094E+02  0.00000000000E+00 0. -1.
</event>
<event>
 7    1  0.1360399E-013  0.7246154E+02  0.7816164E-02  0.1226708E+00
        -11   -1    0    0    0    0  0.00000000000E+00  0.00000000000E+00  0.45593999997E+02  0.45594000000E+02  0.51100000000E-03 0.  1.
         11   -1    0    0    0    0 -0.00000000000E+00 -0.00000000000E+00 -0.45593999997E+02  0.45594000000E+02  0.51100000000E-03 0. -1.
    9900012    2    1    2    0    0  0.14305394692E+02 -0.90777994232E+01 -0.79768033397E+01  0.72461544084E+02  0.69999965856E+02 0.  0.
         12    1    1    2    0    0 -0.14305394692E+02  0.90777994232E+01  0.79768033397E+01  0.18726455916E+02  0.00000000000E+00 0. -1.
         11    1    3    3    0    0 -0.12566382156E+02 -0.10787080702E+02 -0.21152450986E+02  0.26864498014E+02  0.51100000000E-03 0. -1.
        -11    1    3    3    0    0  0.27659694299E+02 -0.83151084819E+01  0.18419974182E+02  0.34256315723E+02  0.51100000000E-03 0.  1.
         12    1    3    3    0    0 -0.78791745087E+00  0.10024389761E+02 -0.52443265350E+01  0.11340730347E+02  0.00000000000E+00 0. -1.
</event>
<event>
 7    1  0.1360399E-013  0.7246167E+02  0.7816164E-02  0.1226708E+00
        -11   -1    0    0    0    0  0.00000000000E+00  0.00000000000E+00  0.45593999997E+02  0.45594000000E+02  0.51100000000E-03 0. -1.
         11   -1    0    0    0    0 -0.00000000000E+00 -0.00000000000E+00 -0.45593999997E+02  0.45594000000E+02  0.51100000000E-03 0.  1.
    9900012    2    1    2    0    0 -0.84439870968E+01  0.30187040663E+01 -0.16439648929E+02  0.72461666957E+02  0.70000125921E+02 0.  0.
         12    1    1    2    0    0  0.84439870968E+01 -0.30187040663E+01  0.16439648929E+02  0.18726333043E+02  0.00000000000E+00 0. -1.
         11    1    3    3    0    0 -0.12857898003E+02  0.46009356434E+01 -0.51450431711E+01  0.14593341610E+02  0.51100000000E-03 0. -1.
        -11    1    3    3    0    0  0.28982614833E+02 -0.53217208454E+01 -0.14445963248E+02  0.32817655762E+02  0.51100000000E-03 0.  1.
        -12    1    3    3    0    0 -0.24568703927E+02  0.37394892683E+01  0.31513574909E+01  0.25050669585E+02  0.00000000000E+00 0.  1.
</event>
<event>
 7    1  0.1360399E-013  0.7246158E+02  0.7816164E-02  0.1226708E+00
        -11   -1    0    0    0    0  0.00000000000E+00  0.00000000000E+00  0.45593999997E+02  0.45594000000E+02  0.51100000000E-03 0.  1.
         11   -1    0    0    0    0 -0.00000000000E+00 -0.00000000000E+00 -0.45593999997E+02  0.45594000000E+02  0.51100000000E-03 0. -1.
    9900012    2    1    2    0    0  0.12920126501E+02  0.67185763715E+01  0.11773277005E+02  0.72461575122E+02  0.70000006289E+02 0.  0.
         12    1    1    2    0    0 -0.12920126501E+02 -0.67185763715E+01 -0.11773277005E+02  0.18726424878E+02  0.00000000000E+00 0. -1.
         11    1    3    3    0    0  0.30497704277E+02  0.26621198155E+01 -0.85086076296E+01  0.31774097188E+02  0.51100000000E-03 0. -1.
        -11    1    3    3    0    0  0.10579183672E+01  0.12972622333E+02  0.21334495921E+01  0.13189379398E+02  0.51100000000E-03 0.  1.
         12    1    3    3    0    0 -0.18635496142E+02 -0.89161657775E+01  0.18148435042E+02  0.27498098536E+02  0.00000000000E+00 0. -1.
</event>
<event>
 7    1  0.1360399E-013  0.7246155E+02  0.7816164E-02  0.1226708E+00
        -11   -1    0    0    0    0  0.00000000000E+00  0.00000000000E+00  0.45593999997E+02  0.45594000000E+02  0.51100000000E-03 0. -1.
         11   -1    0    0    0    0 -0.00000000000E+00 -0.00000000000E+00 -0.45593999997E+02  0.45594000000E+02  0.51100000000E-03 0.  1.
    9900012    2    1    2    0    0  0.14559630498E+02 -0.95445059426E+01 -0.68992333808E+01  0.72461551988E+02  0.69999976152E+02 0.  0.
         12    1    1    2    0    0 -0.14559630498E+02  0.95445059426E+01  0.68992333808E+01  0.18726448012E+02  0.00000000000E+00 0. -1.
         11    1    3    3    0    0  0.20182644273E+01 -0.70830472903E+01  0.26225657401E+02  0.27240191934E+02  0.51100000000E-03 0. -1.
        -11    1    3    3    0    0  0.62944074315E-01 -0.10641501256E+02 -0.27128245386E+02  0.29140816889E+02  0.51100000000E-03 0.  1.
         12    1    3    3    0    0  0.12478421996E+02  0.81800426033E+01 -0.59966453952E+01  0.16080543166E+02  0.00000000000E+00 0. -1.
</event>
<event>
 7    1  0.1360399E-013  0.7246155E+02  0.7816164E-02  0.1226708E+00
        -11   -1    0    0    0    0  0.00000000000E+00  0.00000000000E+00  0.45593999997E+02  0.45594000000E+02  0.51100000000E-03 0.  1.
         11   -1    0    0    0    0 -0.00000000000E+00 -0.00000000000E+00 -0.45593999997E+02  0.45594000000E+02  0.51100000000E-03 0. -1.
    9900012    2    1    2    0    0  0.68789867503E+01  0.84621421622E+01  0.15223387148E+02  0.72461552794E+02  0.69999977203E+02 0.  0.
         12    1    1    2    0    0 -0.68789867503E+01 -0.84621421622E+01 -0.15223387148E+02  0.18726447206E+02  0.00000000000E+00 0. -1.
         11    1    3    3    0    0  0.14280865249E+02 -0.19296608466E+02 -0.71826766296E+01  0.25057794284E+02  0.51100000000E-03 0. -1.
        -11    1    3    3    0    0  0.66783752488E+01  0.26086539687E+02  0.10549520795E+02  0.28920591939E+02  0.51100000000E-03 0.  1.
         12    1    3    3    0    0 -0.14080253748E+02  0.16722109408E+01  0.11856542983E+02  0.18483166572E+02  0.00000000000E+00 0. -1.
</event>
<event>
 7    1  0.1360399E-013  0.7246153E+02  0.7816164E-02  0.1226708E+00
        -11   -1    0    0    0    0  0.00000000000E+00  0.00000000000E+00  0.45593999997E+02  0.45594000000E+02  0.51100000000E-03 0.  1.
         11   -1    0    0    0    0 -0.00000000000E+00 -0.00000000000E+00 -0.45593999997E+02  0.45594000000E+02  0.51100000000E-03 0. -1.
    9900012    2    1    2    0    0 -0.89058543835E+01  0.73675077692E+01  0.14733841736E+02  0.72461534628E+02  0.69999953538E+02 0.  0.
         12    1    1    2    0    0  0.89058543835E+01 -0.73675077692E+01 -0.14733841736E+02  0.18726465372E+02  0.00000000000E+00 0. -1.
         11    1    3    3    0    0 -0.15340042945E+02  0.36180754090E+00  0.14692438947E+01  0.15414489941E+02  0.51100000000E-03 0. -1.
        -11    1    3    3    0    0  0.15808769218E+02 -0.20238454064E+02  0.11621971229E+02  0.28188338414E+02  0.51100000000E-03 0.  1.
        -12    1    3    3    0    0 -0.93745806560E+01  0.27244154292E+02  0.16426266124E+01  0.28858706273E+02  0.00000000000E+00 0.  1.
</event>
<event>
 7    1  0.1360399E-013  0.7246153E+02  0.7816164E-02  0.1226708E+00
        -11   -1    0    0    0    0  0.00000000000E+00  0.00000000000E+00  0.45593999997E+02  0.45594000000E+02  0.51100000000E-03 0. -1.
         11   -1    0    0    0    0 -0.00000000000E+00 -0.00000000000E+00 -0.45593999997E+02  0.45594000000E+02  0.51100000000E-03 0.  1.
    9900012    2    1    2    0    0 -0.11187881299E+02 -0.12977868893E+02 -0.75555926407E+01  0.72461528119E+02  0.69999945059E+02 0.  0.
         12    1    1    2    0    0  0.11187881299E+02  0.12977868893E+02  0.75555926407E+01  0.18726471881E+02  0.00000000000E+00 0. -1.
         11    1    3    3    0    0  0.38228349317E+01 -0.23227213472E+02  0.19185100610E+02  0.30367508924E+02  0.51100000000E-03 0. -1.
        -11    1    3    3    0    0  0.19388116213E+00  0.16000687150E+02 -0.10655133767E+02  0.19224761508E+02  0.51100000000E-03 0.  1.
         12    1    3    3    0    0 -0.15204597393E+02 -0.57513425713E+01 -0.16085559484E+02  0.22869257687E+02  0.00000000000E+00 0. -1.
</event>
<event>
 7    1  0.1360399E-013  0.7246144E+02  0.7816164E-02  0.1226708E+00
        -11   -1    0    0    0    0  0.00000000000E+00  0.00000000000E+00  0.45593999997E+02  0.45594000000E+02  0.51100000000E-03 0.  1.
         11   -1    0    0    0    0 -0.00000000000E+00 -0.00000000000E+00 -0.45593999997E+02  0.45594000000E+02  0.51100000000E-03 0. -1.
    9900012    2    1    2    0    0  0.33319943010E+01  0.97886937273E+01  0.15612916268E+02  0.72461444917E+02  0.69999836672E+02 0.  0.
         12    1    1    2    0    0 -0.33319943010E+01 -0.97886937273E+01 -0.15612916268E+02  0.18726555083E+02  0.00000000000E+00 0. -1.
         11    1    3    3    0    0  0.18055283672E+02 -0.23756430784E+01 -0.55310273819E+01  0.19032320213E+02  0.51100000000E-03 0. -1.
        -11    1    3    3    0    0 -0.22470337901E+02  0.19071054301E+01  0.30210533746E+02  0.37699197419E+02  0.51100000000E-03 0.  1.
         12    1    3    3    0    0  0.77470485293E+01  0.10257231376E+02 -0.90665900969E+01  0.15729927285E+02  0.00000000000E+00 0. -1.
</event>
<event>
 7    1  0.1360399E-013  0.7246162E+02  0.7816164E-02  0.1226708E+00
        -11   -1    0    0    0    0  0.00000000000E+00  0.00000000000E+00  0.45593999997E+02  0.45594000000E+02  0.51100000000E-03 0. -1.
         11   -1    0    0    0    0 -0.00000000000E+00 -0.00000000000E+00 -0.45593999997E+02  0.45594000000E+02  0.51100000000E-03 0.  1.
    9900012    2    1    2    0    0  0.57173901545E+01  0.17831781433E+02  0.12849377544E+00  0.72461615141E+02  0.70000058421E+02 0.  0.
         12    1    1    2    0    0 -0.57173901545E+01 -0.17831781433E+02 -0.12849377544E+00  0.18726384859E+02  0.00000000000E+00 0. -1.
         11    1    3    3    0    0 -0.22078361254E+02 -0.14894176226E+02 -0.32650372353E+01  0.26831902458E+02  0.51100000000E-03 0. -1.
        -11    1    3    3    0    0  0.21907859926E+02  0.20158249988E+02  0.83051278040E+01  0.30907677319E+02  0.51100000000E-03 0.  1.
         12    1    3    3    0    0  0.58878914821E+01  0.12567707670E+02 -0.49115967933E+01  0.14722035364E+02  0.00000000000E+00 0. -1.
</event>
<event>
 7    1  0.1360399E-013  0.7246159E+02  0.7816164E-02  0.1226708E+00
        -11   -1    0    0    0    0  0.00000000000E+00  0.00000000000E+00  0.45593999997E+02  0.45594000000E+02  0.51100000000E-03 0.  1.
         11   -1    0    0    0    0 -0.00000000000E+00 -0.00000000000E+00 -0.45593999997E+02  0.45594000000E+02  0.51100000000E-03 0. -1.
    9900012    2    1    2    0    0  0.60073721670E+01  0.11762017052E+02  0.13275718587E+02  0.72461594326E+02  0.70000031306E+02 0.  0.
         12    1    1    2    0    0 -0.60073721670E+01 -0.11762017052E+02 -0.13275718587E+02  0.18726405674E+02  0.00000000000E+00 0. -1.
         11    1    3    3    0    0  0.32275967434E+02  0.19543287102E+02  0.17652598489E+02  0.41656840713E+02  0.51100000000E-03 0. -1.
        -11    1    3    3    0    0 -0.20121735786E+02 -0.14707962814E+01 -0.74019964331E+01  0.21490394231E+02  0.51100000000E-03 0.  1.
         12    1    3    3    0    0 -0.61468594806E+01 -0.63104737690E+01  0.30251165312E+01  0.93143593817E+01  0.00000000000E+00 0. -1.
</event>
<event>
 7    1  0.1360399E-013  0.7246158E+02  0.7816164E-02  0.1226708E+00
        -11   -1    0    0    0    0  0.00000000000E+00  0.00000000000E+00  0.45593999997E+02  0.45594000000E+02  0.51100000000E-03 0.  1.
         11   -1    0    0    0    0 -0.00000000000E+00 -0.00000000000E+00 -0.45593999997E+02  0.45594000000E+02  0.51100000000E-03 0. -1.
    9900012    2    1    2    0    0 -0.74587955688E+01 -0.16653579346E+02  0.42075594841E+01  0.72461577673E+02  0.70000009612E+02 0.  0.
         12    1    1    2    0    0  0.74587955688E+01  0.16653579346E+02 -0.42075594841E+01  0.18726422327E+02  0.00000000000E+00 0. -1.
         11    1    3    3    0    0 -0.23108945092E+02  0.10222138497E+02  0.15510054294E+02  0.29649236806E+02  0.51100000000E-03 0. -1.
        -11    1    3    3    0    0  0.18329234010E+02 -0.46602564000E+01 -0.48573201275E+01  0.19526196972E+02  0.51100000000E-03 0.  1.
        -12    1    3    3    0    0 -0.26790844863E+01 -0.22215461443E+02 -0.64451746829E+01  0.23286143895E+02  0.00000000000E+00 0.  1.
</event>
<event>
 7    1  0.1360399E-013  0.7246158E+02  0.7816164E-02  0.1226708E+00
        -11   -1    0    0    0    0  0.00000000000E+00  0.00000000000E+00  0.45593999997E+02  0.45594000000E+02  0.51100000000E-03 0.  1.
         11   -1    0    0    0    0 -0.00000000000E+00 -0.00000000000E+00 -0.45593999997E+02  0.45594000000E+02  0.51100000000E-03 0. -1.
    9900012    2    1    2    0    0 -0.16154841416E+02  0.30568104154E+01  0.89641475758E+01  0.72461576613E+02  0.70000008232E+02 0.  0.
         12    1    1    2    0    0  0.16154841416E+02 -0.30568104154E+01 -0.89641475758E+01  0.18726423387E+02  0.00000000000E+00 0. -1.
         11    1    3    3    0    0  0.21300578043E+02  0.13979816731E+02  0.12260673095E+02  0.28274971367E+02  0.51100000000E-03 0. -1.
        -11    1    3    3    0    0 -0.19510662074E+02  0.38945775098E+01 -0.59445557907E+01  0.20764667403E+02  0.51100000000E-03 0.  1.
         12    1    3    3    0    0 -0.17944757385E+02 -0.14817583826E+02  0.26480302714E+01  0.23421937844E+02  0.00000000000E+00 0. -1.
</event>
<event>
 7    1  0.1360399E-013  0.7246158E+02  0.7816164E-02  0.1226708E+00
        -11   -1    0    0    0    0  0.00000000000E+00  0.00000000000E+00  0.45593999997E+02  0.45594000000E+02  0.51100000000E-03 0. -1.
         11   -1    0    0    0    0 -0.00000000000E+00 -0.00000000000E+00 -0.45593999997E+02  0.45594000000E+02  0.51100000000E-03 0.  1.
    9900012    2    1    2    0    0 -0.12321146943E+02  0.34474964357E+01 -0.13674167109E+02  0.72461581768E+02  0.70000014947E+02 0.  0.
         12    1    1    2    0    0  0.12321146943E+02 -0.34474964357E+01  0.13674167109E+02  0.18726418232E+02  0.00000000000E+00 0. -1.
         11    1    3    3    0    0 -0.58961466439E+01  0.21113497466E+02  0.21371002281E+02  0.30614768646E+02  0.51100000000E-03 0. -1.
        -11    1    3    3    0    0 -0.26302296943E+01 -0.16536416025E+02 -0.19022451225E+02  0.25342154882E+02  0.51100000000E-03 0.  1.
         12    1    3    3    0    0 -0.37947706047E+01 -0.11295850053E+01 -0.16022718165E+02  0.16504658240E+02  0.00000000000E+00 0. -1.
</event>
<event>
 7    1  0.1416895E-013  0.7246152E+02  0.7816164E-02  0.1226708E+00
        -11   -1    0    0    0    0  0.00000000000E+00  0.00000000000E+00  0.45593999997E+02  0.45594000000E+02  0.51100000000E-03 0. -1.
         11   -1    0    0    0    0 -0.00000000000E+00 -0.00000000000E+00 -0.45593999997E+02  0.45594000000E+02  0.51100000000E-03 0.  1.
    9900012    2    1    2    0    0 -0.53617372329E+01 -0.95235078535E+01 -0.15206429788E+02  0.72461523159E+02  0.69999938597E+02 0.  0.
         12    1    1    2    0    0  0.53617372329E+01  0.95235078535E+01  0.15206429788E+02  0.18726476841E+02  0.00000000000E+00 0. -1.
         11    1    3    3    0    0 -0.68858654451E+01 -0.55145322826E+01  0.14173331659E+02  0.16694566176E+02  0.51100000000E-03 0. -1.
        -11    1    3    3    0    0  0.11943099514E+02 -0.21890376167E+02 -0.23470179139E+02  0.34244349954E+02  0.51100000000E-03 0.  1.
        -12    1    3    3    0    0 -0.10418971302E+02  0.17881400596E+02 -0.59095823077E+01  0.21522607028E+02  0.00000000000E+00 0.  1.
</event>
<event>
 7    1  0.1360399E-013  0.7246140E+02  0.7816164E-02  0.1226708E+00
        -11   -1    0    0    0    0  0.00000000000E+00  0.00000000000E+00  0.45593999997E+02  0.45594000000E+02  0.51100000000E-03 0.  1.
         11   -1    0    0    0    0 -0.00000000000E+00 -0.00000000000E+00 -0.45593999997E+02  0.45594000000E+02  0.51100000000E-03 0. -1.
    9900012    2    1    2    0    0  0.14737742304E+02  0.39089677722E+01  0.10872195980E+02  0.72461395324E+02  0.69999772068E+02 0.  0.
         12    1    1    2    0    0 -0.14737742304E+02 -0.39089677722E+01 -0.10872195980E+02  0.18726604676E+02  0.00000000000E+00 0. -1.
         11    1    3    3    0    0 -0.13839797224E+02 -0.11959063238E+02  0.56825596188E+00  0.18299784038E+02  0.51100000000E-03 0. -1.
        -11    1    3    3    0    0  0.77928979473E+01  0.20120398540E+02  0.21254312256E+02  0.30287051450E+02  0.51100000000E-03 0.  1.
         12    1    3    3    0    0  0.20784641580E+02 -0.42523675296E+01 -0.10950372237E+02  0.23874559836E+02  0.00000000000E+00 0. -1.
</event>
<event>
 7    1  0.1360399E-013  0.7246158E+02  0.7816164E-02  0.1226708E+00
        -11   -1    0    0    0    0  0.00000000000E+00  0.00000000000E+00  0.45593999997E+02  0.45594000000E+02  0.51100000000E-03 0. -1.
         11   -1    0    0    0    0 -0.00000000000E+00 -0.00000000000E+00 -0.45593999997E+02  0.45594000000E+02  0.51100000000E-03 0.  1.
    9900012    2    1    2    0    0 -0.33635923905E+01 -0.70219190780E+01 -0.17031075522E+02  0.72461584573E+02  0.70000018600E+02 0.  0.
         12    1    1    2    0    0  0.33635923905E+01  0.70219190780E+01  0.17031075522E+02  0.18726415427E+02  0.00000000000E+00 0. -1.
         11    1    3    3    0    0 -0.12595950562E+02 -0.23536192631E+02 -0.17723135922E+02  0.32042469962E+02  0.51100000000E-03 0. -1.
        -11    1    3    3    0    0  0.22156735478E+02  0.11587870382E+02  0.58117826516E+01  0.25670537293E+02  0.51100000000E-03 0.  1.
         12    1    3    3    0    0 -0.12924377306E+02  0.49264031705E+01 -0.51197222520E+01  0.14748577318E+02  0.00000000000E+00 0. -1.
</event>
<event>
 7    1  0.1360399E-013  0.7246175E+02  0.7816164E-02  0.1226708E+00
        -11   -1    0    0    0    0  0.00000000000E+00  0.00000000000E+00  0.45593999997E+02  0.45594000000E+02  0.51100000000E-03 0.  1.
         11   -1    0    0    0    0 -0.00000000000E+00 -0.00000000000E+00 -0.45593999997E+02  0.45594000000E+02  0.51100000000E-03 0. -1.
    9900012    2    1    2    0    0 -0.50382651838E+01 -0.66223602525E+01  0.16775957712E+02  0.72461747611E+02  0.70000230988E+02 0.  0.
         12    1    1    2    0    0  0.50382651838E+01  0.66223602525E+01 -0.16775957712E+02  0.18726252389E+02  0.00000000000E+00 0. -1.
         11    1    3    3    0    0  0.28582918168E+01 -0.42710274610E+01 -0.95012518541E+01  0.10802096775E+02  0.51100000000E-03 0. -1.
        -11    1    3    3    0    0 -0.27633362809E+02  0.12020129381E+02  0.80491772462E+01  0.31190952295E+02  0.51100000000E-03 0.  1.
        -12    1    3    3    0    0  0.19736805809E+02 -0.14371462172E+02  0.18228032320E+02  0.30468698541E+02  0.00000000000E+00 0.  1.
</event>
<event>
 7    1  0.1360399E-013  0.7246157E+02  0.7816164E-02  0.1226708E+00
        -11   -1    0    0    0    0  0.00000000000E+00  0.00000000000E+00  0.45593999997E+02  0.45594000000E+02  0.51100000000E-03 0.  1.
         11   -1    0    0    0    0 -0.00000000000E+00 -0.00000000000E+00 -0.45593999997E+02  0.45594000000E+02  0.51100000000E-03 0. -1.
    9900012    2    1    2    0    0 -0.11652294508E+02 -0.44412441466E+01  0.13970638706E+02  0.72461565136E+02  0.69999993281E+02 0.  0.
         12    1    1    2    0    0  0.11652294508E+02  0.44412441466E+01 -0.13970638706E+02  0.18726434864E+02  0.00000000000E+00 0. -1.
         11    1    3    3    0    0  0.29460500044E+01  0.23135293038E+02 -0.10955716615E+02  0.25767202436E+02  0.51100000000E-03 0. -1.
        -11    1    3    3    0    0 -0.10327909936E+02 -0.67577242028E+01  0.22021618059E+02  0.25244488948E+02  0.51100000000E-03 0.  1.
         12    1    3    3    0    0 -0.42704345765E+01 -0.20818812982E+02  0.29047372613E+01  0.21449873752E+02  0.00000000000E+00 0. -1.
</event>
<event>
 7    1  0.1360399E-013  0.7246160E+02  0.7816164E-02  0.1226708E+00
        -11   -1    0    0    0    0  0.00000000000E+00  0.00000000000E+00  0.45593999997E+02  0.45594000000E+02  0.51100000000E-03 0. -1.
         11   -1    0    0    0    0 -0.00000000000E+00 -0.00000000000E+00 -0.45593999997E+02  0.45594000000E+02  0.51100000000E-03 0.  1.
    9900012    2    1    2    0    0 -0.13234874510E+02  0.13227455988E+02  0.74204041659E+00  0.72461598338E+02  0.70000036532E+02 0.  0.
         12    1    1    2    0    0  0.13234874510E+02 -0.13227455988E+02 -0.74204041659E+00  0.18726401662E+02  0.00000000000E+00 0. -1.
         11    1    3    3    0    0  0.49850826067E+01 -0.25760503118E+01  0.16226386973E+02  0.17169237556E+02  0.51100000000E-03 0. -1.
        -11    1    3    3    0    0 -0.80679207923E+01  0.32306893134E+02 -0.13046742425E+02  0.35763727127E+02  0.51100000000E-03 0.  1.
        -12    1    3    3    0    0 -0.10152036325E+02 -0.16503386834E+02 -0.24376041309E+01  0.19528633655E+02  0.00000000000E+00 0.  1.
</event>
<event>
 7    1  0.1360399E-013  0.7246156E+02  0.7816164E-02  0.1226708E+00
        -11   -1    0    0    0    0  0.00000000000E+00  0.00000000000E+00  0.45593999997E+02  0.45594000000E+02  0.51100000000E-03 0. -1.
         11   -1    0    0    0    0 -0.00000000000E+00 -0.00000000000E+00 -0.45593999997E+02  0.45594000000E+02  0.51100000000E-03 0.  1.
    9900012    2    1    2    0    0  0.11421830130E+02 -0.13644765920E+02 -0.58345211385E+01  0.72461562073E+02  0.69999989290E+02 0.  0.
         12    1    1    2    0    0 -0.11421830130E+02  0.13644765920E+02  0.58345211385E+01  0.18726437927E+02  0.00000000000E+00 0. -1.
         11    1    3    3    0    0 -0.83857381628E+01 -0.16262332129E+02  0.67640734947E+01  0.19507350955E+02  0.51100000000E-03 0. -1.
        -11    1    3    3    0    0  0.20050420288E+02 -0.16469994617E+02 -0.19708713515E+02  0.32583944897E+02  0.51100000000E-03 0.  1.
         12    1    3    3    0    0 -0.24285199483E+00  0.19087560825E+02  0.71101188817E+01  0.20370266220E+02  0.00000000000E+00 0. -1.
</event>
<event>
 7    1  0.1360399E-013  0.7246157E+02  0.7816164E-02  0.1226708E+00
        -11   -1    0    0    0    0  0.00000000000E+00  0.00000000000E+00  0.45593999997E+02  0.45594000000E+02  0.51100000000E-03 0.  1.
         11   -1    0    0    0    0 -0.00000000000E+00 -0.00000000000E+00 -0.45593999997E+02  0.45594000000E+02  0.51100000000E-03 0. -1.
    9900012    2    1    2    0    0  0.96375687847E+01  0.15296547799E+01  0.15983013313E+02  0.72461567067E+02  0.69999995796E+02 0.  0.
         12    1    1    2    0    0 -0.96375687847E+01 -0.15296547799E+01 -0.15983013313E+02  0.18726432933E+02  0.00000000000E+00 0. -1.
         11    1    3    3    0    0  0.28907247089E+01  0.16759789433E+02 -0.22681491858E+02  0.28349548574E+02  0.51100000000E-03 0. -1.
        -11    1    3    3    0    0  0.10020139698E+02 -0.65884740464E+01  0.21531236898E+02  0.24645594990E+02  0.51100000000E-03 0.  1.
         12    1    3    3    0    0 -0.32732956218E+01 -0.86416606070E+01  0.17133268273E+02  0.19466423503E+02  0.00000000000E+00 0. -1.
</event>
<event>
 7    1  0.1360399E-013  0.7246155E+02  0.7816164E-02  0.1226708E+00
        -11   -1    0    0    0    0  0.00000000000E+00  0.00000000000E+00  0.45593999997E+02  0.45594000000E+02  0.51100000000E-03 0. -1.
         11   -1    0    0    0    0 -0.00000000000E+00 -0.00000000000E+00 -0.45593999997E+02  0.45594000000E+02  0.51100000000E-03 0.  1.
    9900012    2    1    2    0    0  0.13516257524E+02  0.10839340209E+02 -0.71062854237E+01  0.72461553296E+02  0.69999977857E+02 0.  0.
         12    1    1    2    0    0 -0.13516257524E+02 -0.10839340209E+02  0.71062854237E+01  0.18726446704E+02  0.00000000000E+00 0. -1.
         11    1    3    3    0    0 -0.40642666351E+01  0.15214795095E+02  0.79433453851E+01  0.17638168534E+02  0.51100000000E-03 0. -1.
        -11    1    3    3    0    0  0.25333689150E+02 -0.15936056543E+02  0.50724159003E+01  0.30355940232E+02  0.51100000000E-03 0.  1.
        -12    1    3    3    0    0 -0.77531649903E+01  0.11560601658E+02 -0.20122046709E+02  0.24467444530E+02  0.00000000000E+00 0.  1.
</event>
<event>
 7    1  0.1360399E-013  0.7246208E+02  0.7816164E-02  0.1226707E+00
        -11   -1    0    0    0    0  0.00000000000E+00  0.00000000000E+00  0.45593999997E+02  0.45594000000E+02  0.51100000000E-03 0.  1.
         11   -1    0    0    0    0 -0.00000000000E+00 -0.00000000000E+00 -0.45593999997E+02  0.45594000000E+02  0.51100000000E-03 0. -1.
    9900012    2    1    2    0    0  0.13555601571E+02 -0.12530321459E+02 -0.31459316789E+01  0.72462077434E+02  0.70000660640E+02 0.  0.
         12    1    1    2    0    0 -0.13555601571E+02  0.12530321459E+02  0.31459316789E+01  0.18725922566E+02  0.00000000000E+00 0. -1.
         11    1    3    3    0    0  0.87088104952E+01  0.15389368705E+02  0.15822533880E+02  0.23728224291E+02  0.51100000000E-03 0.  1.
        -11    1    3    3    0    0  0.55385393096E+01 -0.24502891664E+02 -0.28850668835E+02  0.38254780225E+02  0.51100000000E-03 0. -1.
         12    1    3    3    0    0 -0.69174823386E+00 -0.34167985004E+01  0.98822032766E+01  0.10479072918E+02  0.00000000000E+00 0. -1.
</event>
<event>
 7    1  0.1360399E-013  0.7246153E+02  0.7816164E-02  0.1226708E+00
        -11   -1    0    0    0    0  0.00000000000E+00  0.00000000000E+00  0.45593999997E+02  0.45594000000E+02  0.51100000000E-03 0.  1.
         11   -1    0    0    0    0 -0.00000000000E+00 -0.00000000000E+00 -0.45593999997E+02  0.45594000000E+02  0.51100000000E-03 0. -1.
    9900012    2    1    2    0    0  0.13484160252E+02 -0.30300113745E+01  0.12636337475E+02  0.72461532864E+02  0.69999951240E+02 0.  0.
         12    1    1    2    0    0 -0.13484160252E+02  0.30300113745E+01 -0.12636337475E+02  0.18726467136E+02  0.00000000000E+00 0. -1.
         11    1    3    3    0    0  0.31711424303E+02 -0.21465513846E+02  0.22576958689E+02  0.44453366351E+02  0.51100000000E-03 0.  1.
        -11    1    3    3    0    0 -0.11094012162E+02  0.13339784602E+02 -0.75499155437E+01  0.18921632701E+02  0.51100000000E-03 0. -1.
        -12    1    3    3    0    0 -0.71332518897E+01  0.50957178690E+01 -0.23907056702E+01  0.90865338124E+01  0.00000000000E+00 0.  1.
</event>
<event>
 7    1  0.1360399E-013  0.7246166E+02  0.7816164E-02  0.1226708E+00
        -11   -1    0    0    0    0  0.00000000000E+00  0.00000000000E+00  0.45593999997E+02  0.45594000000E+02  0.51100000000E-03 0.  1.
         11   -1    0    0    0    0 -0.00000000000E+00 -0.00000000000E+00 -0.45593999997E+02  0.45594000000E+02  0.51100000000E-03 0. -1.
    9900012    2    1    2    0    0 -0.18577630371E+02 -0.23271508027E+01  0.36324643772E+00  0.72461656817E+02  0.70000112711E+02 0.  0.
         12    1    1    2    0    0  0.18577630371E+02  0.23271508027E+01 -0.36324643772E+00  0.18726343183E+02  0.00000000000E+00 0. -1.
         11    1    3    3    0    0 -0.38436065665E+02 -0.16440389048E+02 -0.40080421381E+01  0.41996213376E+02  0.51100000000E-03 0. -1.
        -11    1    3    3    0    0  0.60113883029E+01  0.16889653159E+01  0.93165821392E+01  0.11215529242E+02  0.51100000000E-03 0.  1.
         12    1    3    3    0    0  0.13847046992E+02  0.12424272929E+02 -0.49452935633E+01  0.19249914198E+02  0.00000000000E+00 0. -1.
</event>
<event>
 7    1  0.1360399E-013  0.7246159E+02  0.7816164E-02  0.1226708E+00
        -11   -1    0    0    0    0  0.00000000000E+00  0.00000000000E+00  0.45593999997E+02  0.45594000000E+02  0.51100000000E-03 0.  1.
         11   -1    0    0    0    0 -0.00000000000E+00 -0.00000000000E+00 -0.45593999997E+02  0.45594000000E+02  0.51100000000E-03 0. -1.
    9900012    2    1    2    0    0 -0.23719291929E+01 -0.17125872363E+02 -0.71942222579E+01  0.72461591210E+02  0.70000027246E+02 0.  0.
         12    1    1    2    0    0  0.23719291929E+01  0.17125872363E+02  0.71942222579E+01  0.18726408790E+02  0.00000000000E+00 0. -1.
         11    1    3    3    0    0 -0.22913714072E+02  0.16251947349E+02 -0.54794196799E+01  0.28621462672E+02  0.51100000000E-03 0. -1.
        -11    1    3    3    0    0  0.16776627591E+01 -0.17079285167E+02 -0.66887967825E+01  0.18418917906E+02  0.51100000000E-03 0.  1.
         12    1    3    3    0    0  0.18864122120E+02 -0.16298534545E+02  0.49739942046E+01  0.25421210632E+02  0.00000000000E+00 0. -1.
</event>
<event>
 7    1  0.1360399E-013  0.7246150E+02  0.7816164E-02  0.1226708E+00
        -11   -1    0    0    0    0  0.00000000000E+00  0.00000000000E+00  0.45593999997E+02  0.45594000000E+02  0.51100000000E-03 0.  1.
         11   -1    0    0    0    0 -0.00000000000E+00 -0.00000000000E+00 -0.45593999997E+02  0.45594000000E+02  0.51100000000E-03 0. -1.
    9900012    2    1    2    0    0  0.61522898077E+01  0.20667401218E+01  0.17565872480E+02  0.72461495772E+02  0.69999902921E+02 0.  0.
         12    1    1    2    0    0 -0.61522898077E+01 -0.20667401218E+01 -0.17565872480E+02  0.18726504228E+02  0.00000000000E+00 0. -1.
         11    1    3    3    0    0 -0.11878664388E+02 -0.22465189691E+02  0.57346741178E+01  0.26051370463E+02  0.51100000000E-03 0. -1.
        -11    1    3    3    0    0 -0.38731813958E+01  0.22474783992E+02  0.73183042286E+01  0.23951514078E+02  0.51100000000E-03 0.  1.
         12    1    3    3    0    0  0.21904135592E+02  0.20571458209E+01  0.45128941335E+01  0.22458611231E+02  0.00000000000E+00 0. -1.
</event>
<event>
 7    1  0.1360399E-013  0.7246159E+02  0.7816164E-02  0.1226708E+00
        -11   -1    0    0    0    0  0.00000000000E+00  0.00000000000E+00  0.45593999997E+02  0.45594000000E+02  0.51100000000E-03 0.  1.
         11   -1    0    0    0    0 -0.00000000000E+00 -0.00000000000E+00 -0.45593999997E+02  0.45594000000E+02  0.51100000000E-03 0. -1.
    9900012    2    1    2    0    0  0.11989947877E+01  0.18682842954E+02 -0.43833413684E+00  0.72461592278E+02  0.70000028638E+02 0.  0.
         12    1    1    2    0    0 -0.11989947877E+01 -0.18682842954E+02  0.43833413684E+00  0.18726407722E+02  0.00000000000E+00 0. -1.
         11    1    3    3    0    0 -0.20617552984E+02  0.15772945535E+02 -0.17954097322E+02  0.31562935745E+02  0.51100000000E-03 0.  1.
        -11    1    3    3    0    0  0.45489890988E+01  0.96729045719E+01  0.19510709840E+02  0.22246936494E+02  0.51100000000E-03 0. -1.
         12    1    3    3    0    0  0.17267558673E+02 -0.67630071531E+01 -0.19949466542E+01  0.18651720039E+02  0.00000000000E+00 0. -1.
</event>
<event>
 7    1  0.1360399E-013  0.7246156E+02  0.7816164E-02  0.1226708E+00
        -11   -1    0    0    0    0  0.00000000000E+00  0.00000000000E+00  0.45593999997E+02  0.45594000000E+02  0.51100000000E-03 0.  1.
         11   -1    0    0    0    0 -0.00000000000E+00 -0.00000000000E+00 -0.45593999997E+02  0.45594000000E+02  0.51100000000E-03 0. -1.
    9900012    2    1    2    0    0  0.16046488126E+02 -0.76880730549E+01  0.58380774080E+01  0.72461564239E+02  0.69999992112E+02 0.  0.
         12    1    1    2    0    0 -0.16046488126E+02  0.76880730549E+01 -0.58380774080E+01  0.18726435761E+02  0.00000000000E+00 0. -1.
         11    1    3    3    0    0 -0.14988968895E+02 -0.21699412240E+02 -0.10911179825E+01  0.26395534070E+02  0.51100000000E-03 0. -1.
        -11    1    3    3    0    0  0.12898158455E+02 -0.87055904969E+01  0.68363858199E+01  0.16996645809E+02  0.51100000000E-03 0.  1.
         12    1    3    3    0    0  0.18137298566E+02  0.22716929682E+02  0.92809570566E-01  0.29069384360E+02  0.00000000000E+00 0. -1.
</event>
<event>
 7    1  0.1360399E-013  0.7246158E+02  0.7816164E-02  0.1226708E+00
        -11   -1    0    0    0    0  0.00000000000E+00  0.00000000000E+00  0.45593999997E+02  0.45594000000E+02  0.51100000000E-03 0. -1.
         11   -1    0    0    0    0 -0.00000000000E+00 -0.00000000000E+00 -0.45593999997E+02  0.45594000000E+02  0.51100000000E-03 0.  1.
    9900012    2    1    2    0    0 -0.15082684308E+02 -0.17320763081E+01 -0.10963186825E+02  0.72461576966E+02  0.70000008692E+02 0.  0.
         12    1    1    2    0    0  0.15082684308E+02  0.17320763081E+01  0.10963186825E+02  0.18726423034E+02  0.00000000000E+00 0. -1.
         11    1    3    3    0    0  0.50742824038E+01 -0.11246094048E+01  0.18985751464E+02  0.19684304589E+02  0.51100000000E-03 0. -1.
        -11    1    3    3    0    0 -0.24687469705E+02  0.96718796141E+01 -0.73086676841E+01  0.27503327786E+02  0.51100000000E-03 0.  1.
         12    1    3    3    0    0  0.45305029934E+01 -0.10279346517E+02 -0.22640270605E+02  0.25273944592E+02  0.00000000000E+00 0. -1.
</event>
<event>
 7    1  0.1360399E-013  0.7246161E+02  0.7816164E-02  0.1226708E+00
        -11   -1    0    0    0    0  0.00000000000E+00  0.00000000000E+00  0.45593999997E+02  0.45594000000E+02  0.51100000000E-03 0.  1.
         11   -1    0    0    0    0 -0.00000000000E+00 -0.00000000000E+00 -0.45593999997E+02  0.45594000000E+02  0.51100000000E-03 0. -1.
    9900012    2    1    2    0    0 -0.22660967941E+01  0.14020535505E+02  0.12205207291E+02  0.72461609650E+02  0.70000051268E+02 0.  0.
         12    1    1    2    0    0  0.22660967941E+01 -0.14020535505E+02 -0.12205207291E+02  0.18726390350E+02  0.00000000000E+00 0. -1.
         11    1    3    3    0    0  0.12427602088E+02  0.14707709316E+02 -0.20501221817E+02  0.28125826267E+02  0.51100000000E-03 0. -1.
        -11    1    3    3    0    0 -0.19356141204E+02 -0.33034926197E+01  0.12139920807E+02  0.23085730295E+02  0.51100000000E-03 0.  1.
        -12    1    3    3    0    0  0.46624423219E+01  0.26163188088E+01  0.20566508301E+02  0.21250053088E+02  0.00000000000E+00 0.  1.
</event>
<event>
 7    1  0.1360399E-013  0.7246151E+02  0.7816164E-02  0.1226708E+00
        -11   -1    0    0    0    0  0.00000000000E+00  0.00000000000E+00  0.45593999997E+02  0.45594000000E+02  0.51100000000E-03 0. -1.
         11   -1    0    0    0    0 -0.00000000000E+00 -0.00000000000E+00 -0.45593999997E+02  0.45594000000E+02  0.51100000000E-03 0.  1.
    9900012    2    1    2    0    0 -0.87187090679E+01 -0.65679037259E+01 -0.15216049032E+02  0.72461510865E+02  0.69999922583E+02 0.  0.
         12    1    1    2    0    0  0.87187090679E+01  0.65679037259E+01  0.15216049032E+02  0.18726489135E+02  0.00000000000E+00 0. -1.
         11    1    3    3    0    0 -0.60160590841E+01  0.30187518226E+02 -0.88885850152E+01  0.32038822815E+02  0.51100000000E-03 0. -1.
        -11    1    3    3    0    0 -0.81708069575E+01 -0.29021799223E+02 -0.26646396249E+01  0.30267593579E+02  0.51100000000E-03 0.  1.
        -12    1    3    3    0    0  0.54681569737E+01 -0.77336227284E+01 -0.36628243918E+01  0.10155094471E+02  0.00000000000E+00 0.  1.
</event>
<event>
 7    1  0.1360399E-013  0.7246156E+02  0.7816164E-02  0.1226708E+00
        -11   -1    0    0    0    0  0.00000000000E+00  0.00000000000E+00  0.45593999997E+02  0.45594000000E+02  0.51100000000E-03 0. -1.
         11   -1    0    0    0    0 -0.00000000000E+00 -0.00000000000E+00 -0.45593999997E+02  0.45594000000E+02  0.51100000000E-03 0.  1.
    9900012    2    1    2    0    0 -0.13882503254E+02 -0.83128901786E+01 -0.94261052425E+01  0.72461561477E+02  0.69999988513E+02 0.  0.
         12    1    1    2    0    0  0.13882503254E+02  0.83128901786E+01  0.94261052425E+01  0.18726438523E+02  0.00000000000E+00 0. -1.
         11    1    3    3    0    0  0.20707481245E+02 -0.20823737279E+01 -0.95521348991E+01  0.22899330585E+02  0.51100000000E-03 0. -1.
        -11    1    3    3    0    0 -0.94143853154E+01 -0.11637086447E+02 -0.13738353982E+02  0.20317352245E+02  0.51100000000E-03 0.  1.
         12    1    3    3    0    0 -0.25175599184E+02  0.54065699959E+01  0.13864383639E+02  0.29244878647E+02  0.00000000000E+00 0. -1.
</event>
<event>
 7    1  0.1360399E-013  0.7246149E+02  0.7816164E-02  0.1226708E+00
        -11   -1    0    0    0    0  0.00000000000E+00  0.00000000000E+00  0.45593999997E+02  0.45594000000E+02  0.51100000000E-03 0. -1.
         11   -1    0    0    0    0 -0.00000000000E+00 -0.00000000000E+00 -0.45593999997E+02  0.45594000000E+02  0.51100000000E-03 0.  1.
    9900012    2    1    2    0    0 -0.12667018643E+02 -0.24895285413E+01 -0.13565804924E+02  0.72461489997E+02  0.69999895397E+02 0.  0.
         12    1    1    2    0    0  0.12667018643E+02  0.24895285413E+01  0.13565804924E+02  0.18726510003E+02  0.00000000000E+00 0. -1.
         11    1    3    3    0    0  0.14818422944E+02  0.20729694396E+02 -0.73772290453E+00  0.25492158081E+02  0.51100000000E-03 0. -1.
        -11    1    3    3    0    0 -0.25346598900E+02 -0.26995664803E+02 -0.41439641764E+01  0.37261084704E+02  0.51100000000E-03 0.  1.
        -12    1    3    3    0    0 -0.21388426871E+01  0.37764418658E+01 -0.86841178431E+01  0.97082472115E+01  0.00000000000E+00 0.  1.
</event>
<event>
 7    1  0.1360399E-013  0.7246158E+02  0.7816164E-02  0.1226708E+00
        -11   -1    0    0    0    0  0.00000000000E+00  0.00000000000E+00  0.45593999997E+02  0.45594000000E+02  0.51100000000E-03 0.  1.
         11   -1    0    0    0    0 -0.00000000000E+00 -0.00000000000E+00 -0.45593999997E+02  0.45594000000E+02  0.51100000000E-03 0. -1.
    9900012    2    1    2    0    0 -0.16821673143E+02  0.52520472116E+01 -0.63345312673E+01  0.72461575525E+02  0.70000006814E+02 0.  0.
         12    1    1    2    0    0  0.16821673143E+02 -0.52520472116E+01  0.63345312673E+01  0.18726424475E+02  0.00000000000E+00 0. -1.
         11    1    3    3    0    0  0.73955276507E+01 -0.13914604508E+02 -0.71192490089E+01  0.17291435873E+02  0.51100000000E-03 0. -1.
        -11    1    3    3    0    0 -0.33233338711E+02  0.48812225575E+00 -0.50640997581E+01  0.33620502254E+02  0.51100000000E-03 0.  1.
        -12    1    3    3    0    0  0.90161379168E+01  0.18678529463E+02  0.58488174998E+01  0.21549637398E+02  0.00000000000E+00 0.  1.
</event>
<event>
 7    1  0.1360399E-013  0.7246178E+02  0.7816164E-02  0.1226707E+00
        -11   -1    0    0    0    0  0.00000000000E+00  0.00000000000E+00  0.45593999997E+02  0.45594000000E+02  0.51100000000E-03 0. -1.
         11   -1    0    0    0    0 -0.00000000000E+00 -0.00000000000E+00 -0.45593999997E+02  0.45594000000E+02  0.51100000000E-03 0.  1.
    9900012    2    1    2    0    0  0.11618865374E+02 -0.14183749916E+02 -0.38071787856E+01  0.72461777621E+02  0.70000270081E+02 0.  0.
         12    1    1    2    0    0 -0.11618865374E+02  0.14183749916E+02  0.38071787856E+01  0.18726222379E+02  0.00000000000E+00 0. -1.
         11    1    3    3    0    0 -0.13313696054E+02 -0.15489204720E+02 -0.42618214755E+01  0.20864637261E+02  0.51100000000E-03 0. -1.
        -11    1    3    3    0    0  0.93544229411E+01  0.87259320439E+01 -0.20677731714E+02  0.24314927672E+02  0.51100000000E-03 0.  1.
        -12    1    3    3    0    0  0.15578138487E+02 -0.74204772398E+01  0.21132374404E+02  0.27282212688E+02  0.00000000000E+00 0.  1.
</event>
<event>
 7    1  0.1360399E-013  0.7246159E+02  0.7816164E-02  0.1226708E+00
        -11   -1    0    0    0    0  0.00000000000E+00  0.00000000000E+00  0.45593999997E+02  0.45594000000E+02  0.51100000000E-03 0.  1.
         11   -1    0    0    0    0 -0.00000000000E+00 -0.00000000000E+00 -0.45593999997E+02  0.45594000000E+02  0.51100000000E-03 0. -1.
    9900012    2    1    2    0    0 -0.58704211011E+01  0.13047790622E+02  0.12081881985E+02  0.72461586667E+02  0.70000021328E+02 0.  0.
         12    1    1    2    0    0  0.58704211011E+01 -0.13047790622E+02 -0.12081881985E+02  0.18726413333E+02  0.00000000000E+00 0. -1.
         11    1    3    3    0    0 -0.15086292503E+02  0.31490029632E+02 -0.21493997917E+00  0.34917966538E+02  0.51100000000E-03 0.  1.
        -11    1    3    3    0    0  0.13805983035E+02 -0.16513719084E+02  0.19327534538E+02  0.28928561615E+02  0.51100000000E-03 0. -1.
         12    1    3    3    0    0 -0.45901116336E+01 -0.19285199263E+01 -0.70307125731E+01  0.86150585140E+01  0.00000000000E+00 0. -1.
</event>
<event>
 7    1  0.1360399E-013  0.7246157E+02  0.7816164E-02  0.1226708E+00
        -11   -1    0    0    0    0  0.00000000000E+00  0.00000000000E+00  0.45593999997E+02  0.45594000000E+02  0.51100000000E-03 0.  1.
         11   -1    0    0    0    0 -0.00000000000E+00 -0.00000000000E+00 -0.45593999997E+02  0.45594000000E+02  0.51100000000E-03 0. -1.
    9900012    2    1    2    0    0  0.11699236703E+02 -0.92278560096E+01  0.11342564260E+02  0.72461568681E+02  0.69999997898E+02 0.  0.
         12    1    1    2    0    0 -0.11699236703E+02  0.92278560096E+01 -0.11342564260E+02  0.18726431319E+02  0.00000000000E+00 0. -1.
         11    1    3    3    0    0 -0.16552168697E+02  0.27197970286E+00 -0.21850486066E+02  0.27413354467E+02  0.51100000000E-03 0. -1.
        -11    1    3    3    0    0  0.17789058950E+02 -0.54650055293E+01  0.24974529664E+02  0.31145529951E+02  0.51100000000E-03 0.  1.
         12    1    3    3    0    0  0.10462346450E+02 -0.40348301831E+01  0.82185206619E+01  0.13902684263E+02  0.00000000000E+00 0. -1.
</event>
<event>
 7    1  0.1360399E-013  0.7246159E+02  0.7816164E-02  0.1226708E+00
        -11   -1    0    0    0    0  0.00000000000E+00  0.00000000000E+00  0.45593999997E+02  0.45594000000E+02  0.51100000000E-03 0.  1.
         11   -1    0    0    0    0 -0.00000000000E+00 -0.00000000000E+00 -0.45593999997E+02  0.45594000000E+02  0.51100000000E-03 0. -1.
    9900012    2    1    2    0    0  0.18591967485E+02  0.85999710177E+00 -0.20682332445E+01  0.72461589807E+02  0.70000025419E+02 0.  0.
         12    1    1    2    0    0 -0.18591967485E+02 -0.85999710177E+00  0.20682332445E+01  0.18726410193E+02  0.00000000000E+00 0. -1.
         11    1    3    3    0    0  0.20244762901E+02 -0.19911048580E+02 -0.43762123319E+01  0.28730672026E+02  0.51100000000E-03 0. -1.
        -11    1    3    3    0    0 -0.67361683965E+01  0.24243752945E+02  0.15233475364E+02  0.29414185242E+02  0.51100000000E-03 0.  1.
         12    1    3    3    0    0  0.50833729804E+01 -0.34727072633E+01 -0.12925496276E+02  0.14316732539E+02  0.00000000000E+00 0. -1.
</event>
<event>
 7    1  0.1360399E-013  0.7246159E+02  0.7816164E-02  0.1226708E+00
        -11   -1    0    0    0    0  0.00000000000E+00  0.00000000000E+00  0.45593999997E+02  0.45594000000E+02  0.51100000000E-03 0.  1.
         11   -1    0    0    0    0 -0.00000000000E+00 -0.00000000000E+00 -0.45593999997E+02  0.45594000000E+02  0.51100000000E-03 0. -1.
    9900012    2    1    2    0    0 -0.16971735182E+02  0.67978175712E+01 -0.40532084256E+01  0.72461585037E+02  0.70000019205E+02 0.  0.
         12    1    1    2    0    0  0.16971735182E+02 -0.67978175712E+01  0.40532084256E+01  0.18726414963E+02  0.00000000000E+00 0. -1.
         11    1    3    3    0    0  0.19039816641E+02 -0.31530868741E+01 -0.15307952913E+02  0.24633107745E+02  0.51100000000E-03 0. -1.
        -11    1    3    3    0    0 -0.28486690778E+02 -0.53818160048E+01  0.10138727147E+02  0.30712363689E+02  0.51100000000E-03 0.  1.
         12    1    3    3    0    0 -0.75248610450E+01  0.15332720450E+02  0.11160173409E+01  0.17116113602E+02  0.00000000000E+00 0. -1.
</event>
<event>
 7    1  0.1360399E-013  0.7246128E+02  0.7816164E-02  0.1226709E+00
        -11   -1    0    0    0    0  0.00000000000E+00  0.00000000000E+00  0.45593999997E+02  0.45594000000E+02  0.51100000000E-03 0.  1.
         11   -1    0    0    0    0 -0.00000000000E+00 -0.00000000000E+00 -0.45593999997E+02  0.45594000000E+02  0.51100000000E-03 0. -1.
    9900012    2    1    2    0    0 -0.12060748824E+02 -0.14325783826E+02 -0.15142547031E-01  0.72461281822E+02  0.69999624210E+02 0.  0.
         12    1    1    2    0    0  0.12060748824E+02  0.14325783826E+02  0.15142547031E-01  0.18726718178E+02  0.00000000000E+00 0. -1.
         11    1    3    3    0    0  0.56391318758E+01 -0.89923531280E+01 -0.23798728902E+02  0.26058428976E+02  0.51100000000E-03 0. -1.
        -11    1    3    3    0    0  0.26480879520E+01 -0.34779520201E+01  0.25524796249E+02  0.25896404072E+02  0.51100000000E-03 0.  1.
        -12    1    3    3    0    0 -0.20347968652E+02 -0.18554786776E+01 -0.17412098941E+01  0.20506448773E+02  0.00000000000E+00 0.  1.
</event>
<event>
 7    1  0.1360399E-013  0.7246158E+02  0.7816164E-02  0.1226708E+00
        -11   -1    0    0    0    0  0.00000000000E+00  0.00000000000E+00  0.45593999997E+02  0.45594000000E+02  0.51100000000E-03 0. -1.
         11   -1    0    0    0    0 -0.00000000000E+00 -0.00000000000E+00 -0.45593999997E+02  0.45594000000E+02  0.51100000000E-03 0.  1.
    9900012    2    1    2    0    0 -0.17760657582E+01 -0.18068713000E+02 -0.45875931390E+01  0.72461579897E+02  0.70000012510E+02 0.  0.
         12    1    1    2    0    0  0.17760657582E+01  0.18068713000E+02  0.45875931390E+01  0.18726420103E+02  0.00000000000E+00 0. -1.
         11    1    3    3    0    0 -0.25870984456E+02  0.12322975245E+02 -0.88899504075E+01  0.30003246060E+02  0.51100000000E-03 0.  1.
        -11    1    3    3    0    0  0.26889268816E+01 -0.13695921875E+02 -0.31468664589E+01  0.14307738205E+02  0.51100000000E-03 0. -1.
         12    1    3    3    0    0  0.21405991816E+02 -0.16695766370E+02  0.74492237274E+01  0.28150595632E+02  0.00000000000E+00 0. -1.
</event>
<event>
 7    1  0.1360399E-013  0.7246158E+02  0.7816164E-02  0.1226708E+00
        -11   -1    0    0    0    0  0.00000000000E+00  0.00000000000E+00  0.45593999997E+02  0.45594000000E+02  0.51100000000E-03 0.  1.
         11   -1    0    0    0    0 -0.00000000000E+00 -0.00000000000E+00 -0.45593999997E+02  0.45594000000E+02  0.51100000000E-03 0. -1.
    9900012    2    1    2    0    0 -0.12458759360E+02  0.60441923814E+01  0.12606577968E+02  0.72461581378E+02  0.70000014439E+02 0.  0.
         12    1    1    2    0    0  0.12458759360E+02 -0.60441923814E+01 -0.12606577968E+02  0.18726418622E+02  0.00000000000E+00 0. -1.
         11    1    3    3    0    0  0.76690977861E+01  0.17299778943E+02 -0.12288969386E+02  0.22563603018E+02  0.51100000000E-03 0. -1.
        -11    1    3    3    0    0 -0.19304018924E+02  0.69662668135E+01  0.24080532392E+02  0.31639311947E+02  0.51100000000E-03 0.  1.
         12    1    3    3    0    0 -0.82383822191E+00 -0.18221853375E+02  0.81501496187E+00  0.18258666414E+02  0.00000000000E+00 0. -1.
</event>
<event>
 7    1  0.1360399E-013  0.7246157E+02  0.7816164E-02  0.1226708E+00
        -11   -1    0    0    0    0  0.00000000000E+00  0.00000000000E+00  0.45593999997E+02  0.45594000000E+02  0.51100000000E-03 0.  1.
         11   -1    0    0    0    0 -0.00000000000E+00 -0.00000000000E+00 -0.45593999997E+02  0.45594000000E+02  0.51100000000E-03 0. -1.
    9900012    2    1    2    0    0 -0.14215881378E+01  0.25819207518E+01  0.18493021170E+02  0.72461573229E+02  0.70000003823E+02 0.  0.
         12    1    1    2    0    0  0.14215881378E+01 -0.25819207518E+01 -0.18493021170E+02  0.18726426771E+02  0.00000000000E+00 0. -1.
         11    1    3    3    0    0  0.26284722960E+02  0.10719793677E+02  0.88994595079E+01  0.29748966660E+02  0.51100000000E-03 0. -1.
        -11    1    3    3    0    0 -0.14993374885E+02  0.19767993287E+01  0.18730535807E+02  0.24073678528E+02  0.51100000000E-03 0.  1.
         12    1    3    3    0    0 -0.12712936213E+02 -0.10114672254E+02 -0.91369741445E+01  0.18638928040E+02  0.00000000000E+00 0. -1.
</event>
<event>
 7    1  0.1360399E-013  0.7246151E+02  0.7816164E-02  0.1226708E+00
        -11   -1    0    0    0    0  0.00000000000E+00  0.00000000000E+00  0.45593999997E+02  0.45594000000E+02  0.51100000000E-03 0. -1.
         11   -1    0    0    0    0 -0.00000000000E+00 -0.00000000000E+00 -0.45593999997E+02  0.45594000000E+02  0.51100000000E-03 0.  1.
    9900012    2    1    2    0    0 -0.68165740394E+01  0.18790509275E+01 -0.17340266647E+02  0.72461511770E+02  0.69999923762E+02 0.  0.
         12    1    1    2    0    0  0.68165740394E+01 -0.18790509275E+01  0.17340266647E+02  0.18726488230E+02  0.00000000000E+00 0. -1.
         11    1    3    3    0    0  0.58907958640E+01 -0.20820945013E+02  0.27445622812E+01  0.21811598968E+02  0.51100000000E-03 0. -1.
        -11    1    3    3    0    0 -0.89102310212E+01  0.26649462279E+02  0.17346920888E+01  0.28153067569E+02  0.51100000000E-03 0.  1.
        -12    1    3    3    0    0 -0.37971388821E+01 -0.39494663385E+01 -0.21819521017E+02  0.22496845234E+02  0.00000000000E+00 0.  1.
</event>
<event>
 7    1  0.1360399E-013  0.7246156E+02  0.7816164E-02  0.1226708E+00
        -11   -1    0    0    0    0  0.00000000000E+00  0.00000000000E+00  0.45593999997E+02  0.45594000000E+02  0.51100000000E-03 0.  1.
         11   -1    0    0    0    0 -0.00000000000E+00 -0.00000000000E+00 -0.45593999997E+02  0.45594000000E+02  0.51100000000E-03 0. -1.
    9900012    2    1    2    0    0  0.98258336184E+01 -0.88015050075E+00  0.15917215406E+02  0.72461563674E+02  0.69999991375E+02 0.  0.
         12    1    1    2    0    0 -0.98258336184E+01  0.88015050075E+00 -0.15917215406E+02  0.18726436326E+02  0.00000000000E+00 0. -1.
         11    1    3    3    0    0  0.33004595876E+00 -0.22002543602E+02 -0.13421557822E+02  0.25775163819E+02  0.51100000000E-03 0. -1.
        -11    1    3    3    0    0  0.19088135216E+02  0.97385422220E+01  0.17463528319E+02  0.27643641805E+02  0.51100000000E-03 0.  1.
         12    1    3    3    0    0 -0.95923475560E+01  0.11383850879E+02  0.11875244909E+02  0.19042758049E+02  0.00000000000E+00 0. -1.
</event>
<event>
 7    1  0.1360399E-013  0.7246158E+02  0.7816164E-02  0.1226708E+00
        -11   -1    0    0    0    0  0.00000000000E+00  0.00000000000E+00  0.45593999997E+02  0.45594000000E+02  0.51100000000E-03 0. -1.
         11   -1    0    0    0    0 -0.00000000000E+00 -0.00000000000E+00 -0.45593999997E+02  0.45594000000E+02  0.51100000000E-03 0.  1.
    9900012    2    1    2    0    0  0.57898669685E+01  0.17493231544E+02  0.33381210297E+01  0.72461581192E+02  0.70000014196E+02 0.  0.
         12    1    1    2    0    0 -0.57898669685E+01 -0.17493231544E+02 -0.33381210297E+01  0.18726418808E+02  0.00000000000E+00 0. -1.
         11    1    3    3    0    0 -0.44347972612E+01  0.27680245551E+02 -0.48795031958E+01  0.28454753069E+02  0.51100000000E-03 0. -1.
        -11    1    3    3    0    0  0.11440868096E+02 -0.16824642560E+01  0.23660453283E+02  0.26335170373E+02  0.51100000000E-03 0.  1.
        -12    1    3    3    0    0 -0.12162038659E+01 -0.85045497509E+01 -0.15442829058E+02  0.17671657749E+02  0.00000000000E+00 0.  1.
</event>
<event>
 7    1  0.1360399E-013  0.7246153E+02  0.7816164E-02  0.1226708E+00
        -11   -1    0    0    0    0  0.00000000000E+00  0.00000000000E+00  0.45593999997E+02  0.45594000000E+02  0.51100000000E-03 0.  1.
         11   -1    0    0    0    0 -0.00000000000E+00 -0.00000000000E+00 -0.45593999997E+02  0.45594000000E+02  0.51100000000E-03 0. -1.
    9900012    2    1    2    0    0 -0.77978495434E+00 -0.16405694653E+02  0.89958777413E+01  0.72461529485E+02  0.69999946838E+02 0.  0.
         12    1    1    2    0    0  0.77978495434E+00  0.16405694653E+02 -0.89958777413E+01  0.18726470515E+02  0.00000000000E+00 0. -1.
         11    1    3    3    0    0 -0.36186297467E+01  0.41911672727E+01 -0.25782226202E+01  0.61079944738E+01  0.51100000000E-03 0. -1.
        -11    1    3    3    0    0  0.30674470563E+02 -0.21225264357E+02  0.91348456051E+01  0.38404171594E+02  0.51100000000E-03 0.  1.
        -12    1    3    3    0    0 -0.27835625770E+02  0.62840243213E+00  0.24392547564E+01  0.27949363417E+02  0.00000000000E+00 0.  1.
</event>
<event>
 7    1  0.1360399E-013  0.7246176E+02  0.7816164E-02  0.1226708E+00
        -11   -1    0    0    0    0  0.00000000000E+00  0.00000000000E+00  0.45593999997E+02  0.45594000000E+02  0.51100000000E-03 0. -1.
         11   -1    0    0    0    0 -0.00000000000E+00 -0.00000000000E+00 -0.45593999997E+02  0.45594000000E+02  0.51100000000E-03 0.  1.
    9900012    2    1    2    0    0  0.95123152202E+01  0.65560431381E+01 -0.14737918081E+02  0.72461759805E+02  0.70000246872E+02 0.  0.
         12    1    1    2    0    0 -0.95123152202E+01 -0.65560431381E+01  0.14737918081E+02  0.18726240195E+02  0.00000000000E+00 0. -1.
         11    1    3    3    0    0 -0.21095217177E+01  0.21620198983E+02 -0.28150955889E+02  0.35557831819E+02  0.51100000000E-03 0.  1.
        -11    1    3    3    0    0  0.16581615479E+02 -0.20699765337E+02  0.81883280040E+01  0.27757502998E+02  0.51100000000E-03 0. -1.
         12    1    3    3    0    0 -0.49597785411E+01  0.56356094919E+01  0.52247098045E+01  0.91464249881E+01  0.00000000000E+00 0. -1.
</event>
<event>
 7    1  0.1360399E-013  0.7246146E+02  0.7816164E-02  0.1226708E+00
        -11   -1    0    0    0    0  0.00000000000E+00  0.00000000000E+00  0.45593999997E+02  0.45594000000E+02  0.51100000000E-03 0. -1.
         11   -1    0    0    0    0 -0.00000000000E+00 -0.00000000000E+00 -0.45593999997E+02  0.45594000000E+02  0.51100000000E-03 0.  1.
    9900012    2    1    2    0    0 -0.78114249913E+01  0.11822653380E+02 -0.12242955977E+02  0.72461455621E+02  0.69999850616E+02 0.  0.
         12    1    1    2    0    0  0.78114249913E+01 -0.11822653380E+02  0.12242955977E+02  0.18726544379E+02  0.00000000000E+00 0. -1.
         11    1    3    3    0    0  0.62920750251E+01  0.13909236279E+02  0.15349840779E+02  0.21648895449E+02  0.51100000000E-03 0. -1.
        -11    1    3    3    0    0 -0.24471154963E+02 -0.75891348995E+00 -0.37357889489E+01  0.24766297548E+02  0.51100000000E-03 0.  1.
         12    1    3    3    0    0  0.10367654947E+02 -0.13276694090E+01 -0.23857007807E+02  0.26046262623E+02  0.00000000000E+00 0. -1.
</event>
<event>
 7    1  0.1360399E-013  0.7246158E+02  0.7816164E-02  0.1226708E+00
        -11   -1    0    0    0    0  0.00000000000E+00  0.00000000000E+00  0.45593999997E+02  0.45594000000E+02  0.51100000000E-03 0.  1.
         11   -1    0    0    0    0 -0.00000000000E+00 -0.00000000000E+00 -0.45593999997E+02  0.45594000000E+02  0.51100000000E-03 0. -1.
    9900012    2    1    2    0    0 -0.46371066027E+01 -0.18142772679E+02 -0.12560362990E+00  0.72461581913E+02  0.70000015135E+02 0.  0.
         12    1    1    2    0    0  0.46371066027E+01  0.18142772679E+02  0.12560362990E+00  0.18726418087E+02  0.00000000000E+00 0. -1.
         11    1    3    3    0    0 -0.14766672144E+01  0.25940052472E+02  0.74641473976E+01  0.27032949617E+02  0.51100000000E-03 0. -1.
        -11    1    3    3    0    0  0.22210711701E+01 -0.17026132529E+02 -0.37616124165E+01  0.17577601494E+02  0.51100000000E-03 0.  1.
         12    1    3    3    0    0 -0.53815105584E+01 -0.27056692622E+02 -0.38281386110E+01  0.27851030802E+02  0.00000000000E+00 0. -1.
</event>
<event>
 7    1  0.1360399E-013  0.7246155E+02  0.7816164E-02  0.1226708E+00
        -11   -1    0    0    0    0  0.00000000000E+00  0.00000000000E+00  0.45593999997E+02  0.45594000000E+02  0.51100000000E-03 0. -1.
         11   -1    0    0    0    0 -0.00000000000E+00 -0.00000000000E+00 -0.45593999997E+02  0.45594000000E+02  0.51100000000E-03 0.  1.
    9900012    2    1    2    0    0 -0.14610700726E+02 -0.98808668428E+01 -0.62909361906E+01  0.72461548563E+02  0.69999971691E+02 0.  0.
         12    1    1    2    0    0  0.14610700726E+02  0.98808668428E+01  0.62909361906E+01  0.18726451437E+02  0.00000000000E+00 0. -1.
         11    1    3    3    0    0  0.16497315251E+02 -0.93152648329E+01  0.11175203364E+02  0.21995925530E+02  0.51100000000E-03 0. -1.
        -11    1    3    3    0    0 -0.15709829255E+02 -0.24009372140E+01 -0.27665290091E+02  0.31905038956E+02  0.51100000000E-03 0.  1.
        -12    1    3    3    0    0 -0.15398186722E+02  0.18353352042E+01  0.10199150536E+02  0.18560584078E+02  0.00000000000E+00 0.  1.
</event>
<event>
 7    1  0.1360399E-013  0.7246150E+02  0.7816164E-02  0.1226708E+00
        -11   -1    0    0    0    0  0.00000000000E+00  0.00000000000E+00  0.45593999997E+02  0.45594000000E+02  0.51100000000E-03 0.  1.
         11   -1    0    0    0    0 -0.00000000000E+00 -0.00000000000E+00 -0.45593999997E+02  0.45594000000E+02  0.51100000000E-03 0. -1.
    9900012    2    1    2    0    0  0.15114660663E+02  0.48690568983E+01  0.99257803019E+01  0.72461500150E+02  0.69999908624E+02 0.  0.
         12    1    1    2    0    0 -0.15114660663E+02 -0.48690568983E+01 -0.99257803019E+01  0.18726499850E+02  0.00000000000E+00 0. -1.
         11    1    3    3    0    0  0.12928057798E+02  0.27930745056E+02  0.67005927325E+01  0.31498557761E+02  0.51100000000E-03 0. -1.
        -11    1    3    3    0    0 -0.99507251110E+01 -0.19909255372E+02  0.12350161016E+02  0.25454309205E+02  0.51100000000E-03 0.  1.
         12    1    3    3    0    0  0.12137327976E+02 -0.31524327852E+01 -0.91249734464E+01  0.15508633185E+02  0.00000000000E+00 0. -1.
</event>
<event>
 7    1  0.1360399E-013  0.7246154E+02  0.7816164E-02  0.1226708E+00
        -11   -1    0    0    0    0  0.00000000000E+00  0.00000000000E+00  0.45593999997E+02  0.45594000000E+02  0.51100000000E-03 0. -1.
         11   -1    0    0    0    0 -0.00000000000E+00 -0.00000000000E+00 -0.45593999997E+02  0.45594000000E+02  0.51100000000E-03 0.  1.
    9900012    2    1    2    0    0 -0.56393530566E+01 -0.11300687456E+02  0.13826506804E+02  0.72461544642E+02  0.69999966583E+02 0.  0.
         12    1    1    2    0    0  0.56393530566E+01  0.11300687456E+02 -0.13826506804E+02  0.18726455358E+02  0.00000000000E+00 0. -1.
         11    1    3    3    0    0 -0.70146297182E+01  0.52710699829E+01  0.32629889275E+02  0.33789034956E+02  0.51100000000E-03 0. -1.
        -11    1    3    3    0    0 -0.11942557333E+02 -0.16560584383E+02 -0.12480729017E+02  0.23930027744E+02  0.51100000000E-03 0.  1.
        -12    1    3    3    0    0  0.13317833994E+02 -0.11173055274E-01 -0.63226534536E+01  0.14742481943E+02  0.00000000000E+00 0.  1.
</event>
<event>
 7    1  0.1360399E-013  0.7246155E+02  0.7816164E-02  0.1226708E+00
        -11   -1    0    0    0    0  0.00000000000E+00  0.00000000000E+00  0.45593999997E+02  0.45594000000E+02  0.51100000000E-03 0. -1.
         11   -1    0    0    0    0 -0.00000000000E+00 -0.00000000000E+00 -0.45593999997E+02  0.45594000000E+02  0.51100000000E-03 0.  1.
    9900012    2    1    2    0    0 -0.29648617045E+01 -0.17530715059E+02 -0.58790742364E+01  0.72461551076E+02  0.69999974965E+02 0.  0.
         12    1    1    2    0    0  0.29648617045E+01  0.17530715059E+02  0.58790742364E+01  0.18726448924E+02  0.00000000000E+00 0. -1.
         11    1    3    3    0    0 -0.12644664877E+02 -0.10992091841E+02  0.13421975687E+02  0.21467721455E+02  0.51100000000E-03 0. -1.
        -11    1    3    3    0    0  0.20381543208E+02 -0.17985828304E+02 -0.22152361300E+02  0.35066001123E+02  0.51100000000E-03 0.  1.
        -12    1    3    3    0    0 -0.10701740036E+02  0.11447205086E+02  0.28513113771E+01  0.15927828497E+02  0.00000000000E+00 0.  1.
</event>
<event>
 7    1  0.1360399E-013  0.7246163E+02  0.7816164E-02  0.1226708E+00
        -11   -1    0    0    0    0  0.00000000000E+00  0.00000000000E+00  0.45593999997E+02  0.45594000000E+02  0.51100000000E-03 0.  1.
         11   -1    0    0    0    0 -0.00000000000E+00 -0.00000000000E+00 -0.45593999997E+02  0.45594000000E+02  0.51100000000E-03 0. -1.
    9900012    2    1    2    0    0  0.18345244453E+02  0.37141069565E+01  0.57821151303E+00  0.72461630542E+02  0.70000078483E+02 0.  0.
         12    1    1    2    0    0 -0.18345244453E+02 -0.37141069565E+01 -0.57821151303E+00  0.18726369458E+02  0.00000000000E+00 0. -1.
         11    1    3    3    0    0 -0.15545376089E+02  0.16855202317E+02 -0.28561886691E+01  0.23106587305E+02  0.51100000000E-03 0. -1.
        -11    1    3    3    0    0  0.23916095974E+02 -0.98933385899E+01 -0.13685354807E+02  0.29277068357E+02  0.51100000000E-03 0.  1.
         12    1    3    3    0    0  0.99745245683E+01 -0.32477567707E+01  0.17119754989E+02  0.20077974880E+02  0.00000000000E+00 0. -1.
</event>
<event>
 7    1  0.1360399E-013  0.7246155E+02  0.7816164E-02  0.1226708E+00
        -11   -1    0    0    0    0  0.00000000000E+00  0.00000000000E+00  0.45593999997E+02  0.45594000000E+02  0.51100000000E-03 0. -1.
         11   -1    0    0    0    0 -0.00000000000E+00 -0.00000000000E+00 -0.45593999997E+02  0.45594000000E+02  0.51100000000E-03 0.  1.
    9900012    2    1    2    0    0 -0.17022943436E+02  0.17818162625E+01 -0.75976585992E+01  0.72461551095E+02  0.69999974989E+02 0.  0.
         12    1    1    2    0    0  0.17022943436E+02 -0.17818162625E+01  0.75976585992E+01  0.18726448905E+02  0.00000000000E+00 0. -1.
         11    1    3    3    0    0 -0.51857329448E+01 -0.14479652086E+02 -0.30655583630E+02  0.34297477439E+02  0.51100000000E-03 0.  1.
        -11    1    3    3    0    0  0.93305650173E+00  0.17177914294E+02  0.16244750902E+02  0.23661007292E+02  0.51100000000E-03 0. -1.
        -12    1    3    3    0    0 -0.12770266993E+02 -0.91644594575E+00  0.68131741287E+01  0.14503066364E+02  0.00000000000E+00 0.  1.
</event>
<event>
 7    1  0.1360399E-013  0.7246159E+02  0.7816164E-02  0.1226708E+00
        -11   -1    0    0    0    0  0.00000000000E+00  0.00000000000E+00  0.45593999997E+02  0.45594000000E+02  0.51100000000E-03 0. -1.
         11   -1    0    0    0    0 -0.00000000000E+00 -0.00000000000E+00 -0.45593999997E+02  0.45594000000E+02  0.51100000000E-03 0.  1.
    9900012    2    1    2    0    0 -0.25070961087E+01  0.15419320842E+00 -0.18557182464E+02  0.72461592778E+02  0.70000029289E+02 0.  0.
         12    1    1    2    0    0  0.25070961087E+01 -0.15419320842E+00  0.18557182464E+02  0.18726407222E+02  0.00000000000E+00 0. -1.
         11    1    3    3    0    0 -0.20236619495E+02 -0.10825228871E+02  0.17540682242E+02  0.28885669154E+02  0.51100000000E-03 0. -1.
        -11    1    3    3    0    0 -0.55306404902E+00  0.48008921232E+01 -0.48327390126E+01  0.68344576702E+01  0.51100000000E-03 0.  1.
         12    1    3    3    0    0  0.18282587435E+02  0.61785299560E+01 -0.31265125694E+02  0.36741465953E+02  0.00000000000E+00 0. -1.
</event>
<event>
 7    1  0.1360399E-013  0.7246165E+02  0.7816164E-02  0.1226708E+00
        -11   -1    0    0    0    0  0.00000000000E+00  0.00000000000E+00  0.45593999997E+02  0.45594000000E+02  0.51100000000E-03 0. -1.
         11   -1    0    0    0    0 -0.00000000000E+00 -0.00000000000E+00 -0.45593999997E+02  0.45594000000E+02  0.51100000000E-03 0.  1.
    9900012    2    1    2    0    0  0.48375349388E+01 -0.17637241504E+02  0.40251945297E+01  0.72461648964E+02  0.70000102481E+02 0.  0.
         12    1    1    2    0    0 -0.48375349388E+01  0.17637241504E+02 -0.40251945297E+01  0.18726351036E+02  0.00000000000E+00 0. -1.
         11    1    3    3    0    0 -0.24529136429E+02 -0.19051277678E+02 -0.38585423235E+00  0.31060885352E+02  0.51100000000E-03 0. -1.
        -11    1    3    3    0    0  0.15587553343E+02  0.14802176411E+02  0.53977465845E+01  0.22163301067E+02  0.51100000000E-03 0.  1.
        -12    1    3    3    0    0  0.13779118025E+02 -0.13388140237E+02 -0.98669782249E+00  0.19237462545E+02  0.00000000000E+00 0.  1.
</event>
<event>
 7    1  0.1360399E-013  0.7246159E+02  0.7816164E-02  0.1226708E+00
        -11   -1    0    0    0    0  0.00000000000E+00  0.00000000000E+00  0.45593999997E+02  0.45594000000E+02  0.51100000000E-03 0. -1.
         11   -1    0    0    0    0 -0.00000000000E+00 -0.00000000000E+00 -0.45593999997E+02  0.45594000000E+02  0.51100000000E-03 0.  1.
    9900012    2    1    2    0    0 -0.17935819645E+01  0.18605970019E+02  0.11310358927E+01  0.72461593543E+02  0.70000030285E+02 0.  0.
         12    1    1    2    0    0  0.17935819645E+01 -0.18605970019E+02 -0.11310358927E+01  0.18726406457E+02  0.00000000000E+00 0. -1.
         11    1    3    3    0    0 -0.20929547658E+02  0.15772801671E+02  0.16248451630E+02  0.30835684172E+02  0.51100000000E-03 0. -1.
        -11    1    3    3    0    0  0.22071805247E+01  0.10693112576E+02 -0.19595208281E+02  0.22431818702E+02  0.51100000000E-03 0.  1.
         12    1    3    3    0    0  0.16928785169E+02 -0.78599442276E+01  0.44777925436E+01  0.19194090669E+02  0.00000000000E+00 0. -1.
</event>
<event>
 7    1  0.1360399E-013  0.7246158E+02  0.7816164E-02  0.1226708E+00
        -11   -1    0    0    0    0  0.00000000000E+00  0.00000000000E+00  0.45593999997E+02  0.45594000000E+02  0.51100000000E-03 0.  1.
         11   -1    0    0    0    0 -0.00000000000E+00 -0.00000000000E+00 -0.45593999997E+02  0.45594000000E+02  0.51100000000E-03 0. -1.
    9900012    2    1    2    0    0 -0.10070127836E+01 -0.16985627581E+02  0.78200501763E+01  0.72461580058E+02  0.70000012720E+02 0.  0.
         12    1    1    2    0    0  0.10070127836E+01  0.16985627581E+02 -0.78200501763E+01  0.18726419942E+02  0.00000000000E+00 0. -1.
         11    1    3    3    0    0 -0.14702555709E+02  0.24197332152E+01 -0.21748297357E+02  0.26363017495E+02  0.51100000000E-03 0. -1.
        -11    1    3    3    0    0  0.90406989545E+01  0.19441946724E+01  0.20407369049E+02  0.22404795073E+02  0.51100000000E-03 0.  1.
        -12    1    3    3    0    0  0.46548439711E+01 -0.21349555469E+02  0.91609784847E+01  0.23693767491E+02  0.00000000000E+00 0.  1.
</event>
<event>
 7    1  0.1360399E-013  0.7246160E+02  0.7816164E-02  0.1226708E+00
        -11   -1    0    0    0    0  0.00000000000E+00  0.00000000000E+00  0.45593999997E+02  0.45594000000E+02  0.51100000000E-03 0.  1.
         11   -1    0    0    0    0 -0.00000000000E+00 -0.00000000000E+00 -0.45593999997E+02  0.45594000000E+02  0.51100000000E-03 0. -1.
    9900012    2    1    2    0    0  0.13632832777E+02 -0.56784930282E+01  0.11514277671E+02  0.72461601444E+02  0.70000040578E+02 0.  0.
         12    1    1    2    0    0 -0.13632832777E+02  0.56784930282E+01 -0.11514277671E+02  0.18726398556E+02  0.00000000000E+00 0. -1.
         11    1    3    3    0    0 -0.27524765601E+01  0.17374225473E+02  0.24463857009E+02  0.30131713161E+02  0.51100000000E-03 0. -1.
        -11    1    3    3    0    0  0.14313133061E+02 -0.19130521317E+02  0.45111726675E+01  0.24314466948E+02  0.51100000000E-03 0.  1.
         12    1    3    3    0    0  0.20721762763E+01 -0.39221971845E+01 -0.17460752005E+02  0.18015421335E+02  0.00000000000E+00 0. -1.
</event>
<event>
 7    1  0.1360399E-013  0.7246145E+02  0.7816164E-02  0.1226708E+00
        -11   -1    0    0    0    0  0.00000000000E+00  0.00000000000E+00  0.45593999997E+02  0.45594000000E+02  0.51100000000E-03 0.  1.
         11   -1    0    0    0    0 -0.00000000000E+00 -0.00000000000E+00 -0.45593999997E+02  0.45594000000E+02  0.51100000000E-03 0. -1.
    9900012    2    1    2    0    0  0.16894319921E+02  0.65762967773E+01  0.46923195893E+01  0.72461452320E+02  0.69999846316E+02 0.  0.
         12    1    1    2    0    0 -0.16894319921E+02 -0.65762967773E+01 -0.46923195893E+01  0.18726547680E+02  0.00000000000E+00 0. -1.
         11    1    3    3    0    0  0.20300184739E+01 -0.30421954508E+02  0.74051381626E+01  0.31375983850E+02  0.51100000000E-03 0. -1.
        -11    1    3    3    0    0  0.10232615727E+02  0.33900406555E+02 -0.26920522807E+01  0.35513252948E+02  0.51100000000E-03 0.  1.
         12    1    3    3    0    0  0.46316857198E+01  0.30978447306E+01 -0.20766292649E-01  0.55722155217E+01  0.00000000000E+00 0. -1.
</event>
<event>
 7    1  0.1360399E-013  0.7246156E+02  0.7816164E-02  0.1226708E+00
        -11   -1    0    0    0    0  0.00000000000E+00  0.00000000000E+00  0.45593999997E+02  0.45594000000E+02  0.51100000000E-03 0.  1.
         11   -1    0    0    0    0 -0.00000000000E+00 -0.00000000000E+00 -0.45593999997E+02  0.45594000000E+02  0.51100000000E-03 0. -1.
    9900012    2    1    2    0    0  0.17989397050E+02  0.49938824769E+01 -0.14567618630E+01  0.72461563512E+02  0.69999991165E+02 0.  0.
         12    1    1    2    0    0 -0.17989397050E+02 -0.49938824769E+01  0.14567618630E+01  0.18726436488E+02  0.00000000000E+00 0. -1.
         11    1    3    3    0    0  0.18640024046E+02 -0.13211733831E+02  0.15723424492E+02  0.27734932581E+02  0.51100000000E-03 0.  1.
        -11    1    3    3    0    0 -0.12441352605E+02  0.43949249817E+01 -0.22254227475E+02  0.25871862341E+02  0.51100000000E-03 0. -1.
         12    1    3    3    0    0  0.11790725609E+02  0.13810691326E+02  0.50740411205E+01  0.18854768590E+02  0.00000000000E+00 0. -1.
</event>
<event>
 7    1  0.1360399E-013  0.7246160E+02  0.7816164E-02  0.1226708E+00
        -11   -1    0    0    0    0  0.00000000000E+00  0.00000000000E+00  0.45593999997E+02  0.45594000000E+02  0.51100000000E-03 0.  1.
         11   -1    0    0    0    0 -0.00000000000E+00 -0.00000000000E+00 -0.45593999997E+02  0.45594000000E+02  0.51100000000E-03 0. -1.
    9900012    2    1    2    0    0  0.14768222002E+02 -0.49554681161E+01  0.10393318776E+02  0.72461598303E+02  0.70000036486E+02 0.  0.
         12    1    1    2    0    0 -0.14768222002E+02  0.49554681161E+01 -0.10393318776E+02  0.18726401697E+02  0.00000000000E+00 0. -1.
         11    1    3    3    0    0  0.95819631783E+01 -0.35406103123E+02  0.48112405006E+01  0.36993975078E+02  0.51100000000E-03 0. -1.
        -11    1    3    3    0    0  0.48442597029E+01  0.13272463697E+02  0.10491733143E+02  0.17598341094E+02  0.51100000000E-03 0.  1.
         12    1    3    3    0    0  0.34199912039E+00  0.17178171310E+02 -0.49096548677E+01  0.17869282131E+02  0.00000000000E+00 0. -1.
</event>
<event>
 7    1  0.1360399E-013  0.7246158E+02  0.7816164E-02  0.1226708E+00
        -11   -1    0    0    0    0  0.00000000000E+00  0.00000000000E+00  0.45593999997E+02  0.45594000000E+02  0.51100000000E-03 0.  1.
         11   -1    0    0    0    0 -0.00000000000E+00 -0.00000000000E+00 -0.45593999997E+02  0.45594000000E+02  0.51100000000E-03 0. -1.
    9900012    2    1    2    0    0 -0.33066939458E+00 -0.93434091249E+01 -0.16225608033E+02  0.72461575025E+02  0.70000006162E+02 0.  0.
         12    1    1    2    0    0  0.33066939458E+00  0.93434091249E+01  0.16225608033E+02  0.18726424975E+02  0.00000000000E+00 0. -1.
         11    1    3    3    0    0  0.40392186443E+01  0.42562563395E+01 -0.19379428426E+02  0.20248290092E+02  0.51100000000E-03 0. -1.
        -11    1    3    3    0    0 -0.26355738932E+02 -0.10588325028E+02 -0.44624536484E+01  0.28751540730E+02  0.51100000000E-03 0.  1.
        -12    1    3    3    0    0  0.21985850893E+02 -0.30113404360E+01  0.76162740418E+01  0.23461744202E+02  0.00000000000E+00 0.  1.
</event>
<event>
 7    1  0.1360399E-013  0.7246181E+02  0.7816164E-02  0.1226707E+00
        -11   -1    0    0    0    0  0.00000000000E+00  0.00000000000E+00  0.45593999997E+02  0.45594000000E+02  0.51100000000E-03 0.  1.
         11   -1    0    0    0    0 -0.00000000000E+00 -0.00000000000E+00 -0.45593999997E+02  0.45594000000E+02  0.51100000000E-03 0. -1.
    9900012    2    1    2    0    0 -0.18498959306E+02 -0.15215422798E+01  0.24786325147E+01  0.72461809639E+02  0.70000311790E+02 0.  0.
         12    1    1    2    0    0  0.18498959306E+02  0.15215422798E+01 -0.24786325147E+01  0.18726190361E+02  0.00000000000E+00 0. -1.
         11    1    3    3    0    0 -0.14446454771E+02  0.24826296227E+01 -0.48134223838E+01  0.15428303232E+02  0.51100000000E-03 0. -1.
        -11    1    3    3    0    0  0.45501743869E+01 -0.27531652906E+02 -0.61923661009E+01  0.28583935994E+02  0.51100000000E-03 0.  1.
        -12    1    3    3    0    0 -0.86026789213E+01  0.23527481004E+02  0.13484420999E+02  0.28449570413E+02  0.00000000000E+00 0.  1.
</event>
<event>
 7    1  0.1360399E-013  0.7246154E+02  0.7816164E-02  0.1226708E+00
        -11   -1    0    0    0    0  0.00000000000E+00  0.00000000000E+00  0.45593999997E+02  0.45594000000E+02  0.51100000000E-03 0.  1.
         11   -1    0    0    0    0 -0.00000000000E+00 -0.00000000000E+00 -0.45593999997E+02  0.45594000000E+02  0.51100000000E-03 0. -1.
    9900012    2    1    2    0    0  0.46877505586E+01  0.32748068441E+01  0.17832018637E+02  0.72461541343E+02  0.69999962285E+02 0.  0.
         12    1    1    2    0    0 -0.46877505586E+01 -0.32748068441E+01 -0.17832018637E+02  0.18726458657E+02  0.00000000000E+00 0. -1.
         11    1    3    3    0    0 -0.36197521390E+01  0.22697766729E+02  0.71299119816E+01  0.24065054855E+02  0.51100000000E-03 0.  1.
        -11    1    3    3    0    0  0.87491271960E+01 -0.30406488336E+02  0.16802343671E+02  0.35824858866E+02  0.51100000000E-03 0. -1.
         12    1    3    3    0    0 -0.44162449845E+00  0.10983528451E+02 -0.61002370155E+01  0.12571627623E+02  0.00000000000E+00 0. -1.
</event>
<event>
 7    1  0.1360399E-013  0.7246153E+02  0.7816164E-02  0.1226708E+00
        -11   -1    0    0    0    0  0.00000000000E+00  0.00000000000E+00  0.45593999997E+02  0.45594000000E+02  0.51100000000E-03 0.  1.
         11   -1    0    0    0    0 -0.00000000000E+00 -0.00000000000E+00 -0.45593999997E+02  0.45594000000E+02  0.51100000000E-03 0. -1.
    9900012    2    1    2    0    0 -0.12631129470E+02 -0.77618260412E+01 -0.11440691815E+02  0.72461526643E+02  0.69999943137E+02 0.  0.
         12    1    1    2    0    0  0.12631129470E+02  0.77618260412E+01  0.11440691815E+02  0.18726473357E+02  0.00000000000E+00 0. -1.
         11    1    3    3    0    0  0.10505106932E+02  0.21069624413E+02  0.11887126832E+02  0.26374042715E+02  0.51100000000E-03 0.  1.
        -11    1    3    3    0    0 -0.12653167435E+02 -0.25892718073E+02 -0.15982525144E+02  0.32954159155E+02  0.51100000000E-03 0. -1.
        -12    1    3    3    0    0 -0.10483068966E+02 -0.29387323815E+01 -0.73452935029E+01  0.13133324774E+02  0.00000000000E+00 0.  1.
</event>
<event>
 7    1  0.1360399E-013  0.7246149E+02  0.7816164E-02  0.1226708E+00
        -11   -1    0    0    0    0  0.00000000000E+00  0.00000000000E+00  0.45593999997E+02  0.45594000000E+02  0.51100000000E-03 0.  1.
         11   -1    0    0    0    0 -0.00000000000E+00 -0.00000000000E+00 -0.45593999997E+02  0.45594000000E+02  0.51100000000E-03 0. -1.
    9900012    2    1    2    0    0 -0.10543554780E+02 -0.62636310596E+01  0.14152123487E+02  0.72461488829E+02  0.69999893876E+02 0.  0.
         12    1    1    2    0    0  0.10543554780E+02  0.62636310596E+01 -0.14152123487E+02  0.18726511171E+02  0.00000000000E+00 0. -1.
         11    1    3    3    0    0 -0.55503129206E+01  0.23014713885E+02 -0.44625604055E+01  0.24091439856E+02  0.51100000000E-03 0. -1.
        -11    1    3    3    0    0 -0.16769033591E+02 -0.11500189895E+02  0.17809787938E+02  0.27030416235E+02  0.51100000000E-03 0.  1.
        -12    1    3    3    0    0  0.11775791732E+02 -0.17778155050E+02  0.80489595501E+00  0.21339632738E+02  0.00000000000E+00 0.  1.
</event>
<event>
 7    1  0.1360399E-013  0.7246162E+02  0.7816164E-02  0.1226708E+00
        -11   -1    0    0    0    0  0.00000000000E+00  0.00000000000E+00  0.45593999997E+02  0.45594000000E+02  0.51100000000E-03 0.  1.
         11   -1    0    0    0    0 -0.00000000000E+00 -0.00000000000E+00 -0.45593999997E+02  0.45594000000E+02  0.51100000000E-03 0. -1.
    9900012    2    1    2    0    0  0.17725994310E+02  0.95932826571E+00  0.59620434566E+01  0.72461624292E+02  0.70000070342E+02 0.  0.
         12    1    1    2    0    0 -0.17725994310E+02 -0.95932826571E+00 -0.59620434566E+01  0.18726375708E+02  0.00000000000E+00 0. -1.
         11    1    3    3    0    0 -0.20145834750E+02  0.83557934605E+01 -0.12926182508E+02  0.25352714581E+02  0.51100000000E-03 0. -1.
        -11    1    3    3    0    0  0.32463469435E+01  0.15260793979E+01  0.94789475153E+01  0.10134995464E+02  0.51100000000E-03 0.  1.
         12    1    3    3    0    0  0.34625482116E+02 -0.89225445927E+01  0.94092784492E+01  0.36973914247E+02  0.00000000000E+00 0. -1.
</event>
<event>
 7    1  0.1360399E-013  0.7246098E+02  0.7816164E-02  0.1226710E+00
        -11   -1    0    0    0    0  0.00000000000E+00  0.00000000000E+00  0.45593999997E+02  0.45594000000E+02  0.51100000000E-03 0.  1.
         11   -1    0    0    0    0 -0.00000000000E+00 -0.00000000000E+00 -0.45593999997E+02  0.45594000000E+02  0.51100000000E-03 0. -1.
    9900012    2    1    2    0    0  0.42597520380E+01  0.81671890439E+01  0.16304988242E+02  0.72460984598E+02  0.69999237018E+02 0.  0.
         12    1    1    2    0    0 -0.42597520380E+01 -0.81671890439E+01 -0.16304988242E+02  0.18727015402E+02  0.00000000000E+00 0. -1.
         11    1    3    3    0    0 -0.11045301054E+02  0.67930878643E+01 -0.12549820475E+02  0.18045573206E+02  0.51100000000E-03 0. -1.
        -11    1    3    3    0    0  0.48651453806E+01 -0.20847838412E+02  0.15809157615E+02  0.26612618638E+02  0.51100000000E-03 0.  1.
         12    1    3    3    0    0  0.10439907712E+02  0.22221939591E+02  0.13045651102E+02  0.27802792754E+02  0.00000000000E+00 0. -1.
</event>
<event>
 7    1  0.1360399E-013  0.7246148E+02  0.7816164E-02  0.1226708E+00
        -11   -1    0    0    0    0  0.00000000000E+00  0.00000000000E+00  0.45593999997E+02  0.45594000000E+02  0.51100000000E-03 0. -1.
         11   -1    0    0    0    0 -0.00000000000E+00 -0.00000000000E+00 -0.45593999997E+02  0.45594000000E+02  0.51100000000E-03 0.  1.
    9900012    2    1    2    0    0 -0.13176774716E+02 -0.19155356600E+01 -0.13167600294E+02  0.72461484940E+02  0.69999888810E+02 0.  0.
         12    1    1    2    0    0  0.13176774716E+02  0.19155356600E+01  0.13167600294E+02  0.18726515060E+02  0.00000000000E+00 0. -1.
         11    1    3    3    0    0 -0.17825295588E+02 -0.88295138636E+01 -0.63264582934E+01  0.20874040161E+02  0.51100000000E-03 0. -1.
        -11    1    3    3    0    0  0.39447914718E+01  0.80541745556E+01  0.21457917303E+02  0.23256683400E+02  0.51100000000E-03 0.  1.
        -12    1    3    3    0    0  0.70372940003E+00 -0.11401963521E+01 -0.28299059304E+02  0.28330761379E+02  0.00000000000E+00 0.  1.
</event>
<event>
 7    1  0.1360399E-013  0.7246157E+02  0.7816164E-02  0.1226708E+00
        -11   -1    0    0    0    0  0.00000000000E+00  0.00000000000E+00  0.45593999997E+02  0.45594000000E+02  0.51100000000E-03 0.  1.
         11   -1    0    0    0    0 -0.00000000000E+00 -0.00000000000E+00 -0.45593999997E+02  0.45594000000E+02  0.51100000000E-03 0. -1.
    9900012    2    1    2    0    0  0.10443309248E+02  0.49385435091E+01  0.14738629077E+02  0.72461571961E+02  0.70000002171E+02 0.  0.
         12    1    1    2    0    0 -0.10443309248E+02 -0.49385435091E+01 -0.14738629077E+02  0.18726428039E+02  0.00000000000E+00 0. -1.
         11    1    3    3    0    0  0.21044057160E+02  0.69653626196E+01  0.29332090931E+02  0.36766019322E+02  0.51100000000E-03 0.  1.
        -11    1    3    3    0    0 -0.19590062851E+02 -0.31616409676E+01 -0.16719222007E+01  0.19913861008E+02  0.51100000000E-03 0. -1.
         12    1    3    3    0    0  0.89893149393E+01  0.11348218571E+01 -0.12921539653E+02  0.15781691631E+02  0.00000000000E+00 0. -1.
</event>
<event>
 7    1  0.1360399E-013  0.7246155E+02  0.7816164E-02  0.1226708E+00
        -11   -1    0    0    0    0  0.00000000000E+00  0.00000000000E+00  0.45593999997E+02  0.45594000000E+02  0.51100000000E-03 0. -1.
         11   -1    0    0    0    0 -0.00000000000E+00 -0.00000000000E+00 -0.45593999997E+02  0.45594000000E+02  0.51100000000E-03 0.  1.
    9900012    2    1    2    0    0 -0.11083908600E+02 -0.12629469531E+02  0.82657901275E+01  0.72461553008E+02  0.69999977482E+02 0.  0.
         12    1    1    2    0    0  0.11083908600E+02  0.12629469531E+02 -0.82657901275E+01  0.18726446992E+02  0.00000000000E+00 0. -1.
         11    1    3    3    0    0  0.11252955432E+02 -0.21196200227E+02  0.11809698071E+02  0.26746530220E+02  0.51100000000E-03 0. -1.
        -11    1    3    3    0    0 -0.30427634510E+02  0.10415291536E+02  0.63702588500E+01  0.32785659026E+02  0.51100000000E-03 0.  1.
         12    1    3    3    0    0  0.80907704780E+01 -0.18485608406E+01 -0.99141667936E+01  0.12929363763E+02  0.00000000000E+00 0. -1.
</event>
<event>
 7    1  0.1360399E-013  0.7246168E+02  0.7816164E-02  0.1226708E+00
        -11   -1    0    0    0    0  0.00000000000E+00  0.00000000000E+00  0.45593999997E+02  0.45594000000E+02  0.51100000000E-03 0.  1.
         11   -1    0    0    0    0 -0.00000000000E+00 -0.00000000000E+00 -0.45593999997E+02  0.45594000000E+02  0.51100000000E-03 0. -1.
    9900012    2    1    2    0    0  0.12015285884E+02 -0.40864584560E+01  0.13769852766E+02  0.72461679411E+02  0.70000142145E+02 0.  0.
         12    1    1    2    0    0 -0.12015285884E+02  0.40864584560E+01 -0.13769852766E+02  0.18726320589E+02  0.00000000000E+00 0. -1.
         11    1    3    3    0    0  0.13734898582E+02  0.15323990964E+02 -0.11850887577E+02  0.23746908740E+02  0.51100000000E-03 0. -1.
        -11    1    3    3    0    0 -0.89094311783E+01 -0.68054269373E+01  0.31211263493E+02  0.33163756856E+02  0.51100000000E-03 0.  1.
        -12    1    3    3    0    0  0.71898184806E+01 -0.12605022483E+02 -0.55905231504E+01  0.15551013815E+02  0.00000000000E+00 0.  1.
</event>
<event>
 7    1  0.1360399E-013  0.7246161E+02  0.7816164E-02  0.1226708E+00
        -11   -1    0    0    0    0  0.00000000000E+00  0.00000000000E+00  0.45593999997E+02  0.45594000000E+02  0.51100000000E-03 0.  1.
         11   -1    0    0    0    0 -0.00000000000E+00 -0.00000000000E+00 -0.45593999997E+02  0.45594000000E+02  0.51100000000E-03 0. -1.
    9900012    2    1    2    0    0 -0.96908387073E+01  0.62273868954E+01  0.14764318736E+02  0.72461606591E+02  0.70000047283E+02 0.  0.
         12    1    1    2    0    0  0.96908387073E+01 -0.62273868954E+01 -0.14764318736E+02  0.18726393409E+02  0.00000000000E+00 0. -1.
         11    1    3    3    0    0 -0.25910158626E+02  0.19227307840E+02 -0.33275105220E+01  0.32436060386E+02  0.51100000000E-03 0. -1.
        -11    1    3    3    0    0  0.12515848062E+02 -0.89877482091E+01  0.26114258583E+02  0.30321289091E+02  0.51100000000E-03 0.  1.
         12    1    3    3    0    0  0.37034718573E+01 -0.40121727356E+01 -0.80224293248E+01  0.97042571138E+01  0.00000000000E+00 0. -1.
</event>
<event>
 7    1  0.1360399E-013  0.7246152E+02  0.7816164E-02  0.1226708E+00
        -11   -1    0    0    0    0  0.00000000000E+00  0.00000000000E+00  0.45593999997E+02  0.45594000000E+02  0.51100000000E-03 0.  1.
         11   -1    0    0    0    0 -0.00000000000E+00 -0.00000000000E+00 -0.45593999997E+02  0.45594000000E+02  0.51100000000E-03 0. -1.
    9900012    2    1    2    0    0  0.41635745782E+01 -0.64915297334E+00  0.18246209277E+02  0.72461523934E+02  0.69999939607E+02 0.  0.
         12    1    1    2    0    0 -0.41635745782E+01  0.64915297334E+00 -0.18246209277E+02  0.18726476066E+02  0.00000000000E+00 0. -1.
         11    1    3    3    0    0  0.64735048659E+01 -0.71124682196E+01 -0.27807886825E+01  0.10011306377E+02  0.51100000000E-03 0. -1.
        -11    1    3    3    0    0 -0.29452011871E+02  0.97574150204E+01  0.14956968267E+02  0.34443272945E+02  0.51100000000E-03 0.  1.
        -12    1    3    3    0    0  0.27142081584E+02 -0.32940997741E+01  0.60700296933E+01  0.28006944612E+02  0.00000000000E+00 0.  1.
</event>
<event>
 7    1  0.1360399E-013  0.7246161E+02  0.7816164E-02  0.1226708E+00
        -11   -1    0    0    0    0  0.00000000000E+00  0.00000000000E+00  0.45593999997E+02  0.45594000000E+02  0.51100000000E-03 0.  1.
         11   -1    0    0    0    0 -0.00000000000E+00 -0.00000000000E+00 -0.45593999997E+02  0.45594000000E+02  0.51100000000E-03 0. -1.
    9900012    2    1    2    0    0 -0.53747425019E+01 -0.82807826626E+01  0.15912838856E+02  0.72461610627E+02  0.70000052541E+02 0.  0.
         12    1    1    2    0    0  0.53747425019E+01  0.82807826626E+01 -0.15912838856E+02  0.18726389373E+02  0.00000000000E+00 0. -1.
         11    1    3    3    0    0  0.83529669676E+01  0.66922148052E+00  0.80100717925E+01  0.11592289029E+02  0.51100000000E-03 0. -1.
        -11    1    3    3    0    0 -0.25802415118E+02  0.14857091823E+02  0.14870137917E+02  0.33280907519E+02  0.51100000000E-03 0.  1.
        -12    1    3    3    0    0  0.12074705649E+02 -0.23807095966E+02 -0.69673708530E+01  0.27588414080E+02  0.00000000000E+00 0.  1.
</event>
<event>
 7    1  0.1360399E-013  0.7246156E+02  0.7816164E-02  0.1226708E+00
        -11   -1    0    0    0    0  0.00000000000E+00  0.00000000000E+00  0.45593999997E+02  0.45594000000E+02  0.51100000000E-03 0.  1.
         11   -1    0    0    0    0 -0.00000000000E+00 -0.00000000000E+00 -0.45593999997E+02  0.45594000000E+02  0.51100000000E-03 0. -1.
    9900012    2    1    2    0    0  0.26625863824E+01 -0.48036308103E+01  0.17902942368E+02  0.72461559318E+02  0.69999985701E+02 0.  0.
         12    1    1    2    0    0 -0.26625863824E+01  0.48036308103E+01 -0.17902942368E+02  0.18726440682E+02  0.00000000000E+00 0. -1.
         11    1    3    3    0    0  0.14165546012E+02 -0.35141485654E+01 -0.19493600050E+02  0.24351845457E+02  0.51100000000E-03 0. -1.
        -11    1    3    3    0    0  0.18627871163E+01  0.28643960795E+01  0.33371687782E+02  0.33546151589E+02  0.51100000000E-03 0.  1.
         12    1    3    3    0    0 -0.13365746746E+02 -0.41538783243E+01  0.40248546362E+01  0.14563562272E+02  0.00000000000E+00 0. -1.
</event>
<event>
 7    1  0.1360399E-013  0.7246158E+02  0.7816164E-02  0.1226708E+00
        -11   -1    0    0    0    0  0.00000000000E+00  0.00000000000E+00  0.45593999997E+02  0.45594000000E+02  0.51100000000E-03 0.  1.
         11   -1    0    0    0    0 -0.00000000000E+00 -0.00000000000E+00 -0.45593999997E+02  0.45594000000E+02  0.51100000000E-03 0. -1.
    9900012    2    1    2    0    0 -0.57445005091E+01  0.15891706195E+01  0.17752579847E+02  0.72461579077E+02  0.70000011441E+02 0.  0.
         12    1    1    2    0    0  0.57445005091E+01 -0.15891706195E+01 -0.17752579847E+02  0.18726420923E+02  0.00000000000E+00 0. -1.
         11    1    3    3    0    0  0.59563559654E+01 -0.92860703624E+01 -0.68766762956E+01  0.12999921396E+02  0.51100000000E-03 0. -1.
        -11    1    3    3    0    0  0.81254409930E+01  0.27151833536E+02  0.14964534843E+02  0.32049682666E+02  0.51100000000E-03 0.  1.
        -12    1    3    3    0    0 -0.19826297468E+02 -0.16276592554E+02  0.96647212994E+01  0.27411975015E+02  0.00000000000E+00 0.  1.
</event>
<event>
 7    1  0.1360399E-013  0.7246152E+02  0.7816164E-02  0.1226708E+00
        -11   -1    0    0    0    0  0.00000000000E+00  0.00000000000E+00  0.45593999997E+02  0.45594000000E+02  0.51100000000E-03 0. -1.
         11   -1    0    0    0    0 -0.00000000000E+00 -0.00000000000E+00 -0.45593999997E+02  0.45594000000E+02  0.51100000000E-03 0.  1.
    9900012    2    1    2    0    0  0.66987223272E+01 -0.30046917417E+01 -0.17227309092E+02  0.72461515231E+02  0.69999928269E+02 0.  0.
         12    1    1    2    0    0 -0.66987223272E+01  0.30046917417E+01  0.17227309092E+02  0.18726484769E+02  0.00000000000E+00 0. -1.
         11    1    3    3    0    0  0.11326677669E+02 -0.24631980638E+02  0.93562115441E+00  0.27127541068E+02  0.51100000000E-03 0. -1.
        -11    1    3    3    0    0 -0.25632710060E+01  0.30164813226E+02 -0.68982124564E+01  0.31049503225E+02  0.51100000000E-03 0.  1.
         12    1    3    3    0    0 -0.20646843361E+01 -0.85375243293E+01 -0.11264717790E+02  0.14284470937E+02  0.00000000000E+00 0. -1.
</event>
<event>
 7    1  0.1360399E-013  0.7246157E+02  0.7816164E-02  0.1226708E+00
        -11   -1    0    0    0    0  0.00000000000E+00  0.00000000000E+00  0.45593999997E+02  0.45594000000E+02  0.51100000000E-03 0. -1.
         11   -1    0    0    0    0 -0.00000000000E+00 -0.00000000000E+00 -0.45593999997E+02  0.45594000000E+02  0.51100000000E-03 0.  1.
    9900012    2    1    2    0    0  0.13639082502E+02  0.11590358260E+02 -0.55062119339E+01  0.72461565583E+02  0.69999993863E+02 0.  0.
         12    1    1    2    0    0 -0.13639082502E+02 -0.11590358260E+02  0.55062119339E+01  0.18726434417E+02  0.00000000000E+00 0. -1.
         11    1    3    3    0    0  0.41822779470E+00 -0.75813668799E+01  0.24457418787E+02  0.25608931494E+02  0.51100000000E-03 0. -1.
        -11    1    3    3    0    0  0.21218441843E+01  0.23671230475E+02 -0.22584306623E+02  0.32785366871E+02  0.51100000000E-03 0.  1.
        -12    1    3    3    0    0  0.11099010523E+02 -0.44995053356E+01 -0.73793240986E+01  0.14067267219E+02  0.00000000000E+00 0.  1.
</event>
<event>
 7    1  0.1360399E-013  0.7246156E+02  0.7816164E-02  0.1226708E+00
        -11   -1    0    0    0    0  0.00000000000E+00  0.00000000000E+00  0.45593999997E+02  0.45594000000E+02  0.51100000000E-03 0. -1.
         11   -1    0    0    0    0 -0.00000000000E+00 -0.00000000000E+00 -0.45593999997E+02  0.45594000000E+02  0.51100000000E-03 0.  1.
    9900012    2    1    2    0    0  0.10355753144E+02 -0.26177230355E+01 -0.15381336517E+02  0.72461558530E+02  0.69999984675E+02 0.  0.
         12    1    1    2    0    0 -0.10355753144E+02  0.26177230355E+01  0.15381336517E+02  0.18726441470E+02  0.00000000000E+00 0. -1.
         11    1    3    3    0    0  0.19820939322E+02 -0.51130364742E+01 -0.45669114680E+01  0.20973065064E+02  0.51100000000E-03 0. -1.
        -11    1    3    3    0    0 -0.16004932145E+02  0.22939931568E+02 -0.10908402778E+02  0.30023183787E+02  0.51100000000E-03 0.  1.
        -12    1    3    3    0    0  0.65397459679E+01 -0.20444618129E+02  0.93977728433E-01  0.21465309678E+02  0.00000000000E+00 0.  1.
</event>
<event>
 7    1  0.1360399E-013  0.7246160E+02  0.7816164E-02  0.1226708E+00
        -11   -1    0    0    0    0  0.00000000000E+00  0.00000000000E+00  0.45593999997E+02  0.45594000000E+02  0.51100000000E-03 0. -1.
         11   -1    0    0    0    0 -0.00000000000E+00 -0.00000000000E+00 -0.45593999997E+02  0.45594000000E+02  0.51100000000E-03 0.  1.
    9900012    2    1    2    0    0 -0.16619785863E+02 -0.85704892384E+01 -0.10038234300E+01  0.72461595396E+02  0.70000032699E+02 0.  0.
         12    1    1    2    0    0  0.16619785863E+02  0.85704892384E+01  0.10038234300E+01  0.18726404604E+02  0.00000000000E+00 0. -1.
         11    1    3    3    0    0 -0.19241613417E+02  0.35033013308E+00 -0.24832733288E+02  0.31416986821E+02  0.51100000000E-03 0.  1.
        -11    1    3    3    0    0 -0.10149778869E+02 -0.14189396252E+02  0.20336829306E+02  0.26794469645E+02  0.51100000000E-03 0. -1.
         12    1    3    3    0    0  0.12771606422E+02  0.52685768807E+01  0.34920805519E+01  0.14250138930E+02  0.00000000000E+00 0. -1.
</event>
<event>
 7    1  0.1360399E-013  0.7246156E+02  0.7816164E-02  0.1226708E+00
        -11   -1    0    0    0    0  0.00000000000E+00  0.00000000000E+00  0.45593999997E+02  0.45594000000E+02  0.51100000000E-03 0. -1.
         11   -1    0    0    0    0 -0.00000000000E+00 -0.00000000000E+00 -0.45593999997E+02  0.45594000000E+02  0.51100000000E-03 0.  1.
    9900012    2    1    2    0    0  0.18435148418E+02  0.31420637481E+01 -0.97581394934E+00  0.72461562148E+02  0.69999989387E+02 0.  0.
         12    1    1    2    0    0 -0.18435148418E+02 -0.31420637481E+01  0.97581394934E+00  0.18726437852E+02  0.00000000000E+00 0. -1.
         11    1    3    3    0    0  0.24816094263E+02 -0.27785744929E+02 -0.98114650743E+01  0.38524680438E+02  0.51100000000E-03 0.  1.
        -11    1    3    3    0    0 -0.13209793968E+01  0.24524379761E+02  0.73974860728E+01  0.25649814613E+02  0.51100000000E-03 0. -1.
        -12    1    3    3    0    0 -0.50599664488E+01  0.64034289156E+01  0.14381650521E+01  0.82870670962E+01  0.00000000000E+00 0.  1.
</event>
<event>
 7    1  0.1360399E-013  0.7246155E+02  0.7816164E-02  0.1226708E+00
        -11   -1    0    0    0    0  0.00000000000E+00  0.00000000000E+00  0.45593999997E+02  0.45594000000E+02  0.51100000000E-03 0. -1.
         11   -1    0    0    0    0 -0.00000000000E+00 -0.00000000000E+00 -0.45593999997E+02  0.45594000000E+02  0.51100000000E-03 0.  1.
    9900012    2    1    2    0    0  0.17147302909E+02 -0.40396294458E+01 -0.63507026175E+01  0.72461547404E+02  0.69999970181E+02 0.  0.
         12    1    1    2    0    0 -0.17147302909E+02  0.40396294458E+01  0.63507026175E+01  0.18726452596E+02  0.00000000000E+00 0. -1.
         11    1    3    3    0    0  0.14505158377E+02 -0.41383120695E+01  0.13562096547E+02  0.20284371061E+02  0.51100000000E-03 0. -1.
        -11    1    3    3    0    0 -0.91587804350E+00 -0.22546656882E+02 -0.18554114452E+02  0.29213793532E+02  0.51100000000E-03 0.  1.
         12    1    3    3    0    0  0.35580225754E+01  0.22645339506E+02 -0.13586847125E+01  0.22963382811E+02  0.00000000000E+00 0. -1.
</event>
<event>
 7    1  0.1360399E-013  0.7246155E+02  0.7816164E-02  0.1226708E+00
        -11   -1    0    0    0    0  0.00000000000E+00  0.00000000000E+00  0.45593999997E+02  0.45594000000E+02  0.51100000000E-03 0. -1.
         11   -1    0    0    0    0 -0.00000000000E+00 -0.00000000000E+00 -0.45593999997E+02  0.45594000000E+02  0.51100000000E-03 0.  1.
    9900012    2    1    2    0    0 -0.83544781162E+01 -0.24936850538E+01 -0.16572990284E+02  0.72461554083E+02  0.69999978881E+02 0.  0.
         12    1    1    2    0    0  0.83544781162E+01  0.24936850538E+01  0.16572990284E+02  0.18726445917E+02  0.00000000000E+00 0. -1.
         11    1    3    3    0    0 -0.41479107720E+01  0.30527120073E+02  0.69826460381E+00  0.30815544737E+02  0.51100000000E-03 0. -1.
        -11    1    3    3    0    0  0.48283167030E+01 -0.25514516633E+02 -0.13751481824E+02  0.29383778753E+02  0.51100000000E-03 0.  1.
        -12    1    3    3    0    0 -0.90348840472E+01 -0.75062884938E+01 -0.35197730635E+01  0.12262230593E+02  0.00000000000E+00 0.  1.
</event>
<event>
 7    1  0.1360399E-013  0.7246156E+02  0.7816164E-02  0.1226708E+00
        -11   -1    0    0    0    0  0.00000000000E+00  0.00000000000E+00  0.45593999997E+02  0.45594000000E+02  0.51100000000E-03 0.  1.
         11   -1    0    0    0    0 -0.00000000000E+00 -0.00000000000E+00 -0.45593999997E+02  0.45594000000E+02  0.51100000000E-03 0. -1.
    9900012    2    1    2    0    0 -0.10817836740E+02 -0.40813167211E+01  0.14730808855E+02  0.72461562340E+02  0.69999989638E+02 0.  0.
         12    1    1    2    0    0  0.10817836740E+02  0.40813167211E+01 -0.14730808855E+02  0.18726437660E+02  0.00000000000E+00 0. -1.
         11    1    3    3    0    0  0.98723895541E+01 -0.14674029089E+02  0.22087024680E+02  0.28295368255E+02  0.51100000000E-03 0. -1.
        -11    1    3    3    0    0 -0.26595315188E+02 -0.11960864554E+01 -0.13234242631E+02  0.29730230256E+02  0.51100000000E-03 0.  1.
        -12    1    3    3    0    0  0.59050888937E+01  0.11788798824E+02  0.58780268058E+01  0.14435963829E+02  0.00000000000E+00 0.  1.
</event>
<event>
 7    1  0.1360399E-013  0.7246156E+02  0.7816164E-02  0.1226708E+00
        -11   -1    0    0    0    0  0.00000000000E+00  0.00000000000E+00  0.45593999997E+02  0.45594000000E+02  0.51100000000E-03 0.  1.
         11   -1    0    0    0    0 -0.00000000000E+00 -0.00000000000E+00 -0.45593999997E+02  0.45594000000E+02  0.51100000000E-03 0. -1.
    9900012    2    1    2    0    0 -0.93796248917E+00 -0.58458282827E+01  0.17765865065E+02  0.72461562981E+02  0.69999990473E+02 0.  0.
         12    1    1    2    0    0  0.93796248917E+00  0.58458282827E+01 -0.17765865065E+02  0.18726437019E+02  0.00000000000E+00 0. -1.
         11    1    3    3    0    0  0.70423022154E+01 -0.19367253562E+02 -0.52612620698E+01  0.21268883606E+02  0.51100000000E-03 0. -1.
        -11    1    3    3    0    0  0.51024213005E+01 -0.46583864148E+00  0.30282157116E+02  0.30712550343E+02  0.51100000000E-03 0.  1.
        -12    1    3    3    0    0 -0.13082686005E+02  0.13987263921E+02 -0.72550299810E+01  0.20480129031E+02  0.00000000000E+00 0.  1.
</event>
<event>
 7    1  0.1912265E-013  0.7246160E+02  0.7816164E-02  0.1226708E+00
        -11   -1    0    0    0    0  0.00000000000E+00  0.00000000000E+00  0.45593999997E+02  0.45594000000E+02  0.51100000000E-03 0. -1.
         11   -1    0    0    0    0 -0.00000000000E+00 -0.00000000000E+00 -0.45593999997E+02  0.45594000000E+02  0.51100000000E-03 0.  1.
    9900012    2    1    2    0    0 -0.14529654076E+00  0.57814581760E+01 -0.17811001950E+02  0.72461597244E+02  0.70000035107E+02 0.  0.
         12    1    1    2    0    0  0.14529654076E+00 -0.57814581760E+01  0.17811001950E+02  0.18726402756E+02  0.00000000000E+00 0. -1.
         11    1    3    3    0    0 -0.11369449308E+02 -0.17478439836E+02  0.77378025762E+01  0.22240364782E+02  0.51100000000E-03 0. -1.
        -11    1    3    3    0    0  0.93364789986E+01 -0.18998420747E+01 -0.22959873361E+02  0.24858298916E+02  0.51100000000E-03 0.  1.
         12    1    3    3    0    0  0.18876737682E+01  0.25159740087E+02 -0.25889311656E+01  0.25362933546E+02  0.00000000000E+00 0. -1.
</event>
<event>
 7    1  0.1360399E-013  0.7246155E+02  0.7816164E-02  0.1226708E+00
        -11   -1    0    0    0    0  0.00000000000E+00  0.00000000000E+00  0.45593999997E+02  0.45594000000E+02  0.51100000000E-03 0. -1.
         11   -1    0    0    0    0 -0.00000000000E+00 -0.00000000000E+00 -0.45593999997E+02  0.45594000000E+02  0.51100000000E-03 0.  1.
    9900012    2    1    2    0    0 -0.39582797224E+00  0.18237924449E+02 -0.42309994334E+01  0.72461550144E+02  0.69999973750E+02 0.  0.
         12    1    1    2    0    0  0.39582797224E+00 -0.18237924449E+02  0.42309994334E+01  0.18726449856E+02  0.00000000000E+00 0. -1.
         11    1    3    3    0    0 -0.82542118862E+01  0.42572418326E+01  0.95354002883E+01  0.13310897070E+02  0.51100000000E-03 0. -1.
        -11    1    3    3    0    0  0.21372248640E+02 -0.14540713666E+02 -0.43351697168E+01  0.26210666961E+02  0.51100000000E-03 0.  1.
        -12    1    3    3    0    0 -0.13513864726E+02  0.28521396282E+02 -0.94312300049E+01  0.32939986113E+02  0.00000000000E+00 0.  1.
</event>
<event>
 7    1  0.1360399E-013  0.7246155E+02  0.7816164E-02  0.1226708E+00
        -11   -1    0    0    0    0  0.00000000000E+00  0.00000000000E+00  0.45593999997E+02  0.45594000000E+02  0.51100000000E-03 0.  1.
         11   -1    0    0    0    0 -0.00000000000E+00 -0.00000000000E+00 -0.45593999997E+02  0.45594000000E+02  0.51100000000E-03 0. -1.
    9900012    2    1    2    0    0 -0.15915678583E+02  0.50292907407E+01  0.84898398517E+01  0.72461548899E+02  0.69999972129E+02 0.  0.
         12    1    1    2    0    0  0.15915678583E+02 -0.50292907407E+01 -0.84898398517E+01  0.18726451101E+02  0.00000000000E+00 0. -1.
         11    1    3    3    0    0  0.15644623977E+01  0.77785668424E+00 -0.23011652254E+02  0.23077884291E+02  0.51100000000E-03 0. -1.
        -11    1    3    3    0    0 -0.25886654943E+02 -0.11091561093E+01  0.14546499230E+02  0.29714470743E+02  0.51100000000E-03 0.  1.
        -12    1    3    3    0    0  0.84065139623E+01  0.53605901657E+01  0.16954992876E+02  0.19669193866E+02  0.00000000000E+00 0.  1.
</event>
<event>
 7    1  0.1360399E-013  0.7246163E+02  0.7816164E-02  0.1226708E+00
        -11   -1    0    0    0    0  0.00000000000E+00  0.00000000000E+00  0.45593999997E+02  0.45594000000E+02  0.51100000000E-03 0.  1.
         11   -1    0    0    0    0 -0.00000000000E+00 -0.00000000000E+00 -0.45593999997E+02  0.45594000000E+02  0.51100000000E-03 0. -1.
    9900012    2    1    2    0    0  0.11451581497E+02 -0.14763207196E+02 -0.12593576417E+01  0.72461628564E+02  0.70000075907E+02 0.  0.
         12    1    1    2    0    0 -0.11451581497E+02  0.14763207196E+02  0.12593576417E+01  0.18726371436E+02  0.00000000000E+00 0. -1.
         11    1    3    3    0    0  0.18853982226E+02 -0.14485783936E+02  0.23563843228E+02  0.33474845630E+02  0.51100000000E-03 0. -1.
        -11    1    3    3    0    0  0.15831782216E+01 -0.13658876127E+02 -0.13645160487E+02  0.19371674045E+02  0.51100000000E-03 0.  1.
         12    1    3    3    0    0 -0.89855789498E+01  0.13381452868E+02 -0.11178040383E+02  0.19615108889E+02  0.00000000000E+00 0. -1.
</event>
<event>
 7    1  0.1360399E-013  0.7246161E+02  0.7816164E-02  0.1226708E+00
        -11   -1    0    0    0    0  0.00000000000E+00  0.00000000000E+00  0.45593999997E+02  0.45594000000E+02  0.51100000000E-03 0. -1.
         11   -1    0    0    0    0 -0.00000000000E+00 -0.00000000000E+00 -0.45593999997E+02  0.45594000000E+02  0.51100000000E-03 0.  1.
    9900012    2    1    2    0    0 -0.35838406137E+01  0.17255126712E+02  0.63320005821E+01  0.72461613729E+02  0.70000056582E+02 0.  0.
         12    1    1    2    0    0  0.35838406137E+01 -0.17255126712E+02 -0.63320005821E+01  0.18726386271E+02  0.00000000000E+00 0. -1.
         11    1    3    3    0    0 -0.13221763041E+01  0.15210999214E+02 -0.45650953924E-01  0.15268422694E+02  0.51100000000E-03 0. -1.
        -11    1    3    3    0    0  0.24844563992E+02 -0.10093169894E+02  0.60565642194E+01  0.27491933524E+02  0.51100000000E-03 0.  1.
        -12    1    3    3    0    0 -0.27106228302E+02  0.12137297391E+02  0.32108731664E+00  0.29701257512E+02  0.00000000000E+00 0.  1.
</event>
<event>
 7    1  0.1360399E-013  0.7246155E+02  0.7816164E-02  0.1226708E+00
        -11   -1    0    0    0    0  0.00000000000E+00  0.00000000000E+00  0.45593999997E+02  0.45594000000E+02  0.51100000000E-03 0.  1.
         11   -1    0    0    0    0 -0.00000000000E+00 -0.00000000000E+00 -0.45593999997E+02  0.45594000000E+02  0.51100000000E-03 0. -1.
    9900012    2    1    2    0    0 -0.42526094429E+01  0.82733837136E+01  0.16252576680E+02  0.72461553090E+02  0.69999977588E+02 0.  0.
         12    1    1    2    0    0  0.42526094429E+01 -0.82733837136E+01 -0.16252576680E+02  0.18726446910E+02  0.00000000000E+00 0. -1.
         11    1    3    3    0    0 -0.28226002312E+02  0.16235584137E+02 -0.96610974030E+00  0.32576598458E+02  0.51100000000E-03 0. -1.
        -11    1    3    3    0    0  0.61403276211E+01 -0.75196301694E+01 -0.53759413863E+01  0.11097261249E+02  0.51100000000E-03 0.  1.
         12    1    3    3    0    0  0.17833065248E+02 -0.44257025418E+00  0.22594627807E+02  0.28787693383E+02  0.00000000000E+00 0. -1.
</event>
<event>
 7    1  0.1360399E-013  0.7246154E+02  0.7816164E-02  0.1226708E+00
        -11   -1    0    0    0    0  0.00000000000E+00  0.00000000000E+00  0.45593999997E+02  0.45594000000E+02  0.51100000000E-03 0. -1.
         11   -1    0    0    0    0 -0.00000000000E+00 -0.00000000000E+00 -0.45593999997E+02  0.45594000000E+02  0.51100000000E-03 0.  1.
    9900012    2    1    2    0    0  0.15737519541E+02 -0.92518417708E+01 -0.41730428447E+01  0.72461537866E+02  0.69999957757E+02 0.  0.
         12    1    1    2    0    0 -0.15737519541E+02  0.92518417708E+01  0.41730428447E+01  0.18726462134E+02  0.00000000000E+00 0. -1.
         11    1    3    3    0    0  0.13417184015E+01  0.20981689492E+02 -0.14083741521E+01  0.21071663917E+02  0.51100000000E-03 0. -1.
        -11    1    3    3    0    0  0.14336810666E+02 -0.30052774676E+02  0.12911151854E+02  0.35712900306E+02  0.51100000000E-03 0.  1.
        -12    1    3    3    0    0  0.58990473000E-01 -0.18075658653E+00 -0.15675820546E+02  0.15676973644E+02  0.00000000000E+00 0.  1.
</event>
<event>
 7    1  0.1360399E-013  0.7246156E+02  0.7816164E-02  0.1226708E+00
        -11   -1    0    0    0    0  0.00000000000E+00  0.00000000000E+00  0.45593999997E+02  0.45594000000E+02  0.51100000000E-03 0.  1.
         11   -1    0    0    0    0 -0.00000000000E+00 -0.00000000000E+00 -0.45593999997E+02  0.45594000000E+02  0.51100000000E-03 0. -1.
    9900012    2    1    2    0    0 -0.45271932454E+01 -0.12512669868E+02  0.13176387541E+02  0.72461559480E+02  0.69999985913E+02 0.  0.
         12    1    1    2    0    0  0.45271932454E+01  0.12512669868E+02 -0.13176387541E+02  0.18726440520E+02  0.00000000000E+00 0. -1.
         11    1    3    3    0    0  0.81272289914E+01 -0.11450442550E+02 -0.14798287258E+02  0.20399847835E+02  0.51100000000E-03 0. -1.
        -11    1    3    3    0    0 -0.37825126790E+01 -0.50147725506E+01  0.37757441557E+02  0.38276360055E+02  0.51100000000E-03 0.  1.
         12    1    3    3    0    0 -0.88719095577E+01  0.39525452328E+01 -0.97827667576E+01  0.13785351590E+02  0.00000000000E+00 0. -1.
</event>
<event>
 7    1  0.1360399E-013  0.7246110E+02  0.7816164E-02  0.1226709E+00
        -11   -1    0    0    0    0  0.00000000000E+00  0.00000000000E+00  0.45593999997E+02  0.45594000000E+02  0.51100000000E-03 0.  1.
         11   -1    0    0    0    0 -0.00000000000E+00 -0.00000000000E+00 -0.45593999997E+02  0.45594000000E+02  0.51100000000E-03 0. -1.
    9900012    2    1    2    0    0 -0.94689214859E+01  0.76552815551E+01  0.14227888900E+02  0.72461104039E+02  0.69999392613E+02 0.  0.
         12    1    1    2    0    0  0.94689214859E+01 -0.76552815551E+01 -0.14227888900E+02  0.18726895961E+02  0.00000000000E+00 0. -1.
         11    1    3    3    0    0  0.60622997750E+01 -0.21319343015E+02 -0.47604701898E+01  0.22669978868E+02  0.51100000000E-03 0. -1.
        -11    1    3    3    0    0 -0.21575106567E+02  0.16498406964E+02  0.11304394783E+01  0.27183828822E+02  0.51100000000E-03 0.  1.
        -12    1    3    3    0    0  0.60438853066E+01  0.12476217607E+02  0.17857919612E+02  0.22607296349E+02  0.00000000000E+00 0.  1.
</event>
<event>
 7    1  0.1360399E-013  0.7246159E+02  0.7816164E-02  0.1226708E+00
        -11   -1    0    0    0    0  0.00000000000E+00  0.00000000000E+00  0.45593999997E+02  0.45594000000E+02  0.51100000000E-03 0.  1.
         11   -1    0    0    0    0 -0.00000000000E+00 -0.00000000000E+00 -0.45593999997E+02  0.45594000000E+02  0.51100000000E-03 0. -1.
    9900012    2    1    2    0    0 -0.17007872642E+02  0.60799643250E+01 -0.49441529032E+01  0.72461592285E+02  0.70000028646E+02 0.  0.
         12    1    1    2    0    0  0.17007872642E+02 -0.60799643250E+01  0.49441529032E+01  0.18726407715E+02  0.00000000000E+00 0. -1.
         11    1    3    3    0    0 -0.86171417637E+01  0.14929995530E+02 -0.23034706934E+02  0.28770777231E+02  0.51100000000E-03 0. -1.
        -11    1    3    3    0    0  0.11686483170E+02  0.68956410894E+01  0.10226427484E+02  0.16991279359E+02  0.51100000000E-03 0.  1.
        -12    1    3    3    0    0 -0.20077214048E+02 -0.15745672295E+02  0.78641265465E+01  0.26699535694E+02  0.00000000000E+00 0.  1.
</event>
<event>
 7    1  0.1360399E-013  0.7246152E+02  0.7816164E-02  0.1226708E+00
        -11   -1    0    0    0    0  0.00000000000E+00  0.00000000000E+00  0.45593999997E+02  0.45594000000E+02  0.51100000000E-03 0. -1.
         11   -1    0    0    0    0 -0.00000000000E+00 -0.00000000000E+00 -0.45593999997E+02  0.45594000000E+02  0.51100000000E-03 0.  1.
    9900012    2    1    2    0    0  0.15349943414E+01  0.10042536840E+02 -0.15731248250E+02  0.72461523414E+02  0.69999938930E+02 0.  0.
         12    1    1    2    0    0 -0.15349943414E+01 -0.10042536840E+02  0.15731248250E+02  0.18726476586E+02  0.00000000000E+00 0. -1.
         11    1    3    3    0    0  0.23542118687E+02 -0.10335640622E+01 -0.47251094655E+00  0.23569532745E+02  0.51100000000E-03 0. -1.
        -11    1    3    3    0    0 -0.26307720948E+02  0.12512202302E+02 -0.24845099517E+02  0.38287469989E+02  0.51100000000E-03 0.  1.
         12    1    3    3    0    0  0.43005966015E+01 -0.14361014003E+01  0.95863622133E+01  0.10604520680E+02  0.00000000000E+00 0. -1.
</event>
<event>
 7    1  0.1360399E-013  0.7246151E+02  0.7816164E-02  0.1226708E+00
        -11   -1    0    0    0    0  0.00000000000E+00  0.00000000000E+00  0.45593999997E+02  0.45594000000E+02  0.51100000000E-03 0.  1.
         11   -1    0    0    0    0 -0.00000000000E+00 -0.00000000000E+00 -0.45593999997E+02  0.45594000000E+02  0.51100000000E-03 0. -1.
    9900012    2    1    2    0    0 -0.80956032152E+00  0.17376587354E+02  0.69339873360E+01  0.72461511905E+02  0.69999923937E+02 0.  0.
         12    1    1    2    0    0  0.80956032152E+00 -0.17376587354E+02 -0.69339873360E+01  0.18726488095E+02  0.00000000000E+00 0. -1.
         11    1    3    3    0    0 -0.13786284512E+02  0.33224161910E+02  0.10017029489E+02  0.37339623128E+02  0.51100000000E-03 0.  1.
        -11    1    3    3    0    0  0.46505973120E+01 -0.11455025611E+02 -0.15317880755E+02  0.19684591390E+02  0.51100000000E-03 0. -1.
        -12    1    3    3    0    0  0.83261268783E+01 -0.43925489447E+01  0.12234838602E+02  0.15437297388E+02  0.00000000000E+00 0.  1.
</event>
<event>
 7    1  0.1360399E-013  0.7246155E+02  0.7816164E-02  0.1226708E+00
        -11   -1    0    0    0    0  0.00000000000E+00  0.00000000000E+00  0.45593999997E+02  0.45594000000E+02  0.51100000000E-03 0.  1.
         11   -1    0    0    0    0 -0.00000000000E+00 -0.00000000000E+00 -0.45593999997E+02  0.45594000000E+02  0.51100000000E-03 0. -1.
    9900012    2    1    2    0    0 -0.13135049443E+02  0.48956703409E+01  0.12417041514E+02  0.72461547269E+02  0.69999970005E+02 0.  0.
         12    1    1    2    0    0  0.13135049443E+02 -0.48956703409E+01 -0.12417041514E+02  0.18726452731E+02  0.00000000000E+00 0. -1.
         11    1    3    3    0    0  0.13470013732E+02 -0.17872435850E+02  0.84048102404E+01  0.23906193101E+02  0.51100000000E-03 0. -1.
        -11    1    3    3    0    0 -0.23016591379E+02  0.29419503777E+02  0.10274199820E+02  0.38740545471E+02  0.51100000000E-03 0.  1.
         12    1    3    3    0    0 -0.35884717957E+01 -0.66513975862E+01 -0.62619685466E+01  0.98148086969E+01  0.00000000000E+00 0. -1.
</event>
<event>
 7    1  0.1360399E-013  0.7246150E+02  0.7816164E-02  0.1226708E+00
        -11   -1    0    0    0    0  0.00000000000E+00  0.00000000000E+00  0.45593999997E+02  0.45594000000E+02  0.51100000000E-03 0. -1.
         11   -1    0    0    0    0 -0.00000000000E+00 -0.00000000000E+00 -0.45593999997E+02  0.45594000000E+02  0.51100000000E-03 0.  1.
    9900012    2    1    2    0    0  0.10365053162E+02  0.15135810416E+02 -0.37622784235E+01  0.72461499448E+02  0.69999907710E+02 0.  0.
         12    1    1    2    0    0 -0.10365053162E+02 -0.15135810416E+02  0.37622784235E+01  0.18726500552E+02  0.00000000000E+00 0. -1.
         11    1    3    3    0    0  0.12638918737E+02 -0.11434974888E+02  0.20115959341E+02  0.26365749335E+02  0.51100000000E-03 0. -1.
        -11    1    3    3    0    0  0.90642189508E+01  0.26581387091E+02 -0.16627458132E+02  0.32637441215E+02  0.51100000000E-03 0.  1.
        -12    1    3    3    0    0 -0.11338084526E+02 -0.10601787176E-01 -0.72507796331E+01  0.13458308898E+02  0.00000000000E+00 0.  1.
</event>
<event>
 7    1  0.1360399E-013  0.7246169E+02  0.7816164E-02  0.1226708E+00
        -11   -1    0    0    0    0  0.00000000000E+00  0.00000000000E+00  0.45593999997E+02  0.45594000000E+02  0.51100000000E-03 0.  1.
         11   -1    0    0    0    0 -0.00000000000E+00 -0.00000000000E+00 -0.45593999997E+02  0.45594000000E+02  0.51100000000E-03 0. -1.
    9900012    2    1    2    0    0 -0.14371638508E+02 -0.76324092597E+01  0.92669924795E+01  0.72461686585E+02  0.70000151490E+02 0.  0.
         12    1    1    2    0    0  0.14371638508E+02  0.76324092597E+01 -0.92669924795E+01  0.18726313415E+02  0.00000000000E+00 0. -1.
         11    1    3    3    0    0 -0.31110859174E+02 -0.15690961015E+02  0.42163453866E+01  0.35097996877E+02  0.51100000000E-03 0. -1.
        -11    1    3    3    0    0  0.49222648306E+01  0.82579746165E+01  0.17643995304E+02  0.20093118383E+02  0.51100000000E-03 0.  1.
         12    1    3    3    0    0  0.11816955836E+02 -0.19942286079E+00 -0.12593348211E+02  0.17270571324E+02  0.00000000000E+00 0. -1.
</event>
<event>
 7    1  0.1360399E-013  0.7246159E+02  0.7816164E-02  0.1226708E+00
        -11   -1    0    0    0    0  0.00000000000E+00  0.00000000000E+00  0.45593999997E+02  0.45594000000E+02  0.51100000000E-03 0. -1.
         11   -1    0    0    0    0 -0.00000000000E+00 -0.00000000000E+00 -0.45593999997E+02  0.45594000000E+02  0.51100000000E-03 0.  1.
    9900012    2    1    2    0    0 -0.13084277769E+01  0.16904967351E+02 -0.79491326881E+01  0.72461585103E+02  0.70000019292E+02 0.  0.
         12    1    1    2    0    0  0.13084277769E+01 -0.16904967351E+02  0.79491326881E+01  0.18726414897E+02  0.00000000000E+00 0. -1.
         11    1    3    3    0    0  0.73593540974E+01 -0.14697710818E+02  0.76492047282E+01  0.18129896008E+02  0.51100000000E-03 0. -1.
        -11    1    3    3    0    0  0.13640173986E+02  0.15279105215E+02  0.34382079892E+01  0.20768405740E+02  0.51100000000E-03 0.  1.
         12    1    3    3    0    0 -0.22307955860E+02  0.16323572954E+02 -0.19036545405E+02  0.33563283356E+02  0.00000000000E+00 0. -1.
</event>
<event>
 7    1  0.1360399E-013  0.7246157E+02  0.7816164E-02  0.1226708E+00
        -11   -1    0    0    0    0  0.00000000000E+00  0.00000000000E+00  0.45593999997E+02  0.45594000000E+02  0.51100000000E-03 0. -1.
         11   -1    0    0    0    0 -0.00000000000E+00 -0.00000000000E+00 -0.45593999997E+02  0.45594000000E+02  0.51100000000E-03 0.  1.
    9900012    2    1    2    0    0  0.55880713881E+00  0.84039256817E+01 -0.16725454437E+02  0.72461573261E+02  0.70000003865E+02 0.  0.
         12    1    1    2    0    0 -0.55880713881E+00 -0.84039256817E+01  0.16725454437E+02  0.18726426739E+02  0.00000000000E+00 0. -1.
         11    1    3    3    0    0 -0.29255441136E+02  0.15423967918E+02 -0.13647083644E+02  0.35777402290E+02  0.51100000000E-03 0.  1.
        -11    1    3    3    0    0  0.21171441269E+02 -0.11094907048E+02 -0.88879509982E+01  0.25501422725E+02  0.51100000000E-03 0. -1.
        -12    1    3    3    0    0  0.86428070057E+01  0.40748648121E+01  0.58095802048E+01  0.11182748246E+02  0.00000000000E+00 0.  1.
</event>
<event>
 7    1  0.1360399E-013  0.7246160E+02  0.7816164E-02  0.1226708E+00
        -11   -1    0    0    0    0  0.00000000000E+00  0.00000000000E+00  0.45593999997E+02  0.45594000000E+02  0.51100000000E-03 0. -1.
         11   -1    0    0    0    0 -0.00000000000E+00 -0.00000000000E+00 -0.45593999997E+02  0.45594000000E+02  0.51100000000E-03 0.  1.
    9900012    2    1    2    0    0 -0.86941331485E+00  0.10286445589E+02 -0.15624058299E+02  0.72461600450E+02  0.70000039283E+02 0.  0.
         12    1    1    2    0    0  0.86941331485E+00 -0.10286445589E+02  0.15624058299E+02  0.18726399550E+02  0.00000000000E+00 0. -1.
         11    1    3    3    0    0  0.81007913873E+01 -0.26340102629E+02 -0.14054617979E+02  0.30934707279E+02  0.51100000000E-03 0. -1.
        -11    1    3    3    0    0  0.33357314492E+01  0.16595232574E+02  0.39420685834E+01  0.17380125243E+02  0.51100000000E-03 0.  1.
         12    1    3    3    0    0 -0.12305936151E+02  0.20031315644E+02 -0.55115089031E+01  0.24146767928E+02  0.00000000000E+00 0. -1.
</event>
<event>
 7    1  0.1360399E-013  0.7246204E+02  0.7816164E-02  0.1226707E+00
        -11   -1    0    0    0    0  0.00000000000E+00  0.00000000000E+00  0.45593999997E+02  0.45594000000E+02  0.51100000000E-03 0.  1.
         11   -1    0    0    0    0 -0.00000000000E+00 -0.00000000000E+00 -0.45593999997E+02  0.45594000000E+02  0.51100000000E-03 0. -1.
    9900012    2    1    2    0    0 -0.98912319964E+01  0.49391805911E+01  0.15113886201E+02  0.72462041242E+02  0.70000613494E+02 0.  0.
         12    1    1    2    0    0  0.98912319964E+01 -0.49391805911E+01 -0.15113886201E+02  0.18725958758E+02  0.00000000000E+00 0. -1.
         11    1    3    3    0    0  0.53526678434E+01  0.17136730074E+01  0.42925796970E+01  0.70720554957E+01  0.51100000000E-03 0. -1.
        -11    1    3    3    0    0 -0.32422643551E+02 -0.11975679456E+02 -0.82777499835E+01  0.35541044699E+02  0.51100000000E-03 0.  1.
        -12    1    3    3    0    0  0.17178743711E+02  0.15201187040E+02  0.19099056487E+02  0.29848941047E+02  0.00000000000E+00 0.  1.
</event>
<event>
 7    1  0.1360399E-013  0.7246156E+02  0.7816164E-02  0.1226708E+00
        -11   -1    0    0    0    0  0.00000000000E+00  0.00000000000E+00  0.45593999997E+02  0.45594000000E+02  0.51100000000E-03 0.  1.
         11   -1    0    0    0    0 -0.00000000000E+00 -0.00000000000E+00 -0.45593999997E+02  0.45594000000E+02  0.51100000000E-03 0. -1.
    9900012    2    1    2    0    0  0.13499412620E+02 -0.12771512201E+02 -0.23095299949E+01  0.72461558966E+02  0.69999985243E+02 0.  0.
         12    1    1    2    0    0 -0.13499412620E+02  0.12771512201E+02  0.23095299949E+01  0.18726441034E+02  0.00000000000E+00 0. -1.
         11    1    3    3    0    0 -0.96201848471E+01 -0.24915133555E+02 -0.26175385864E+01  0.26835859313E+02  0.51100000000E-03 0. -1.
        -11    1    3    3    0    0  0.67023607243E+01  0.23941683724E+02 -0.33300056589E+01  0.25084154296E+02  0.51100000000E-03 0.  1.
         12    1    3    3    0    0  0.16417236743E+02 -0.11798062371E+02  0.36380142504E+01  0.20541545357E+02  0.00000000000E+00 0. -1.
</event>
<event>
 7    1  0.1360399E-013  0.7246219E+02  0.7816164E-02  0.1226706E+00
        -11   -1    0    0    0    0  0.00000000000E+00  0.00000000000E+00  0.45593999997E+02  0.45594000000E+02  0.51100000000E-03 0.  1.
         11   -1    0    0    0    0 -0.00000000000E+00 -0.00000000000E+00 -0.45593999997E+02  0.45594000000E+02  0.51100000000E-03 0. -1.
    9900012    2    1    2    0    0 -0.16349488439E+02 -0.90055608519E+01  0.15000282749E+01  0.72462189382E+02  0.70000806472E+02 0.  0.
         12    1    1    2    0    0  0.16349488439E+02  0.90055608519E+01 -0.15000282749E+01  0.18725810618E+02  0.00000000000E+00 0. -1.
         11    1    3    3    0    0 -0.33394388681E+02 -0.23233555858E+02 -0.10900904826E+02  0.42116659880E+02  0.51100000000E-03 0. -1.
        -11    1    3    3    0    0  0.11918343845E+01  0.67656477196E+01  0.10734903225E+02  0.12744905091E+02  0.51100000000E-03 0.  1.
         12    1    3    3    0    0  0.15853065858E+02  0.74623472866E+01  0.16660298766E+01  0.17600624411E+02  0.00000000000E+00 0. -1.
</event>
<event>
 7    1  0.1360399E-013  0.7246132E+02  0.7816164E-02  0.1226709E+00
        -11   -1    0    0    0    0  0.00000000000E+00  0.00000000000E+00  0.45593999997E+02  0.45594000000E+02  0.51100000000E-03 0. -1.
         11   -1    0    0    0    0 -0.00000000000E+00 -0.00000000000E+00 -0.45593999997E+02  0.45594000000E+02  0.51100000000E-03 0.  1.
    9900012    2    1    2    0    0  0.16795688125E+02  0.49881847996E+01 -0.66114535253E+01  0.72461322641E+02  0.69999677385E+02 0.  0.
         12    1    1    2    0    0 -0.16795688125E+02 -0.49881847996E+01  0.66114535253E+01  0.18726677359E+02  0.00000000000E+00 0. -1.
         11    1    3    3    0    0  0.37045597174E+02 -0.19522227358E+01 -0.17633444611E+02  0.41074637097E+02  0.51100000000E-03 0. -1.
        -11    1    3    3    0    0 -0.25697392019E+01  0.41613780056E+01 -0.52662947837E+01  0.71871056400E+01  0.51100000000E-03 0.  1.
         12    1    3    3    0    0 -0.17680169847E+02  0.27790295298E+01  0.16288285869E+02  0.24199579903E+02  0.00000000000E+00 0. -1.
</event>
<event>
 7    1  0.1360399E-013  0.7246148E+02  0.7816164E-02  0.1226708E+00
        -11   -1    0    0    0    0  0.00000000000E+00  0.00000000000E+00  0.45593999997E+02  0.45594000000E+02  0.51100000000E-03 0.  1.
         11   -1    0    0    0    0 -0.00000000000E+00 -0.00000000000E+00 -0.45593999997E+02  0.45594000000E+02  0.51100000000E-03 0. -1.
    9900012    2    1    2    0    0  0.18505213529E+01 -0.85275246602E+00  0.18615339496E+02  0.72461481888E+02  0.69999884835E+02 0.  0.
         12    1    1    2    0    0 -0.18505213529E+01  0.85275246602E+00 -0.18615339496E+02  0.18726518112E+02  0.00000000000E+00 0. -1.
         11    1    3    3    0    0 -0.21030171793E+02  0.12595216117E+02 -0.15104165623E+01  0.24559905398E+02  0.51100000000E-03 0. -1.
        -11    1    3    3    0    0  0.23909040277E+02  0.54361812590E+01  0.10377956902E+02  0.26625105884E+02  0.51100000000E-03 0.  1.
         12    1    3    3    0    0 -0.10283471303E+01 -0.18884149842E+02  0.97477991560E+01  0.21276470606E+02  0.00000000000E+00 0. -1.
</event>
<event>
 7    1  0.1360399E-013  0.7246155E+02  0.7816164E-02  0.1226708E+00
        -11   -1    0    0    0    0  0.00000000000E+00  0.00000000000E+00  0.45593999997E+02  0.45594000000E+02  0.51100000000E-03 0. -1.
         11   -1    0    0    0    0 -0.00000000000E+00 -0.00000000000E+00 -0.45593999997E+02  0.45594000000E+02  0.51100000000E-03 0.  1.
    9900012    2    1    2    0    0  0.15426466701E+02 -0.10494459244E+02 -0.16031925948E+01  0.72461554096E+02  0.69999978899E+02 0.  0.
         12    1    1    2    0    0 -0.15426466701E+02  0.10494459244E+02  0.16031925948E+01  0.18726445904E+02  0.00000000000E+00 0. -1.
         11    1    3    3    0    0 -0.13486089372E+02 -0.75634850749E+01  0.18745295352E+01  0.15575454224E+02  0.51100000000E-03 0. -1.
        -11    1    3    3    0    0  0.28624147583E+02  0.57614193889E+01 -0.21910275049E+02  0.36504738477E+02  0.51100000000E-03 0.  1.
        -12    1    3    3    0    0  0.28840848993E+00 -0.86923935578E+01  0.18432552919E+02  0.20381361396E+02  0.00000000000E+00 0.  1.
</event>
<event>
 7    1  0.1360399E-013  0.7246154E+02  0.7816164E-02  0.1226708E+00
        -11   -1    0    0    0    0  0.00000000000E+00  0.00000000000E+00  0.45593999997E+02  0.45594000000E+02  0.51100000000E-03 0.  1.
         11   -1    0    0    0    0 -0.00000000000E+00 -0.00000000000E+00 -0.45593999997E+02  0.45594000000E+02  0.51100000000E-03 0. -1.
    9900012    2    1    2    0    0  0.97247460065E+01 -0.12497052252E+02  0.99966560103E+01  0.72461544616E+02  0.69999966549E+02 0.  0.
         12    1    1    2    0    0 -0.97247460065E+01  0.12497052252E+02 -0.99966560103E+01  0.18726455384E+02  0.00000000000E+00 0. -1.
         11    1    3    3    0    0  0.13699959154E+02 -0.61017005682E+01 -0.24732540733E+02  0.28924353096E+02  0.51100000000E-03 0. -1.
        -11    1    3    3    0    0 -0.14674426602E+01 -0.15593173871E+02  0.15299711942E+02  0.21894785798E+02  0.51100000000E-03 0.  1.
         12    1    3    3    0    0 -0.25077704871E+01  0.91978221876E+01  0.19429484801E+02  0.21642405722E+02  0.00000000000E+00 0. -1.
</event>
<event>
 7    1  0.1360399E-013  0.7246145E+02  0.7816164E-02  0.1226708E+00
        -11   -1    0    0    0    0  0.00000000000E+00  0.00000000000E+00  0.45593999997E+02  0.45594000000E+02  0.51100000000E-03 0.  1.
         11   -1    0    0    0    0 -0.00000000000E+00 -0.00000000000E+00 -0.45593999997E+02  0.45594000000E+02  0.51100000000E-03 0. -1.
    9900012    2    1    2    0    0 -0.82686149284E+01  0.72746989841E+01  0.15145709218E+02  0.72461448105E+02  0.69999840826E+02 0.  0.
         12    1    1    2    0    0  0.82686149284E+01 -0.72746989841E+01 -0.15145709218E+02  0.18726551895E+02  0.00000000000E+00 0. -1.
         11    1    3    3    0    0  0.18251239602E+02  0.15378473143E+02 -0.35193038051E+00  0.23868997434E+02  0.51100000000E-03 0. -1.
        -11    1    3    3    0    0 -0.23949338702E+02 -0.15705285754E+01 -0.70194675761E+01  0.25006205422E+02  0.51100000000E-03 0.  1.
         12    1    3    3    0    0 -0.25705158282E+01 -0.65332455834E+01  0.22517107175E+02  0.23586245250E+02  0.00000000000E+00 0. -1.
</event>
<event>
 7    1  0.1576908E-013  0.7246156E+02  0.7816164E-02  0.1226708E+00
        -11   -1    0    0    0    0  0.00000000000E+00  0.00000000000E+00  0.45593999997E+02  0.45594000000E+02  0.51100000000E-03 0. -1.
         11   -1    0    0    0    0 -0.00000000000E+00 -0.00000000000E+00 -0.45593999997E+02  0.45594000000E+02  0.51100000000E-03 0.  1.
    9900012    2    1    2    0    0 -0.26243445274E+01 -0.84351841792E+01 -0.16511814266E+02  0.72461560758E+02  0.69999987577E+02 0.  0.
         12    1    1    2    0    0  0.26243445274E+01  0.84351841792E+01  0.16511814266E+02  0.18726439242E+02  0.00000000000E+00 0. -1.
         11    1    3    3    0    0 -0.17013705838E+01 -0.10412659573E+02  0.18153251424E+02  0.20996634939E+02  0.51100000000E-03 0. -1.
        -11    1    3    3    0    0  0.39745140214E+01  0.19465872762E+02 -0.17508974750E+02  0.26481713712E+02  0.51100000000E-03 0.  1.
        -12    1    3    3    0    0 -0.48974879650E+01 -0.17488397368E+02 -0.17156090939E+02  0.24983212107E+02  0.00000000000E+00 0.  1.
</event>
<event>
 7    1  0.1360399E-013  0.7246158E+02  0.7816164E-02  0.1226708E+00
        -11   -1    0    0    0    0  0.00000000000E+00  0.00000000000E+00  0.45593999997E+02  0.45594000000E+02  0.51100000000E-03 0.  1.
         11   -1    0    0    0    0 -0.00000000000E+00 -0.00000000000E+00 -0.45593999997E+02  0.45594000000E+02  0.51100000000E-03 0. -1.
    9900012    2    1    2    0    0  0.72271231826E+01 -0.41677107643E+01  0.16765373031E+02  0.72461578682E+02  0.70000010927E+02 0.  0.
         12    1    1    2    0    0 -0.72271231826E+01  0.41677107643E+01 -0.16765373031E+02  0.18726421318E+02  0.00000000000E+00 0. -1.
         11    1    3    3    0    0 -0.11403953562E+02  0.18538421627E+02  0.27264557815E+02  0.34886664305E+02  0.51100000000E-03 0. -1.
        -11    1    3    3    0    0  0.13380062472E+02 -0.14230460280E+01 -0.45795468814E+00  0.13463315138E+02  0.51100000000E-03 0.  1.
         12    1    3    3    0    0  0.52510142722E+01 -0.21283086363E+02 -0.10041230095E+02  0.24111599239E+02  0.00000000000E+00 0. -1.
</event>
<event>
 7    1  0.1360399E-013  0.7246152E+02  0.7816164E-02  0.1226708E+00
        -11   -1    0    0    0    0  0.00000000000E+00  0.00000000000E+00  0.45593999997E+02  0.45594000000E+02  0.51100000000E-03 0. -1.
         11   -1    0    0    0    0 -0.00000000000E+00 -0.00000000000E+00 -0.45593999997E+02  0.45594000000E+02  0.51100000000E-03 0.  1.
    9900012    2    1    2    0    0  0.11292898499E+02  0.48887403295E+01  0.14115651846E+02  0.72461522340E+02  0.69999937530E+02 0.  0.
         12    1    1    2    0    0 -0.11292898499E+02 -0.48887403295E+01 -0.14115651846E+02  0.18726477660E+02  0.00000000000E+00 0. -1.
         11    1    3    3    0    0 -0.19276791073E+02 -0.95728892552E+00  0.19013068723E+02  0.27092579402E+02  0.51100000000E-03 0. -1.
        -11    1    3    3    0    0  0.12534491038E+02  0.97726806540E+01 -0.17019189452E+02  0.23286725029E+02  0.51100000000E-03 0.  1.
        -12    1    3    3    0    0  0.18035198535E+02 -0.39266513990E+01  0.12121772575E+02  0.22082217908E+02  0.00000000000E+00 0.  1.
</event>
<event>
 7    1  0.1360399E-013  0.7246156E+02  0.7816164E-02  0.1226708E+00
        -11   -1    0    0    0    0  0.00000000000E+00  0.00000000000E+00  0.45593999997E+02  0.45594000000E+02  0.51100000000E-03 0.  1.
         11   -1    0    0    0    0 -0.00000000000E+00 -0.00000000000E+00 -0.45593999997E+02  0.45594000000E+02  0.51100000000E-03 0. -1.
    9900012    2    1    2    0    0  0.69001380540E+01 -0.17169601990E+02  0.28761813213E+01  0.72461559958E+02  0.69999986535E+02 0.  0.
         12    1    1    2    0    0 -0.69001380540E+01  0.17169601990E+02 -0.28761813213E+01  0.18726440042E+02  0.00000000000E+00 0. -1.
         11    1    3    3    0    0  0.48071616901E+01 -0.10946193055E+02 -0.31579367670E+02  0.33766616778E+02  0.51100000000E-03 0. -1.
        -11    1    3    3    0    0 -0.63763195699E+01 -0.83738720017E+00  0.72200425935E+01  0.96689029313E+01  0.51100000000E-03 0.  1.
         12    1    3    3    0    0  0.84692959339E+01 -0.53860217346E+01  0.27235506398E+02  0.29026040249E+02  0.00000000000E+00 0. -1.
</event>
<event>
 7    1  0.1360399E-013  0.7246155E+02  0.7816164E-02  0.1226708E+00
        -11   -1    0    0    0    0  0.00000000000E+00  0.00000000000E+00  0.45593999997E+02  0.45594000000E+02  0.51100000000E-03 0.  1.
         11   -1    0    0    0    0 -0.00000000000E+00 -0.00000000000E+00 -0.45593999997E+02  0.45594000000E+02  0.51100000000E-03 0. -1.
    9900012    2    1    2    0    0 -0.62006292005E+01 -0.71229265911E+00  0.17655728820E+02  0.72461550163E+02  0.69999973776E+02 0.  0.
         12    1    1    2    0    0  0.62006292005E+01  0.71229265911E+00 -0.17655728820E+02  0.18726449837E+02  0.00000000000E+00 0. -1.
         11    1    3    3    0    0 -0.66044155869E+01 -0.22873462255E+02  0.33110969617E+02  0.40781734760E+02  0.51100000000E-03 0. -1.
        -11    1    3    3    0    0 -0.40473769027E+01  0.82621175747E+01  0.14856111503E+01  0.93193823487E+01  0.51100000000E-03 0.  1.
         12    1    3    3    0    0  0.44511632891E+01  0.13899052022E+02 -0.16940851947E+02  0.22360433055E+02  0.00000000000E+00 0. -1.
</event>
<event>
 7    1  0.1360399E-013  0.7246159E+02  0.7816164E-02  0.1226708E+00
        -11   -1    0    0    0    0  0.00000000000E+00  0.00000000000E+00  0.45593999997E+02  0.45594000000E+02  0.51100000000E-03 0.  1.
         11   -1    0    0    0    0 -0.00000000000E+00 -0.00000000000E+00 -0.45593999997E+02  0.45594000000E+02  0.51100000000E-03 0. -1.
    9900012    2    1    2    0    0  0.15646436632E+02 -0.10137069986E+02  0.17627454264E+01  0.72461589809E+02  0.70000025422E+02 0.  0.
         12    1    1    2    0    0 -0.15646436632E+02  0.10137069986E+02 -0.17627454264E+01  0.18726410191E+02  0.00000000000E+00 0. -1.
         11    1    3    3    0    0 -0.12958998699E+02 -0.58413529720E+01  0.20647559173E+02  0.25067483956E+02  0.51100000000E-03 0. -1.
        -11    1    3    3    0    0  0.19735623215E+02  0.70215984371E+01 -0.24251916785E+02  0.32046109534E+02  0.51100000000E-03 0.  1.
         12    1    3    3    0    0  0.88698121159E+01 -0.11317315451E+02  0.53671030386E+01  0.15347996320E+02  0.00000000000E+00 0. -1.
</event>
<event>
 7    1  0.1360399E-013  0.7246202E+02  0.7816164E-02  0.1226707E+00
        -11   -1    0    0    0    0  0.00000000000E+00  0.00000000000E+00  0.45593999997E+02  0.45594000000E+02  0.51100000000E-03 0. -1.
         11   -1    0    0    0    0 -0.00000000000E+00 -0.00000000000E+00 -0.45593999997E+02  0.45594000000E+02  0.51100000000E-03 0.  1.
    9900012    2    1    2    0    0  0.17538947538E+02  0.54693899137E+01 -0.36239980026E+01  0.72462021567E+02  0.70000587863E+02 0.  0.
         12    1    1    2    0    0 -0.17538947538E+02 -0.54693899137E+01  0.36239980026E+01  0.18725978433E+02  0.00000000000E+00 0. -1.
         11    1    3    3    0    0  0.31627770476E+02 -0.19293990140E+01 -0.87705768325E+01  0.32877978406E+02  0.51100000000E-03 0. -1.
        -11    1    3    3    0    0 -0.17274025556E+02 -0.99099058234E+01 -0.30893311534E+01  0.20152969002E+02  0.51100000000E-03 0.  1.
         12    1    3    3    0    0  0.31852026178E+01  0.17308694751E+02  0.82359099833E+01  0.19431074159E+02  0.00000000000E+00 0. -1.
</event>
<event>
 7    1  0.1360399E-013  0.7246155E+02  0.7816164E-02  0.1226708E+00
        -11   -1    0    0    0    0  0.00000000000E+00  0.00000000000E+00  0.45593999997E+02  0.45594000000E+02  0.51100000000E-03 0. -1.
         11   -1    0    0    0    0 -0.00000000000E+00 -0.00000000000E+00 -0.45593999997E+02  0.45594000000E+02  0.51100000000E-03 0.  1.
    9900012    2    1    2    0    0  0.56164540433E+01  0.10653459759E+02 -0.14340127562E+02  0.72461547603E+02  0.69999970441E+02 0.  0.
         12    1    1    2    0    0 -0.56164540433E+01 -0.10653459759E+02  0.14340127562E+02  0.18726452397E+02  0.00000000000E+00 0. -1.
         11    1    3    3    0    0  0.36605895842E+02  0.15198585972E+02 -0.82786289788E+01  0.40491040045E+02  0.51100000000E-03 0. -1.
        -11    1    3    3    0    0 -0.14891364352E+02 -0.11635747362E+01 -0.26153573948E+01  0.15163994626E+02  0.51100000000E-03 0.  1.
         12    1    3    3    0    0 -0.16098077446E+02 -0.33815514759E+01 -0.34461411885E+01  0.16806512932E+02  0.00000000000E+00 0. -1.
</event>
<event>
 7    1  0.1360399E-013  0.7246160E+02  0.7816164E-02  0.1226708E+00
        -11   -1    0    0    0    0  0.00000000000E+00  0.00000000000E+00  0.45593999997E+02  0.45594000000E+02  0.51100000000E-03 0. -1.
         11   -1    0    0    0    0 -0.00000000000E+00 -0.00000000000E+00 -0.45593999997E+02  0.45594000000E+02  0.51100000000E-03 0.  1.
    9900012    2    1    2    0    0 -0.15453034402E+02  0.93544281398E+01  0.49372442001E+01  0.72461602099E+02  0.70000041431E+02 0.  0.
         12    1    1    2    0    0  0.15453034402E+02 -0.93544281398E+01 -0.49372442001E+01  0.18726397901E+02  0.00000000000E+00 0. -1.
         11    1    3    3    0    0 -0.10235696068E+02  0.14410943828E+02 -0.18300522222E+02  0.25443150156E+02  0.51100000000E-03 0.  1.
        -11    1    3    3    0    0 -0.10128239513E+01 -0.15878006955E+02  0.29728034437E+02  0.33717843184E+02  0.51100000000E-03 0. -1.
         12    1    3    3    0    0 -0.42045143832E+01  0.10821491267E+02 -0.64902680147E+01  0.13300608759E+02  0.00000000000E+00 0. -1.
</event>
<event>
 7    1  0.1360399E-013  0.7246155E+02  0.7816164E-02  0.1226708E+00
        -11   -1    0    0    0    0  0.00000000000E+00  0.00000000000E+00  0.45593999997E+02  0.45594000000E+02  0.51100000000E-03 0. -1.
         11   -1    0    0    0    0 -0.00000000000E+00 -0.00000000000E+00 -0.45593999997E+02  0.45594000000E+02  0.51100000000E-03 0.  1.
    9900012    2    1    2    0    0  0.44287839041E+00 -0.17926233171E+02 -0.53975930674E+01  0.72461548444E+02  0.69999971535E+02 0.  0.
         12    1    1    2    0    0 -0.44287839041E+00  0.17926233171E+02  0.53975930674E+01  0.18726451556E+02  0.00000000000E+00 0. -1.
         11    1    3    3    0    0 -0.12199125958E+02 -0.57231964084E+01 -0.18332297966E+02  0.22751852677E+02  0.51100000000E-03 0. -1.
        -11    1    3    3    0    0 -0.63603974862E+01 -0.24533714110E+02  0.68707068389E+01  0.26259558201E+02  0.51100000000E-03 0.  1.
         12    1    3    3    0    0  0.19002401835E+02  0.12330677347E+02  0.60639980595E+01  0.23450137565E+02  0.00000000000E+00 0. -1.
</event>
<event>
 7    1  0.1360399E-013  0.7246155E+02  0.7816164E-02  0.1226708E+00
        -11   -1    0    0    0    0  0.00000000000E+00  0.00000000000E+00  0.45593999997E+02  0.45594000000E+02  0.51100000000E-03 0. -1.
         11   -1    0    0    0    0 -0.00000000000E+00 -0.00000000000E+00 -0.45593999997E+02  0.45594000000E+02  0.51100000000E-03 0.  1.
    9900012    2    1    2    0    0  0.14856444216E+02  0.10983380656E+02  0.30547169444E+01  0.72461551298E+02  0.69999975254E+02 0.  0.
         12    1    1    2    0    0 -0.14856444216E+02 -0.10983380656E+02 -0.30547169444E+01  0.18726448702E+02  0.00000000000E+00 0. -1.
         11    1    3    3    0    0  0.43306168500E+01  0.73553192864E+01  0.10037352536E+02  0.13175864689E+02  0.51100000000E-03 0. -1.
        -11    1    3    3    0    0 -0.23579003744E+02  0.63933844817E+01 -0.54712700343E+01  0.25035566276E+02  0.51100000000E-03 0.  1.
        -12    1    3    3    0    0  0.34104831110E+02 -0.27653231119E+01 -0.15113655574E+01  0.34250120333E+02  0.00000000000E+00 0.  1.
</event>
<event>
 7    1  0.1360399E-013  0.7246157E+02  0.7816164E-02  0.1226708E+00
        -11   -1    0    0    0    0  0.00000000000E+00  0.00000000000E+00  0.45593999997E+02  0.45594000000E+02  0.51100000000E-03 0.  1.
         11   -1    0    0    0    0 -0.00000000000E+00 -0.00000000000E+00 -0.45593999997E+02  0.45594000000E+02  0.51100000000E-03 0. -1.
    9900012    2    1    2    0    0 -0.93578365934E+01 -0.17075692811E+01  0.16130544593E+02  0.72461565010E+02  0.69999993116E+02 0.  0.
         12    1    1    2    0    0  0.93578365934E+01  0.17075692811E+01 -0.16130544593E+02  0.18726434990E+02  0.00000000000E+00 0. -1.
         11    1    3    3    0    0  0.19696653972E+02 -0.23140195520E+02  0.18136520126E+02  0.35388701431E+02  0.51100000000E-03 0. -1.
        -11    1    3    3    0    0 -0.12674656119E+02  0.44739510722E+01 -0.71242309493E+00  0.13459966303E+02  0.51100000000E-03 0.  1.
         12    1    3    3    0    0 -0.16379834447E+02  0.16958675166E+02 -0.12935524377E+01  0.23612897277E+02  0.00000000000E+00 0. -1.
</event>
<event>
 7    1  0.1360399E-013  0.7246167E+02  0.7816164E-02  0.1226708E+00
        -11   -1    0    0    0    0  0.00000000000E+00  0.00000000000E+00  0.45593999997E+02  0.45594000000E+02  0.51100000000E-03 0. -1.
         11   -1    0    0    0    0 -0.00000000000E+00 -0.00000000000E+00 -0.45593999997E+02  0.45594000000E+02  0.51100000000E-03 0.  1.
    9900012    2    1    2    0    0  0.13694569635E+02 -0.10109132444E+02 -0.78063788219E+01  0.72461672368E+02  0.70000132970E+02 0.  0.
         12    1    1    2    0    0 -0.13694569635E+02  0.10109132444E+02  0.78063788219E+01  0.18726327632E+02  0.00000000000E+00 0. -1.
         11    1    3    3    0    0  0.25162022448E+02 -0.27510661448E+02 -0.12069060769E+02  0.39187065406E+02  0.51100000000E-03 0. -1.
        -11    1    3    3    0    0  0.41460664812E+00  0.16288801859E+02  0.10914630149E+02  0.19611887115E+02  0.51100000000E-03 0.  1.
        -12    1    3    3    0    0 -0.11882059461E+02  0.11127271454E+01 -0.66519482022E+01  0.13662719847E+02  0.00000000000E+00 0.  1.
</event>
<event>
 8    1  0.1360399E-013  0.7246153E+02  0.7816164E-02  0.1226708E+00
        -11   -1    0    0    0    0  0.00000000000E+00  0.00000000000E+00  0.45593999997E+02  0.45594000000E+02  0.51100000000E-03 0.  1.
         11   -1    0    0    0    0 -0.00000000000E+00 -0.00000000000E+00 -0.45593999997E+02  0.45594000000E+02  0.51100000000E-03 0. -1.
    9900012    2    1    2    0    0  0.83001092150E+01  0.95894855391E+01  0.13777906520E+02  0.72461527990E+02  0.69999944890E+02 0.  0.
        -24    2    3    3    0    0  0.17172664456E+02  0.18448296061E+01 -0.26435016849E+01  0.52253495436E+02  0.49245668676E+02 0.  0.
         12    1    1    2    0    0 -0.83001092150E+01 -0.95894855391E+01 -0.13777906520E+02  0.18726472010E+02  0.00000000000E+00 0. -1.
         11    1    4    4    0    0  0.34576818319E+02  0.31475271983E+01 -0.23292772947E+01  0.34797827885E+02  0.51100000000E-03 0. -1.
        -11    1    3    3    0    0 -0.88725552409E+01  0.77446559330E+01  0.16421408204E+02  0.20208032554E+02  0.51100000000E-03 0.  1.
        -12    1    4    4    0    0 -0.17404153863E+02 -0.13026975922E+01 -0.31422439026E+00  0.17455667551E+02  0.00000000000E+00 0.  1.
</event>
<event>
 7    1  0.1360399E-013  0.7246154E+02  0.7816164E-02  0.1226708E+00
        -11   -1    0    0    0    0  0.00000000000E+00  0.00000000000E+00  0.45593999997E+02  0.45594000000E+02  0.51100000000E-03 0.  1.
         11   -1    0    0    0    0 -0.00000000000E+00 -0.00000000000E+00 -0.45593999997E+02  0.45594000000E+02  0.51100000000E-03 0. -1.
    9900012    2    1    2    0    0 -0.86783150519E+01 -0.11801279796E+02  0.11666051869E+02  0.72461544832E+02  0.69999966830E+02 0.  0.
         12    1    1    2    0    0  0.86783150519E+01  0.11801279796E+02 -0.11666051869E+02  0.18726455168E+02  0.00000000000E+00 0. -1.
         11    1    3    3    0    0 -0.62498616075E+00 -0.54786716868E+01 -0.58748927153E+01  0.80573454580E+01  0.51100000000E-03 0. -1.
        -11    1    3    3    0    0  0.17481576306E+02  0.35500393597E+01  0.29543849398E+02  0.34511553531E+02  0.51100000000E-03 0.  1.
        -12    1    3    3    0    0 -0.25534905198E+02 -0.98726474693E+01 -0.12002904814E+02  0.29892645843E+02  0.00000000000E+00 0.  1.
</event>
<event>
 7    1  0.1360399E-013  0.7246154E+02  0.7816164E-02  0.1226708E+00
        -11   -1    0    0    0    0  0.00000000000E+00  0.00000000000E+00  0.45593999997E+02  0.45594000000E+02  0.51100000000E-03 0. -1.
         11   -1    0    0    0    0 -0.00000000000E+00 -0.00000000000E+00 -0.45593999997E+02  0.45594000000E+02  0.51100000000E-03 0.  1.
    9900012    2    1    2    0    0 -0.40027914620E+01  0.17530865234E+02 -0.52275135547E+01  0.72461535483E+02  0.69999954651E+02 0.  0.
         12    1    1    2    0    0  0.40027914620E+01 -0.17530865234E+02  0.52275135547E+01  0.18726464517E+02  0.00000000000E+00 0. -1.
         11    1    3    3    0    0 -0.13134652690E+02  0.25752565361E+01  0.17311856815E+02  0.21882674292E+02  0.51100000000E-03 0. -1.
        -11    1    3    3    0    0  0.42395016963E+01  0.28960922570E+02 -0.93455055973E+01  0.30725345984E+02  0.51100000000E-03 0.  1.
        -12    1    3    3    0    0  0.48923595314E+01 -0.14005313871E+02 -0.13193864773E+02  0.19853515207E+02  0.00000000000E+00 0.  1.
</event>
<event>
 7    1  0.1360399E-013  0.7246158E+02  0.7816164E-02  0.1226708E+00
        -11   -1    0    0    0    0  0.00000000000E+00  0.00000000000E+00  0.45593999997E+02  0.45594000000E+02  0.51100000000E-03 0.  1.
         11   -1    0    0    0    0 -0.00000000000E+00 -0.00000000000E+00 -0.45593999997E+02  0.45594000000E+02  0.51100000000E-03 0. -1.
    9900012    2    1    2    0    0  0.59429501936E+01 -0.27444513668E+01  0.17545026980E+02  0.72461584378E+02  0.70000018347E+02 0.  0.
         12    1    1    2    0    0 -0.59429501936E+01  0.27444513668E+01 -0.17545026980E+02  0.18726415622E+02  0.00000000000E+00 0. -1.
         11    1    3    3    0    0 -0.17009063894E+02  0.11100088804E+02 -0.13807846260E+02  0.24559658886E+02  0.51100000000E-03 0. -1.
        -11    1    3    3    0    0  0.15972357902E+02 -0.45406377593E+01  0.32211168165E+02  0.36239384142E+02  0.51100000000E-03 0.  1.
         12    1    3    3    0    0  0.69796561852E+01 -0.93039024119E+01 -0.85829492498E+00  0.11662541350E+02  0.00000000000E+00 0. -1.
</event>
<event>
 7    1  0.1360399E-013  0.7246155E+02  0.7816164E-02  0.1226708E+00
        -11   -1    0    0    0    0  0.00000000000E+00  0.00000000000E+00  0.45593999997E+02  0.45594000000E+02  0.51100000000E-03 0. -1.
         11   -1    0    0    0    0 -0.00000000000E+00 -0.00000000000E+00 -0.45593999997E+02  0.45594000000E+02  0.51100000000E-03 0.  1.
    9900012    2    1    2    0    0 -0.61134032779E+01  0.12293252125E+02 -0.12735072873E+02  0.72461552698E+02  0.69999977078E+02 0.  0.
         12    1    1    2    0    0  0.61134032779E+01 -0.12293252125E+02  0.12735072873E+02  0.18726447302E+02  0.00000000000E+00 0. -1.
         11    1    3    3    0    0 -0.16772305633E+01  0.31578122209E+02 -0.16878275694E+02  0.35845042827E+02  0.51100000000E-03 0.  1.
        -11    1    3    3    0    0 -0.13393688770E+02 -0.60222059963E+01  0.11834218115E+02  0.18860185115E+02  0.51100000000E-03 0. -1.
         12    1    3    3    0    0  0.89575160553E+01 -0.13262664087E+02 -0.76910152947E+01  0.17756324756E+02  0.00000000000E+00 0. -1.
</event>
<event>
 7    1  0.1360399E-013  0.7246155E+02  0.7816164E-02  0.1226708E+00
        -11   -1    0    0    0    0  0.00000000000E+00  0.00000000000E+00  0.45593999997E+02  0.45594000000E+02  0.51100000000E-03 0. -1.
         11   -1    0    0    0    0 -0.00000000000E+00 -0.00000000000E+00 -0.45593999997E+02  0.45594000000E+02  0.51100000000E-03 0.  1.
    9900012    2    1    2    0    0  0.14493294984E+01  0.11032443016E+02  0.15062027450E+02  0.72461547432E+02  0.69999970217E+02 0.  0.
         12    1    1    2    0    0 -0.14493294984E+01 -0.11032443016E+02 -0.15062027450E+02  0.18726452568E+02  0.00000000000E+00 0. -1.
         11    1    3    3    0    0 -0.25574328053E+02  0.19591413952E+02  0.24328882105E+01  0.32307718912E+02  0.51100000000E-03 0.  1.
        -11    1    3    3    0    0  0.88899904695E+01 -0.10845870225E+02  0.16309525598E+02  0.21509659620E+02  0.51100000000E-03 0. -1.
         12    1    3    3    0    0  0.18133667082E+02  0.22868992888E+01 -0.36803863582E+01  0.18644168899E+02  0.00000000000E+00 0. -1.
</event>
<event>
 7    1  0.1360399E-013  0.7246157E+02  0.7816164E-02  0.1226708E+00
        -11   -1    0    0    0    0  0.00000000000E+00  0.00000000000E+00  0.45593999997E+02  0.45594000000E+02  0.51100000000E-03 0.  1.
         11   -1    0    0    0    0 -0.00000000000E+00 -0.00000000000E+00 -0.45593999997E+02  0.45594000000E+02  0.51100000000E-03 0. -1.
    9900012    2    1    2    0    0 -0.12913368784E+02 -0.11756628516E+02 -0.67606051234E+01  0.72461569773E+02  0.69999999321E+02 0.  0.
         12    1    1    2    0    0  0.12913368784E+02  0.11756628516E+02  0.67606051234E+01  0.18726430227E+02  0.00000000000E+00 0. -1.
         11    1    3    3    0    0  0.42511419669E+01 -0.26589903793E+01 -0.34222086747E+02  0.34587478362E+02  0.51100000000E-03 0. -1.
        -11    1    3    3    0    0 -0.11961846038E+01 -0.14725641377E+01  0.17430116331E+02  0.17533061864E+02  0.51100000000E-03 0.  1.
         12    1    3    3    0    0 -0.15968326147E+02 -0.76250739987E+01  0.10031365292E+02  0.20341029547E+02  0.00000000000E+00 0. -1.
</event>
<event>
 7    1  0.1360399E-013  0.7246156E+02  0.7816164E-02  0.1226708E+00
        -11   -1    0    0    0    0  0.00000000000E+00  0.00000000000E+00  0.45593999997E+02  0.45594000000E+02  0.51100000000E-03 0.  1.
         11   -1    0    0    0    0 -0.00000000000E+00 -0.00000000000E+00 -0.45593999997E+02  0.45594000000E+02  0.51100000000E-03 0. -1.
    9900012    2    1    2    0    0 -0.15552830740E+02 -0.55561624094E+01  0.88271158756E+01  0.72461562553E+02  0.69999989916E+02 0.  0.
         12    1    1    2    0    0  0.15552830740E+02  0.55561624094E+01 -0.88271158756E+01  0.18726437447E+02  0.00000000000E+00 0. -1.
         11    1    3    3    0    0  0.16511408118E+02 -0.42887653383E+01  0.80081989060E+01  0.18845459828E+02  0.51100000000E-03 0.  1.
        -11    1    3    3    0    0 -0.14550305580E+02  0.20597471543E+02  0.35575810142E+01  0.25468090022E+02  0.51100000000E-03 0. -1.
        -12    1    3    3    0    0 -0.17513933278E+02 -0.21864868614E+02 -0.27386640447E+01  0.28148012703E+02  0.00000000000E+00 0.  1.
</event>
<event>
 7    1  0.1360399E-013  0.7246155E+02  0.7816164E-02  0.1226708E+00
        -11   -1    0    0    0    0  0.00000000000E+00  0.00000000000E+00  0.45593999997E+02  0.45594000000E+02  0.51100000000E-03 0.  1.
         11   -1    0    0    0    0 -0.00000000000E+00 -0.00000000000E+00 -0.45593999997E+02  0.45594000000E+02  0.51100000000E-03 0. -1.
    9900012    2    1    2    0    0 -0.17395174996E+02  0.51135382694E+01 -0.46839789375E+01  0.72461546906E+02  0.69999969533E+02 0.  0.
         12    1    1    2    0    0  0.17395174996E+02 -0.51135382694E+01  0.46839789375E+01  0.18726453094E+02  0.00000000000E+00 0. -1.
         11    1    3    3    0    0 -0.41321062987E+00 -0.14158194655E+02 -0.30924302448E+02  0.34013786926E+02  0.51100000000E-03 0. -1.
        -11    1    3    3    0    0 -0.18007267351E+02  0.19943417287E+02  0.25244435730E+02  0.36868456791E+02  0.51100000000E-03 0.  1.
        -12    1    3    3    0    0  0.10253029846E+01 -0.67168436307E+00  0.99588778015E+00  0.15793031896E+01  0.00000000000E+00 0.  1.
</event>
<event>
 7    1  0.1360399E-013  0.7246169E+02  0.7816164E-02  0.1226708E+00
        -11   -1    0    0    0    0  0.00000000000E+00  0.00000000000E+00  0.45593999997E+02  0.45594000000E+02  0.51100000000E-03 0. -1.
         11   -1    0    0    0    0 -0.00000000000E+00 -0.00000000000E+00 -0.45593999997E+02  0.45594000000E+02  0.51100000000E-03 0.  1.
    9900012    2    1    2    0    0 -0.15183341828E+02 -0.10767630324E+02  0.20490904494E+01  0.72461694878E+02  0.70000162293E+02 0.  0.
         12    1    1    2    0    0  0.15183341828E+02  0.10767630324E+02 -0.20490904494E+01  0.18726305122E+02  0.00000000000E+00 0. -1.
         11    1    3    3    0    0  0.80649569985E+00 -0.83716033000E+01  0.66998430586E+01  0.10752770545E+02  0.51100000000E-03 0. -1.
        -11    1    3    3    0    0 -0.36549407587E+02 -0.12489681795E+02 -0.25291727638E+01  0.38707209425E+02  0.51100000000E-03 0.  1.
        -12    1    3    3    0    0  0.20559570060E+02  0.10093654771E+02 -0.21215798454E+01  0.23001714908E+02  0.00000000000E+00 0.  1.
</event>
<event>
 7    1  0.1360399E-013  0.7246133E+02  0.7816164E-02  0.1226709E+00
        -11   -1    0    0    0    0  0.00000000000E+00  0.00000000000E+00  0.45593999997E+02  0.45594000000E+02  0.51100000000E-03 0.  1.
         11   -1    0    0    0    0 -0.00000000000E+00 -0.00000000000E+00 -0.45593999997E+02  0.45594000000E+02  0.51100000000E-03 0. -1.
    9900012    2    1    2    0    0 -0.26134147831E+01 -0.17432676310E+02 -0.63213972867E+01  0.72461329079E+02  0.69999685771E+02 0.  0.
         12    1    1    2    0    0  0.26134147831E+01  0.17432676310E+02  0.63213972867E+01  0.18726670921E+02  0.00000000000E+00 0. -1.
         11    1    3    3    0    0 -0.64892647342E+01 -0.21143813489E+01 -0.40552544074E+01  0.79389075980E+01  0.51100000000E-03 0. -1.
        -11    1    3    3    0    0  0.25341947091E+02  0.12867917062E+02  0.34652467085E+01  0.28632245928E+02  0.51100000000E-03 0.  1.
        -12    1    3    3    0    0 -0.21466097140E+02 -0.28186212023E+02 -0.57313895878E+01  0.35890175553E+02  0.00000000000E+00 0.  1.
</event>
<event>
 7    1  0.1360399E-013  0.7246157E+02  0.7816164E-02  0.1226708E+00
        -11   -1    0    0    0    0  0.00000000000E+00  0.00000000000E+00  0.45593999997E+02  0.45594000000E+02  0.51100000000E-03 0.  1.
         11   -1    0    0    0    0 -0.00000000000E+00 -0.00000000000E+00 -0.45593999997E+02  0.45594000000E+02  0.51100000000E-03 0. -1.
    9900012    2    1    2    0    0 -0.16729301620E+02 -0.68387584805E+01 -0.49031641460E+01  0.72461570311E+02  0.70000000022E+02 0.  0.
         12    1    1    2    0    0  0.16729301620E+02  0.68387584805E+01  0.49031641460E+01  0.18726429689E+02  0.00000000000E+00 0. -1.
         11    1    3    3    0    0 -0.74656472168E+01  0.16095764468E+02 -0.28036666814E+02  0.33179273779E+02  0.51100000000E-03 0. -1.
        -11    1    3    3    0    0 -0.10722241400E+02 -0.62784547378E+01  0.17847688827E+02  0.21746849227E+02  0.51100000000E-03 0.  1.
        -12    1    3    3    0    0  0.14585869974E+01 -0.16656068211E+02  0.52858138404E+01  0.17535447306E+02  0.00000000000E+00 0.  1.
</event>
<event>
 7    1  0.1360399E-013  0.7246161E+02  0.7816164E-02  0.1226708E+00
        -11   -1    0    0    0    0  0.00000000000E+00  0.00000000000E+00  0.45593999997E+02  0.45594000000E+02  0.51100000000E-03 0.  1.
         11   -1    0    0    0    0 -0.00000000000E+00 -0.00000000000E+00 -0.45593999997E+02  0.45594000000E+02  0.51100000000E-03 0. -1.
    9900012    2    1    2    0    0  0.88879780606E+01 -0.14971265126E+02  0.68951169392E+01  0.72461612973E+02  0.70000055597E+02 0.  0.
         12    1    1    2    0    0 -0.88879780606E+01  0.14971265126E+02 -0.68951169392E+01  0.18726387027E+02  0.00000000000E+00 0. -1.
         11    1    3    3    0    0 -0.85355312623E+00 -0.23959777888E+01 -0.14766141613E+02  0.14983597729E+02  0.51100000000E-03 0. -1.
        -11    1    3    3    0    0  0.25004293318E+02 -0.21396664636E+02  0.51224992911E+01  0.33305734358E+02  0.51100000000E-03 0.  1.
        -12    1    3    3    0    0 -0.15262762131E+02  0.88213772993E+01  0.16538759261E+02  0.24172280886E+02  0.00000000000E+00 0.  1.
</event>
<event>
 7    1  0.1360399E-013  0.7246154E+02  0.7816164E-02  0.1226708E+00
        -11   -1    0    0    0    0  0.00000000000E+00  0.00000000000E+00  0.45593999997E+02  0.45594000000E+02  0.51100000000E-03 0.  1.
         11   -1    0    0    0    0 -0.00000000000E+00 -0.00000000000E+00 -0.45593999997E+02  0.45594000000E+02  0.51100000000E-03 0. -1.
    9900012    2    1    2    0    0  0.17952208109E+02 -0.34852348516E+01  0.40313207845E+01  0.72461543175E+02  0.69999964672E+02 0.  0.
         12    1    1    2    0    0 -0.17952208109E+02  0.34852348516E+01 -0.40313207845E+01  0.18726456825E+02  0.00000000000E+00 0. -1.
         11    1    3    3    0    0  0.26605614502E+02  0.99815609074E+01 -0.10963738208E+02  0.30458066861E+02  0.51100000000E-03 0. -1.
        -11    1    3    3    0    0 -0.16459389347E+02 -0.19112691253E+02  0.18991701587E+02  0.31573583801E+02  0.51100000000E-03 0.  1.
        -12    1    3    3    0    0  0.78059829538E+01  0.56458954941E+01 -0.39966425945E+01  0.10429892513E+02  0.00000000000E+00 0.  1.
</event>
<event>
 7    1  0.1360399E-013  0.7246186E+02  0.7816164E-02  0.1226707E+00
        -11   -1    0    0    0    0  0.00000000000E+00  0.00000000000E+00  0.45593999997E+02  0.45594000000E+02  0.51100000000E-03 0. -1.
         11   -1    0    0    0    0 -0.00000000000E+00 -0.00000000000E+00 -0.45593999997E+02  0.45594000000E+02  0.51100000000E-03 0.  1.
    9900012    2    1    2    0    0 -0.17288359481E+00 -0.17572897822E+02 -0.64677382612E+01  0.72461861455E+02  0.70000379290E+02 0.  0.
         12    1    1    2    0    0  0.17288359481E+00  0.17572897822E+02  0.64677382612E+01  0.18726138545E+02  0.00000000000E+00 0. -1.
         11    1    3    3    0    0 -0.14157168363E+02  0.15055997201E+02 -0.45701636951E+01  0.21165889167E+02  0.51100000000E-03 0. -1.
        -11    1    3    3    0    0  0.54474332965E+01 -0.39717127331E+02 -0.33389802205E+00  0.40090350724E+02  0.51100000000E-03 0.  1.
         12    1    3    3    0    0  0.85368514716E+01  0.70882323084E+01 -0.15636765440E+01  0.11205621564E+02  0.00000000000E+00 0. -1.
</event>
<event>
 7    1  0.1360399E-013  0.7246155E+02  0.7816164E-02  0.1226708E+00
        -11   -1    0    0    0    0  0.00000000000E+00  0.00000000000E+00  0.45593999997E+02  0.45594000000E+02  0.51100000000E-03 0.  1.
         11   -1    0    0    0    0 -0.00000000000E+00 -0.00000000000E+00 -0.45593999997E+02  0.45594000000E+02  0.51100000000E-03 0. -1.
    9900012    2    1    2    0    0  0.13497132083E+02 -0.12079724230E+02  0.47526359164E+01  0.72461551856E+02  0.69999975980E+02 0.  0.
         12    1    1    2    0    0 -0.13497132083E+02  0.12079724230E+02 -0.47526359164E+01  0.18726448144E+02  0.00000000000E+00 0. -1.
         11    1    3    3    0    0  0.32089127315E+02 -0.15992080339E+02 -0.13699299506E+02  0.38381369603E+02  0.51100000000E-03 0.  1.
        -11    1    3    3    0    0 -0.18337887021E+02 -0.54199319318E+01  0.14220977533E+02  0.23830441976E+02  0.51100000000E-03 0. -1.
        -12    1    3    3    0    0 -0.25410821088E+00  0.93322880408E+01  0.42309578895E+01  0.10249740276E+02  0.00000000000E+00 0.  1.
</event>
<event>
 7    1  0.1360399E-013  0.7246157E+02  0.7816164E-02  0.1226708E+00
        -11   -1    0    0    0    0  0.00000000000E+00  0.00000000000E+00  0.45593999997E+02  0.45594000000E+02  0.51100000000E-03 0. -1.
         11   -1    0    0    0    0 -0.00000000000E+00 -0.00000000000E+00 -0.45593999997E+02  0.45594000000E+02  0.51100000000E-03 0.  1.
    9900012    2    1    2    0    0  0.13343440888E+01 -0.18061963868E+02 -0.47606895906E+01  0.72461570060E+02  0.69999999695E+02 0.  0.
         12    1    1    2    0    0 -0.13343440888E+01  0.18061963868E+02  0.47606895906E+01  0.18726429940E+02  0.00000000000E+00 0. -1.
         11    1    3    3    0    0 -0.14054245189E+02 -0.73623947524E+01 -0.50630396970E+01  0.16654159708E+02  0.51100000000E-03 0. -1.
        -11    1    3    3    0    0  0.14983704509E+01  0.21071774867E+02 -0.30176580407E+00  0.21127135937E+02  0.51100000000E-03 0.  1.
        -12    1    3    3    0    0  0.13890218827E+02 -0.31771343982E+02  0.60411591051E+00  0.34680274416E+02  0.00000000000E+00 0.  1.
</event>
<event>
 7    1  0.1360399E-013  0.7246157E+02  0.7816164E-02  0.1226708E+00
        -11   -1    0    0    0    0  0.00000000000E+00  0.00000000000E+00  0.45593999997E+02  0.45594000000E+02  0.51100000000E-03 0. -1.
         11   -1    0    0    0    0 -0.00000000000E+00 -0.00000000000E+00 -0.45593999997E+02  0.45594000000E+02  0.51100000000E-03 0.  1.
    9900012    2    1    2    0    0 -0.10693145532E+02  0.12215903642E+02 -0.93331455767E+01  0.72461567624E+02  0.69999996521E+02 0.  0.
         12    1    1    2    0    0  0.10693145532E+02 -0.12215903642E+02  0.93331455767E+01  0.18726432376E+02  0.00000000000E+00 0. -1.
         11    1    3    3    0    0  0.14446061889E+02 -0.47023008085E+01 -0.21535891633E+02  0.26355169620E+02  0.51100000000E-03 0. -1.
        -11    1    3    3    0    0 -0.14750448829E+02  0.26347715125E+02  0.60955265876E+01  0.30804760632E+02  0.51100000000E-03 0.  1.
         12    1    3    3    0    0 -0.10388758593E+02 -0.94295106736E+01  0.61072194685E+01  0.15301637372E+02  0.00000000000E+00 0. -1.
</event>
<event>
 7    1  0.1360399E-013  0.7246165E+02  0.7816164E-02  0.1226708E+00
        -11   -1    0    0    0    0  0.00000000000E+00  0.00000000000E+00  0.45593999997E+02  0.45594000000E+02  0.51100000000E-03 0.  1.
         11   -1    0    0    0    0 -0.00000000000E+00 -0.00000000000E+00 -0.45593999997E+02  0.45594000000E+02  0.51100000000E-03 0. -1.
    9900012    2    1    2    0    0 -0.10027360745E+02  0.13195808932E+02  0.87177384063E+01  0.72461646917E+02  0.70000099815E+02 0.  0.
         12    1    1    2    0    0  0.10027360745E+02 -0.13195808932E+02 -0.87177384063E+01  0.18726353083E+02  0.00000000000E+00 0. -1.
         11    1    3    3    0    0 -0.16233076688E+02 -0.87886005485E+01  0.13470077738E+02  0.22851592349E+02  0.51100000000E-03 0. -1.
        -11    1    3    3    0    0 -0.16332592521E+02  0.20364941684E+02  0.15499256979E+01  0.26151227469E+02  0.51100000000E-03 0.  1.
         12    1    3    3    0    0  0.22538308463E+02  0.16194677966E+01 -0.63022650293E+01  0.23458827098E+02  0.00000000000E+00 0. -1.
</event>
<event>
 7    1  0.1360399E-013  0.7246155E+02  0.7816164E-02  0.1226708E+00
        -11   -1    0    0    0    0  0.00000000000E+00  0.00000000000E+00  0.45593999997E+02  0.45594000000E+02  0.51100000000E-03 0.  1.
         11   -1    0    0    0    0 -0.00000000000E+00 -0.00000000000E+00 -0.45593999997E+02  0.45594000000E+02  0.51100000000E-03 0. -1.
    9900012    2    1    2    0    0  0.16941517067E+02 -0.79242009464E+01 -0.93382383191E+00  0.72461548437E+02  0.69999971527E+02 0.  0.
         12    1    1    2    0    0 -0.16941517067E+02  0.79242009464E+01  0.93382383191E+00  0.18726451563E+02  0.00000000000E+00 0. -1.
         11    1    3    3    0    0  0.85723157011E+01 -0.68428963524E+01 -0.24909105590E+02  0.27217152102E+02  0.51100000000E-03 0. -1.
        -11    1    3    3    0    0  0.15800475598E+02  0.13132566770E+02  0.65575565135E+01  0.21566661465E+02  0.51100000000E-03 0.  1.
         12    1    3    3    0    0 -0.74312742315E+01 -0.14213871364E+02  0.17417725245E+02  0.23677734870E+02  0.00000000000E+00 0. -1.
</event>
<event>
 7    1  0.1483916E-013  0.7246161E+02  0.7816164E-02  0.1226708E+00
        -11   -1    0    0    0    0  0.00000000000E+00  0.00000000000E+00  0.45593999997E+02  0.45594000000E+02  0.51100000000E-03 0. -1.
         11   -1    0    0    0    0 -0.00000000000E+00 -0.00000000000E+00 -0.45593999997E+02  0.45594000000E+02  0.51100000000E-03 0.  1.
    9900012    2    1    2    0    0 -0.10818918644E+02 -0.46824045809E+01 -0.14550048946E+02  0.72461605857E+02  0.70000046327E+02 0.  0.
         12    1    1    2    0    0  0.10818918644E+02  0.46824045809E+01  0.14550048946E+02  0.18726394143E+02  0.00000000000E+00 0. -1.
         11    1    3    3    0    0 -0.85902786707E+01  0.14129731982E+01  0.24191266592E+02  0.25710051740E+02  0.51100000000E-03 0. -1.
        -11    1    3    3    0    0 -0.10883228067E+02 -0.11551192003E+02 -0.25175925285E+02  0.29760744347E+02  0.51100000000E-03 0.  1.
         12    1    3    3    0    0  0.86545880938E+01  0.54558142244E+01 -0.13565390253E+02  0.16990809770E+02  0.00000000000E+00 0. -1.
</event>
<event>
 7    1  0.1360399E-013  0.7246156E+02  0.7816164E-02  0.1226708E+00
        -11   -1    0    0    0    0  0.00000000000E+00  0.00000000000E+00  0.45593999997E+02  0.45594000000E+02  0.51100000000E-03 0.  1.
         11   -1    0    0    0    0 -0.00000000000E+00 -0.00000000000E+00 -0.45593999997E+02  0.45594000000E+02  0.51100000000E-03 0. -1.
    9900012    2    1    2    0    0  0.39552855394E+01 -0.17613798355E+02 -0.49788809872E+01  0.72461563284E+02  0.69999990868E+02 0.  0.
         12    1    1    2    0    0 -0.39552855394E+01  0.17613798355E+02  0.49788809872E+01  0.18726436716E+02  0.00000000000E+00 0. -1.
         11    1    3    3    0    0  0.24578443726E+02 -0.15883455447E+02  0.13174221314E+02  0.32092743112E+02  0.51100000000E-03 0. -1.
        -11    1    3    3    0    0 -0.84977741607E+01  0.69313465220E+01  0.56117204608E+01  0.12318568792E+02  0.51100000000E-03 0.  1.
         12    1    3    3    0    0 -0.12125384026E+02 -0.86616894298E+01 -0.23764822762E+02  0.28050251380E+02  0.00000000000E+00 0. -1.
</event>
<event>
 7    1  0.1360399E-013  0.7246123E+02  0.7816164E-02  0.1226709E+00
        -11   -1    0    0    0    0  0.00000000000E+00  0.00000000000E+00  0.45593999997E+02  0.45594000000E+02  0.51100000000E-03 0.  1.
         11   -1    0    0    0    0 -0.00000000000E+00 -0.00000000000E+00 -0.45593999997E+02  0.45594000000E+02  0.51100000000E-03 0. -1.
    9900012    2    1    2    0    0 -0.10605270303E+02 -0.10337368798E+01  0.15399728887E+02  0.72461227189E+02  0.69999553040E+02 0.  0.
         12    1    1    2    0    0  0.10605270303E+02  0.10337368798E+01 -0.15399728887E+02  0.18726772811E+02  0.00000000000E+00 0. -1.
         11    1    3    3    0    0  0.15274746589E+02 -0.19273432555E+02  0.37514874409E+00  0.24595199179E+02  0.51100000000E-03 0. -1.
        -11    1    3    3    0    0 -0.16137913069E+02 -0.20176159108E+01  0.19031007933E+02  0.25033622898E+02  0.51100000000E-03 0.  1.
         12    1    3    3    0    0 -0.97421038225E+01  0.20257311586E+02 -0.40064277898E+01  0.22832405112E+02  0.00000000000E+00 0. -1.
</event>
<event>
 7    1  0.1360399E-013  0.7246156E+02  0.7816164E-02  0.1226708E+00
        -11   -1    0    0    0    0  0.00000000000E+00  0.00000000000E+00  0.45593999997E+02  0.45594000000E+02  0.51100000000E-03 0. -1.
         11   -1    0    0    0    0 -0.00000000000E+00 -0.00000000000E+00 -0.45593999997E+02  0.45594000000E+02  0.51100000000E-03 0.  1.
    9900012    2    1    2    0    0  0.13702977374E+02  0.12319097668E+02 -0.33388122902E+01  0.72461563506E+02  0.69999991156E+02 0.  0.
         12    1    1    2    0    0 -0.13702977374E+02 -0.12319097668E+02  0.33388122902E+01  0.18726436494E+02  0.00000000000E+00 0. -1.
         11    1    3    3    0    0  0.16254026561E+02  0.16620348337E+02  0.72259651064E+00  0.23258364179E+02  0.51100000000E-03 0. -1.
        -11    1    3    3    0    0 -0.12731950452E+02  0.52428187713E+01  0.18265474580E+02  0.22873943098E+02  0.51100000000E-03 0.  1.
        -12    1    3    3    0    0  0.10180901265E+02 -0.95440694401E+01 -0.22326883381E+02  0.26329256228E+02  0.00000000000E+00 0.  1.
</event>
<event>
 7    1  0.1360399E-013  0.7246159E+02  0.7816164E-02  0.1226708E+00
        -11   -1    0    0    0    0  0.00000000000E+00  0.00000000000E+00  0.45593999997E+02  0.45594000000E+02  0.51100000000E-03 0.  1.
         11   -1    0    0    0    0 -0.00000000000E+00 -0.00000000000E+00 -0.45593999997E+02  0.45594000000E+02  0.51100000000E-03 0. -1.
    9900012    2    1    2    0    0  0.62340670941E+01 -0.17299982953E+02 -0.35391084861E+01  0.72461593735E+02  0.70000030536E+02 0.  0.
         12    1    1    2    0    0 -0.62340670941E+01  0.17299982953E+02  0.35391084861E+01  0.18726406265E+02  0.00000000000E+00 0. -1.
         11    1    3    3    0    0  0.14249052107E+02  0.85069419892E+01  0.92884119508E+00  0.16621260307E+02  0.51100000000E-03 0. -1.
        -11    1    3    3    0    0  0.10638450811E+02 -0.24939093072E+02  0.13179801247E+02  0.30147009140E+02  0.51100000000E-03 0.  1.
         12    1    3    3    0    0 -0.18653435824E+02 -0.86783187032E+00 -0.17647750928E+02  0.25693324289E+02  0.00000000000E+00 0. -1.
</event>
<event>
 7    1  0.1360399E-013  0.7246157E+02  0.7816164E-02  0.1226708E+00
        -11   -1    0    0    0    0  0.00000000000E+00  0.00000000000E+00  0.45593999997E+02  0.45594000000E+02  0.51100000000E-03 0.  1.
         11   -1    0    0    0    0 -0.00000000000E+00 -0.00000000000E+00 -0.45593999997E+02  0.45594000000E+02  0.51100000000E-03 0. -1.
    9900012    2    1    2    0    0  0.64576478065E+01 -0.15610149633E+02  0.80809214558E+01  0.72461567389E+02  0.69999996215E+02 0.  0.
         12    1    1    2    0    0 -0.64576478065E+01  0.15610149633E+02 -0.80809214558E+01  0.18726432611E+02  0.00000000000E+00 0. -1.
         11    1    3    3    0    0 -0.10621855934E+02 -0.41322786911E+01 -0.21168691327E+02  0.24041901826E+02  0.51100000000E-03 0. -1.
        -11    1    3    3    0    0  0.14894782918E+01 -0.32498517236E+01  0.30536151550E+02  0.30744700902E+02  0.51100000000E-03 0.  1.
         12    1    3    3    0    0  0.15590025449E+02 -0.82280192186E+01 -0.12865387669E+01  0.17674964660E+02  0.00000000000E+00 0. -1.
</event>
<event>
 7    1  0.1360399E-013  0.7246163E+02  0.7816164E-02  0.1226708E+00
        -11   -1    0    0    0    0  0.00000000000E+00  0.00000000000E+00  0.45593999997E+02  0.45594000000E+02  0.51100000000E-03 0.  1.
         11   -1    0    0    0    0 -0.00000000000E+00 -0.00000000000E+00 -0.45593999997E+02  0.45594000000E+02  0.51100000000E-03 0. -1.
    9900012    2    1    2    0    0 -0.73439474937E+01  0.11309462006E+02  0.12993819874E+02  0.72461632211E+02  0.70000080658E+02 0.  0.
         12    1    1    2    0    0  0.73439474937E+01 -0.11309462006E+02 -0.12993819874E+02  0.18726367789E+02  0.00000000000E+00 0. -1.
         11    1    3    3    0    0  0.60794989419E+01 -0.27437779171E+02  0.69808472581E+01  0.28957283401E+02  0.51100000000E-03 0. -1.
        -11    1    3    3    0    0 -0.13939104915E+02  0.23278734081E+02  0.69173320821E+01  0.28000849802E+02  0.51100000000E-03 0.  1.
         12    1    3    3    0    0  0.51565847959E+00  0.15468507096E+02 -0.90435946606E+00  0.15503499008E+02  0.00000000000E+00 0. -1.
</event>
<event>
 7    1  0.1360399E-013  0.7246156E+02  0.7816164E-02  0.1226708E+00
        -11   -1    0    0    0    0  0.00000000000E+00  0.00000000000E+00  0.45593999997E+02  0.45594000000E+02  0.51100000000E-03 0. -1.
         11   -1    0    0    0    0 -0.00000000000E+00 -0.00000000000E+00 -0.45593999997E+02  0.45594000000E+02  0.51100000000E-03 0.  1.
    9900012    2    1    2    0    0  0.11384287799E+02 -0.70964060804E+01  0.13065938611E+02  0.72461555069E+02  0.69999980166E+02 0.  0.
         12    1    1    2    0    0 -0.11384287799E+02  0.70964060804E+01 -0.13065938611E+02  0.18726444931E+02  0.00000000000E+00 0. -1.
         11    1    3    3    0    0 -0.29406053211E+00 -0.76472439083E+01 -0.24533007085E+02  0.25698934762E+02  0.51100000000E-03 0.  1.
        -11    1    3    3    0    0  0.13999234525E+02  0.87695081578E+01  0.33365348986E+02  0.37230758169E+02  0.51100000000E-03 0. -1.
        -12    1    3    3    0    0 -0.23208861943E+01 -0.82186703298E+01  0.42335967111E+01  0.95318621386E+01  0.00000000000E+00 0.  1.
</event>
<event>
 7    1  0.1360399E-013  0.7246150E+02  0.7816164E-02  0.1226708E+00
        -11   -1    0    0    0    0  0.00000000000E+00  0.00000000000E+00  0.45593999997E+02  0.45594000000E+02  0.51100000000E-03 0. -1.
         11   -1    0    0    0    0 -0.00000000000E+00 -0.00000000000E+00 -0.45593999997E+02  0.45594000000E+02  0.51100000000E-03 0.  1.
    9900012    2    1    2    0    0 -0.42461222775E+00  0.78651199757E+01 -0.16989445192E+02  0.72461503913E+02  0.69999913526E+02 0.  0.
         12    1    1    2    0    0  0.42461222775E+00 -0.78651199757E+01  0.16989445192E+02  0.18726496087E+02  0.00000000000E+00 0. -1.
         11    1    3    3    0    0 -0.11375816061E+02  0.27426505030E+01  0.10941032966E+02  0.16019910283E+02  0.51100000000E-03 0. -1.
        -11    1    3    3    0    0  0.11729490376E+02  0.24992020105E+02 -0.91351352465E+01  0.29079764608E+02  0.51100000000E-03 0.  1.
        -12    1    3    3    0    0 -0.77828654223E+00 -0.19869550632E+02 -0.18795342912E+02  0.27361829022E+02  0.00000000000E+00 0.  1.
</event>
<event>
 7    1  0.1360399E-013  0.7246158E+02  0.7816164E-02  0.1226708E+00
        -11   -1    0    0    0    0  0.00000000000E+00  0.00000000000E+00  0.45593999997E+02  0.45594000000E+02  0.51100000000E-03 0. -1.
         11   -1    0    0    0    0 -0.00000000000E+00 -0.00000000000E+00 -0.45593999997E+02  0.45594000000E+02  0.51100000000E-03 0.  1.
    9900012    2    1    2    0    0  0.26101549932E+01 -0.15823271345E+02 -0.96690157844E+01  0.72461583061E+02  0.70000016631E+02 0.  0.
         12    1    1    2    0    0 -0.26101549932E+01  0.15823271345E+02  0.96690157844E+01  0.18726416939E+02  0.00000000000E+00 0. -1.
         11    1    3    3    0    0  0.63444073750E+01  0.18200130658E+02 -0.11718328272E+02  0.22556938592E+02  0.51100000000E-03 0. -1.
        -11    1    3    3    0    0 -0.78356694835E+01 -0.26406712750E+02 -0.14575782378E+02  0.31163530396E+02  0.51100000000E-03 0.  1.
         12    1    3    3    0    0  0.41014171017E+01 -0.76166892523E+01  0.16625094866E+02  0.18741114073E+02  0.00000000000E+00 0. -1.
</event>
<event>
 7    1  0.1360399E-013  0.7246156E+02  0.7816164E-02  0.1226708E+00
        -11   -1    0    0    0    0  0.00000000000E+00  0.00000000000E+00  0.45593999997E+02  0.45594000000E+02  0.51100000000E-03 0.  1.
         11   -1    0    0    0    0 -0.00000000000E+00 -0.00000000000E+00 -0.45593999997E+02  0.45594000000E+02  0.51100000000E-03 0. -1.
    9900012    2    1    2    0    0 -0.43730783710E+01  0.78374323929E+01  0.16435643505E+02  0.72461560446E+02  0.69999987170E+02 0.  0.
         12    1    1    2    0    0  0.43730783710E+01 -0.78374323929E+01 -0.16435643505E+02  0.18726439554E+02  0.00000000000E+00 0. -1.
         11    1    3    3    0    0  0.28905392811E+02 -0.76822424777E+00  0.30301122126E+01  0.29073931319E+02  0.51100000000E-03 0. -1.
        -11    1    3    3    0    0 -0.12589429219E+02  0.25922505635E+01  0.17239610074E+02  0.21503898410E+02  0.51100000000E-03 0.  1.
         12    1    3    3    0    0 -0.20689041963E+02  0.60134060771E+01 -0.38340787819E+01  0.21883730717E+02  0.00000000000E+00 0. -1.
</event>
<event>
 7    1  0.1360399E-013  0.7246163E+02  0.7816164E-02  0.1226708E+00
        -11   -1    0    0    0    0  0.00000000000E+00  0.00000000000E+00  0.45593999997E+02  0.45594000000E+02  0.51100000000E-03 0.  1.
         11   -1    0    0    0    0 -0.00000000000E+00 -0.00000000000E+00 -0.45593999997E+02  0.45594000000E+02  0.51100000000E-03 0. -1.
    9900012    2    1    2    0    0  0.63690443710E+01  0.85581011797E+01  0.15390618451E+02  0.72461629334E+02  0.70000076910E+02 0.  0.
         12    1    1    2    0    0 -0.63690443710E+01 -0.85581011797E+01 -0.15390618451E+02  0.18726370666E+02  0.00000000000E+00 0. -1.
         11    1    3    3    0    0  0.79214712316E+01  0.10098943713E+02 -0.17866618339E+02  0.21998964106E+02  0.51100000000E-03 0. -1.
        -11    1    3    3    0    0 -0.22908308809E+01  0.17957955434E+02  0.12664886021E+02  0.22093786631E+02  0.51100000000E-03 0.  1.
         12    1    3    3    0    0  0.73840402026E+00 -0.19498797967E+02  0.20592350770E+02  0.28368878598E+02  0.00000000000E+00 0. -1.
</event>
<event>
 7    1  0.1360399E-013  0.7246162E+02  0.7816164E-02  0.1226708E+00
        -11   -1    0    0    0    0  0.00000000000E+00  0.00000000000E+00  0.45593999997E+02  0.45594000000E+02  0.51100000000E-03 0. -1.
         11   -1    0    0    0    0 -0.00000000000E+00 -0.00000000000E+00 -0.45593999997E+02  0.45594000000E+02  0.51100000000E-03 0.  1.
    9900012    2    1    2    0    0  0.16564362107E+01 -0.10473796946E+02 -0.15434802634E+02  0.72461619257E+02  0.70000063783E+02 0.  0.
         12    1    1    2    0    0 -0.16564362107E+01  0.10473796946E+02  0.15434802634E+02  0.18726380743E+02  0.00000000000E+00 0. -1.
         11    1    3    3    0    0 -0.13015331863E+02  0.11312917326E+02  0.92642187095E+01  0.19575666284E+02  0.51100000000E-03 0. -1.
        -11    1    3    3    0    0  0.21692014083E+02 -0.15670942577E+01 -0.22623527509E+02  0.31381893770E+02  0.51100000000E-03 0.  1.
         12    1    3    3    0    0 -0.70202460093E+01 -0.20219620014E+02 -0.20754938338E+01  0.21504059202E+02  0.00000000000E+00 0. -1.
</event>
<event>
 7    1  0.1360399E-013  0.7246203E+02  0.7816164E-02  0.1226707E+00
        -11   -1    0    0    0    0  0.00000000000E+00  0.00000000000E+00  0.45593999997E+02  0.45594000000E+02  0.51100000000E-03 0. -1.
         11   -1    0    0    0    0 -0.00000000000E+00 -0.00000000000E+00 -0.45593999997E+02  0.45594000000E+02  0.51100000000E-03 0.  1.
    9900012    2    1    2    0    0 -0.87458562522E+01  0.13181441001E+02 -0.10021064328E+02  0.72462025560E+02  0.70000593066E+02 0.  0.
         12    1    1    2    0    0  0.87458562522E+01 -0.13181441001E+02  0.10021064328E+02  0.18725974440E+02  0.00000000000E+00 0. -1.
         11    1    3    3    0    0 -0.17011459529E+02 -0.17791730603E+02 -0.25931196495E+02  0.35754193951E+02  0.51100000000E-03 0. -1.
        -11    1    3    3    0    0 -0.21765723496E+00  0.13993121196E+02  0.53177630177E+01  0.14971086108E+02  0.51100000000E-03 0.  1.
         12    1    3    3    0    0  0.84832605121E+01  0.16980050409E+02  0.10592369150E+02  0.21736745501E+02  0.00000000000E+00 0. -1.
</event>
<event>
 7    1  0.1360399E-013  0.7246155E+02  0.7816164E-02  0.1226708E+00
        -11   -1    0    0    0    0  0.00000000000E+00  0.00000000000E+00  0.45593999997E+02  0.45594000000E+02  0.51100000000E-03 0.  1.
         11   -1    0    0    0    0 -0.00000000000E+00 -0.00000000000E+00 -0.45593999997E+02  0.45594000000E+02  0.51100000000E-03 0. -1.
    9900012    2    1    2    0    0 -0.61244744361E+01 -0.14583928763E+02  0.10023957774E+02  0.72461550931E+02  0.69999974776E+02 0.  0.
         12    1    1    2    0    0  0.61244744361E+01  0.14583928763E+02 -0.10023957774E+02  0.18726449069E+02  0.00000000000E+00 0. -1.
         11    1    3    3    0    0 -0.36432180581E+01 -0.21384348180E+02 -0.20047723052E+02  0.29537680761E+02  0.51100000000E-03 0. -1.
        -11    1    3    3    0    0 -0.13508056494E+02 -0.45329250608E+01  0.10171983661E+02  0.17506691627E+02  0.51100000000E-03 0.  1.
         12    1    3    3    0    0  0.11026800116E+02  0.11333344478E+02  0.19899697165E+02  0.25417178543E+02  0.00000000000E+00 0. -1.
</event>
<event>
 7    1  0.1360399E-013  0.7246158E+02  0.7816164E-02  0.1226708E+00
        -11   -1    0    0    0    0  0.00000000000E+00  0.00000000000E+00  0.45593999997E+02  0.45594000000E+02  0.51100000000E-03 0.  1.
         11   -1    0    0    0    0 -0.00000000000E+00 -0.00000000000E+00 -0.45593999997E+02  0.45594000000E+02  0.51100000000E-03 0. -1.
    9900012    2    1    2    0    0  0.10889249163E+02 -0.37445325530E+01  0.14767589540E+02  0.72461575563E+02  0.70000006864E+02 0.  0.
         12    1    1    2    0    0 -0.10889249163E+02  0.37445325530E+01 -0.14767589540E+02  0.18726424437E+02  0.00000000000E+00 0. -1.
         11    1    3    3    0    0  0.25030031819E+02  0.27637997354E+01  0.29419766125E+02  0.38725491875E+02  0.51100000000E-03 0.  1.
        -11    1    3    3    0    0 -0.52472513995E+01  0.13960031940E+00 -0.20517657489E+02  0.21178465586E+02  0.51100000000E-03 0. -1.
         12    1    3    3    0    0 -0.88935312565E+01 -0.66479326078E+01  0.58654809036E+01  0.12557618102E+02  0.00000000000E+00 0. -1.
</event>
<event>
 7    1  0.1360399E-013  0.7246154E+02  0.7816164E-02  0.1226708E+00
        -11   -1    0    0    0    0  0.00000000000E+00  0.00000000000E+00  0.45593999997E+02  0.45594000000E+02  0.51100000000E-03 0. -1.
         11   -1    0    0    0    0 -0.00000000000E+00 -0.00000000000E+00 -0.45593999997E+02  0.45594000000E+02  0.51100000000E-03 0.  1.
    9900012    2    1    2    0    0  0.35303133683E+01  0.93267288357E+01 -0.15850209675E+02  0.72461544649E+02  0.69999966593E+02 0.  0.
         12    1    1    2    0    0 -0.35303133683E+01 -0.93267288357E+01  0.15850209675E+02  0.18726455351E+02  0.00000000000E+00 0. -1.
         11    1    3    3    0    0  0.98934848676E+01  0.11049921116E+02  0.48224125666E+00  0.14839621167E+02  0.51100000000E-03 0. -1.
        -11    1    3    3    0    0 -0.32874940963E+01 -0.21872018007E+02 -0.26768071492E+02  0.34723514234E+02  0.51100000000E-03 0.  1.
        -12    1    3    3    0    0 -0.30756774030E+01  0.20148825726E+02  0.10435620560E+02  0.22898409248E+02  0.00000000000E+00 0.  1.
</event>
<event>
 7    1  0.1360399E-013  0.7246152E+02  0.7816164E-02  0.1226708E+00
        -11   -1    0    0    0    0  0.00000000000E+00  0.00000000000E+00  0.45593999997E+02  0.45594000000E+02  0.51100000000E-03 0. -1.
         11   -1    0    0    0    0 -0.00000000000E+00 -0.00000000000E+00 -0.45593999997E+02  0.45594000000E+02  0.51100000000E-03 0.  1.
    9900012    2    1    2    0    0  0.13204388854E+02 -0.11701747399E+02  0.62764855453E+01  0.72461520139E+02  0.69999934663E+02 0.  0.
         12    1    1    2    0    0 -0.13204388854E+02  0.11701747399E+02 -0.62764855453E+01  0.18726479861E+02  0.00000000000E+00 0. -1.
         11    1    3    3    0    0 -0.77862927190E+01  0.99181248353E+01  0.46706521579E+01  0.13446581216E+02  0.51100000000E-03 0. -1.
        -11    1    3    3    0    0 -0.70787207063E+01 -0.18952365178E+02 -0.15982947277E+02  0.25782843842E+02  0.51100000000E-03 0.  1.
        -12    1    3    3    0    0  0.28069402279E+02 -0.26675070561E+01  0.17588780665E+02  0.33232095081E+02  0.00000000000E+00 0.  1.
</event>
<event>
 7    1  0.1360399E-013  0.7246157E+02  0.7816164E-02  0.1226708E+00
        -11   -1    0    0    0    0  0.00000000000E+00  0.00000000000E+00  0.45593999997E+02  0.45594000000E+02  0.51100000000E-03 0.  1.
         11   -1    0    0    0    0 -0.00000000000E+00 -0.00000000000E+00 -0.45593999997E+02  0.45594000000E+02  0.51100000000E-03 0. -1.
    9900012    2    1    2    0    0 -0.98465109424E+00 -0.18820270069E+01  0.18605581566E+02  0.72461568711E+02  0.69999997937E+02 0.  0.
         12    1    1    2    0    0  0.98465109424E+00  0.18820270069E+01 -0.18605581566E+02  0.18726431289E+02  0.00000000000E+00 0. -1.
         11    1    3    3    0    0  0.29698446459E+02  0.87598409443E+01 -0.56284479634E+01  0.31470811273E+02  0.51100000000E-03 0. -1.
        -11    1    3    3    0    0 -0.10571909665E+01 -0.16117261100E+01  0.55925554909E+00  0.20070079282E+01  0.51100000000E-03 0.  1.
         12    1    3    3    0    0 -0.29625906587E+02 -0.90301418412E+01  0.23674773980E+02  0.38983749509E+02  0.00000000000E+00 0. -1.
</event>
<event>
 7    1  0.1360399E-013  0.7246153E+02  0.7816164E-02  0.1226708E+00
        -11   -1    0    0    0    0  0.00000000000E+00  0.00000000000E+00  0.45593999997E+02  0.45594000000E+02  0.51100000000E-03 0. -1.
         11   -1    0    0    0    0 -0.00000000000E+00 -0.00000000000E+00 -0.45593999997E+02  0.45594000000E+02  0.51100000000E-03 0.  1.
    9900012    2    1    2    0    0  0.18153743448E+01  0.26284293877E+01 -0.18452007094E+02  0.72461527005E+02  0.69999943607E+02 0.  0.
         12    1    1    2    0    0 -0.18153743448E+01 -0.26284293877E+01  0.18452007094E+02  0.18726472995E+02  0.00000000000E+00 0. -1.
         11    1    3    3    0    0 -0.15874016999E+02  0.23016001772E+02 -0.14795211843E+02  0.31632563080E+02  0.51100000000E-03 0. -1.
        -11    1    3    3    0    0  0.15465739470E+02  0.30418168422E+01  0.36633559050E+01  0.16182148306E+02  0.51100000000E-03 0.  1.
         12    1    3    3    0    0  0.22236518738E+01 -0.23429389227E+02 -0.73201511559E+01  0.24646815619E+02  0.00000000000E+00 0. -1.
</event>
<event>
 7    1  0.1360399E-013  0.7246154E+02  0.7816164E-02  0.1226708E+00
        -11   -1    0    0    0    0  0.00000000000E+00  0.00000000000E+00  0.45593999997E+02  0.45594000000E+02  0.51100000000E-03 0. -1.
         11   -1    0    0    0    0 -0.00000000000E+00 -0.00000000000E+00 -0.45593999997E+02  0.45594000000E+02  0.51100000000E-03 0.  1.
    9900012    2    1    2    0    0  0.15990951076E+01 -0.85089042587E-01 -0.18657868407E+02  0.72461537472E+02  0.69999957243E+02 0.  0.
         12    1    1    2    0    0 -0.15990951076E+01  0.85089042587E-01  0.18657868407E+02  0.18726462528E+02  0.00000000000E+00 0. -1.
         11    1    3    3    0    0 -0.24673852539E+02 -0.16778643990E+00 -0.12023671144E+02  0.27448056752E+02  0.51100000000E-03 0. -1.
        -11    1    3    3    0    0  0.14184738577E+02  0.64005884042E+01 -0.20384489171E+02  0.25645696314E+02  0.51100000000E-03 0.  1.
         12    1    3    3    0    0  0.12088209070E+02 -0.63178910069E+01  0.13750291907E+02  0.19367784407E+02  0.00000000000E+00 0. -1.
</event>
<event>
 7    1  0.1360399E-013  0.7246152E+02  0.7816164E-02  0.1226708E+00
        -11   -1    0    0    0    0  0.00000000000E+00  0.00000000000E+00  0.45593999997E+02  0.45594000000E+02  0.51100000000E-03 0. -1.
         11   -1    0    0    0    0 -0.00000000000E+00 -0.00000000000E+00 -0.45593999997E+02  0.45594000000E+02  0.51100000000E-03 0.  1.
    9900012    2    1    2    0    0 -0.73560719650E+01 -0.14650403166E+02 -0.90517896237E+01  0.72461521338E+02  0.69999936226E+02 0.  0.
         12    1    1    2    0    0  0.73560719650E+01  0.14650403166E+02  0.90517896237E+01  0.18726478662E+02  0.00000000000E+00 0. -1.
         11    1    3    3    0    0  0.14447953272E+02 -0.22316134499E+02  0.16044506919E+01  0.26633202493E+02  0.51100000000E-03 0.  1.
        -11    1    3    3    0    0 -0.19495692375E+02  0.62236517093E+00  0.11377484549E+02  0.22581331106E+02  0.51100000000E-03 0. -1.
        -12    1    3    3    0    0 -0.23083328618E+01  0.70433661628E+01 -0.22033724865E+02  0.23246987739E+02  0.00000000000E+00 0.  1.
</event>
<event>
 7    1  0.1360399E-013  0.7246158E+02  0.7816164E-02  0.1226708E+00
        -11   -1    0    0    0    0  0.00000000000E+00  0.00000000000E+00  0.45593999997E+02  0.45594000000E+02  0.51100000000E-03 0.  1.
         11   -1    0    0    0    0 -0.00000000000E+00 -0.00000000000E+00 -0.45593999997E+02  0.45594000000E+02  0.51100000000E-03 0. -1.
    9900012    2    1    2    0    0  0.12655232480E+02  0.76778900909E+01  0.11470565759E+02  0.72461580583E+02  0.70000013402E+02 0.  0.
         12    1    1    2    0    0 -0.12655232480E+02 -0.76778900909E+01 -0.11470565759E+02  0.18726419417E+02  0.00000000000E+00 0. -1.
         11    1    3    3    0    0  0.69597694039E+01 -0.13087924598E+02 -0.55260276704E+01  0.15819897045E+02  0.51100000000E-03 0. -1.
        -11    1    3    3    0    0 -0.15640410684E+02  0.27131455921E+02  0.13503919034E+02  0.34104166553E+02  0.51100000000E-03 0.  1.
        -12    1    3    3    0    0  0.21335873760E+02 -0.63656412317E+01  0.34926743956E+01  0.22537516985E+02  0.00000000000E+00 0.  1.
</event>
<event>
 7    1  0.1360399E-013  0.7246163E+02  0.7816164E-02  0.1226708E+00
        -11   -1    0    0    0    0  0.00000000000E+00  0.00000000000E+00  0.45593999997E+02  0.45594000000E+02  0.51100000000E-03 0. -1.
         11   -1    0    0    0    0 -0.00000000000E+00 -0.00000000000E+00 -0.45593999997E+02  0.45594000000E+02  0.51100000000E-03 0.  1.
    9900012    2    1    2    0    0  0.14235733490E+02  0.10182628560E+02  0.66584355193E+01  0.72461633669E+02  0.70000082557E+02 0.  0.
         12    1    1    2    0    0 -0.14235733490E+02 -0.10182628560E+02 -0.66584355193E+01  0.18726366331E+02  0.00000000000E+00 0. -1.
         11    1    3    3    0    0  0.21153107060E+02 -0.20600277356E+02  0.17361711818E+02  0.34252801388E+02  0.51100000000E-03 0. -1.
        -11    1    3    3    0    0 -0.11353150048E+02  0.22043453771E+02 -0.16232360702E+01  0.24848395637E+02  0.51100000000E-03 0.  1.
         12    1    3    3    0    0  0.44357764778E+01  0.87394521452E+01 -0.90800402281E+01  0.13360436643E+02  0.00000000000E+00 0. -1.
</event>
<event>
 7    1  0.1360399E-013  0.7246172E+02  0.7816164E-02  0.1226708E+00
        -11   -1    0    0    0    0  0.00000000000E+00  0.00000000000E+00  0.45593999997E+02  0.45594000000E+02  0.51100000000E-03 0.  1.
         11   -1    0    0    0    0 -0.00000000000E+00 -0.00000000000E+00 -0.45593999997E+02  0.45594000000E+02  0.51100000000E-03 0. -1.
    9900012    2    1    2    0    0  0.16845874652E+02  0.33667273050E+01 -0.74535415787E+01  0.72461718266E+02  0.70000192760E+02 0.  0.
         12    1    1    2    0    0 -0.16845874652E+02 -0.33667273050E+01  0.74535415787E+01  0.18726281734E+02  0.00000000000E+00 0. -1.
         11    1    3    3    0    0 -0.13682315266E+02  0.10947741095E+00  0.13651506857E+02  0.19328253311E+02  0.51100000000E-03 0. -1.
        -11    1    3    3    0    0  0.36497453061E+02  0.55217984544E+01 -0.25947698195E+02  0.45120254653E+02  0.51100000000E-03 0.  1.
        -12    1    3    3    0    0 -0.59692631426E+01 -0.22645485604E+01  0.48426497591E+01  0.80132103016E+01  0.00000000000E+00 0.  1.
</event>
<event>
 7    1  0.1360399E-013  0.7246163E+02  0.7816164E-02  0.1226708E+00
        -11   -1    0    0    0    0  0.00000000000E+00  0.00000000000E+00  0.45593999997E+02  0.45594000000E+02  0.51100000000E-03 0.  1.
         11   -1    0    0    0    0 -0.00000000000E+00 -0.00000000000E+00 -0.45593999997E+02  0.45594000000E+02  0.51100000000E-03 0. -1.
    9900012    2    1    2    0    0  0.12185992984E+02 -0.13056860924E+02  0.56299882342E+01  0.72461633302E+02  0.70000082079E+02 0.  0.
         12    1    1    2    0    0 -0.12185992984E+02  0.13056860924E+02 -0.56299882342E+01  0.18726366698E+02  0.00000000000E+00 0. -1.
         11    1    3    3    0    0 -0.47996286481E+01  0.93519965480E+01 -0.10813129049E+01  0.10567190377E+02  0.51100000000E-03 0. -1.
        -11    1    3    3    0    0  0.33973161679E+02 -0.14487571701E+02 -0.83310568470E+01  0.37861219694E+02  0.51100000000E-03 0.  1.
        -12    1    3    3    0    0 -0.16987540047E+02 -0.79212857710E+01  0.15042357986E+02  0.24033223231E+02  0.00000000000E+00 0.  1.
</event>
<event>
 7    1  0.1360399E-013  0.7246158E+02  0.7816164E-02  0.1226708E+00
        -11   -1    0    0    0    0  0.00000000000E+00  0.00000000000E+00  0.45593999997E+02  0.45594000000E+02  0.51100000000E-03 0. -1.
         11   -1    0    0    0    0 -0.00000000000E+00 -0.00000000000E+00 -0.45593999997E+02  0.45594000000E+02  0.51100000000E-03 0.  1.
    9900012    2    1    2    0    0 -0.16983188151E+02 -0.22368401852E+01 -0.75661556583E+01  0.72461578953E+02  0.70000011280E+02 0.  0.
         12    1    1    2    0    0  0.16983188151E+02  0.22368401852E+01  0.75661556583E+01  0.18726421047E+02  0.00000000000E+00 0. -1.
         11    1    3    3    0    0  0.19373477879E+02  0.17326455013E+02 -0.18744113331E+01  0.26058609069E+02  0.51100000000E-03 0. -1.
        -11    1    3    3    0    0 -0.16048693201E+02  0.22823629830E+01 -0.25789092764E+01  0.16414033860E+02  0.51100000000E-03 0.  1.
         12    1    3    3    0    0 -0.20307972829E+02 -0.21845658182E+02 -0.31128350488E+01  0.29988936024E+02  0.00000000000E+00 0. -1.
</event>
<event>
 7    1  0.1360399E-013  0.7246159E+02  0.7816164E-02  0.1226708E+00
        -11   -1    0    0    0    0  0.00000000000E+00  0.00000000000E+00  0.45593999997E+02  0.45594000000E+02  0.51100000000E-03 0.  1.
         11   -1    0    0    0    0 -0.00000000000E+00 -0.00000000000E+00 -0.45593999997E+02  0.45594000000E+02  0.51100000000E-03 0. -1.
    9900012    2    1    2    0    0  0.56480535782E+01  0.12669588436E+02  0.12580128198E+02  0.72461585345E+02  0.70000019606E+02 0.  0.
         12    1    1    2    0    0 -0.56480535782E+01 -0.12669588436E+02 -0.12580128198E+02  0.18726414655E+02  0.00000000000E+00 0. -1.
         11    1    3    3    0    0 -0.12774992189E+02 -0.14945396779E+02  0.19610774008E+02  0.27769547489E+02  0.51100000000E-03 0. -1.
        -11    1    3    3    0    0 -0.76341538083E-01  0.24042860819E+02  0.13288953537E+01  0.24079679140E+02  0.51100000000E-03 0.  1.
         12    1    3    3    0    0  0.18499387305E+02  0.35721243957E+01 -0.83595411630E+01  0.20612358716E+02  0.00000000000E+00 0. -1.
</event>
<event>
 7    1  0.1360399E-013  0.7246169E+02  0.7816164E-02  0.1226708E+00
        -11   -1    0    0    0    0  0.00000000000E+00  0.00000000000E+00  0.45593999997E+02  0.45594000000E+02  0.51100000000E-03 0. -1.
         11   -1    0    0    0    0 -0.00000000000E+00 -0.00000000000E+00 -0.45593999997E+02  0.45594000000E+02  0.51100000000E-03 0.  1.
    9900012    2    1    2    0    0 -0.26353400792E+01  0.59475690720E+00 -0.18530406188E+02  0.72461689456E+02  0.70000155230E+02 0.  0.
         12    1    1    2    0    0  0.26353400792E+01 -0.59475690720E+00  0.18530406188E+02  0.18726310544E+02  0.00000000000E+00 0. -1.
         11    1    3    3    0    0 -0.74157274681E+01  0.23507181136E+02  0.15546606737E+02  0.29142367099E+02  0.51100000000E-03 0. -1.
        -11    1    3    3    0    0 -0.25631134932E+01 -0.74061479352E+01 -0.42644597940E+01  0.89222304170E+01  0.51100000000E-03 0.  1.
         12    1    3    3    0    0  0.73435008821E+01 -0.15506276293E+02 -0.29812553131E+02  0.34397091940E+02  0.00000000000E+00 0. -1.
</event>
<event>
 7    1  0.1360399E-013  0.7246150E+02  0.7816164E-02  0.1226708E+00
        -11   -1    0    0    0    0  0.00000000000E+00  0.00000000000E+00  0.45593999997E+02  0.45594000000E+02  0.51100000000E-03 0. -1.
         11   -1    0    0    0    0 -0.00000000000E+00 -0.00000000000E+00 -0.45593999997E+02  0.45594000000E+02  0.51100000000E-03 0.  1.
    9900012    2    1    2    0    0 -0.10420897080E+02 -0.95667744202E+01 -0.12270439933E+02  0.72461495657E+02  0.69999902771E+02 0.  0.
         12    1    1    2    0    0  0.10420897080E+02  0.95667744202E+01  0.12270439933E+02  0.18726504343E+02  0.00000000000E+00 0. -1.
         11    1    3    3    0    0  0.24759247792E+02 -0.19774462850E+01  0.10800504659E+02  0.27084710562E+02  0.51100000000E-03 0. -1.
        -11    1    3    3    0    0 -0.13395636996E+02  0.37845897738E+01 -0.46923631142E+01  0.14689604561E+02  0.51100000000E-03 0.  1.
         12    1    3    3    0    0 -0.21784507876E+02 -0.11373917909E+02 -0.18378581478E+02  0.30687180534E+02  0.00000000000E+00 0. -1.
</event>
<event>
 7    1  0.1360399E-013  0.7246107E+02  0.7816164E-02  0.1226709E+00
        -11   -1    0    0    0    0  0.00000000000E+00  0.00000000000E+00  0.45593999997E+02  0.45594000000E+02  0.51100000000E-03 0.  1.
         11   -1    0    0    0    0 -0.00000000000E+00 -0.00000000000E+00 -0.45593999997E+02  0.45594000000E+02  0.51100000000E-03 0. -1.
    9900012    2    1    2    0    0 -0.79526822314E+01  0.16211569816E+02 -0.49636266086E+01  0.72461074474E+02  0.69999354099E+02 0.  0.
         12    1    1    2    0    0  0.79526822314E+01 -0.16211569816E+02  0.49636266086E+01  0.18726925526E+02  0.00000000000E+00 0. -1.
         11    1    3    3    0    0 -0.22299634658E+02 -0.64202248519E+01 -0.61005611376E+01  0.23993954228E+02  0.51100000000E-03 0.  1.
        -11    1    3    3    0    0  0.26435067717E+02  0.18427838293E+02 -0.74255666751E+01  0.33068672034E+02  0.51100000000E-03 0. -1.
        -12    1    3    3    0    0 -0.12088115291E+02  0.42039563741E+01  0.85625012041E+01  0.15398448212E+02  0.00000000000E+00 0.  1.
</event>
<event>
 8    1  0.1360399E-013  0.7246154E+02  0.7816164E-02  0.1226708E+00
        -11   -1    0    0    0    0  0.00000000000E+00  0.00000000000E+00  0.45593999997E+02  0.45594000000E+02  0.51100000000E-03 0.  1.
         11   -1    0    0    0    0 -0.00000000000E+00 -0.00000000000E+00 -0.45593999997E+02  0.45594000000E+02  0.51100000000E-03 0. -1.
    9900012    2    1    2    0    0  0.96191843527E+01  0.16066431450E+02 -0.14680222917E+00  0.72461535356E+02  0.69999954487E+02 0.  0.
         24    2    3    3    0    0 -0.39620472359E+00  0.72543236209E+01 -0.80848422144E+01  0.56938206402E+02  0.55891076974E+02 0.  0.
         12    1    1    2    0    0 -0.96191843527E+01 -0.16066431450E+02  0.14680222917E+00  0.18726464644E+02  0.00000000000E+00 0. -1.
         11    1    3    3    0    0  0.10015389076E+02  0.88121078295E+01  0.79380399852E+01  0.15523328954E+02  0.51100000000E-03 0.  1.
        -11    1    4    4    0    0  0.13309080601E+02  0.28931269163E+01 -0.28719728479E+02  0.31785603879E+02  0.51100000000E-03 0. -1.
         12    1    4    4    0    0 -0.13705285325E+02  0.43611967046E+01  0.20634886265E+02  0.25152602523E+02  0.00000000000E+00 0. -1.
</event>
<event>
 7    1  0.1360399E-013  0.7246157E+02  0.7816164E-02  0.1226708E+00
        -11   -1    0    0    0    0  0.00000000000E+00  0.00000000000E+00  0.45593999997E+02  0.45594000000E+02  0.51100000000E-03 0. -1.
         11   -1    0    0    0    0 -0.00000000000E+00 -0.00000000000E+00 -0.45593999997E+02  0.45594000000E+02  0.51100000000E-03 0.  1.
    9900012    2    1    2    0    0 -0.98735536589E+01 -0.12544544182E+02 -0.97891048154E+01  0.72461568849E+02  0.69999998117E+02 0.  0.
         12    1    1    2    0    0  0.98735536589E+01  0.12544544182E+02  0.97891048154E+01  0.18726431151E+02  0.00000000000E+00 0. -1.
         11    1    3    3    0    0  0.51949093000E+01 -0.85610413813E+01 -0.63840679107E+00  0.10034245146E+02  0.51100000000E-03 0. -1.
        -11    1    3    3    0    0 -0.28234930022E+02  0.19857021442E+02 -0.51620925931E+01  0.34902145695E+02  0.51100000000E-03 0.  1.
        -12    1    3    3    0    0  0.13166467063E+02 -0.23840524242E+02 -0.39886054313E+01  0.27525178008E+02  0.00000000000E+00 0.  1.
</event>
<event>
 7    1  0.1360399E-013  0.7246163E+02  0.7816164E-02  0.1226708E+00
        -11   -1    0    0    0    0  0.00000000000E+00  0.00000000000E+00  0.45593999997E+02  0.45594000000E+02  0.51100000000E-03 0. -1.
         11   -1    0    0    0    0 -0.00000000000E+00 -0.00000000000E+00 -0.45593999997E+02  0.45594000000E+02  0.51100000000E-03 0.  1.
    9900012    2    1    2    0    0  0.11252741788E+02 -0.60774830412E+01 -0.13679066877E+02  0.72461631732E+02  0.70000080034E+02 0.  0.
         12    1    1    2    0    0 -0.11252741788E+02  0.60774830412E+01  0.13679066877E+02  0.18726368268E+02  0.00000000000E+00 0. -1.
         11    1    3    3    0    0  0.25673719506E+02 -0.21244592195E+02 -0.53025045699E+01  0.33742986320E+02  0.51100000000E-03 0. -1.
        -11    1    3    3    0    0  0.36054866046E+01  0.19027063587E+02 -0.41559627223E+01  0.19806582462E+02  0.51100000000E-03 0.  1.
         12    1    3    3    0    0 -0.18026464322E+02 -0.38599544331E+01 -0.42205995852E+01  0.18912062951E+02  0.00000000000E+00 0. -1.
</event>
<event>
 7    1  0.1360399E-013  0.7246151E+02  0.7816164E-02  0.1226708E+00
        -11   -1    0    0    0    0  0.00000000000E+00  0.00000000000E+00  0.45593999997E+02  0.45594000000E+02  0.51100000000E-03 0.  1.
         11   -1    0    0    0    0 -0.00000000000E+00 -0.00000000000E+00 -0.45593999997E+02  0.45594000000E+02  0.51100000000E-03 0. -1.
    9900012    2    1    2    0    0  0.11342886443E+02 -0.13128395871E+02  0.70473704806E+01  0.72461513899E+02  0.69999926534E+02 0.  0.
         12    1    1    2    0    0 -0.11342886443E+02  0.13128395871E+02 -0.70473704806E+01  0.18726486101E+02  0.00000000000E+00 0. -1.
         11    1    3    3    0    0  0.17012079985E+02  0.10713708531E+01 -0.11290630393E+02  0.20445954022E+02  0.51100000000E-03 0. -1.
        -11    1    3    3    0    0 -0.25916251407E+02 -0.10396540907E+02  0.12566683523E+02  0.30621261974E+02  0.51100000000E-03 0.  1.
        -12    1    3    3    0    0  0.20247057865E+02 -0.38032258178E+01  0.57713173511E+01  0.21394297903E+02  0.00000000000E+00 0.  1.
</event>
<event>
 7    1  0.1360399E-013  0.7246160E+02  0.7816164E-02  0.1226708E+00
        -11   -1    0    0    0    0  0.00000000000E+00  0.00000000000E+00  0.45593999997E+02  0.45594000000E+02  0.51100000000E-03 0.  1.
         11   -1    0    0    0    0 -0.00000000000E+00 -0.00000000000E+00 -0.45593999997E+02  0.45594000000E+02  0.51100000000E-03 0. -1.
    9900012    2    1    2    0    0 -0.10449799214E+02  0.15454603320E+02 -0.16232844579E+01  0.72461598322E+02  0.70000036511E+02 0.  0.
         12    1    1    2    0    0  0.10449799214E+02 -0.15454603320E+02  0.16232844579E+01  0.18726401678E+02  0.00000000000E+00 0. -1.
         11    1    3    3    0    0 -0.22912504022E+02 -0.50602634697E+00  0.10382338614E+02  0.25160124375E+02  0.51100000000E-03 0. -1.
        -11    1    3    3    0    0  0.15894446964E+02  0.17078254946E+01  0.11434482063E+02  0.19654452231E+02  0.51100000000E-03 0.  1.
         12    1    3    3    0    0 -0.34317421560E+01  0.14252804172E+02 -0.23440105135E+02  0.27647021715E+02  0.00000000000E+00 0. -1.
</event>
<event>
 7    1  0.1360399E-013  0.7246160E+02  0.7816164E-02  0.1226708E+00
        -11   -1    0    0    0    0  0.00000000000E+00  0.00000000000E+00  0.45593999997E+02  0.45594000000E+02  0.51100000000E-03 0. -1.
         11   -1    0    0    0    0 -0.00000000000E+00 -0.00000000000E+00 -0.45593999997E+02  0.45594000000E+02  0.51100000000E-03 0.  1.
    9900012    2    1    2    0    0  0.67576413847E+01  0.12198430520E+02 -0.12498424621E+02  0.72461600393E+02  0.70000039209E+02 0.  0.
         12    1    1    2    0    0 -0.67576413847E+01 -0.12198430520E+02  0.12498424621E+02  0.18726399607E+02  0.00000000000E+00 0. -1.
         11    1    3    3    0    0 -0.37936951811E+01  0.28681559455E+02 -0.71716261000E+01  0.29806982355E+02  0.51100000000E-03 0. -1.
        -11    1    3    3    0    0  0.22647160573E+02 -0.19459389635E+02 -0.40591165189E+01  0.30133671436E+02  0.51100000000E-03 0.  1.
        -12    1    3    3    0    0 -0.12095824008E+02  0.29762607001E+01 -0.12676820017E+01  0.12520946603E+02  0.00000000000E+00 0.  1.
</event>
<event>
 7    1  0.1360399E-013  0.7246157E+02  0.7816164E-02  0.1226708E+00
        -11   -1    0    0    0    0  0.00000000000E+00  0.00000000000E+00  0.45593999997E+02  0.45594000000E+02  0.51100000000E-03 0.  1.
         11   -1    0    0    0    0 -0.00000000000E+00 -0.00000000000E+00 -0.45593999997E+02  0.45594000000E+02  0.51100000000E-03 0. -1.
    9900012    2    1    2    0    0 -0.64143773096E+01 -0.17033350649E+02 -0.44045474955E+01  0.72461566564E+02  0.69999995141E+02 0.  0.
         12    1    1    2    0    0  0.64143773096E+01  0.17033350649E+02  0.44045474955E+01  0.18726433436E+02  0.00000000000E+00 0. -1.
         11    1    3    3    0    0 -0.44454980595E+01  0.38638965240E+01  0.18935992456E+02  0.19830883992E+02  0.51100000000E-03 0. -1.
        -11    1    3    3    0    0 -0.19651288171E+02 -0.12685121067E+02 -0.16234624225E+01  0.23446130892E+02  0.51100000000E-03 0.  1.
         12    1    3    3    0    0  0.17682408921E+02 -0.82121261052E+01 -0.21717077529E+02  0.29184551681E+02  0.00000000000E+00 0. -1.
</event>
<event>
 7    1  0.1360399E-013  0.7246157E+02  0.7816164E-02  0.1226708E+00
        -11   -1    0    0    0    0  0.00000000000E+00  0.00000000000E+00  0.45593999997E+02  0.45594000000E+02  0.51100000000E-03 0. -1.
         11   -1    0    0    0    0 -0.00000000000E+00 -0.00000000000E+00 -0.45593999997E+02  0.45594000000E+02  0.51100000000E-03 0.  1.
    9900012    2    1    2    0    0  0.19341328625E+00  0.13722207882E+02 -0.12741386660E+02  0.72461565960E+02  0.69999994353E+02 0.  0.
         12    1    1    2    0    0 -0.19341328625E+00 -0.13722207882E+02  0.12741386660E+02  0.18726434040E+02  0.00000000000E+00 0. -1.
         11    1    3    3    0    0  0.35376564232E+01 -0.18265777792E+02  0.13344793582E+02  0.22896226050E+02  0.51100000000E-03 0. -1.
        -11    1    3    3    0    0 -0.75733238757E+00  0.28260983338E+02 -0.59059563192E+01  0.28881430918E+02  0.51100000000E-03 0.  1.
         12    1    3    3    0    0 -0.25869107494E+01  0.37270023365E+01 -0.20180223922E+02  0.20683908992E+02  0.00000000000E+00 0. -1.
</event>
<event>
 7    1  0.1360399E-013  0.7246154E+02  0.7816164E-02  0.1226708E+00
        -11   -1    0    0    0    0  0.00000000000E+00  0.00000000000E+00  0.45593999997E+02  0.45594000000E+02  0.51100000000E-03 0. -1.
         11   -1    0    0    0    0 -0.00000000000E+00 -0.00000000000E+00 -0.45593999997E+02  0.45594000000E+02  0.51100000000E-03 0.  1.
    9900012    2    1    2    0    0 -0.43871658378E+01 -0.15543885766E+02  0.94773823454E+01  0.72461537843E+02  0.69999957726E+02 0.  0.
         12    1    1    2    0    0  0.43871658378E+01  0.15543885766E+02 -0.94773823454E+01  0.18726462157E+02  0.00000000000E+00 0. -1.
         11    1    3    3    0    0 -0.12052354462E+02  0.68068451443E+00 -0.19881838749E+02  0.23259623639E+02  0.51100000000E-03 0. -1.
        -11    1    3    3    0    0  0.14674746106E+02 -0.12185614621E+02  0.34149283194E+00  0.19077578321E+02  0.51100000000E-03 0.  1.
         12    1    3    3    0    0 -0.70095574814E+01 -0.40389556594E+01  0.29017728263E+02  0.30124335884E+02  0.00000000000E+00 0. -1.
</event>
<event>
 7    1  0.1360399E-013  0.7246165E+02  0.7816164E-02  0.1226708E+00
        -11   -1    0    0    0    0  0.00000000000E+00  0.00000000000E+00  0.45593999997E+02  0.45594000000E+02  0.51100000000E-03 0. -1.
         11   -1    0    0    0    0 -0.00000000000E+00 -0.00000000000E+00 -0.45593999997E+02  0.45594000000E+02  0.51100000000E-03 0.  1.
    9900012    2    1    2    0    0 -0.33407311117E+01 -0.17274400814E+02  0.64117760042E+01  0.72461647463E+02  0.70000100526E+02 0.  0.
         12    1    1    2    0    0  0.33407311117E+01  0.17274400814E+02 -0.64117760042E+01  0.18726352537E+02  0.00000000000E+00 0. -1.
         11    1    3    3    0    0  0.73970678162E+01  0.27489018142E+01  0.25702800270E+02  0.26886930197E+02  0.51100000000E-03 0. -1.
        -11    1    3    3    0    0 -0.17259508689E+02  0.14287075076E-01 -0.17253255496E+02  0.24404214181E+02  0.51100000000E-03 0.  1.
         12    1    3    3    0    0  0.65217097611E+01 -0.20037589703E+02 -0.20377687696E+01  0.21170503085E+02  0.00000000000E+00 0. -1.
</event>
<event>
 7    1  0.1360399E-013  0.7246156E+02  0.7816164E-02  0.1226708E+00
        -11   -1    0    0    0    0  0.00000000000E+00  0.00000000000E+00  0.45593999997E+02  0.45594000000E+02  0.51100000000E-03 0.  1.
         11   -1    0    0    0    0 -0.00000000000E+00 -0.00000000000E+00 -0.45593999997E+02  0.45594000000E+02  0.51100000000E-03 0. -1.
    9900012    2    1    2    0    0 -0.14588643429E+02  0.10239488800E+02  0.57449022997E+01  0.72461560124E+02  0.69999986751E+02 0.  0.
         12    1    1    2    0    0  0.14588643429E+02 -0.10239488800E+02 -0.57449022997E+01  0.18726439876E+02  0.00000000000E+00 0. -1.
         11    1    3    3    0    0  0.13688910728E+02 -0.10462738786E+02  0.23778530549E+02  0.29364497189E+02  0.51100000000E-03 0. -1.
        -11    1    3    3    0    0 -0.18833105513E+02  0.13444911281E+02 -0.21440501401E+01  0.23238942615E+02  0.51100000000E-03 0.  1.
         12    1    3    3    0    0 -0.94444486445E+01  0.72573163053E+01 -0.15889578109E+02  0.19858120320E+02  0.00000000000E+00 0. -1.
</event>
<event>
 7    1  0.1360399E-013  0.7246115E+02  0.7816164E-02  0.1226709E+00
        -11   -1    0    0    0    0  0.00000000000E+00  0.00000000000E+00  0.45593999997E+02  0.45594000000E+02  0.51100000000E-03 0.  1.
         11   -1    0    0    0    0 -0.00000000000E+00 -0.00000000000E+00 -0.45593999997E+02  0.45594000000E+02  0.51100000000E-03 0. -1.
    9900012    2    1    2    0    0  0.88951139528E+01  0.11291711054E+02 -0.12002875941E+02  0.72461152385E+02  0.69999455593E+02 0.  0.
         12    1    1    2    0    0 -0.88951139528E+01 -0.11291711054E+02  0.12002875941E+02  0.18726847615E+02  0.00000000000E+00 0. -1.
         11    1    3    3    0    0  0.64006660334E+01  0.28521920755E+02 -0.21646123897E+02  0.36373385453E+02  0.51100000000E-03 0. -1.
        -11    1    3    3    0    0  0.14068305295E+02 -0.15905627083E+02  0.43583384547E+00  0.21239023946E+02  0.51100000000E-03 0.  1.
         12    1    3    3    0    0 -0.11573857375E+02 -0.13245826189E+01  0.92074141108E+01  0.14848742986E+02  0.00000000000E+00 0. -1.
</event>
<event>
 7    1  0.1360399E-013  0.7246158E+02  0.7816164E-02  0.1226708E+00
        -11   -1    0    0    0    0  0.00000000000E+00  0.00000000000E+00  0.45593999997E+02  0.45594000000E+02  0.51100000000E-03 0.  1.
         11   -1    0    0    0    0 -0.00000000000E+00 -0.00000000000E+00 -0.45593999997E+02  0.45594000000E+02  0.51100000000E-03 0. -1.
    9900012    2    1    2    0    0 -0.16567150594E+02 -0.53805523530E+01  0.68744344334E+01  0.72461583600E+02  0.70000017332E+02 0.  0.
         12    1    1    2    0    0  0.16567150594E+02  0.53805523530E+01 -0.68744344334E+01  0.18726416400E+02  0.00000000000E+00 0. -1.
         11    1    3    3    0    0  0.39711751341E+01  0.57668007520E+01 -0.11797356291E+02  0.13718740415E+02  0.51100000000E-03 0. -1.
        -11    1    3    3    0    0 -0.14966908169E+02 -0.18091553488E+02  0.33820267930E+02  0.41171873541E+02  0.51100000000E-03 0.  1.
        -12    1    3    3    0    0 -0.55714175591E+01  0.69442003828E+01 -0.15148477205E+02  0.17570969644E+02  0.00000000000E+00 0.  1.
</event>
<event>
 7    1  0.1360399E-013  0.7246159E+02  0.7816164E-02  0.1226708E+00
        -11   -1    0    0    0    0  0.00000000000E+00  0.00000000000E+00  0.45593999997E+02  0.45594000000E+02  0.51100000000E-03 0.  1.
         11   -1    0    0    0    0 -0.00000000000E+00 -0.00000000000E+00 -0.45593999997E+02  0.45594000000E+02  0.51100000000E-03 0. -1.
    9900012    2    1    2    0    0  0.90869182923E+01 -0.14627028172E+02 -0.73591012344E+01  0.72461590623E+02  0.70000026482E+02 0.  0.
         12    1    1    2    0    0 -0.90869182923E+01  0.14627028172E+02  0.73591012344E+01  0.18726409377E+02  0.00000000000E+00 0. -1.
         11    1    3    3    0    0  0.30207664588E+02 -0.69093289586E+01 -0.22935747910E+02  0.38552436485E+02  0.51100000000E-03 0. -1.
        -11    1    3    3    0    0 -0.78338904936E+01  0.47479145681E+00 -0.40503098959E+01  0.88317765884E+01  0.51100000000E-03 0.  1.
         12    1    3    3    0    0 -0.13286855802E+02 -0.81924906698E+01  0.19626956572E+02  0.25077377549E+02  0.00000000000E+00 0. -1.
</event>
<event>
 7    1  0.1360399E-013  0.7246159E+02  0.7816164E-02  0.1226708E+00
        -11   -1    0    0    0    0  0.00000000000E+00  0.00000000000E+00  0.45593999997E+02  0.45594000000E+02  0.51100000000E-03 0.  1.
         11   -1    0    0    0    0 -0.00000000000E+00 -0.00000000000E+00 -0.45593999997E+02  0.45594000000E+02  0.51100000000E-03 0. -1.
    9900012    2    1    2    0    0  0.11731894661E+02 -0.10065597060E+02  0.10569988620E+02  0.72461594687E+02  0.70000031776E+02 0.  0.
         12    1    1    2    0    0 -0.11731894661E+02  0.10065597060E+02 -0.10569988620E+02  0.18726405313E+02  0.00000000000E+00 0. -1.
         11    1    3    3    0    0  0.25037700841E+02  0.50617241953E+00  0.11234901416E+02  0.27447507792E+02  0.51100000000E-03 0. -1.
        -11    1    3    3    0    0 -0.23044080627E+02 -0.69534436208E+01  0.13384166256E+02  0.27541168036E+02  0.51100000000E-03 0.  1.
        -12    1    3    3    0    0  0.97382744476E+01 -0.36183258587E+01 -0.14049079052E+02  0.17472918859E+02  0.00000000000E+00 0.  1.
</event>
<event>
 7    1  0.1360399E-013  0.7246162E+02  0.7816164E-02  0.1226708E+00
        -11   -1    0    0    0    0  0.00000000000E+00  0.00000000000E+00  0.45593999997E+02  0.45594000000E+02  0.51100000000E-03 0. -1.
         11   -1    0    0    0    0 -0.00000000000E+00 -0.00000000000E+00 -0.45593999997E+02  0.45594000000E+02  0.51100000000E-03 0.  1.
    9900012    2    1    2    0    0  0.11457846391E+01 -0.15636502657E+02 -0.10240327042E+02  0.72461619258E+02  0.70000063784E+02 0.  0.
         12    1    1    2    0    0 -0.11457846391E+01  0.15636502657E+02  0.10240327042E+02  0.18726380742E+02  0.00000000000E+00 0. -1.
         11    1    3    3    0    0 -0.13808118388E+02 -0.21730030991E+02  0.13191390718E+02  0.28928725682E+02  0.51100000000E-03 0. -1.
        -11    1    3    3    0    0  0.61977097214E+01 -0.82871121978E+01 -0.24567431141E+02  0.26657953925E+02  0.51100000000E-03 0.  1.
         12    1    3    3    0    0  0.87561933054E+01  0.14380640532E+02  0.11357133814E+01  0.16874939650E+02  0.00000000000E+00 0. -1.
</event>
<event>
 7    1  0.1360399E-013  0.7246158E+02  0.7816164E-02  0.1226708E+00
        -11   -1    0    0    0    0  0.00000000000E+00  0.00000000000E+00  0.45593999997E+02  0.45594000000E+02  0.51100000000E-03 0.  1.
         11   -1    0    0    0    0 -0.00000000000E+00 -0.00000000000E+00 -0.45593999997E+02  0.45594000000E+02  0.51100000000E-03 0. -1.
    9900012    2    1    2    0    0  0.11111697228E+02  0.13397732737E+02  0.69072274924E+01  0.72461578842E+02  0.70000011134E+02 0.  0.
         12    1    1    2    0    0 -0.11111697228E+02 -0.13397732737E+02 -0.69072274924E+01  0.18726421158E+02  0.00000000000E+00 0. -1.
         11    1    3    3    0    0 -0.36670232972E+01  0.20532512438E+02  0.90829301382E+01  0.22749302122E+02  0.51100000000E-03 0. -1.
        -11    1    3    3    0    0  0.16525517190E+02 -0.25477638828E+02  0.31538969238E+01  0.30531129437E+02  0.51100000000E-03 0.  1.
         12    1    3    3    0    0 -0.17467966648E+01  0.18342859126E+02 -0.53295995695E+01  0.19181147283E+02  0.00000000000E+00 0. -1.
</event>
<event>
 7    1  0.1360399E-013  0.7246152E+02  0.7816164E-02  0.1226708E+00
        -11   -1    0    0    0    0  0.00000000000E+00  0.00000000000E+00  0.45593999997E+02  0.45594000000E+02  0.51100000000E-03 0.  1.
         11   -1    0    0    0    0 -0.00000000000E+00 -0.00000000000E+00 -0.45593999997E+02  0.45594000000E+02  0.51100000000E-03 0. -1.
    9900012    2    1    2    0    0  0.71210643761E+01 -0.16713509749E+02  0.45420258732E+01  0.72461522354E+02  0.69999937549E+02 0.  0.
         12    1    1    2    0    0 -0.71210643761E+01  0.16713509749E+02 -0.45420258732E+01  0.18726477646E+02  0.00000000000E+00 0. -1.
         11    1    3    3    0    0 -0.12033841571E+02  0.73893998710E+01 -0.10040738092E+02  0.17327232759E+02  0.51100000000E-03 0. -1.
        -11    1    3    3    0    0  0.12365099957E+02 -0.30759199562E+02  0.24631166360E+02  0.41300343959E+02  0.51100000000E-03 0.  1.
         12    1    3    3    0    0  0.67898059900E+01  0.66562899423E+01 -0.10048402395E+02  0.13833945636E+02  0.00000000000E+00 0. -1.
</event>
<event>
 7    1  0.1360399E-013  0.7246157E+02  0.7816164E-02  0.1226708E+00
        -11   -1    0    0    0    0  0.00000000000E+00  0.00000000000E+00  0.45593999997E+02  0.45594000000E+02  0.51100000000E-03 0. -1.
         11   -1    0    0    0    0 -0.00000000000E+00 -0.00000000000E+00 -0.45593999997E+02  0.45594000000E+02  0.51100000000E-03 0.  1.
    9900012    2    1    2    0    0 -0.17465534536E+02 -0.32976246927E+01  0.58957479438E+01  0.72461572976E+02  0.70000003494E+02 0.  0.
         12    1    1    2    0    0  0.17465534536E+02  0.32976246927E+01 -0.58957479438E+01  0.18726427024E+02  0.00000000000E+00 0. -1.
         11    1    3    3    0    0 -0.18845270001E+02  0.21728223316E+02 -0.35058902858E-01  0.28762147334E+02  0.51100000000E-03 0. -1.
        -11    1    3    3    0    0 -0.34771952864E+01 -0.39364013148E+01 -0.13580665135E+02  0.14560927448E+02  0.51100000000E-03 0.  1.
         12    1    3    3    0    0  0.48569307513E+01 -0.21089446693E+02  0.19511471982E+02  0.29138498195E+02  0.00000000000E+00 0. -1.
</event>
<event>
 7    1  0.1360399E-013  0.7246156E+02  0.7816164E-02  0.1226708E+00
        -11   -1    0    0    0    0  0.00000000000E+00  0.00000000000E+00  0.45593999997E+02  0.45594000000E+02  0.51100000000E-03 0.  1.
         11   -1    0    0    0    0 -0.00000000000E+00 -0.00000000000E+00 -0.45593999997E+02  0.45594000000E+02  0.51100000000E-03 0. -1.
    9900012    2    1    2    0    0 -0.50208586608E+01  0.63953908232E+01  0.16869183863E+02  0.72461563882E+02  0.69999991647E+02 0.  0.
         12    1    1    2    0    0  0.50208586608E+01 -0.63953908232E+01 -0.16869183863E+02  0.18726436118E+02  0.00000000000E+00 0. -1.
         11    1    3    3    0    0 -0.62309818211E+01 -0.17379845252E+02 -0.77055719890E+01  0.20006498829E+02  0.51100000000E-03 0. -1.
        -11    1    3    3    0    0  0.18697820497E+02  0.20639557309E+02  0.10404880577E+02  0.29729805874E+02  0.51100000000E-03 0.  1.
        -12    1    3    3    0    0 -0.17487697336E+02  0.31356787663E+01  0.14169875275E+02  0.22725259179E+02  0.00000000000E+00 0.  1.
</event>
<event>
 7    1  0.1360399E-013  0.7246154E+02  0.7816164E-02  0.1226708E+00
        -11   -1    0    0    0    0  0.00000000000E+00  0.00000000000E+00  0.45593999997E+02  0.45594000000E+02  0.51100000000E-03 0.  1.
         11   -1    0    0    0    0 -0.00000000000E+00 -0.00000000000E+00 -0.45593999997E+02  0.45594000000E+02  0.51100000000E-03 0. -1.
    9900012    2    1    2    0    0 -0.78354317223E+01 -0.16902987185E+02 -0.18908736323E+01  0.72461538264E+02  0.69999958275E+02 0.  0.
         12    1    1    2    0    0  0.78354317223E+01  0.16902987185E+02  0.18908736323E+01  0.18726461736E+02  0.00000000000E+00 0. -1.
         11    1    3    3    0    0  0.18854296754E+02 -0.78108867218E+01  0.25062226105E+02  0.32320421332E+02  0.51100000000E-03 0. -1.
        -11    1    3    3    0    0 -0.18072983969E+02 -0.10624363081E+02 -0.19823496122E+02  0.28852744050E+02  0.51100000000E-03 0.  1.
         12    1    3    3    0    0 -0.86167445068E+01  0.15322626176E+01 -0.71296036149E+01  0.11288372882E+02  0.00000000000E+00 0. -1.
</event>
<event>
 7    1  0.1360399E-013  0.7246159E+02  0.7816164E-02  0.1226708E+00
        -11   -1    0    0    0    0  0.00000000000E+00  0.00000000000E+00  0.45593999997E+02  0.45594000000E+02  0.51100000000E-03 0.  1.
         11   -1    0    0    0    0 -0.00000000000E+00 -0.00000000000E+00 -0.45593999997E+02  0.45594000000E+02  0.51100000000E-03 0. -1.
    9900012    2    1    2    0    0  0.15362651375E+02  0.55184509495E+01  0.91768237733E+01  0.72461589433E+02  0.70000024932E+02 0.  0.
         12    1    1    2    0    0 -0.15362651375E+02 -0.55184509495E+01 -0.91768237733E+01  0.18726410567E+02  0.00000000000E+00 0. -1.
         11    1    3    3    0    0  0.33774542562E+02 -0.13262545965E+01 -0.37793815101E+01  0.34011209937E+02  0.51100000000E-03 0. -1.
        -11    1    3    3    0    0 -0.19024349397E+02 -0.84446127955E+01  0.87699507681E+01  0.22586486933E+02  0.51100000000E-03 0.  1.
         12    1    3    3    0    0  0.61245820966E+00  0.15289318341E+02  0.41862545153E+01  0.15863892564E+02  0.00000000000E+00 0. -1.
</event>
<event>
 7    1  0.1360399E-013  0.7246169E+02  0.7816164E-02  0.1226708E+00
        -11   -1    0    0    0    0  0.00000000000E+00  0.00000000000E+00  0.45593999997E+02  0.45594000000E+02  0.51100000000E-03 0.  1.
         11   -1    0    0    0    0 -0.00000000000E+00 -0.00000000000E+00 -0.45593999997E+02  0.45594000000E+02  0.51100000000E-03 0. -1.
    9900012    2    1    2    0    0  0.12791314015E+02  0.60872203474E+01  0.12247560367E+02  0.72461689612E+02  0.70000155434E+02 0.  0.
         12    1    1    2    0    0 -0.12791314015E+02 -0.60872203474E+01 -0.12247560367E+02  0.18726310388E+02  0.00000000000E+00 0. -1.
         11    1    3    3    0    0  0.74862158127E+01 -0.15987266975E+02 -0.15721487798E+02  0.23638978645E+02  0.51100000000E-03 0. -1.
        -11    1    3    3    0    0  0.18540020437E+01  0.30573537207E+02  0.19311140911E+02  0.36209096432E+02  0.51100000000E-03 0.  1.
        -12    1    3    3    0    0  0.34510961590E+01 -0.84990498840E+01  0.86579072535E+01  0.12613614535E+02  0.00000000000E+00 0.  1.
</event>
<event>
 7    1  0.1360399E-013  0.7246169E+02  0.7816164E-02  0.1226708E+00
        -11   -1    0    0    0    0  0.00000000000E+00  0.00000000000E+00  0.45593999997E+02  0.45594000000E+02  0.51100000000E-03 0. -1.
         11   -1    0    0    0    0 -0.00000000000E+00 -0.00000000000E+00 -0.45593999997E+02  0.45594000000E+02  0.51100000000E-03 0.  1.
    9900012    2    1    2    0    0 -0.18294992668E+02 -0.17781587258E+01  0.35785339110E+01  0.72461694702E+02  0.70000162063E+02 0.  0.
         12    1    1    2    0    0  0.18294992668E+02  0.17781587258E+01 -0.35785339110E+01  0.18726305298E+02  0.00000000000E+00 0. -1.
         11    1    3    3    0    0 -0.38552777803E+01 -0.35746538735E+01  0.29360525875E+02  0.29827534210E+02  0.51100000000E-03 0. -1.
        -11    1    3    3    0    0 -0.11279608849E+02  0.55736410264E+01 -0.32184744218E+02  0.34556516183E+02  0.51100000000E-03 0.  1.
        -12    1    3    3    0    0 -0.31601060384E+01 -0.37771458787E+01  0.64027522534E+01  0.80776443089E+01  0.00000000000E+00 0.  1.
</event>
<event>
 7    1  0.1360399E-013  0.7246166E+02  0.7816164E-02  0.1226708E+00
        -11   -1    0    0    0    0  0.00000000000E+00  0.00000000000E+00  0.45593999997E+02  0.45594000000E+02  0.51100000000E-03 0.  1.
         11   -1    0    0    0    0 -0.00000000000E+00 -0.00000000000E+00 -0.45593999997E+02  0.45594000000E+02  0.51100000000E-03 0. -1.
    9900012    2    1    2    0    0 -0.16997909904E+02 -0.26299552527E+00  0.78535069365E+01  0.72461663494E+02  0.70000121409E+02 0.  0.
         12    1    1    2    0    0  0.16997909904E+02  0.26299552527E+00 -0.78535069365E+01  0.18726336506E+02  0.00000000000E+00 0. -1.
         11    1    3    3    0    0 -0.28265624459E+02 -0.21866709738E+02 -0.83043664624E+01  0.36688704302E+02  0.51100000000E-03 0. -1.
        -11    1    3    3    0    0 -0.44636461909E+01  0.29183424287E+01  0.87525475654E+01  0.10249290170E+02  0.51100000000E-03 0.  1.
         12    1    3    3    0    0  0.15731360746E+02  0.18685371784E+02  0.74053258335E+01  0.25523669021E+02  0.00000000000E+00 0. -1.
</event>
<event>
 7    1  0.1360399E-013  0.7246171E+02  0.7816164E-02  0.1226708E+00
        -11   -1    0    0    0    0  0.00000000000E+00  0.00000000000E+00  0.45593999997E+02  0.45594000000E+02  0.51100000000E-03 0.  1.
         11   -1    0    0    0    0 -0.00000000000E+00 -0.00000000000E+00 -0.45593999997E+02  0.45594000000E+02  0.51100000000E-03 0. -1.
    9900012    2    1    2    0    0  0.15052568243E+02 -0.10742252164E+02 -0.29492509718E+01  0.72461711698E+02  0.70000184205E+02 0.  0.
         12    1    1    2    0    0 -0.15052568243E+02  0.10742252164E+02  0.29492509718E+01  0.18726288302E+02  0.00000000000E+00 0. -1.
         11    1    3    3    0    0 -0.13017547179E+02 -0.57422852457E+01  0.13942567153E+02  0.19920480754E+02  0.51100000000E-03 0.  1.
        -11    1    3    3    0    0  0.20707410143E+02  0.10230128185E+02 -0.24781107784E+02  0.33875590929E+02  0.51100000000E-03 0. -1.
         12    1    3    3    0    0  0.73627052789E+01 -0.15230095103E+02  0.78892896597E+01  0.18665640016E+02  0.00000000000E+00 0. -1.
</event>
<event>
 7    1  0.1360399E-013  0.7246160E+02  0.7816164E-02  0.1226708E+00
        -11   -1    0    0    0    0  0.00000000000E+00  0.00000000000E+00  0.45593999997E+02  0.45594000000E+02  0.51100000000E-03 0. -1.
         11   -1    0    0    0    0 -0.00000000000E+00 -0.00000000000E+00 -0.45593999997E+02  0.45594000000E+02  0.51100000000E-03 0.  1.
    9900012    2    1    2    0    0  0.11015837755E+02  0.14610411038E+02 -0.39831417689E+01  0.72461595901E+02  0.70000033357E+02 0.  0.
         12    1    1    2    0    0 -0.11015837755E+02 -0.14610411038E+02  0.39831417689E+01  0.18726404099E+02  0.00000000000E+00 0. -1.
         11    1    3    3    0    0  0.33096602602E+01 -0.88036396512E+00  0.62919355575E+01  0.71636125712E+01  0.51100000000E-03 0. -1.
        -11    1    3    3    0    0  0.22334007359E+01  0.32783822547E+02 -0.25518555998E+02  0.41604853084E+02  0.51100000000E-03 0.  1.
        -12    1    3    3    0    0  0.54727767588E+01 -0.17293047544E+02  0.15243478672E+02  0.23693130245E+02  0.00000000000E+00 0.  1.
</event>
<event>
 7    1  0.1360399E-013  0.7246157E+02  0.7816164E-02  0.1226708E+00
        -11   -1    0    0    0    0  0.00000000000E+00  0.00000000000E+00  0.45593999997E+02  0.45594000000E+02  0.51100000000E-03 0.  1.
         11   -1    0    0    0    0 -0.00000000000E+00 -0.00000000000E+00 -0.45593999997E+02  0.45594000000E+02  0.51100000000E-03 0. -1.
    9900012    2    1    2    0    0  0.57129792451E+01  0.19120724923E+01  0.17730901762E+02  0.72461574010E+02  0.70000004840E+02 0.  0.
         12    1    1    2    0    0 -0.57129792451E+01 -0.19120724923E+01 -0.17730901762E+02  0.18726425990E+02  0.00000000000E+00 0. -1.
         11    1    3    3    0    0 -0.64866647977E+01 -0.20082851332E+02 -0.15718760752E+02  0.26314961099E+02  0.51100000000E-03 0. -1.
        -11    1    3    3    0    0  0.12721770613E+02  0.22756147540E+02  0.20503126724E+02  0.33167211280E+02  0.51100000000E-03 0.  1.
         12    1    3    3    0    0 -0.52212656998E+00 -0.76122371604E+00  0.12946535791E+02  0.12979401630E+02  0.00000000000E+00 0. -1.
</event>
<event>
 7    1  0.1360399E-013  0.7246158E+02  0.7816164E-02  0.1226708E+00
        -11   -1    0    0    0    0  0.00000000000E+00  0.00000000000E+00  0.45593999997E+02  0.45594000000E+02  0.51100000000E-03 0. -1.
         11   -1    0    0    0    0 -0.00000000000E+00 -0.00000000000E+00 -0.45593999997E+02  0.45594000000E+02  0.51100000000E-03 0.  1.
    9900012    2    1    2    0    0 -0.64487683346E+01  0.12205612852E+02 -0.12653663646E+02  0.72461580113E+02  0.70000012791E+02 0.  0.
         12    1    1    2    0    0  0.64487683346E+01 -0.12205612852E+02  0.12653663646E+02  0.18726419887E+02  0.00000000000E+00 0. -1.
         11    1    3    3    0    0 -0.67666637544E+01  0.29215772900E+02  0.12368015514E+02  0.32439434837E+02  0.51100000000E-03 0. -1.
        -11    1    3    3    0    0  0.34609277274E+01 -0.21930084786E+02 -0.10882778231E+02  0.24725321065E+02  0.51100000000E-03 0.  1.
        -12    1    3    3    0    0 -0.31430323077E+01  0.49199247379E+01 -0.14138900928E+02  0.15296824212E+02  0.00000000000E+00 0.  1.
</event>
<event>
 7    1  0.1360399E-013  0.7246153E+02  0.7816164E-02  0.1226708E+00
        -11   -1    0    0    0    0  0.00000000000E+00  0.00000000000E+00  0.45593999997E+02  0.45594000000E+02  0.51100000000E-03 0.  1.
         11   -1    0    0    0    0 -0.00000000000E+00 -0.00000000000E+00 -0.45593999997E+02  0.45594000000E+02  0.51100000000E-03 0. -1.
    9900012    2    1    2    0    0 -0.17372661085E+02  0.29587732918E+01  0.63338011443E+01  0.72461528642E+02  0.69999945740E+02 0.  0.
         12    1    1    2    0    0  0.17372661085E+02 -0.29587732918E+01 -0.63338011443E+01  0.18726471358E+02  0.00000000000E+00 0. -1.
         11    1    3    3    0    0  0.17109220848E+02  0.25407365671E+02  0.36965928181E+01  0.30853273199E+02  0.51100000000E-03 0.  1.
        -11    1    3    3    0    0 -0.32047509832E+02 -0.19364734974E+02  0.34286634995E+01  0.37600419954E+02  0.51100000000E-03 0. -1.
        -12    1    3    3    0    0 -0.24343721005E+01 -0.30838574049E+01 -0.79145517341E+00  0.40078354893E+01  0.00000000000E+00 0.  1.
</event>
<event>
 7    1  0.1360399E-013  0.7246155E+02  0.7816164E-02  0.1226708E+00
        -11   -1    0    0    0    0  0.00000000000E+00  0.00000000000E+00  0.45593999997E+02  0.45594000000E+02  0.51100000000E-03 0.  1.
         11   -1    0    0    0    0 -0.00000000000E+00 -0.00000000000E+00 -0.45593999997E+02  0.45594000000E+02  0.51100000000E-03 0. -1.
    9900012    2    1    2    0    0  0.63329746108E+01  0.26092994994E+01  0.17428849936E+02  0.72461552889E+02  0.69999977327E+02 0.  0.
         12    1    1    2    0    0 -0.63329746108E+01 -0.26092994994E+01 -0.17428849936E+02  0.18726447111E+02  0.00000000000E+00 0. -1.
         11    1    3    3    0    0  0.75188426693E+01  0.20253665634E+02 -0.19099107918E+02  0.28836086597E+02  0.51100000000E-03 0. -1.
        -11    1    3    3    0    0  0.29658734690E+01 -0.30142764356E+00  0.16674402238E+02  0.16938800262E+02  0.51100000000E-03 0.  1.
         12    1    3    3    0    0 -0.41517415276E+01 -0.17342938491E+02  0.19853555617E+02  0.26686666031E+02  0.00000000000E+00 0. -1.
</event>
<event>
 7    1  0.1360399E-013  0.7246164E+02  0.7816164E-02  0.1226708E+00
        -11   -1    0    0    0    0  0.00000000000E+00  0.00000000000E+00  0.45593999997E+02  0.45594000000E+02  0.51100000000E-03 0.  1.
         11   -1    0    0    0    0 -0.00000000000E+00 -0.00000000000E+00 -0.45593999997E+02  0.45594000000E+02  0.51100000000E-03 0. -1.
    9900012    2    1    2    0    0 -0.16549255998E+02 -0.84859270247E+01 -0.21881070520E+01  0.72461637726E+02  0.70000087842E+02 0.  0.
         12    1    1    2    0    0  0.16549255998E+02  0.84859270247E+01  0.21881070520E+01  0.18726362274E+02  0.00000000000E+00 0. -1.
         11    1    3    3    0    0  0.21453369628E+02  0.10275791909E+01  0.97227888622E+01  0.23576166162E+02  0.51100000000E-03 0. -1.
        -11    1    3    3    0    0 -0.24051528967E+02 -0.13920487251E+02  0.30541857400E+01  0.27956824958E+02  0.51100000000E-03 0.  1.
         12    1    3    3    0    0 -0.13951096659E+02  0.44069810350E+01 -0.14965081654E+02  0.20928646606E+02  0.00000000000E+00 0. -1.
</event>
<event>
 7    1  0.1360399E-013  0.7246162E+02  0.7816164E-02  0.1226708E+00
        -11   -1    0    0    0    0  0.00000000000E+00  0.00000000000E+00  0.45593999997E+02  0.45594000000E+02  0.51100000000E-03 0.  1.
         11   -1    0    0    0    0 -0.00000000000E+00 -0.00000000000E+00 -0.45593999997E+02  0.45594000000E+02  0.51100000000E-03 0. -1.
    9900012    2    1    2    0    0  0.13625804426E+02  0.12311615912E+02  0.36659249148E+01  0.72461616523E+02  0.70000060222E+02 0.  0.
         12    1    1    2    0    0 -0.13625804426E+02 -0.12311615912E+02 -0.36659249148E+01  0.18726383477E+02  0.00000000000E+00 0. -1.
         11    1    3    3    0    0  0.33503441471E+02  0.10649546427E+02  0.91165181159E+00  0.35167094546E+02  0.51100000000E-03 0. -1.
        -11    1    3    3    0    0 -0.17137715660E+02 -0.84728769318E+01  0.12603928195E+02  0.22898688778E+02  0.51100000000E-03 0.  1.
         12    1    3    3    0    0 -0.27399213849E+01  0.10134946417E+02 -0.98496550915E+01  0.14395833199E+02  0.00000000000E+00 0. -1.
</event>
<event>
 7    1  0.1360399E-013  0.7246159E+02  0.7816164E-02  0.1226708E+00
        -11   -1    0    0    0    0  0.00000000000E+00  0.00000000000E+00  0.45593999997E+02  0.45594000000E+02  0.51100000000E-03 0.  1.
         11   -1    0    0    0    0 -0.00000000000E+00 -0.00000000000E+00 -0.45593999997E+02  0.45594000000E+02  0.51100000000E-03 0. -1.
    9900012    2    1    2    0    0 -0.67379627499E+01  0.98999943952E+01 -0.14396817816E+02  0.72461590993E+02  0.70000026964E+02 0.  0.
         12    1    1    2    0    0  0.67379627499E+01 -0.98999943952E+01  0.14396817816E+02  0.18726409007E+02  0.00000000000E+00 0. -1.
         11    1    3    3    0    0  0.13733615661E+02  0.28933317633E+02  0.34574892994E+01  0.32213402504E+02  0.51100000000E-03 0. -1.
        -11    1    3    3    0    0 -0.12341106134E+02 -0.22165229290E+02 -0.18667873340E+02  0.31497456808E+02  0.51100000000E-03 0.  1.
        -12    1    3    3    0    0 -0.81304722766E+01  0.31319060518E+01  0.81356622398E+00  0.87507316813E+01  0.00000000000E+00 0.  1.
</event>
<event>
 7    1  0.1360399E-013  0.7246165E+02  0.7816164E-02  0.1226708E+00
        -11   -1    0    0    0    0  0.00000000000E+00  0.00000000000E+00  0.45593999997E+02  0.45594000000E+02  0.51100000000E-03 0.  1.
         11   -1    0    0    0    0 -0.00000000000E+00 -0.00000000000E+00 -0.45593999997E+02  0.45594000000E+02  0.51100000000E-03 0. -1.
    9900012    2    1    2    0    0 -0.12607048792E+02  0.12911964670E+02 -0.50019537740E+01  0.72461653521E+02  0.70000108418E+02 0.  0.
         12    1    1    2    0    0  0.12607048792E+02 -0.12911964670E+02  0.50019537740E+01  0.18726346479E+02  0.00000000000E+00 0. -1.
         11    1    3    3    0    0 -0.34011016998E+02 -0.17523915886E+01 -0.48781875292E+01  0.34403733334E+02  0.51100000000E-03 0.  1.
        -11    1    3    3    0    0  0.14600151998E+02  0.22554555810E+02  0.33494182883E+01  0.27075653811E+02  0.51100000000E-03 0. -1.
        -12    1    3    3    0    0  0.68038162068E+01 -0.78901995521E+01 -0.34731845332E+01  0.10982266376E+02  0.00000000000E+00 0.  1.
</event>
<event>
 7    1  0.1360399E-013  0.7246154E+02  0.7816164E-02  0.1226708E+00
        -11   -1    0    0    0    0  0.00000000000E+00  0.00000000000E+00  0.45593999997E+02  0.45594000000E+02  0.51100000000E-03 0.  1.
         11   -1    0    0    0    0 -0.00000000000E+00 -0.00000000000E+00 -0.45593999997E+02  0.45594000000E+02  0.51100000000E-03 0. -1.
    9900012    2    1    2    0    0  0.38680969329E+01 -0.10872354068E+02  0.14748217971E+02  0.72461543042E+02  0.69999964499E+02 0.  0.
         12    1    1    2    0    0 -0.38680969329E+01  0.10872354068E+02 -0.14748217971E+02  0.18726456958E+02  0.00000000000E+00 0. -1.
         11    1    3    3    0    0 -0.26695599149E+02  0.32253662022E+01 -0.13561271240E+01  0.26923912830E+02  0.51100000000E-03 0.  1.
        -11    1    3    3    0    0  0.74036354481E+01  0.76868444579E+01  0.25457824924E+01  0.10971891556E+02  0.51100000000E-03 0. -1.
         12    1    3    3    0    0  0.23160060634E+02 -0.21784564728E+02  0.13558562603E+02  0.34565738656E+02  0.00000000000E+00 0. -1.
</event>
<event>
 7    1  0.1360399E-013  0.7246166E+02  0.7816164E-02  0.1226708E+00
        -11   -1    0    0    0    0  0.00000000000E+00  0.00000000000E+00  0.45593999997E+02  0.45594000000E+02  0.51100000000E-03 0.  1.
         11   -1    0    0    0    0 -0.00000000000E+00 -0.00000000000E+00 -0.45593999997E+02  0.45594000000E+02  0.51100000000E-03 0. -1.
    9900012    2    1    2    0    0 -0.17231299524E+02  0.46582060272E+01  0.56620801484E+01  0.72461662443E+02  0.70000120041E+02 0.  0.
         12    1    1    2    0    0  0.17231299524E+02 -0.46582060272E+01 -0.56620801484E+01  0.18726337557E+02  0.00000000000E+00 0. -1.
         11    1    3    3    0    0 -0.55487142577E+01  0.20945733011E+02 -0.99695770021E+01  0.23851717489E+02  0.51100000000E-03 0. -1.
        -11    1    3    3    0    0 -0.10523626516E+02 -0.20313925234E+02 -0.82828213004E+01  0.24331202239E+02  0.51100000000E-03 0.  1.
         12    1    3    3    0    0 -0.11589587506E+01  0.40263982500E+01  0.23914478451E+02  0.24278742715E+02  0.00000000000E+00 0. -1.
</event>
<event>
 7    1  0.1360399E-013  0.7246156E+02  0.7816164E-02  0.1226708E+00
        -11   -1    0    0    0    0  0.00000000000E+00  0.00000000000E+00  0.45593999997E+02  0.45594000000E+02  0.51100000000E-03 0.  1.
         11   -1    0    0    0    0 -0.00000000000E+00 -0.00000000000E+00 -0.45593999997E+02  0.45594000000E+02  0.51100000000E-03 0. -1.
    9900012    2    1    2    0    0 -0.15781440300E+02 -0.82063775444E+01  0.58549906942E+01  0.72461563970E+02  0.69999991762E+02 0.  0.
         12    1    1    2    0    0  0.15781440300E+02  0.82063775444E+01 -0.58549906942E+01  0.18726436030E+02  0.00000000000E+00 0. -1.
         11    1    3    3    0    0  0.16276641334E+02 -0.32462305927E+01  0.11862731615E+02  0.20400771256E+02  0.51100000000E-03 0. -1.
        -11    1    3    3    0    0 -0.27752201844E+02  0.81352124337E+01 -0.17766898392E+02  0.33941553695E+02  0.51100000000E-03 0.  1.
        -12    1    3    3    0    0 -0.43058797907E+01 -0.13095359385E+02  0.11759157471E+02  0.18119239019E+02  0.00000000000E+00 0.  1.
</event>
<event>
 8    1  0.1360399E-013  0.7246157E+02  0.7816164E-02  0.1226708E+00
        -11   -1    0    0    0    0  0.00000000000E+00  0.00000000000E+00  0.45593999997E+02  0.45594000000E+02  0.51100000000E-03 0.  1.
         11   -1    0    0    0    0 -0.00000000000E+00 -0.00000000000E+00 -0.45593999997E+02  0.45594000000E+02  0.51100000000E-03 0. -1.
    9900012    2    1    2    0    0 -0.11275409297E+02 -0.13406911164E+02 -0.66180791250E+01  0.72461572335E+02  0.70000002659E+02 0.  0.
        -24    2    3    3    0    0  0.66169763176E+01 -0.13665273103E+02  0.17553913802E+00  0.53321105694E+02  0.51113456486E+02 0.  0.
         12    1    1    2    0    0  0.11275409297E+02  0.13406911164E+02  0.66180791250E+01  0.18726427665E+02  0.00000000000E+00 0. -1.
         11    1    4    4    0    0  0.10523712021E+02 -0.29664013403E+02  0.11305272368E+02  0.33444153292E+02  0.51100000000E-03 0.  1.
        -11    1    3    3    0    0 -0.17892385614E+02  0.25836193939E+00 -0.67936182630E+01  0.19140466641E+02  0.51100000000E-03 0. -1.
        -12    1    4    4    0    0 -0.39067357032E+01  0.15998740300E+02 -0.11129733230E+02  0.19876952402E+02  0.00000000000E+00 0.  1.
</event>
<event>
 7    1  0.1360399E-013  0.7246158E+02  0.7816164E-02  0.1226708E+00
        -11   -1    0    0    0    0  0.00000000000E+00  0.00000000000E+00  0.45593999997E+02  0.45594000000E+02  0.51100000000E-03 0.  1.
         11   -1    0    0    0    0 -0.00000000000E+00 -0.00000000000E+00 -0.45593999997E+02  0.45594000000E+02  0.51100000000E-03 0. -1.
    9900012    2    1    2    0    0 -0.16426604209E+02 -0.85194466555E+01  0.28748122062E+01  0.72461579030E+02  0.70000011379E+02 0.  0.
         12    1    1    2    0    0  0.16426604209E+02  0.85194466555E+01 -0.28748122062E+01  0.18726420970E+02  0.00000000000E+00 0. -1.
         11    1    3    3    0    0 -0.42966107186E+01  0.83182218674E+01  0.55947911025E+00  0.93790562339E+01  0.51100000000E-03 0. -1.
        -11    1    3    3    0    0 -0.32341153336E+02 -0.23071559766E+02  0.93132467139E+01  0.40804210980E+02  0.51100000000E-03 0.  1.
        -12    1    3    3    0    0  0.20211159846E+02  0.62338912427E+01 -0.69979136179E+01  0.22278311815E+02  0.00000000000E+00 0.  1.
</event>
<event>
 7    1  0.1360399E-013  0.7246145E+02  0.7816164E-02  0.1226708E+00
        -11   -1    0    0    0    0  0.00000000000E+00  0.00000000000E+00  0.45593999997E+02  0.45594000000E+02  0.51100000000E-03 0.  1.
         11   -1    0    0    0    0 -0.00000000000E+00 -0.00000000000E+00 -0.45593999997E+02  0.45594000000E+02  0.51100000000E-03 0. -1.
    9900012    2    1    2    0    0  0.16543412246E+02  0.16782630715E+01  0.86129323977E+01  0.72461450394E+02  0.69999843807E+02 0.  0.
         12    1    1    2    0    0 -0.16543412246E+02 -0.16782630715E+01 -0.86129323977E+01  0.18726549606E+02  0.00000000000E+00 0. -1.
         11    1    3    3    0    0  0.43117472213E+01 -0.82321060644E+01 -0.40676045618E+01  0.10144167856E+02  0.51100000000E-03 0. -1.
        -11    1    3    3    0    0 -0.21433567859E+02  0.34008898515E+01  0.17254042675E+02  0.27724824109E+02  0.51100000000E-03 0.  1.
        -12    1    3    3    0    0  0.33665232883E+02  0.65094792844E+01 -0.45735057158E+01  0.34592458429E+02  0.00000000000E+00 0.  1.
</event>
<event>
 7    1  0.1360399E-013  0.7246158E+02  0.7816164E-02  0.1226708E+00
        -11   -1    0    0    0    0  0.00000000000E+00  0.00000000000E+00  0.45593999997E+02  0.45594000000E+02  0.51100000000E-03 0.  1.
         11   -1    0    0    0    0 -0.00000000000E+00 -0.00000000000E+00 -0.45593999997E+02  0.45594000000E+02  0.51100000000E-03 0. -1.
    9900012    2    1    2    0    0 -0.15789730247E+02  0.57748489674E+01  0.82470862881E+01  0.72461577648E+02  0.70000009579E+02 0.  0.
         12    1    1    2    0    0  0.15789730247E+02 -0.57748489674E+01 -0.82470862881E+01  0.18726422352E+02  0.00000000000E+00 0. -1.
         11    1    3    3    0    0  0.11808029467E+02  0.26614021979E+02  0.81579103350E+01  0.30237182856E+02  0.51100000000E-03 0.  1.
        -11    1    3    3    0    0 -0.29912227563E+02 -0.16244577529E+02  0.58096299953E+01  0.34530847917E+02  0.51100000000E-03 0. -1.
         12    1    3    3    0    0  0.23144678496E+01 -0.45945954819E+01 -0.57204540421E+01  0.76935468750E+01  0.00000000000E+00 0. -1.
</event>
<event>
 7    1  0.1360399E-013  0.7246157E+02  0.7816164E-02  0.1226708E+00
        -11   -1    0    0    0    0  0.00000000000E+00  0.00000000000E+00  0.45593999997E+02  0.45594000000E+02  0.51100000000E-03 0.  1.
         11   -1    0    0    0    0 -0.00000000000E+00 -0.00000000000E+00 -0.45593999997E+02  0.45594000000E+02  0.51100000000E-03 0. -1.
    9900012    2    1    2    0    0  0.14368576695E+01 -0.16113995055E+02  0.94315311402E+01  0.72461570115E+02  0.69999999767E+02 0.  0.
         12    1    1    2    0    0 -0.14368576695E+01  0.16113995055E+02 -0.94315311402E+01  0.18726429885E+02  0.00000000000E+00 0. -1.
         11    1    3    3    0    0  0.13970091624E+02 -0.17856676191E+02  0.10103442880E+01  0.22694605976E+02  0.51100000000E-03 0. -1.
        -11    1    3    3    0    0 -0.72174039262E+01  0.15393085799E+02 -0.14647085167E+02  0.22440479362E+02  0.51100000000E-03 0.  1.
        -12    1    3    3    0    0 -0.53158300282E+01 -0.13650404662E+02  0.23068272019E+02  0.27326484777E+02  0.00000000000E+00 0.  1.
</event>
<event>
 7    1  0.1360399E-013  0.7246152E+02  0.7816164E-02  0.1226708E+00
        -11   -1    0    0    0    0  0.00000000000E+00  0.00000000000E+00  0.45593999997E+02  0.45594000000E+02  0.51100000000E-03 0. -1.
         11   -1    0    0    0    0 -0.00000000000E+00 -0.00000000000E+00 -0.45593999997E+02  0.45594000000E+02  0.51100000000E-03 0.  1.
    9900012    2    1    2    0    0 -0.17675847608E+02 -0.54482582215E+01 -0.29260920842E+01  0.72461518184E+02  0.69999932116E+02 0.  0.
         12    1    1    2    0    0  0.17675847608E+02  0.54482582215E+01  0.29260920842E+01  0.18726481816E+02  0.00000000000E+00 0. -1.
         11    1    3    3    0    0  0.98478892470E+01  0.26215769997E+01  0.26442323337E+01  0.10528321494E+02  0.51100000000E-03 0. -1.
        -11    1    3    3    0    0 -0.38229764873E+02  0.71950099516E+01  0.68920535647E+01  0.39506752499E+02  0.51100000000E-03 0.  1.
        -12    1    3    3    0    0  0.10706028017E+02 -0.15264845173E+02 -0.12462377983E+02  0.22426444191E+02  0.00000000000E+00 0.  1.
</event>
<event>
 7    1  0.1360399E-013  0.7246161E+02  0.7816164E-02  0.1226708E+00
        -11   -1    0    0    0    0  0.00000000000E+00  0.00000000000E+00  0.45593999997E+02  0.45594000000E+02  0.51100000000E-03 0.  1.
         11   -1    0    0    0    0 -0.00000000000E+00 -0.00000000000E+00 -0.45593999997E+02  0.45594000000E+02  0.51100000000E-03 0. -1.
    9900012    2    1    2    0    0 -0.29944672887E+01  0.17452096993E+02  0.60938474317E+01  0.72461614862E+02  0.70000058058E+02 0.  0.
         12    1    1    2    0    0  0.29944672887E+01 -0.17452096993E+02 -0.60938474317E+01  0.18726385138E+02  0.00000000000E+00 0. -1.
         11    1    3    3    0    0  0.25276262309E+02 -0.10723996587E+00  0.12757188211E+02  0.28313367656E+02  0.51100000000E-03 0. -1.
        -11    1    3    3    0    0 -0.10021997234E+02  0.11670533262E+02  0.10327455534E+02  0.18528305731E+02  0.51100000000E-03 0.  1.
         12    1    3    3    0    0 -0.18248732363E+02  0.58888036966E+01 -0.16990796313E+02  0.25619941475E+02  0.00000000000E+00 0. -1.
</event>
<event>
 7    1  0.1360399E-013  0.7246150E+02  0.7816164E-02  0.1226708E+00
        -11   -1    0    0    0    0  0.00000000000E+00  0.00000000000E+00  0.45593999997E+02  0.45594000000E+02  0.51100000000E-03 0.  1.
         11   -1    0    0    0    0 -0.00000000000E+00 -0.00000000000E+00 -0.45593999997E+02  0.45594000000E+02  0.51100000000E-03 0. -1.
    9900012    2    1    2    0    0 -0.15033382085E+02 -0.10052531716E+02 -0.48606321207E+01  0.72461502318E+02  0.69999911449E+02 0.  0.
         12    1    1    2    0    0  0.15033382085E+02  0.10052531716E+02  0.48606321207E+01  0.18726497682E+02  0.00000000000E+00 0. -1.
         11    1    3    3    0    0 -0.27120057161E+02 -0.11080739035E+02 -0.77838529527E+01  0.30312846204E+02  0.51100000000E-03 0. -1.
        -11    1    3    3    0    0  0.60508133705E+01  0.53755678347E+01  0.21051390018E+02  0.22553715746E+02  0.51100000000E-03 0.  1.
         12    1    3    3    0    0  0.60358617053E+01 -0.43473605152E+01 -0.18128169186E+02  0.19594940368E+02  0.00000000000E+00 0. -1.
</event>
<event>
 7    1  0.1360399E-013  0.7246165E+02  0.7816164E-02  0.1226708E+00
        -11   -1    0    0    0    0  0.00000000000E+00  0.00000000000E+00  0.45593999997E+02  0.45594000000E+02  0.51100000000E-03 0.  1.
         11   -1    0    0    0    0 -0.00000000000E+00 -0.00000000000E+00 -0.45593999997E+02  0.45594000000E+02  0.51100000000E-03 0. -1.
    9900012    2    1    2    0    0  0.43267114458E+01 -0.91764812269E+01  0.15740014495E+02  0.72461647019E+02  0.70000099948E+02 0.  0.
         12    1    1    2    0    0 -0.43267114458E+01  0.91764812269E+01 -0.15740014495E+02  0.18726352981E+02  0.00000000000E+00 0. -1.
         11    1    3    3    0    0  0.39698561583E+00  0.16996407645E+02 -0.10986900438E+02  0.20242219541E+02  0.51100000000E-03 0. -1.
        -11    1    3    3    0    0 -0.65046141846E+01 -0.27310658291E+02  0.30132728245E+02  0.41184504049E+02  0.51100000000E-03 0.  1.
        -12    1    3    3    0    0  0.10434340015E+02  0.11377694190E+01 -0.34058133111E+01  0.11034923430E+02  0.00000000000E+00 0.  1.
</event>
<event>
 7    1  0.1360399E-013  0.7246165E+02  0.7816164E-02  0.1226708E+00
        -11   -1    0    0    0    0  0.00000000000E+00  0.00000000000E+00  0.45593999997E+02  0.45594000000E+02  0.51100000000E-03 0. -1.
         11   -1    0    0    0    0 -0.00000000000E+00 -0.00000000000E+00 -0.45593999997E+02  0.45594000000E+02  0.51100000000E-03 0.  1.
    9900012    2    1    2    0    0  0.71446900693E+01 -0.11870196695E+02  0.12598723639E+02  0.72461654839E+02  0.70000110134E+02 0.  0.
         12    1    1    2    0    0 -0.71446900693E+01  0.11870196695E+02 -0.12598723639E+02  0.18726345161E+02  0.00000000000E+00 0. -1.
         11    1    3    3    0    0  0.23633384948E+02  0.95251672162E+01  0.17049849042E+02  0.30658816794E+02  0.51100000000E-03 0. -1.
        -11    1    3    3    0    0 -0.89541472273E+01  0.21561066893E+01 -0.12742435686E+02  0.15722443071E+02  0.51100000000E-03 0.  1.
         12    1    3    3    0    0 -0.75345476517E+01 -0.23551470601E+02  0.82913102840E+01  0.26080394974E+02  0.00000000000E+00 0. -1.
</event>
<event>
 7    1  0.1360399E-013  0.7246156E+02  0.7816164E-02  0.1226708E+00
        -11   -1    0    0    0    0  0.00000000000E+00  0.00000000000E+00  0.45593999997E+02  0.45594000000E+02  0.51100000000E-03 0. -1.
         11   -1    0    0    0    0 -0.00000000000E+00 -0.00000000000E+00 -0.45593999997E+02  0.45594000000E+02  0.51100000000E-03 0.  1.
    9900012    2    1    2    0    0  0.38545384424E+01  0.87848923654E+01 -0.16082531732E+02  0.72461558070E+02  0.69999984075E+02 0.  0.
         12    1    1    2    0    0 -0.38545384424E+01 -0.87848923654E+01  0.16082531732E+02  0.18726441930E+02  0.00000000000E+00 0. -1.
         11    1    3    3    0    0  0.44896611097E+01  0.59327146988E+01  0.90523442014E+01  0.11717469709E+02  0.51100000000E-03 0. -1.
        -11    1    3    3    0    0  0.83241554646E+01 -0.70973748537E+01 -0.39570834197E+02  0.41055026651E+02  0.51100000000E-03 0.  1.
        -12    1    3    3    0    0 -0.89592781319E+01  0.99495525202E+01  0.14435958264E+02  0.19689061710E+02  0.00000000000E+00 0.  1.
</event>
<event>
 7    1  0.1360399E-013  0.7246160E+02  0.7816164E-02  0.1226708E+00
        -11   -1    0    0    0    0  0.00000000000E+00  0.00000000000E+00  0.45593999997E+02  0.45594000000E+02  0.51100000000E-03 0.  1.
         11   -1    0    0    0    0 -0.00000000000E+00 -0.00000000000E+00 -0.45593999997E+02  0.45594000000E+02  0.51100000000E-03 0. -1.
    9900012    2    1    2    0    0 -0.16050929023E+02 -0.17980117876E+01  0.94769566478E+01  0.72461604827E+02  0.70000044985E+02 0.  0.
         12    1    1    2    0    0  0.16050929023E+02  0.17980117876E+01 -0.94769566478E+01  0.18726395173E+02  0.00000000000E+00 0. -1.
         11    1    3    3    0    0  0.12769409476E+02 -0.17201263187E+02 -0.86704288922E+01  0.23110984640E+02  0.51100000000E-03 0. -1.
        -11    1    3    3    0    0 -0.18957138194E+02 -0.54917344096E+01  0.17273864059E+02  0.26228202666E+02  0.51100000000E-03 0.  1.
         12    1    3    3    0    0 -0.98632003047E+01  0.20894985809E+02  0.87352148130E+00  0.23122417521E+02  0.00000000000E+00 0. -1.
</event>
<event>
 7    1  0.1360399E-013  0.7246156E+02  0.7816164E-02  0.1226708E+00
        -11   -1    0    0    0    0  0.00000000000E+00  0.00000000000E+00  0.45593999997E+02  0.45594000000E+02  0.51100000000E-03 0. -1.
         11   -1    0    0    0    0 -0.00000000000E+00 -0.00000000000E+00 -0.45593999997E+02  0.45594000000E+02  0.51100000000E-03 0.  1.
    9900012    2    1    2    0    0  0.92448861864E+01 -0.13934098211E+02  0.84292717283E+01  0.72461557855E+02  0.69999983795E+02 0.  0.
         12    1    1    2    0    0 -0.92448861864E+01  0.13934098211E+02 -0.84292717283E+01  0.18726442145E+02  0.00000000000E+00 0. -1.
         11    1    3    3    0    0 -0.15727253063E+02 -0.22232661234E+02  0.26292529031E+01  0.27359654339E+02  0.51100000000E-03 0. -1.
        -11    1    3    3    0    0  0.69863400982E+01  0.42775586029E+01 -0.15135451850E+02  0.17210123722E+02  0.51100000000E-03 0.  1.
         12    1    3    3    0    0  0.17985799151E+02  0.40210044209E+01  0.20935470675E+02  0.27891779794E+02  0.00000000000E+00 0. -1.
</event>
<event>
 7    1  0.1360399E-013  0.7246151E+02  0.7816164E-02  0.1226708E+00
        -11   -1    0    0    0    0  0.00000000000E+00  0.00000000000E+00  0.45593999997E+02  0.45594000000E+02  0.51100000000E-03 0. -1.
         11   -1    0    0    0    0 -0.00000000000E+00 -0.00000000000E+00 -0.45593999997E+02  0.45594000000E+02  0.51100000000E-03 0.  1.
    9900012    2    1    2    0    0  0.17689315429E+02  0.55301352888E+01 -0.26808613740E+01  0.72461513561E+02  0.69999926094E+02 0.  0.
         12    1    1    2    0    0 -0.17689315429E+02 -0.55301352888E+01  0.26808613740E+01  0.18726486439E+02  0.00000000000E+00 0. -1.
         11    1    3    3    0    0 -0.14628083266E+02  0.96656963037E+01 -0.17558685437E+02  0.24813583772E+02  0.51100000000E-03 0. -1.
        -11    1    3    3    0    0  0.30996161944E+02  0.21341733785E+01 -0.40936443595E+00  0.31072243736E+02  0.51100000000E-03 0.  1.
         12    1    3    3    0    0  0.13212367506E+01 -0.62697343935E+01  0.15287188499E+02  0.16575686053E+02  0.00000000000E+00 0. -1.
</event>
<event>
 7    1  0.1360399E-013  0.7246166E+02  0.7816164E-02  0.1226708E+00
        -11   -1    0    0    0    0  0.00000000000E+00  0.00000000000E+00  0.45593999997E+02  0.45594000000E+02  0.51100000000E-03 0. -1.
         11   -1    0    0    0    0 -0.00000000000E+00 -0.00000000000E+00 -0.45593999997E+02  0.45594000000E+02  0.51100000000E-03 0.  1.
    9900012    2    1    2    0    0 -0.29212382900E+01  0.14225527833E+02 -0.11822712448E+02  0.72461660130E+02  0.70000117028E+02 0.  0.
         12    1    1    2    0    0  0.29212382900E+01 -0.14225527833E+02  0.11822712448E+02  0.18726339870E+02  0.00000000000E+00 0. -1.
         11    1    3    3    0    0 -0.13355479661E+02  0.27093912511E+02 -0.24188220907E+02  0.38697790157E+02  0.51100000000E-03 0.  1.
        -11    1    3    3    0    0  0.44218358927E+01 -0.18955227468E+02  0.93568436614E+00  0.19486630969E+02  0.51100000000E-03 0. -1.
        -12    1    3    3    0    0  0.60124054784E+01  0.60868427899E+01  0.11429824093E+02  0.14277239004E+02  0.00000000000E+00 0.  1.
</event>
<event>
 7    1  0.1360399E-013  0.7246158E+02  0.7816164E-02  0.1226708E+00
        -11   -1    0    0    0    0  0.00000000000E+00  0.00000000000E+00  0.45593999997E+02  0.45594000000E+02  0.51100000000E-03 0.  1.
         11   -1    0    0    0    0 -0.00000000000E+00 -0.00000000000E+00 -0.45593999997E+02  0.45594000000E+02  0.51100000000E-03 0. -1.
    9900012    2    1    2    0    0  0.12672737227E+02 -0.44720441795E+01  0.13041523316E+02  0.72461580738E+02  0.70000013605E+02 0.  0.
         12    1    1    2    0    0 -0.12672737227E+02  0.44720441795E+01 -0.13041523316E+02  0.18726419262E+02  0.00000000000E+00 0. -1.
         11    1    3    3    0    0  0.21310736140E+00 -0.26503866901E+01 -0.26653160559E+02  0.26785461213E+02  0.51100000000E-03 0. -1.
        -11    1    3    3    0    0 -0.13996716573E+01 -0.72218127713E+01  0.94860037859E+01  0.12004079662E+02  0.51100000000E-03 0.  1.
         12    1    3    3    0    0  0.13859301523E+02  0.54001552819E+01  0.30208680089E+02  0.33672039863E+02  0.00000000000E+00 0. -1.
</event>
<event>
 7    1  0.1360399E-013  0.7246163E+02  0.7816164E-02  0.1226708E+00
        -11   -1    0    0    0    0  0.00000000000E+00  0.00000000000E+00  0.45593999997E+02  0.45594000000E+02  0.51100000000E-03 0.  1.
         11   -1    0    0    0    0 -0.00000000000E+00 -0.00000000000E+00 -0.45593999997E+02  0.45594000000E+02  0.51100000000E-03 0. -1.
    9900012    2    1    2    0    0 -0.11287194890E+02 -0.15370067433E+01  0.14863174301E+02  0.72461625324E+02  0.70000071686E+02 0.  0.
         12    1    1    2    0    0  0.11287194890E+02  0.15370067433E+01 -0.14863174301E+02  0.18726374676E+02  0.00000000000E+00 0. -1.
         11    1    3    3    0    0 -0.12630504768E+02 -0.13448141431E+02 -0.49723567109E+01  0.19107759947E+02  0.51100000000E-03 0. -1.
        -11    1    3    3    0    0  0.22518909054E+02 -0.13762332645E+01  0.16887889393E+02  0.28181484904E+02  0.51100000000E-03 0.  1.
        -12    1    3    3    0    0 -0.21175599176E+02  0.13287367953E+02  0.29476416181E+01  0.25172380473E+02  0.00000000000E+00 0.  1.
</event>
<event>
 7    1  0.1360399E-013  0.7246158E+02  0.7816164E-02  0.1226708E+00
        -11   -1    0    0    0    0  0.00000000000E+00  0.00000000000E+00  0.45593999997E+02  0.45594000000E+02  0.51100000000E-03 0.  1.
         11   -1    0    0    0    0 -0.00000000000E+00 -0.00000000000E+00 -0.45593999997E+02  0.45594000000E+02  0.51100000000E-03 0. -1.
    9900012    2    1    2    0    0  0.16416766004E+02  0.89918847967E+01  0.56103204837E+00  0.72461576018E+02  0.70000007456E+02 0.  0.
         12    1    1    2    0    0 -0.16416766004E+02 -0.89918847967E+01 -0.56103204837E+00  0.18726423982E+02  0.00000000000E+00 0. -1.
         11    1    3    3    0    0 -0.11703427673E+02  0.25111886720E+02  0.92670202627E+01  0.29213947675E+02  0.51100000000E-03 0. -1.
        -11    1    3    3    0    0  0.12628882654E+02  0.26073506161E+00  0.82067214659E+01  0.15063430464E+02  0.51100000000E-03 0.  1.
         12    1    3    3    0    0  0.15491311022E+02 -0.16380736985E+02 -0.16912709680E+02  0.28184197879E+02  0.00000000000E+00 0. -1.
</event>
<event>
 7    1  0.1360399E-013  0.7246159E+02  0.7816164E-02  0.1226708E+00
        -11   -1    0    0    0    0  0.00000000000E+00  0.00000000000E+00  0.45593999997E+02  0.45594000000E+02  0.51100000000E-03 0.  1.
         11   -1    0    0    0    0 -0.00000000000E+00 -0.00000000000E+00 -0.45593999997E+02  0.45594000000E+02  0.51100000000E-03 0. -1.
    9900012    2    1    2    0    0 -0.12374201954E+02 -0.74722461818E+01  0.11904758436E+02  0.72461585222E+02  0.70000019446E+02 0.  0.
         12    1    1    2    0    0  0.12374201954E+02  0.74722461818E+01 -0.11904758436E+02  0.18726414778E+02  0.00000000000E+00 0. -1.
         11    1    3    3    0    0 -0.75932192522E+01 -0.45969012527E+01 -0.12495601915E+02  0.15327379007E+02  0.51100000000E-03 0. -1.
        -11    1    3    3    0    0  0.35838754442E+01 -0.32926396209E+00  0.39511830820E+02  0.39675399846E+02  0.51100000000E-03 0.  1.
        -12    1    3    3    0    0 -0.83648581463E+01 -0.25460809670E+01 -0.15111470469E+02  0.17458806369E+02  0.00000000000E+00 0.  1.
</event>
<event>
 7    1  0.1360399E-013  0.7246136E+02  0.7816164E-02  0.1226709E+00
        -11   -1    0    0    0    0  0.00000000000E+00  0.00000000000E+00  0.45593999997E+02  0.45594000000E+02  0.51100000000E-03 0.  1.
         11   -1    0    0    0    0 -0.00000000000E+00 -0.00000000000E+00 -0.45593999997E+02  0.45594000000E+02  0.51100000000E-03 0. -1.
    9900012    2    1    2    0    0  0.29026099079E+01  0.44617123717E+01  0.17954243558E+02  0.72461364335E+02  0.69999731700E+02 0.  0.
         12    1    1    2    0    0 -0.29026099079E+01 -0.44617123717E+01 -0.17954243558E+02  0.18726635665E+02  0.00000000000E+00 0. -1.
         11    1    3    3    0    0  0.11099197670E+02 -0.10943232482E+02 -0.78543677872E+01  0.17453871195E+02  0.51100000000E-03 0. -1.
        -11    1    3    3    0    0 -0.15750493059E+02 -0.53152966759E+01  0.28291719775E+02  0.32813896727E+02  0.51100000000E-03 0.  1.
        -12    1    3    3    0    0  0.75539052965E+01  0.20720241530E+02 -0.24831084293E+01  0.22193596413E+02  0.00000000000E+00 0.  1.
</event>
<event>
 8    1  0.1360399E-013  0.7246160E+02  0.7816164E-02  0.1226708E+00
        -11   -1    0    0    0    0  0.00000000000E+00  0.00000000000E+00  0.45593999997E+02  0.45594000000E+02  0.51100000000E-03 0. -1.
         11   -1    0    0    0    0 -0.00000000000E+00 -0.00000000000E+00 -0.45593999997E+02  0.45594000000E+02  0.51100000000E-03 0.  1.
    9900012    2    1    2    0    0  0.71479501674E+01 -0.14825739250E+01 -0.17244905219E+02  0.72461602241E+02  0.70000041616E+02 0.  0.
         24    2    3    3    0    0  0.10158602693E+02  0.12603142586E+02 -0.60333859459E+01  0.54208668150E+02  0.51382307703E+02 0.  0.
         12    1    1    2    0    0 -0.71479501674E+01  0.14825739250E+01  0.17244905219E+02  0.18726397759E+02  0.00000000000E+00 0. -1.
         11    1    3    3    0    0 -0.30106525258E+01 -0.14085716511E+02 -0.11211519273E+02  0.18252934091E+02  0.51100000000E-03 0. -1.
        -11    1    4    4    0    0 -0.79256001882E+01  0.16475252996E+02  0.16797168008E+02  0.24827282432E+02  0.51100000000E-03 0.  1.
         12    1    4    4    0    0  0.18084202881E+02 -0.38721104099E+01 -0.22830553954E+02  0.29381385718E+02  0.00000000000E+00 0. -1.
</event>
<event>
 7    1  0.1360399E-013  0.7246157E+02  0.7816164E-02  0.1226708E+00
        -11   -1    0    0    0    0  0.00000000000E+00  0.00000000000E+00  0.45593999997E+02  0.45594000000E+02  0.51100000000E-03 0.  1.
         11   -1    0    0    0    0 -0.00000000000E+00 -0.00000000000E+00 -0.45593999997E+02  0.45594000000E+02  0.51100000000E-03 0. -1.
    9900012    2    1    2    0    0 -0.18721412765E+02  0.17039080920E+00 -0.39857280120E+00  0.72461569768E+02  0.69999999315E+02 0.  0.
         12    1    1    2    0    0  0.18721412765E+02 -0.17039080920E+00  0.39857280120E+00  0.18726430232E+02  0.00000000000E+00 0. -1.
         11    1    3    3    0    0 -0.21268695005E+02  0.70476334436E+01 -0.22275479971E+02  0.31594675700E+02  0.51100000000E-03 0. -1.
        -11    1    3    3    0    0 -0.99909434417E+01 -0.14443920672E+02  0.19125875767E+02  0.25966226514E+02  0.51100000000E-03 0.  1.
         12    1    3    3    0    0  0.12538225682E+02  0.75666780378E+01  0.27510314030E+01  0.14900667555E+02  0.00000000000E+00 0. -1.
</event>
<event>
 7    1  0.1360399E-013  0.7246159E+02  0.7816164E-02  0.1226708E+00
        -11   -1    0    0    0    0  0.00000000000E+00  0.00000000000E+00  0.45593999997E+02  0.45594000000E+02  0.51100000000E-03 0. -1.
         11   -1    0    0    0    0 -0.00000000000E+00 -0.00000000000E+00 -0.45593999997E+02  0.45594000000E+02  0.51100000000E-03 0.  1.
    9900012    2    1    2    0    0 -0.10873321656E+02  0.11542462343E+02  0.99609657871E+01  0.72461590836E+02  0.70000026759E+02 0.  0.
         12    1    1    2    0    0  0.10873321656E+02 -0.11542462343E+02 -0.99609657871E+01  0.18726409164E+02  0.00000000000E+00 0. -1.
         11    1    3    3    0    0 -0.24679547685E+01 -0.11251737242E+02 -0.11007140994E+02  0.15932656553E+02  0.51100000000E-03 0. -1.
        -11    1    3    3    0    0 -0.23356333265E+02  0.27046657123E+02  0.20007441842E+02  0.40955313385E+02  0.51100000000E-03 0.  1.
         12    1    3    3    0    0  0.14950966378E+02 -0.42524575375E+01  0.96066493985E+00  0.15573620898E+02  0.00000000000E+00 0. -1.
</event>
<event>
 7    1  0.1360399E-013  0.7246157E+02  0.7816164E-02  0.1226708E+00
        -11   -1    0    0    0    0  0.00000000000E+00  0.00000000000E+00  0.45593999997E+02  0.45594000000E+02  0.51100000000E-03 0.  1.
         11   -1    0    0    0    0 -0.00000000000E+00 -0.00000000000E+00 -0.45593999997E+02  0.45594000000E+02  0.51100000000E-03 0. -1.
    9900012    2    1    2    0    0 -0.58006627063E+01 -0.17799903928E+02 -0.44158738686E+00  0.72461567689E+02  0.69999996606E+02 0.  0.
         12    1    1    2    0    0  0.58006627063E+01  0.17799903928E+02  0.44158738686E+00  0.18726432311E+02  0.00000000000E+00 0. -1.
         11    1    3    3    0    0 -0.84123321015E+01  0.74991701686E+01 -0.11739118323E+02  0.16273038556E+02  0.51100000000E-03 0. -1.
        -11    1    3    3    0    0 -0.15350088737E+02 -0.29214440049E+02  0.16755920971E+02  0.37011749749E+02  0.51100000000E-03 0.  1.
        -12    1    3    3    0    0  0.17961758133E+02  0.39153659521E+01 -0.54583900353E+01  0.19176779384E+02  0.00000000000E+00 0.  1.
</event>
<event>
 7    1  0.1360399E-013  0.7246158E+02  0.7816164E-02  0.1226708E+00
        -11   -1    0    0    0    0  0.00000000000E+00  0.00000000000E+00  0.45593999997E+02  0.45594000000E+02  0.51100000000E-03 0.  1.
         11   -1    0    0    0    0 -0.00000000000E+00 -0.00000000000E+00 -0.45593999997E+02  0.45594000000E+02  0.51100000000E-03 0. -1.
    9900012    2    1    2    0    0  0.11597382426E+02  0.10755208660E+02  0.10025222882E+02  0.72461577857E+02  0.70000009852E+02 0.  0.
         12    1    1    2    0    0 -0.11597382426E+02 -0.10755208660E+02 -0.10025222882E+02  0.18726422143E+02  0.00000000000E+00 0. -1.
         11    1    3    3    0    0 -0.32968661942E+01  0.65601187260E+01 -0.24804654150E+02  0.25868423844E+02  0.51100000000E-03 0. -1.
        -11    1    3    3    0    0  0.52448331766E+01  0.15236544458E+02  0.20666973510E+02  0.26206570863E+02  0.51100000000E-03 0.  1.
         12    1    3    3    0    0  0.96494154432E+01 -0.11041454524E+02  0.14162903522E+02  0.20386583151E+02  0.00000000000E+00 0. -1.
</event>
<event>
 7    1  0.1360399E-013  0.7246162E+02  0.7816164E-02  0.1226708E+00
        -11   -1    0    0    0    0  0.00000000000E+00  0.00000000000E+00  0.45593999997E+02  0.45594000000E+02  0.51100000000E-03 0.  1.
         11   -1    0    0    0    0 -0.00000000000E+00 -0.00000000000E+00 -0.45593999997E+02  0.45594000000E+02  0.51100000000E-03 0. -1.
    9900012    2    1    2    0    0  0.56454303904E+01 -0.17472817293E+02  0.36751779674E+01  0.72461623908E+02  0.70000069842E+02 0.  0.
         12    1    1    2    0    0 -0.56454303904E+01  0.17472817293E+02 -0.36751779674E+01  0.18726376092E+02  0.00000000000E+00 0. -1.
         11    1    3    3    0    0  0.26218490988E+01 -0.18294838494E+02  0.17829707924E+02  0.25680219881E+02  0.51100000000E-03 0. -1.
        -11    1    3    3    0    0 -0.17998282288E+02  0.11103428104E+02 -0.57358378515E+01  0.21911734689E+02  0.51100000000E-03 0.  1.
         12    1    3    3    0    0  0.21021863579E+02 -0.10281406903E+02 -0.84186921051E+01  0.24869669338E+02  0.00000000000E+00 0. -1.
</event>
<event>
 7    1  0.1360399E-013  0.7246160E+02  0.7816164E-02  0.1226708E+00
        -11   -1    0    0    0    0  0.00000000000E+00  0.00000000000E+00  0.45593999997E+02  0.45594000000E+02  0.51100000000E-03 0. -1.
         11   -1    0    0    0    0 -0.00000000000E+00 -0.00000000000E+00 -0.45593999997E+02  0.45594000000E+02  0.51100000000E-03 0.  1.
    9900012    2    1    2    0    0 -0.62062752708E+01  0.12350539138E+02 -0.12634256428E+02  0.72461598711E+02  0.70000037018E+02 0.  0.
         12    1    1    2    0    0  0.62062752708E+01 -0.12350539138E+02  0.12634256428E+02  0.18726401289E+02  0.00000000000E+00 0. -1.
         11    1    3    3    0    0  0.14241667389E+02 -0.12837837147E+02  0.91755744674E+01  0.21256206616E+02  0.51100000000E-03 0. -1.
        -11    1    3    3    0    0  0.59189886429E+01  0.13336966195E+02 -0.16119381114E+02  0.21742666386E+02  0.51100000000E-03 0.  1.
         12    1    3    3    0    0 -0.26366931303E+02  0.11851410091E+02 -0.56904497812E+01  0.29462725709E+02  0.00000000000E+00 0. -1.
</event>
<event>
 7    1  0.1360399E-013  0.7246157E+02  0.7816164E-02  0.1226708E+00
        -11   -1    0    0    0    0  0.00000000000E+00  0.00000000000E+00  0.45593999997E+02  0.45594000000E+02  0.51100000000E-03 0.  1.
         11   -1    0    0    0    0 -0.00000000000E+00 -0.00000000000E+00 -0.45593999997E+02  0.45594000000E+02  0.51100000000E-03 0. -1.
    9900012    2    1    2    0    0 -0.10621545057E+02 -0.93744703039E+00  0.15394255472E+02  0.72461571407E+02  0.70000001449E+02 0.  0.
         12    1    1    2    0    0  0.10621545057E+02  0.93744703039E+00 -0.15394255472E+02  0.18726428593E+02  0.00000000000E+00 0. -1.
         11    1    3    3    0    0  0.13120994545E+02  0.24975234293E+02  0.41084247667E+01  0.28509682218E+02  0.51100000000E-03 0. -1.
        -11    1    3    3    0    0  0.14637438803E+01 -0.66251970013E+01  0.10129414885E+02  0.12191834465E+02  0.51100000000E-03 0.  1.
         12    1    3    3    0    0 -0.25206283482E+02 -0.19287484322E+02  0.11564158201E+01  0.31760054723E+02  0.00000000000E+00 0. -1.
</event>
<event>
 7    1  0.1360399E-013  0.7246156E+02  0.7816164E-02  0.1226708E+00
        -11   -1    0    0    0    0  0.00000000000E+00  0.00000000000E+00  0.45593999997E+02  0.45594000000E+02  0.51100000000E-03 0.  1.
         11   -1    0    0    0    0 -0.00000000000E+00 -0.00000000000E+00 -0.45593999997E+02  0.45594000000E+02  0.51100000000E-03 0. -1.
    9900012    2    1    2    0    0  0.47711894962E+01  0.18081525571E+02  0.98683826804E+00  0.72461557039E+02  0.69999982733E+02 0.  0.
         12    1    1    2    0    0 -0.47711894962E+01 -0.18081525571E+02 -0.98683826804E+00  0.18726442961E+02  0.00000000000E+00 0. -1.
         11    1    3    3    0    0  0.45532555805E+00  0.55514275600E+01 -0.31528781398E+01  0.64004929609E+01  0.51100000000E-03 0. -1.
        -11    1    3    3    0    0 -0.13879634388E+02 -0.27299314662E+01  0.28638577045E+02  0.31941585308E+02  0.51100000000E-03 0.  1.
        -12    1    3    3    0    0  0.18195498326E+02  0.15260029477E+02 -0.24498860638E+02  0.34119478770E+02  0.00000000000E+00 0.  1.
</event>
<event>
 7    1  0.1360399E-013  0.7246156E+02  0.7816164E-02  0.1226708E+00
        -11   -1    0    0    0    0  0.00000000000E+00  0.00000000000E+00  0.45593999997E+02  0.45594000000E+02  0.51100000000E-03 0. -1.
         11   -1    0    0    0    0 -0.00000000000E+00 -0.00000000000E+00 -0.45593999997E+02  0.45594000000E+02  0.51100000000E-03 0.  1.
    9900012    2    1    2    0    0  0.98337954625E+01 -0.29911714015E+01 -0.15653403453E+02  0.72461556685E+02  0.69999982272E+02 0.  0.
         12    1    1    2    0    0 -0.98337954625E+01  0.29911714015E+01  0.15653403453E+02  0.18726443315E+02  0.00000000000E+00 0. -1.
         11    1    3    3    0    0 -0.12292151396E+02  0.12033670834E+02 -0.43225289271E+01  0.17736698573E+02  0.51100000000E-03 0. -1.
        -11    1    3    3    0    0  0.23637063479E+02 -0.12032585949E+02 -0.27503124236E+02  0.38208843708E+02  0.51100000000E-03 0.  1.
         12    1    3    3    0    0 -0.15111166208E+01 -0.29922562862E+01  0.16172249710E+02  0.16516014404E+02  0.00000000000E+00 0. -1.
</event>
<event>
 7    1  0.1360399E-013  0.7246161E+02  0.7816164E-02  0.1226708E+00
        -11   -1    0    0    0    0  0.00000000000E+00  0.00000000000E+00  0.45593999997E+02  0.45594000000E+02  0.51100000000E-03 0.  1.
         11   -1    0    0    0    0 -0.00000000000E+00 -0.00000000000E+00 -0.45593999997E+02  0.45594000000E+02  0.51100000000E-03 0. -1.
    9900012    2    1    2    0    0 -0.15588811583E+02  0.35777149069E+01  0.97399436876E+01  0.72461612373E+02  0.70000054815E+02 0.  0.
         12    1    1    2    0    0  0.15588811583E+02 -0.35777149069E+01 -0.97399436876E+01  0.18726387627E+02  0.00000000000E+00 0. -1.
         11    1    3    3    0    0 -0.16059751769E+01 -0.11904559273E+02 -0.19861105266E+02  0.23211229834E+02  0.51100000000E-03 0. -1.
        -11    1    3    3    0    0 -0.18285405808E+02  0.23574821278E+02  0.19665858747E+02  0.35733377455E+02  0.51100000000E-03 0.  1.
         12    1    3    3    0    0  0.43025694019E+01 -0.80925470982E+01  0.99351902065E+01  0.13517005084E+02  0.00000000000E+00 0. -1.
</event>
<event>
 7    1  0.1360399E-013  0.7246153E+02  0.7816164E-02  0.1226708E+00
        -11   -1    0    0    0    0  0.00000000000E+00  0.00000000000E+00  0.45593999997E+02  0.45594000000E+02  0.51100000000E-03 0.  1.
         11   -1    0    0    0    0 -0.00000000000E+00 -0.00000000000E+00 -0.45593999997E+02  0.45594000000E+02  0.51100000000E-03 0. -1.
    9900012    2    1    2    0    0  0.15398854663E+02  0.94545323342E+00  0.10614242399E+02  0.72461528137E+02  0.69999945082E+02 0.  0.
         12    1    1    2    0    0 -0.15398854663E+02 -0.94545323342E+00 -0.10614242399E+02  0.18726471863E+02  0.00000000000E+00 0. -1.
         11    1    3    3    0    0  0.45582567197E+01  0.31655453983E+01 -0.13924127252E+02  0.14989319597E+02  0.51100000000E-03 0. -1.
        -11    1    3    3    0    0  0.26302114803E+02 -0.12073673119E+02  0.26231474071E+02  0.39059762645E+02  0.51100000000E-03 0.  1.
        -12    1    3    3    0    0 -0.15461516860E+02  0.98535809544E+01 -0.16931044202E+01  0.18412445894E+02  0.00000000000E+00 0.  1.
</event>
<event>
 7    1  0.1360399E-013  0.7246155E+02  0.7816164E-02  0.1226708E+00
        -11   -1    0    0    0    0  0.00000000000E+00  0.00000000000E+00  0.45593999997E+02  0.45594000000E+02  0.51100000000E-03 0.  1.
         11   -1    0    0    0    0 -0.00000000000E+00 -0.00000000000E+00 -0.45593999997E+02  0.45594000000E+02  0.51100000000E-03 0. -1.
    9900012    2    1    2    0    0  0.36836747966E+01 -0.16382714357E+02  0.82895841440E+01  0.72461548254E+02  0.69999971289E+02 0.  0.
         12    1    1    2    0    0 -0.36836747966E+01  0.16382714357E+02 -0.82895841440E+01  0.18726451746E+02  0.00000000000E+00 0. -1.
         11    1    3    3    0    0  0.27831210141E+02 -0.16538008451E+02  0.92302377943E+01  0.33664213513E+02  0.51100000000E-03 0. -1.
        -11    1    3    3    0    0 -0.87268189494E+01  0.14758278659E+02  0.23513725024E+01  0.17305869260E+02  0.51100000000E-03 0.  1.
         12    1    3    3    0    0 -0.15420716395E+02 -0.14602984564E+02 -0.32920261527E+01  0.21491465481E+02  0.00000000000E+00 0. -1.
</event>
<event>
 7    1  0.1360399E-013  0.7246157E+02  0.7816164E-02  0.1226708E+00
        -11   -1    0    0    0    0  0.00000000000E+00  0.00000000000E+00  0.45593999997E+02  0.45594000000E+02  0.51100000000E-03 0.  1.
         11   -1    0    0    0    0 -0.00000000000E+00 -0.00000000000E+00 -0.45593999997E+02  0.45594000000E+02  0.51100000000E-03 0. -1.
    9900012    2    1    2    0    0 -0.37551427406E+01 -0.94333360793E+01 -0.15734998762E+02  0.72461571813E+02  0.70000001979E+02 0.  0.
         12    1    1    2    0    0  0.37551427406E+01  0.94333360793E+01  0.15734998762E+02  0.18726428187E+02  0.00000000000E+00 0. -1.
         11    1    3    3    0    0 -0.22914450260E+01 -0.28074486979E+02  0.74417284632E+01  0.29134290144E+02  0.51100000000E-03 0. -1.
        -11    1    3    3    0    0  0.79343278780E+01  0.30820898176E+01 -0.23659172403E+02  0.25143772103E+02  0.51100000000E-03 0.  1.
        -12    1    3    3    0    0 -0.93980255926E+01  0.15559061082E+02  0.48244517750E+00  0.18183509566E+02  0.00000000000E+00 0.  1.
</event>
<event>
 7    1  0.1360399E-013  0.7246156E+02  0.7816164E-02  0.1226708E+00
        -11   -1    0    0    0    0  0.00000000000E+00  0.00000000000E+00  0.45593999997E+02  0.45594000000E+02  0.51100000000E-03 0. -1.
         11   -1    0    0    0    0 -0.00000000000E+00 -0.00000000000E+00 -0.45593999997E+02  0.45594000000E+02  0.51100000000E-03 0.  1.
    9900012    2    1    2    0    0  0.13710944209E+02  0.93848580850E+01  0.86379481667E+01  0.72461556106E+02  0.69999981517E+02 0.  0.
         12    1    1    2    0    0 -0.13710944209E+02 -0.93848580850E+01 -0.86379481667E+01  0.18726443894E+02  0.00000000000E+00 0. -1.
         11    1    3    3    0    0 -0.13950370680E+02 -0.75458856600E+01 -0.24625232610E+01  0.16050459606E+02  0.51100000000E-03 0. -1.
        -11    1    3    3    0    0  0.36721438365E+02  0.15989644300E+02  0.19022279203E+02  0.44339371520E+02  0.51100000000E-03 0.  1.
        -12    1    3    3    0    0 -0.90601234763E+01  0.94109944469E+00 -0.79218077753E+01  0.12071724980E+02  0.00000000000E+00 0.  1.
</event>
<event>
 7    1  0.1360399E-013  0.7246158E+02  0.7816164E-02  0.1226708E+00
        -11   -1    0    0    0    0  0.00000000000E+00  0.00000000000E+00  0.45593999997E+02  0.45594000000E+02  0.51100000000E-03 0. -1.
         11   -1    0    0    0    0 -0.00000000000E+00 -0.00000000000E+00 -0.45593999997E+02  0.45594000000E+02  0.51100000000E-03 0.  1.
    9900012    2    1    2    0    0 -0.87945890107E+01 -0.16453640851E+02 -0.16160930913E+01  0.72461578825E+02  0.70000011113E+02 0.  0.
         12    1    1    2    0    0  0.87945890107E+01  0.16453640851E+02  0.16160930913E+01  0.18726421175E+02  0.00000000000E+00 0. -1.
         11    1    3    3    0    0 -0.18066278323E+02 -0.25053407253E+02  0.15023352318E+02  0.34347703599E+02  0.51100000000E-03 0. -1.
        -11    1    3    3    0    0  0.17975663262E+02 -0.39387082068E+01 -0.12672185793E+02  0.22343280535E+02  0.51100000000E-03 0.  1.
         12    1    3    3    0    0 -0.87039739498E+01  0.12538474608E+02 -0.39672596160E+01  0.15770594690E+02  0.00000000000E+00 0. -1.
</event>
<event>
 7    1  0.1360399E-013  0.7246147E+02  0.7816164E-02  0.1226708E+00
        -11   -1    0    0    0    0  0.00000000000E+00  0.00000000000E+00  0.45593999997E+02  0.45594000000E+02  0.51100000000E-03 0.  1.
         11   -1    0    0    0    0 -0.00000000000E+00 -0.00000000000E+00 -0.45593999997E+02  0.45594000000E+02  0.51100000000E-03 0. -1.
    9900012    2    1    2    0    0  0.23526488870E+01  0.46286886305E+01  0.17992310638E+02  0.72461469160E+02  0.69999868253E+02 0.  0.
         12    1    1    2    0    0 -0.23526488870E+01 -0.46286886305E+01 -0.17992310638E+02  0.18726530840E+02  0.00000000000E+00 0. -1.
         11    1    3    3    0    0 -0.16118381646E+02 -0.19641788099E+02  0.12630187176E+02  0.28374701672E+02  0.51100000000E-03 0. -1.
        -11    1    3    3    0    0  0.95365343524E-01  0.13924215273E+02  0.15374097748E+02  0.20742607053E+02  0.51100000000E-03 0.  1.
         12    1    3    3    0    0  0.18375665189E+02  0.10346261457E+02 -0.10011974287E+02  0.23344160435E+02  0.00000000000E+00 0. -1.
</event>
<event>
 7    1  0.1360399E-013  0.7246160E+02  0.7816164E-02  0.1226708E+00
        -11   -1    0    0    0    0  0.00000000000E+00  0.00000000000E+00  0.45593999997E+02  0.45594000000E+02  0.51100000000E-03 0.  1.
         11   -1    0    0    0    0 -0.00000000000E+00 -0.00000000000E+00 -0.45593999997E+02  0.45594000000E+02  0.51100000000E-03 0. -1.
    9900012    2    1    2    0    0 -0.36076234395E+01 -0.27329664571E+01  0.18171237801E+02  0.72461603236E+02  0.70000042912E+02 0.  0.
         12    1    1    2    0    0  0.36076234395E+01  0.27329664571E+01 -0.18171237801E+02  0.18726396764E+02  0.00000000000E+00 0. -1.
         11    1    3    3    0    0  0.12823099091E+02  0.52761951722E+01 -0.12926154658E+02  0.18956676404E+02  0.51100000000E-03 0. -1.
        -11    1    3    3    0    0 -0.46230664636E+01  0.15252414192E+02  0.18854544843E+02  0.24688109359E+02  0.51100000000E-03 0.  1.
         12    1    3    3    0    0 -0.11807656067E+02 -0.23261575821E+02  0.12242847616E+02  0.28816817473E+02  0.00000000000E+00 0. -1.
</event>
<event>
 7    1  0.1360399E-013  0.7246159E+02  0.7816164E-02  0.1226708E+00
        -11   -1    0    0    0    0  0.00000000000E+00  0.00000000000E+00  0.45593999997E+02  0.45594000000E+02  0.51100000000E-03 0. -1.
         11   -1    0    0    0    0 -0.00000000000E+00 -0.00000000000E+00 -0.45593999997E+02  0.45594000000E+02  0.51100000000E-03 0.  1.
    9900012    2    1    2    0    0 -0.17934203187E+02  0.38233699228E+01 -0.37979952363E+01  0.72461586319E+02  0.70000020875E+02 0.  0.
         12    1    1    2    0    0  0.17934203187E+02 -0.38233699228E+01  0.37979952363E+01  0.18726413681E+02  0.00000000000E+00 0. -1.
         11    1    3    3    0    0  0.10187613203E+02 -0.17446148697E+02  0.11190957054E+02  0.23095304440E+02  0.51100000000E-03 0. -1.
        -11    1    3    3    0    0 -0.26193851736E+02  0.23620336442E+02 -0.12479934463E+01  0.35292997185E+02  0.51100000000E-03 0.  1.
        -12    1    3    3    0    0 -0.19279646551E+01 -0.23508178219E+01 -0.13740958844E+02  0.14073284694E+02  0.00000000000E+00 0.  1.
</event>
<event>
 7    1  0.1360399E-013  0.7246162E+02  0.7816164E-02  0.1226708E+00
        -11   -1    0    0    0    0  0.00000000000E+00  0.00000000000E+00  0.45593999997E+02  0.45594000000E+02  0.51100000000E-03 0.  1.
         11   -1    0    0    0    0 -0.00000000000E+00 -0.00000000000E+00 -0.45593999997E+02  0.45594000000E+02  0.51100000000E-03 0. -1.
    9900012    2    1    2    0    0  0.13913443020E+02  0.37240370961E+01  0.11967664404E+02  0.72461619136E+02  0.70000063626E+02 0.  0.
         12    1    1    2    0    0 -0.13913443020E+02 -0.37240370961E+01 -0.11967664404E+02  0.18726380864E+02  0.00000000000E+00 0. -1.
         11    1    3    3    0    0  0.31086956996E+02 -0.14845871657E+02 -0.42181219740E+01  0.34707223366E+02  0.51100000000E-03 0.  1.
        -11    1    3    3    0    0 -0.18011652097E+02  0.10218166586E+02  0.19767564437E+02  0.28628432435E+02  0.51100000000E-03 0. -1.
         12    1    3    3    0    0  0.83813812078E+00  0.83517421669E+01 -0.35817780582E+01  0.91259633349E+01  0.00000000000E+00 0. -1.
</event>
<event>
 7    1  0.1360399E-013  0.7246170E+02  0.7816164E-02  0.1226708E+00
        -11   -1    0    0    0    0  0.00000000000E+00  0.00000000000E+00  0.45593999997E+02  0.45594000000E+02  0.51100000000E-03 0. -1.
         11   -1    0    0    0    0 -0.00000000000E+00 -0.00000000000E+00 -0.45593999997E+02  0.45594000000E+02  0.51100000000E-03 0.  1.
    9900012    2    1    2    0    0 -0.78564541846E+01 -0.48342723556E+00 -0.16991670690E+02  0.72461696385E+02  0.70000164256E+02 0.  0.
         12    1    1    2    0    0  0.78564541846E+01  0.48342723556E+00  0.16991670690E+02  0.18726303615E+02  0.00000000000E+00 0. -1.
         11    1    3    3    0    0  0.21986274508E+02 -0.11369899427E+02 -0.26199407389E+02  0.36042749999E+02  0.51100000000E-03 0. -1.
        -11    1    3    3    0    0 -0.17933605398E+02  0.11878680533E+02  0.11281918001E+02  0.24289893532E+02  0.51100000000E-03 0.  1.
         12    1    3    3    0    0 -0.11909123295E+02 -0.99220834159E+00 -0.20741813018E+01  0.12129052853E+02  0.00000000000E+00 0. -1.
</event>
<event>
 7    1  0.1360399E-013  0.7246194E+02  0.7816164E-02  0.1226707E+00
        -11   -1    0    0    0    0  0.00000000000E+00  0.00000000000E+00  0.45593999997E+02  0.45594000000E+02  0.51100000000E-03 0.  1.
         11   -1    0    0    0    0 -0.00000000000E+00 -0.00000000000E+00 -0.45593999997E+02  0.45594000000E+02  0.51100000000E-03 0. -1.
    9900012    2    1    2    0    0 -0.28945340340E+00 -0.41664415330E+01  0.18254381332E+02  0.72461936448E+02  0.70000476982E+02 0.  0.
         12    1    1    2    0    0  0.28945340340E+00  0.41664415330E+01 -0.18254381332E+02  0.18726063552E+02  0.00000000000E+00 0. -1.
         11    1    3    3    0    0  0.18049982226E+02 -0.51812515848E+01 -0.89446682006E+01  0.20800344128E+02  0.51100000000E-03 0.  1.
        -11    1    3    3    0    0 -0.21561566066E+02 -0.37473441115E+00 -0.25421154936E+01  0.21714140751E+02  0.51100000000E-03 0. -1.
        -12    1    3    3    0    0  0.32221304362E+01  0.13895444630E+01  0.29741165027E+02  0.29947451569E+02  0.00000000000E+00 0.  1.
</event>
<event>
 7    1  0.1360399E-013  0.7246190E+02  0.7816164E-02  0.1226707E+00
        -11   -1    0    0    0    0  0.00000000000E+00  0.00000000000E+00  0.45593999997E+02  0.45594000000E+02  0.51100000000E-03 0.  1.
         11   -1    0    0    0    0 -0.00000000000E+00 -0.00000000000E+00 -0.45593999997E+02  0.45594000000E+02  0.51100000000E-03 0. -1.
    9900012    2    1    2    0    0  0.68668121857E-01  0.69087329447E+01  0.17404923671E+02  0.72461903925E+02  0.70000434615E+02 0.  0.
         12    1    1    2    0    0 -0.68668121857E-01 -0.69087329447E+01 -0.17404923671E+02  0.18726096075E+02  0.00000000000E+00 0. -1.
         11    1    3    3    0    0  0.86335401129E+01  0.14527902163E+02 -0.65946972783E+01  0.18140782469E+02  0.51100000000E-03 0. -1.
        -11    1    3    3    0    0 -0.23344111830E+02  0.92013284917E+01  0.18748095422E+02  0.31322565115E+02  0.51100000000E-03 0.  1.
        -12    1    3    3    0    0  0.14779239839E+02 -0.16820497710E+02  0.52515255272E+01  0.22998556341E+02  0.00000000000E+00 0.  1.
</event>
<event>
 7    1  0.1360399E-013  0.7246151E+02  0.7816164E-02  0.1226708E+00
        -11   -1    0    0    0    0  0.00000000000E+00  0.00000000000E+00  0.45593999997E+02  0.45594000000E+02  0.51100000000E-03 0. -1.
         11   -1    0    0    0    0 -0.00000000000E+00 -0.00000000000E+00 -0.45593999997E+02  0.45594000000E+02  0.51100000000E-03 0.  1.
    9900012    2    1    2    0    0  0.62046472008E+01 -0.28786118074E+00 -0.17666383369E+02  0.72461505072E+02  0.69999915035E+02 0.  0.
         12    1    1    2    0    0 -0.62046472008E+01  0.28786118074E+00  0.17666383369E+02  0.18726494928E+02  0.00000000000E+00 0. -1.
         11    1    3    3    0    0  0.17423641766E+02  0.11534494769E+01 -0.13099316572E+02  0.21829013560E+02  0.51100000000E-03 0. -1.
        -11    1    3    3    0    0 -0.18857410409E+02 -0.17081529888E+02  0.10582967434E+02  0.27556846529E+02  0.51100000000E-03 0.  1.
        -12    1    3    3    0    0  0.76384158433E+01  0.15640219231E+02 -0.15150034231E+02  0.23075644983E+02  0.00000000000E+00 0.  1.
</event>
<event>
 7    1  0.1360399E-013  0.7246158E+02  0.7816164E-02  0.1226708E+00
        -11   -1    0    0    0    0  0.00000000000E+00  0.00000000000E+00  0.45593999997E+02  0.45594000000E+02  0.51100000000E-03 0. -1.
         11   -1    0    0    0    0 -0.00000000000E+00 -0.00000000000E+00 -0.45593999997E+02  0.45594000000E+02  0.51100000000E-03 0.  1.
    9900012    2    1    2    0    0 -0.22288154456E+01 -0.84575659515E+01  0.16558406988E+02  0.72461577968E+02  0.70000009997E+02 0.  0.
         12    1    1    2    0    0  0.22288154456E+01  0.84575659515E+01 -0.16558406988E+02  0.18726422032E+02  0.00000000000E+00 0. -1.
         11    1    3    3    0    0 -0.63534164573E+01 -0.36302103575E+02  0.11368749504E+02  0.38567565261E+02  0.51100000000E-03 0. -1.
        -11    1    3    3    0    0  0.65133229595E+00  0.56604309393E+01 -0.64466015560E+01  0.86036843307E+01  0.51100000000E-03 0.  1.
         12    1    3    3    0    0  0.34732687157E+01  0.22184106684E+02  0.11636259040E+02  0.25290328376E+02  0.00000000000E+00 0. -1.
</event>
<event>
 7    1  0.1360399E-013  0.7246153E+02  0.7816164E-02  0.1226708E+00
        -11   -1    0    0    0    0  0.00000000000E+00  0.00000000000E+00  0.45593999997E+02  0.45594000000E+02  0.51100000000E-03 0.  1.
         11   -1    0    0    0    0 -0.00000000000E+00 -0.00000000000E+00 -0.45593999997E+02  0.45594000000E+02  0.51100000000E-03 0. -1.
    9900012    2    1    2    0    0 -0.29868853358E+01 -0.13975249710E+02  0.12101717756E+02  0.72461530468E+02  0.69999948119E+02 0.  0.
         12    1    1    2    0    0  0.29868853358E+01  0.13975249710E+02 -0.12101717756E+02  0.18726469532E+02  0.00000000000E+00 0. -1.
         11    1    3    3    0    0  0.27846633476E+02 -0.15833919183E+02  0.11056019751E+02  0.33887808511E+02  0.51100000000E-03 0. -1.
        -11    1    3    3    0    0 -0.29969249792E+02  0.87324610882E+01 -0.13460350533E+01  0.31244577455E+02  0.51100000000E-03 0.  1.
         12    1    3    3    0    0 -0.86426902067E+00 -0.68737916157E+01  0.23917330578E+01  0.73291445024E+01  0.00000000000E+00 0. -1.
</event>
<event>
 7    1  0.1360399E-013  0.7246159E+02  0.7816164E-02  0.1226708E+00
        -11   -1    0    0    0    0  0.00000000000E+00  0.00000000000E+00  0.45593999997E+02  0.45594000000E+02  0.51100000000E-03 0. -1.
         11   -1    0    0    0    0 -0.00000000000E+00 -0.00000000000E+00 -0.45593999997E+02  0.45594000000E+02  0.51100000000E-03 0.  1.
    9900012    2    1    2    0    0  0.18582449222E+02  0.21655279392E-01 -0.23174696929E+01  0.72461586734E+02  0.70000021415E+02 0.  0.
         12    1    1    2    0    0 -0.18582449222E+02 -0.21655279392E-01  0.23174696929E+01  0.18726413266E+02  0.00000000000E+00 0. -1.
         11    1    3    3    0    0 -0.99646055622E+01 -0.17800435213E+02 -0.30813260748E+01  0.20631127657E+02  0.51100000000E-03 0. -1.
        -11    1    3    3    0    0  0.19301526398E+02  0.30074958394E+01 -0.17739973450E+02  0.26387508612E+02  0.51100000000E-03 0.  1.
         12    1    3    3    0    0  0.92455283864E+01  0.14814594653E+02  0.18503829832E+02  0.25442950464E+02  0.00000000000E+00 0. -1.
</event>
<event>
 7    1  0.1360399E-013  0.7246161E+02  0.7816164E-02  0.1226708E+00
        -11   -1    0    0    0    0  0.00000000000E+00  0.00000000000E+00  0.45593999997E+02  0.45594000000E+02  0.51100000000E-03 0.  1.
         11   -1    0    0    0    0 -0.00000000000E+00 -0.00000000000E+00 -0.45593999997E+02  0.45594000000E+02  0.51100000000E-03 0. -1.
    9900012    2    1    2    0    0 -0.33245490352E+01 -0.17776835964E+01  0.18342976343E+02  0.72461613099E+02  0.70000055761E+02 0.  0.
         12    1    1    2    0    0  0.33245490352E+01  0.17776835964E+01 -0.18342976343E+02  0.18726386901E+02  0.00000000000E+00 0. -1.
         11    1    3    3    0    0 -0.26609592745E+02 -0.22709751164E+01 -0.41774205066E+01  0.27031067245E+02  0.51100000000E-03 0. -1.
        -11    1    3    3    0    0  0.19833800205E+02 -0.13835695578E+02  0.10301419906E+02  0.26285459004E+02  0.51100000000E-03 0.  1.
        -12    1    3    3    0    0  0.34512435049E+01  0.14328987098E+02  0.12218976943E+02  0.19145086851E+02  0.00000000000E+00 0.  1.
</event>
<event>
 7    1  0.1360399E-013  0.7246159E+02  0.7816164E-02  0.1226708E+00
        -11   -1    0    0    0    0  0.00000000000E+00  0.00000000000E+00  0.45593999997E+02  0.45594000000E+02  0.51100000000E-03 0. -1.
         11   -1    0    0    0    0 -0.00000000000E+00 -0.00000000000E+00 -0.45593999997E+02  0.45594000000E+02  0.51100000000E-03 0.  1.
    9900012    2    1    2    0    0  0.58962961791E+01 -0.17607340081E+02  0.24276731504E+01  0.72461592702E+02  0.70000029190E+02 0.  0.
         12    1    1    2    0    0 -0.58962961791E+01  0.17607340081E+02 -0.24276731504E+01  0.18726407298E+02  0.00000000000E+00 0. -1.
         11    1    3    3    0    0 -0.14081408969E+01 -0.54521486211E+01  0.18928999252E+02  0.19748817644E+02  0.51100000000E-03 0. -1.
        -11    1    3    3    0    0  0.92423591551E+00 -0.14206370517E+02 -0.32437853832E+02  0.35424420063E+02  0.51100000000E-03 0.  1.
        -12    1    3    3    0    0  0.63802011604E+01  0.20511790570E+01  0.15936527730E+02  0.17288354996E+02  0.00000000000E+00 0.  1.
</event>
<event>
 7    1  0.1360399E-013  0.7246157E+02  0.7816164E-02  0.1226708E+00
        -11   -1    0    0    0    0  0.00000000000E+00  0.00000000000E+00  0.45593999997E+02  0.45594000000E+02  0.51100000000E-03 0. -1.
         11   -1    0    0    0    0 -0.00000000000E+00 -0.00000000000E+00 -0.45593999997E+02  0.45594000000E+02  0.51100000000E-03 0.  1.
    9900012    2    1    2    0    0 -0.67908435299E+01  0.38272202165E+01 -0.17026925177E+02  0.72461565438E+02  0.69999993673E+02 0.  0.
         12    1    1    2    0    0  0.67908435299E+01 -0.38272202165E+01  0.17026925177E+02  0.18726434562E+02  0.00000000000E+00 0. -1.
         11    1    3    3    0    0 -0.27355036258E+02 -0.55925195229E+01 -0.25376492974E+02  0.37729838049E+02  0.51100000000E-03 0. -1.
        -11    1    3    3    0    0  0.16356006188E+02 -0.30729333378E+01  0.12607768175E+02  0.20878641630E+02  0.51100000000E-03 0.  1.
         12    1    3    3    0    0  0.42081865399E+01  0.12492673077E+02 -0.42582003782E+01  0.13853085758E+02  0.00000000000E+00 0. -1.
</event>
<event>
 7    1  0.1360399E-013  0.7246155E+02  0.7816164E-02  0.1226708E+00
        -11   -1    0    0    0    0  0.00000000000E+00  0.00000000000E+00  0.45593999997E+02  0.45594000000E+02  0.51100000000E-03 0.  1.
         11   -1    0    0    0    0 -0.00000000000E+00 -0.00000000000E+00 -0.45593999997E+02  0.45594000000E+02  0.51100000000E-03 0. -1.
    9900012    2    1    2    0    0  0.90290400008E+01  0.13941598777E+02  0.86480190248E+01  0.72461548846E+02  0.69999972059E+02 0.  0.
         12    1    1    2    0    0 -0.90290400008E+01 -0.13941598777E+02 -0.86480190248E+01  0.18726451154E+02  0.00000000000E+00 0. -1.
         11    1    3    3    0    0  0.15209969419E+02  0.19556234063E+02 -0.12655281730E+02  0.27819878080E+02  0.51100000000E-03 0. -1.
        -11    1    3    3    0    0 -0.14352368312E+02  0.10763905769E+02  0.19102462219E+02  0.26206033783E+02  0.51100000000E-03 0.  1.
        -12    1    3    3    0    0  0.81714388941E+01 -0.16378541055E+02  0.22008385364E+01  0.18435636983E+02  0.00000000000E+00 0.  1.
</event>
<event>
 7    1  0.1360399E-013  0.7246154E+02  0.7816164E-02  0.1226708E+00
        -11   -1    0    0    0    0  0.00000000000E+00  0.00000000000E+00  0.45593999997E+02  0.45594000000E+02  0.51100000000E-03 0.  1.
         11   -1    0    0    0    0 -0.00000000000E+00 -0.00000000000E+00 -0.45593999997E+02  0.45594000000E+02  0.51100000000E-03 0. -1.
    9900012    2    1    2    0    0 -0.64248109774E+01  0.10327209777E+02  0.14239063859E+02  0.72461537508E+02  0.69999957290E+02 0.  0.
         12    1    1    2    0    0  0.64248109774E+01 -0.10327209777E+02 -0.14239063859E+02  0.18726462492E+02  0.00000000000E+00 0. -1.
         11    1    3    3    0    0 -0.10771456322E+02 -0.11335910333E+02 -0.10559513144E+02  0.18868769236E+02  0.51100000000E-03 0. -1.
        -11    1    3    3    0    0  0.10870413417E+02  0.29782158132E+02  0.62413132249E+01  0.32312487089E+02  0.51100000000E-03 0.  1.
        -12    1    3    3    0    0 -0.65237680725E+01 -0.81190380213E+01  0.18557263778E+02  0.21280281182E+02  0.00000000000E+00 0.  1.
</event>
<event>
 7    1  0.1360399E-013  0.7246156E+02  0.7816164E-02  0.1226708E+00
        -11   -1    0    0    0    0  0.00000000000E+00  0.00000000000E+00  0.45593999997E+02  0.45594000000E+02  0.51100000000E-03 0.  1.
         11   -1    0    0    0    0 -0.00000000000E+00 -0.00000000000E+00 -0.45593999997E+02  0.45594000000E+02  0.51100000000E-03 0. -1.
    9900012    2    1    2    0    0  0.37453259931E+01 -0.52514683882E+01  0.17580501334E+02  0.72461563761E+02  0.69999991490E+02 0.  0.
         12    1    1    2    0    0 -0.37453259931E+01  0.52514683882E+01 -0.17580501334E+02  0.18726436239E+02  0.00000000000E+00 0. -1.
         11    1    3    3    0    0  0.22978434042E+02  0.55791420725E+01 -0.12998067297E+02  0.26983050439E+02  0.51100000000E-03 0. -1.
        -11    1    3    3    0    0  0.41202421823E+00 -0.91701027565E+01  0.10070249576E+00  0.91799068500E+01  0.51100000000E-03 0.  1.
         12    1    3    3    0    0 -0.19645132267E+02 -0.16605077043E+01  0.30477866136E+02  0.36298606472E+02  0.00000000000E+00 0. -1.
</event>
<event>
 7    1  0.1360399E-013  0.7246122E+02  0.7816164E-02  0.1226709E+00
        -11   -1    0    0    0    0  0.00000000000E+00  0.00000000000E+00  0.45593999997E+02  0.45594000000E+02  0.51100000000E-03 0.  1.
         11   -1    0    0    0    0 -0.00000000000E+00 -0.00000000000E+00 -0.45593999997E+02  0.45594000000E+02  0.51100000000E-03 0. -1.
    9900012    2    1    2    0    0  0.14851756718E+01  0.78069421445E+01  0.16956947850E+02  0.72461223107E+02  0.69999547722E+02 0.  0.
         12    1    1    2    0    0 -0.14851756718E+01 -0.78069421445E+01 -0.16956947850E+02  0.18726776893E+02  0.00000000000E+00 0. -1.
         11    1    3    3    0    0 -0.18274188338E+02 -0.67455330334E+01  0.28016423008E+01  0.19679872336E+02  0.51100000000E-03 0.  1.
        -11    1    3    3    0    0  0.30050104227E+02  0.11119622848E+02 -0.33196698867E+01  0.32212962992E+02  0.51100000000E-03 0. -1.
        -12    1    3    3    0    0 -0.10290740218E+02  0.34328523296E+01  0.17474975436E+02  0.20568387779E+02  0.00000000000E+00 0.  1.
</event>
<event>
 7    1  0.1360399E-013  0.7246154E+02  0.7816164E-02  0.1226708E+00
        -11   -1    0    0    0    0  0.00000000000E+00  0.00000000000E+00  0.45593999997E+02  0.45594000000E+02  0.51100000000E-03 0.  1.
         11   -1    0    0    0    0 -0.00000000000E+00 -0.00000000000E+00 -0.45593999997E+02  0.45594000000E+02  0.51100000000E-03 0. -1.
    9900012    2    1    2    0    0 -0.12941269241E+02 -0.99948589950E+01  0.91272532645E+01  0.72461537225E+02  0.69999956921E+02 0.  0.
         12    1    1    2    0    0  0.12941269241E+02  0.99948589950E+01 -0.91272532645E+01  0.18726462775E+02  0.00000000000E+00 0. -1.
         11    1    3    3    0    0 -0.19700423887E+02 -0.40698844682E+01 -0.14742224794E+02  0.24940005073E+02  0.51100000000E-03 0. -1.
        -11    1    3    3    0    0  0.23064359433E+01 -0.19882511678E+02  0.25897835024E+02  0.32731204936E+02  0.51100000000E-03 0.  1.
         12    1    3    3    0    0  0.44527187028E+01  0.13957537151E+02 -0.20283569653E+01  0.14790327216E+02  0.00000000000E+00 0. -1.
</event>
<event>
 8    1  0.1360399E-013  0.7246159E+02  0.7816164E-02  0.1226708E+00
        -11   -1    0    0    0    0  0.00000000000E+00  0.00000000000E+00  0.45593999997E+02  0.45594000000E+02  0.51100000000E-03 0.  1.
         11   -1    0    0    0    0 -0.00000000000E+00 -0.00000000000E+00 -0.45593999997E+02  0.45594000000E+02  0.51100000000E-03 0. -1.
    9900012    2    1    2    0    0 -0.46139932855E+00 -0.22204693491E+01  0.18588577605E+02  0.72461585745E+02  0.70000020127E+02 0.  0.
         24    2    3    3    0    0  0.94235804954E+01 -0.11643145144E+02  0.43663991156E+01  0.52744334250E+02  0.50383853129E+02 0.  0.
         12    1    1    2    0    0  0.46139932855E+00  0.22204693491E+01 -0.18588577605E+02  0.18726414255E+02  0.00000000000E+00 0. -1.
         11    1    3    3    0    0 -0.98849798239E+01  0.94226757947E+01  0.14222178489E+02  0.19717251495E+02  0.51100000000E-03 0.  1.
        -11    1    4    4    0    0  0.22884077900E+02 -0.20688911073E+02 -0.85487910487E+01  0.32012402150E+02  0.51100000000E-03 0. -1.
         12    1    4    4    0    0 -0.13460497405E+02  0.90457659296E+01  0.12915190164E+02  0.20731932101E+02  0.00000000000E+00 0. -1.
</event>
<event>
 7    1  0.1360399E-013  0.7246162E+02  0.7816164E-02  0.1226708E+00
        -11   -1    0    0    0    0  0.00000000000E+00  0.00000000000E+00  0.45593999997E+02  0.45594000000E+02  0.51100000000E-03 0. -1.
         11   -1    0    0    0    0 -0.00000000000E+00 -0.00000000000E+00 -0.45593999997E+02  0.45594000000E+02  0.51100000000E-03 0.  1.
    9900012    2    1    2    0    0 -0.10252546560E+02  0.15131711632E+02 -0.40735549177E+01  0.72461621345E+02  0.70000066503E+02 0.  0.
         12    1    1    2    0    0  0.10252546560E+02 -0.15131711632E+02  0.40735549177E+01  0.18726378655E+02  0.00000000000E+00 0. -1.
         11    1    3    3    0    0  0.22078170271E+02 -0.59045455350E+01 -0.13055606289E+02  0.26320298560E+02  0.51100000000E-03 0. -1.
        -11    1    3    3    0    0 -0.11582801847E+02  0.13005773509E+02 -0.69770848649E+01  0.18761427362E+02  0.51100000000E-03 0.  1.
         12    1    3    3    0    0 -0.20747914983E+02  0.80304836584E+01  0.15959136236E+02  0.27379895422E+02  0.00000000000E+00 0. -1.
</event>
<event>
 7    1  0.1360399E-013  0.7246150E+02  0.7816164E-02  0.1226708E+00
        -11   -1    0    0    0    0  0.00000000000E+00  0.00000000000E+00  0.45593999997E+02  0.45594000000E+02  0.51100000000E-03 0.  1.
         11   -1    0    0    0    0 -0.00000000000E+00 -0.00000000000E+00 -0.45593999997E+02  0.45594000000E+02  0.51100000000E-03 0. -1.
    9900012    2    1    2    0    0  0.14378175808E+01 -0.18194074367E+02  0.41940780025E+01  0.72461496009E+02  0.69999903229E+02 0.  0.
         12    1    1    2    0    0 -0.14378175808E+01  0.18194074367E+02 -0.41940780025E+01  0.18726503991E+02  0.00000000000E+00 0. -1.
         11    1    3    3    0    0  0.98681209295E+01 -0.30235829034E+02 -0.34200267739E+01  0.31988775398E+02  0.51100000000E-03 0. -1.
        -11    1    3    3    0    0  0.93226226176E+01  0.18469615861E+02  0.59021289303E+01  0.21514486484E+02  0.51100000000E-03 0.  1.
        -12    1    3    3    0    0 -0.17752925966E+02 -0.64278611929E+01  0.17119758461E+01  0.18958234126E+02  0.00000000000E+00 0.  1.
</event>
<event>
 7    1  0.1360399E-013  0.7246162E+02  0.7816164E-02  0.1226708E+00
        -11   -1    0    0    0    0  0.00000000000E+00  0.00000000000E+00  0.45593999997E+02  0.45594000000E+02  0.51100000000E-03 0. -1.
         11   -1    0    0    0    0 -0.00000000000E+00 -0.00000000000E+00 -0.45593999997E+02  0.45594000000E+02  0.51100000000E-03 0.  1.
    9900012    2    1    2    0    0 -0.15322966732E+02  0.88079992581E+01  0.61889660353E+01  0.72461615913E+02  0.70000059426E+02 0.  0.
         12    1    1    2    0    0  0.15322966732E+02 -0.88079992581E+01 -0.61889660353E+01  0.18726384087E+02  0.00000000000E+00 0. -1.
         11    1    3    3    0    0 -0.11331382216E+02  0.76901269292E+01  0.21191837448E+02  0.25231572480E+02  0.51100000000E-03 0. -1.
        -11    1    3    3    0    0 -0.19123626810E+02 -0.19557371692E+01 -0.22889982899E+02  0.29891291836E+02  0.51100000000E-03 0.  1.
        -12    1    3    3    0    0  0.15132042294E+02  0.30736094980E+01  0.78871114866E+01  0.17338751597E+02  0.00000000000E+00 0.  1.
</event>
<event>
 7    1  0.1360399E-013  0.7246153E+02  0.7816164E-02  0.1226708E+00
        -11   -1    0    0    0    0  0.00000000000E+00  0.00000000000E+00  0.45593999997E+02  0.45594000000E+02  0.51100000000E-03 0. -1.
         11   -1    0    0    0    0 -0.00000000000E+00 -0.00000000000E+00 -0.45593999997E+02  0.45594000000E+02  0.51100000000E-03 0.  1.
    9900012    2    1    2    0    0 -0.17917964445E+02 -0.40360706007E+01  0.36520362960E+01  0.72461529835E+02  0.69999947294E+02 0.  0.
         12    1    1    2    0    0  0.17917964445E+02  0.40360706007E+01 -0.36520362960E+01  0.18726470165E+02  0.00000000000E+00 0. -1.
         11    1    3    3    0    0  0.28138805717E+01 -0.28839391645E+02  0.64381422939E+01  0.29682959940E+02  0.51100000000E-03 0. -1.
        -11    1    3    3    0    0 -0.10046773330E+02  0.98573620758E+01 -0.15114353791E+02  0.20653061085E+02  0.51100000000E-03 0.  1.
         12    1    3    3    0    0 -0.10685071687E+02  0.14945958969E+02  0.12328247793E+02  0.22125508810E+02  0.00000000000E+00 0. -1.
</event>
<event>
 7    1  0.1360399E-013  0.7246157E+02  0.7816164E-02  0.1226708E+00
        -11   -1    0    0    0    0  0.00000000000E+00  0.00000000000E+00  0.45593999997E+02  0.45594000000E+02  0.51100000000E-03 0. -1.
         11   -1    0    0    0    0 -0.00000000000E+00 -0.00000000000E+00 -0.45593999997E+02  0.45594000000E+02  0.51100000000E-03 0.  1.
    9900012    2    1    2    0    0  0.80238121242E+01  0.33368726888E+01 -0.16588036582E+02  0.72461568466E+02  0.69999997619E+02 0.  0.
         12    1    1    2    0    0 -0.80238121242E+01 -0.33368726888E+01  0.16588036582E+02  0.18726431534E+02  0.00000000000E+00 0. -1.
         11    1    3    3    0    0  0.31828797921E+01  0.65614085464E+01  0.15426155230E+02  0.17063090908E+02  0.51100000000E-03 0. -1.
        -11    1    3    3    0    0 -0.12661563740E+02 -0.10074164132E+02 -0.32814024531E+02  0.36586393447E+02  0.51100000000E-03 0.  1.
         12    1    3    3    0    0  0.17502496072E+02  0.68496282742E+01  0.79983271897E+00  0.18812084112E+02  0.00000000000E+00 0. -1.
</event>
<event>
 7    1  0.1360399E-013  0.7246161E+02  0.7816164E-02  0.1226708E+00
        -11   -1    0    0    0    0  0.00000000000E+00  0.00000000000E+00  0.45593999997E+02  0.45594000000E+02  0.51100000000E-03 0.  1.
         11   -1    0    0    0    0 -0.00000000000E+00 -0.00000000000E+00 -0.45593999997E+02  0.45594000000E+02  0.51100000000E-03 0. -1.
    9900012    2    1    2    0    0 -0.74748545211E+01  0.78681404176E+01  0.15260945539E+02  0.72461613737E+02  0.70000056592E+02 0.  0.
         12    1    1    2    0    0  0.74748545211E+01 -0.78681404176E+01 -0.15260945539E+02  0.18726386263E+02  0.00000000000E+00 0. -1.
         11    1    3    3    0    0 -0.24034218426E+02  0.77930616985E+01  0.23492124460E+02  0.34500077940E+02  0.51100000000E-03 0.  1.
        -11    1    3    3    0    0  0.12838312050E+02  0.12532001665E+02 -0.14926254643E+02  0.23338089038E+02  0.51100000000E-03 0. -1.
         12    1    3    3    0    0  0.37210518548E+01 -0.12456922946E+02  0.66950757218E+01  0.14623446759E+02  0.00000000000E+00 0. -1.
</event>
<event>
 8    1  0.1360399E-013  0.7246168E+02  0.7816164E-02  0.1226708E+00
        -11   -1    0    0    0    0  0.00000000000E+00  0.00000000000E+00  0.45593999997E+02  0.45594000000E+02  0.51100000000E-03 0. -1.
         11   -1    0    0    0    0 -0.00000000000E+00 -0.00000000000E+00 -0.45593999997E+02  0.45594000000E+02  0.51100000000E-03 0.  1.
    9900012    2    1    2    0    0 -0.80188316837E+01  0.70669840845E+00 -0.16907804425E+02  0.72461683366E+02  0.70000147297E+02 0.  0.
         24    2    3    3    0    0 -0.46713968837E+01  0.81863133977E+01 -0.26736247846E+02  0.59665267443E+02  0.52500281087E+02 0.  0.
         12    1    1    2    0    0  0.80188316837E+01 -0.70669840845E+00  0.16907804425E+02  0.18726316634E+02  0.00000000000E+00 0. -1.
         11    1    3    3    0    0 -0.33474348000E+01 -0.74796149893E+01  0.98284434219E+01  0.12796415923E+02  0.51100000000E-03 0. -1.
        -11    1    4    4    0    0  0.73866170497E+00  0.27153919053E+02 -0.29090457662E+02  0.39801201845E+02  0.51100000000E-03 0.  1.
         12    1    4    4    0    0 -0.54100585887E+01 -0.18967605655E+02  0.23542098157E+01  0.19864065598E+02  0.00000000000E+00 0. -1.
</event>
<event>
 7    1  0.1360399E-013  0.7246163E+02  0.7816164E-02  0.1226708E+00
        -11   -1    0    0    0    0  0.00000000000E+00  0.00000000000E+00  0.45593999997E+02  0.45594000000E+02  0.51100000000E-03 0.  1.
         11   -1    0    0    0    0 -0.00000000000E+00 -0.00000000000E+00 -0.45593999997E+02  0.45594000000E+02  0.51100000000E-03 0. -1.
    9900012    2    1    2    0    0 -0.15090268083E+02  0.38323555894E+01  0.10405463860E+02  0.72461633072E+02  0.70000081779E+02 0.  0.
         12    1    1    2    0    0  0.15090268083E+02 -0.38323555894E+01 -0.10405463860E+02  0.18726366928E+02  0.00000000000E+00 0. -1.
         11    1    3    3    0    0 -0.28410469446E+01 -0.23385037963E+02  0.24135642790E+02  0.33726262785E+02  0.51100000000E-03 0.  1.
        -11    1    3    3    0    0 -0.13851694333E+02  0.26342096462E+02 -0.17514850223E+02  0.34533251520E+02  0.51100000000E-03 0. -1.
         12    1    3    3    0    0  0.16024731951E+01  0.87529709046E+00  0.37846712928E+01  0.42021187670E+01  0.00000000000E+00 0. -1.
</event>
<event>
 7    1  0.1360399E-013  0.7246150E+02  0.7816164E-02  0.1226708E+00
        -11   -1    0    0    0    0  0.00000000000E+00  0.00000000000E+00  0.45593999997E+02  0.45594000000E+02  0.51100000000E-03 0. -1.
         11   -1    0    0    0    0 -0.00000000000E+00 -0.00000000000E+00 -0.45593999997E+02  0.45594000000E+02  0.51100000000E-03 0.  1.
    9900012    2    1    2    0    0 -0.12363689715E+02 -0.89711310018E+01 -0.10832357594E+02  0.72461495098E+02  0.69999902042E+02 0.  0.
         12    1    1    2    0    0  0.12363689715E+02  0.89711310018E+01  0.10832357594E+02  0.18726504902E+02  0.00000000000E+00 0. -1.
         11    1    3    3    0    0  0.44284518725E+01 -0.26305166276E+02  0.13127075181E+02  0.29730339081E+02  0.51100000000E-03 0. -1.
        -11    1    3    3    0    0  0.40255033659E+01 -0.24542024836E+01 -0.94310824733E+01  0.10543865708E+02  0.51100000000E-03 0.  1.
         12    1    3    3    0    0 -0.20817644953E+02  0.19788237758E+02 -0.14528350302E+02  0.32187290309E+02  0.00000000000E+00 0. -1.
</event>
<event>
 7    1  0.1360399E-013  0.7246157E+02  0.7816164E-02  0.1226708E+00
        -11   -1    0    0    0    0  0.00000000000E+00  0.00000000000E+00  0.45593999997E+02  0.45594000000E+02  0.51100000000E-03 0.  1.
         11   -1    0    0    0    0 -0.00000000000E+00 -0.00000000000E+00 -0.45593999997E+02  0.45594000000E+02  0.51100000000E-03 0. -1.
    9900012    2    1    2    0    0 -0.32308439373E+01 -0.18327505736E+02 -0.20840578807E+01  0.72461571716E+02  0.70000001852E+02 0.  0.
         12    1    1    2    0    0  0.32308439373E+01  0.18327505736E+02  0.20840578807E+01  0.18726428284E+02  0.00000000000E+00 0. -1.
         11    1    3    3    0    0 -0.29375263832E+01  0.12652369185E+02 -0.24405302883E+02  0.27646524489E+02  0.51100000000E-03 0. -1.
        -11    1    3    3    0    0  0.92512348362E+01 -0.11562486498E+02  0.16978471832E+02  0.22528758199E+02  0.51100000000E-03 0.  1.
         12    1    3    3    0    0 -0.95445523903E+01 -0.19417388422E+02  0.53427731705E+01  0.22286289028E+02  0.00000000000E+00 0. -1.
</event>
<event>
 7    1  0.1360399E-013  0.7246156E+02  0.7816164E-02  0.1226708E+00
        -11   -1    0    0    0    0  0.00000000000E+00  0.00000000000E+00  0.45593999997E+02  0.45594000000E+02  0.51100000000E-03 0.  1.
         11   -1    0    0    0    0 -0.00000000000E+00 -0.00000000000E+00 -0.45593999997E+02  0.45594000000E+02  0.51100000000E-03 0. -1.
    9900012    2    1    2    0    0 -0.18278478739E+02 -0.20930883655E+01  0.34922495991E+01  0.72461558502E+02  0.69999984638E+02 0.  0.
         12    1    1    2    0    0  0.18278478739E+02  0.20930883655E+01 -0.34922495991E+01  0.18726441498E+02  0.00000000000E+00 0. -1.
         11    1    3    3    0    0  0.37575704429E+01 -0.22451434883E+02 -0.10377490560E+02  0.25017565319E+02  0.51100000000E-03 0. -1.
        -11    1    3    3    0    0 -0.45941499713E+01  0.20695082849E+02  0.19810923012E+02  0.29014915801E+02  0.51100000000E-03 0.  1.
         12    1    3    3    0    0 -0.17441899211E+02 -0.33673633180E+00 -0.59411828526E+01  0.18429077381E+02  0.00000000000E+00 0. -1.
</event>
<event>
 7    1  0.1360399E-013  0.7246151E+02  0.7816164E-02  0.1226708E+00
        -11   -1    0    0    0    0  0.00000000000E+00  0.00000000000E+00  0.45593999997E+02  0.45594000000E+02  0.51100000000E-03 0.  1.
         11   -1    0    0    0    0 -0.00000000000E+00 -0.00000000000E+00 -0.45593999997E+02  0.45594000000E+02  0.51100000000E-03 0. -1.
    9900012    2    1    2    0    0  0.17937439226E+02  0.45469854248E+01  0.28731027350E+01  0.72461507489E+02  0.69999918185E+02 0.  0.
         12    1    1    2    0    0 -0.17937439226E+02 -0.45469854248E+01 -0.28731027350E+01  0.18726492511E+02  0.00000000000E+00 0. -1.
         11    1    3    3    0    0  0.39571463499E+01  0.39439576607E+01 -0.15076993481E+02  0.16078853876E+02  0.51100000000E-03 0. -1.
        -11    1    3    3    0    0 -0.42679432080E+01  0.23305893769E+02  0.12359590419E+02  0.26723388617E+02  0.51100000000E-03 0.  1.
        -12    1    3    3    0    0  0.18248236084E+02 -0.22702866005E+02  0.55905057978E+01  0.29659264996E+02  0.00000000000E+00 0.  1.
</event>
<event>
 7    1  0.1360399E-013  0.7246157E+02  0.7816164E-02  0.1226708E+00
        -11   -1    0    0    0    0  0.00000000000E+00  0.00000000000E+00  0.45593999997E+02  0.45594000000E+02  0.51100000000E-03 0.  1.
         11   -1    0    0    0    0 -0.00000000000E+00 -0.00000000000E+00 -0.45593999997E+02  0.45594000000E+02  0.51100000000E-03 0. -1.
    9900012    2    1    2    0    0  0.13494588579E+02 -0.77872536353E+01 -0.10389120853E+02  0.72461572893E+02  0.70000003385E+02 0.  0.
         12    1    1    2    0    0 -0.13494588579E+02  0.77872536353E+01  0.10389120853E+02  0.18726427107E+02  0.00000000000E+00 0. -1.
         11    1    3    3    0    0 -0.74180039315E+00  0.14018286724E+01 -0.76927500956E+01  0.78545398175E+01  0.51100000000E-03 0. -1.
        -11    1    3    3    0    0  0.42079133522E+01 -0.34640560952E+02  0.69869602903E+01  0.35587815502E+02  0.51100000000E-03 0.  1.
        -12    1    3    3    0    0  0.10028475620E+02  0.25451478644E+02 -0.96833310477E+01  0.29019217574E+02  0.00000000000E+00 0.  1.
</event>
<event>
 7    1  0.1360399E-013  0.7246156E+02  0.7816164E-02  0.1226708E+00
        -11   -1    0    0    0    0  0.00000000000E+00  0.00000000000E+00  0.45593999997E+02  0.45594000000E+02  0.51100000000E-03 0. -1.
         11   -1    0    0    0    0 -0.00000000000E+00 -0.00000000000E+00 -0.45593999997E+02  0.45594000000E+02  0.51100000000E-03 0.  1.
    9900012    2    1    2    0    0 -0.46823200962E+01  0.16968001138E+02 -0.63907951079E+01  0.72461562907E+02  0.69999990376E+02 0.  0.
         12    1    1    2    0    0  0.46823200962E+01 -0.16968001138E+02  0.63907951079E+01  0.18726437093E+02  0.00000000000E+00 0. -1.
         11    1    3    3    0    0 -0.21751483298E+01  0.32886021508E+02 -0.21760261983E+02  0.39493425817E+02  0.51100000000E-03 0. -1.
        -11    1    3    3    0    0  0.98757167737E+01 -0.36162072776E+01  0.13963238964E+01  0.10609262819E+02  0.51100000000E-03 0.  1.
         12    1    3    3    0    0 -0.12382888540E+02 -0.12301813093E+02  0.13973142979E+02  0.22358874271E+02  0.00000000000E+00 0. -1.
</event>
<event>
 7    1  0.1360399E-013  0.7246165E+02  0.7816164E-02  0.1226708E+00
        -11   -1    0    0    0    0  0.00000000000E+00  0.00000000000E+00  0.45593999997E+02  0.45594000000E+02  0.51100000000E-03 0.  1.
         11   -1    0    0    0    0 -0.00000000000E+00 -0.00000000000E+00 -0.45593999997E+02  0.45594000000E+02  0.51100000000E-03 0. -1.
    9900012    2    1    2    0    0  0.11195871377E+02  0.13436808779E+02  0.66918385783E+01  0.72461653063E+02  0.70000107821E+02 0.  0.
         12    1    1    2    0    0 -0.11195871377E+02 -0.13436808779E+02 -0.66918385783E+01  0.18726346937E+02  0.00000000000E+00 0. -1.
         11    1    3    3    0    0  0.60660612420E+01 -0.21629529407E+02 -0.13990755692E+02  0.26464596850E+02  0.51100000000E-03 0. -1.
        -11    1    3    3    0    0 -0.62259184275E+01  0.25131401207E+02  0.11464923989E+02  0.28315964917E+02  0.51100000000E-03 0.  1.
         12    1    3    3    0    0  0.11355728563E+02  0.99349369794E+01  0.92176702813E+01  0.17681091295E+02  0.00000000000E+00 0. -1.
</event>
<event>
 7    1  0.1360399E-013  0.7246159E+02  0.7816164E-02  0.1226708E+00
        -11   -1    0    0    0    0  0.00000000000E+00  0.00000000000E+00  0.45593999997E+02  0.45594000000E+02  0.51100000000E-03 0. -1.
         11   -1    0    0    0    0 -0.00000000000E+00 -0.00000000000E+00 -0.45593999997E+02  0.45594000000E+02  0.51100000000E-03 0.  1.
    9900012    2    1    2    0    0 -0.92210388581E+01  0.91218277930E+00 -0.16273250205E+02  0.72461593317E+02  0.70000029991E+02 0.  0.
         12    1    1    2    0    0  0.92210388581E+01 -0.91218277930E+00  0.16273250205E+02  0.18726406683E+02  0.00000000000E+00 0. -1.
         11    1    3    3    0    0  0.19449754107E+02 -0.14767784497E+02 -0.87957827122E+01  0.25956621266E+02  0.51100000000E-03 0. -1.
        -11    1    3    3    0    0 -0.16283278892E+02  0.16664366633E+02 -0.18611524307E+02  0.29820045675E+02  0.51100000000E-03 0.  1.
         12    1    3    3    0    0 -0.12387514073E+02 -0.98439935610E+00  0.11134056815E+02  0.16684926376E+02  0.00000000000E+00 0. -1.
</event>
<event>
 7    1  0.1360399E-013  0.7246184E+02  0.7816164E-02  0.1226707E+00
        -11   -1    0    0    0    0  0.00000000000E+00  0.00000000000E+00  0.45593999997E+02  0.45594000000E+02  0.51100000000E-03 0. -1.
         11   -1    0    0    0    0 -0.00000000000E+00 -0.00000000000E+00 -0.45593999997E+02  0.45594000000E+02  0.51100000000E-03 0.  1.
    9900012    2    1    2    0    0 -0.35926970918E+01  0.81420937519E+00 -0.18360249052E+02  0.72461837698E+02  0.70000348342E+02 0.  0.
         12    1    1    2    0    0  0.35926970918E+01 -0.81420937519E+00  0.18360249052E+02  0.18726162302E+02  0.00000000000E+00 0. -1.
         11    1    3    3    0    0  0.52677202877E+01  0.20015369672E+02  0.18627054396E+02  0.27844767118E+02  0.51100000000E-03 0. -1.
        -11    1    3    3    0    0 -0.10409050566E+02 -0.68871007969E+01 -0.16997599847E+02  0.21087884956E+02  0.51100000000E-03 0.  1.
         12    1    3    3    0    0  0.15486331866E+01 -0.12314059500E+02 -0.19989703601E+02  0.23529185624E+02  0.00000000000E+00 0. -1.
</event>
<event>
 7    1  0.1360399E-013  0.7246152E+02  0.7816164E-02  0.1226708E+00
        -11   -1    0    0    0    0  0.00000000000E+00  0.00000000000E+00  0.45593999997E+02  0.45594000000E+02  0.51100000000E-03 0. -1.
         11   -1    0    0    0    0 -0.00000000000E+00 -0.00000000000E+00 -0.45593999997E+02  0.45594000000E+02  0.51100000000E-03 0.  1.
    9900012    2    1    2    0    0  0.20457277601E+01  0.17250900063E+02 -0.69930306443E+01  0.72461520548E+02  0.69999935197E+02 0.  0.
         12    1    1    2    0    0 -0.20457277601E+01 -0.17250900063E+02  0.69930306443E+01  0.18726479452E+02  0.00000000000E+00 0. -1.
         11    1    3    3    0    0  0.13781934348E+02 -0.28380427111E+01 -0.28989210261E+02  0.32223756960E+02  0.51100000000E-03 0.  1.
        -11    1    3    3    0    0 -0.14603588240E+02  0.24393889702E+02  0.17507485830E+02  0.33389200418E+02  0.51100000000E-03 0. -1.
        -12    1    3    3    0    0  0.28673816517E+01 -0.43049469271E+01  0.44886937869E+01  0.68485631700E+01  0.00000000000E+00 0.  1.
</event>
<event>
 7    1  0.1360399E-013  0.7246156E+02  0.7816164E-02  0.1226708E+00
        -11   -1    0    0    0    0  0.00000000000E+00  0.00000000000E+00  0.45593999997E+02  0.45594000000E+02  0.51100000000E-03 0.  1.
         11   -1    0    0    0    0 -0.00000000000E+00 -0.00000000000E+00 -0.45593999997E+02  0.45594000000E+02  0.51100000000E-03 0. -1.
    9900012    2    1    2    0    0  0.90619301103E+00 -0.18072603112E+02  0.48207061274E+01  0.72461564765E+02  0.69999992797E+02 0.  0.
         12    1    1    2    0    0 -0.90619301103E+00  0.18072603112E+02 -0.48207061274E+01  0.18726435235E+02  0.00000000000E+00 0. -1.
         11    1    3    3    0    0  0.14772889876E+01 -0.35628940617E+02 -0.60355197065E+01  0.36166715231E+02  0.51100000000E-03 0. -1.
        -11    1    3    3    0    0  0.94177224958E+00  0.18534693928E+02 -0.58754513461E+01  0.19466451725E+02  0.51100000000E-03 0.  1.
         12    1    3    3    0    0 -0.15128682262E+01 -0.97835642353E+00  0.16731677180E+02  0.16828397809E+02  0.00000000000E+00 0. -1.
</event>
<event>
 7    1  0.1360399E-013  0.7246158E+02  0.7816164E-02  0.1226708E+00
        -11   -1    0    0    0    0  0.00000000000E+00  0.00000000000E+00  0.45593999997E+02  0.45594000000E+02  0.51100000000E-03 0.  1.
         11   -1    0    0    0    0 -0.00000000000E+00 -0.00000000000E+00 -0.45593999997E+02  0.45594000000E+02  0.51100000000E-03 0. -1.
    9900012    2    1    2    0    0  0.18080889315E+02 -0.17242477025E+01  0.45592916895E+01  0.72461582049E+02  0.70000015312E+02 0.  0.
         12    1    1    2    0    0 -0.18080889315E+02  0.17242477025E+01 -0.45592916895E+01  0.18726417951E+02  0.00000000000E+00 0. -1.
         11    1    3    3    0    0  0.26497688088E+02  0.87650605430E+01 -0.18760557297E+02  0.33629039098E+02  0.51100000000E-03 0. -1.
        -11    1    3    3    0    0 -0.12168739096E+02  0.43643535309E+01  0.18880185289E+02  0.22882027658E+02  0.51100000000E-03 0.  1.
        -12    1    3    3    0    0  0.37519403238E+01 -0.14853661776E+02  0.44396636969E+01  0.15950515293E+02  0.00000000000E+00 0.  1.
</event>
<event>
 7    1  0.1360399E-013  0.7246159E+02  0.7816164E-02  0.1226708E+00
        -11   -1    0    0    0    0  0.00000000000E+00  0.00000000000E+00  0.45593999997E+02  0.45594000000E+02  0.51100000000E-03 0.  1.
         11   -1    0    0    0    0 -0.00000000000E+00 -0.00000000000E+00 -0.45593999997E+02  0.45594000000E+02  0.51100000000E-03 0. -1.
    9900012    2    1    2    0    0 -0.20120135689E+01 -0.92841553255E+01 -0.16137986664E+02  0.72461592115E+02  0.70000028425E+02 0.  0.
         12    1    1    2    0    0  0.20120135689E+01  0.92841553255E+01  0.16137986664E+02  0.18726407885E+02  0.00000000000E+00 0. -1.
         11    1    3    3    0    0 -0.22451243065E+02 -0.30784330351E+01 -0.24217420766E+02  0.33166527312E+02  0.51100000000E-03 0. -1.
        -11    1    3    3    0    0  0.57221857058E+01 -0.15903556830E+02  0.12621458167E+02  0.21094258357E+02  0.51100000000E-03 0.  1.
         12    1    3    3    0    0  0.14717043790E+02  0.96978345392E+01 -0.45420240662E+01  0.18200806446E+02  0.00000000000E+00 0. -1.
</event>
<event>
 7    1  0.1360399E-013  0.7246141E+02  0.7816164E-02  0.1226708E+00
        -11   -1    0    0    0    0  0.00000000000E+00  0.00000000000E+00  0.45593999997E+02  0.45594000000E+02  0.51100000000E-03 0. -1.
         11   -1    0    0    0    0 -0.00000000000E+00 -0.00000000000E+00 -0.45593999997E+02  0.45594000000E+02  0.51100000000E-03 0.  1.
    9900012    2    1    2    0    0  0.14800367820E+02 -0.86489179011E+01 -0.75385923014E+01  0.72461413489E+02  0.69999795732E+02 0.  0.
         12    1    1    2    0    0 -0.14800367820E+02  0.86489179011E+01  0.75385923014E+01  0.18726586511E+02  0.00000000000E+00 0. -1.
         11    1    3    3    0    0  0.41960480698E+01  0.76937093250E+01  0.14680124984E+01  0.88856650589E+01  0.51100000000E-03 0. -1.
        -11    1    3    3    0    0 -0.39644182182E+01 -0.36337656994E+02  0.17582639742E+01  0.36595538254E+02  0.51100000000E-03 0.  1.
        -12    1    3    3    0    0  0.14568737968E+02  0.19995029768E+02 -0.10764868774E+02  0.26980210176E+02  0.00000000000E+00 0.  1.
</event>
<event>
 7    1  0.1360399E-013  0.7246155E+02  0.7816164E-02  0.1226708E+00
        -11   -1    0    0    0    0  0.00000000000E+00  0.00000000000E+00  0.45593999997E+02  0.45594000000E+02  0.51100000000E-03 0.  1.
         11   -1    0    0    0    0 -0.00000000000E+00 -0.00000000000E+00 -0.45593999997E+02  0.45594000000E+02  0.51100000000E-03 0. -1.
    9900012    2    1    2    0    0  0.98405335726E+01  0.89741473962E+01  0.13164670456E+02  0.72461548902E+02  0.69999972133E+02 0.  0.
         12    1    1    2    0    0 -0.98405335726E+01 -0.89741473962E+01 -0.13164670456E+02  0.18726451098E+02  0.00000000000E+00 0. -1.
         11    1    3    3    0    0 -0.33116503891E+00 -0.23358587716E+01 -0.16661957806E+02  0.16828153335E+02  0.51100000000E-03 0. -1.
        -11    1    3    3    0    0  0.75540356035E+00  0.74147693955E+01  0.40321930495E+02  0.41004969440E+02  0.51100000000E-03 0.  1.
        -12    1    3    3    0    0  0.94162950512E+01  0.38952367722E+01 -0.10495302232E+02  0.14628426127E+02  0.00000000000E+00 0.  1.
</event>
<event>
 7    1  0.1360399E-013  0.7246173E+02  0.7816164E-02  0.1226708E+00
        -11   -1    0    0    0    0  0.00000000000E+00  0.00000000000E+00  0.45593999997E+02  0.45594000000E+02  0.51100000000E-03 0.  1.
         11   -1    0    0    0    0 -0.00000000000E+00 -0.00000000000E+00 -0.45593999997E+02  0.45594000000E+02  0.51100000000E-03 0. -1.
    9900012    2    1    2    0    0  0.77358572408E+01  0.11935548588E+02  0.12180822547E+02  0.72461728474E+02  0.70000206058E+02 0.  0.
         12    1    1    2    0    0 -0.77358572408E+01 -0.11935548588E+02 -0.12180822547E+02  0.18726271526E+02  0.00000000000E+00 0. -1.
         11    1    3    3    0    0  0.84820296734E+01 -0.38206508159E+01  0.14870038144E+02  0.17540246141E+02  0.51100000000E-03 0. -1.
        -11    1    3    3    0    0 -0.60034953507E+01  0.30740903181E+02 -0.15095620172E+02  0.34769567634E+02  0.51100000000E-03 0.  1.
        -12    1    3    3    0    0  0.52573229181E+01 -0.14984703777E+02  0.12406404575E+02  0.20151914699E+02  0.00000000000E+00 0.  1.
</event>
<event>
 7    1  0.1360399E-013  0.7246159E+02  0.7816164E-02  0.1226708E+00
        -11   -1    0    0    0    0  0.00000000000E+00  0.00000000000E+00  0.45593999997E+02  0.45594000000E+02  0.51100000000E-03 0.  1.
         11   -1    0    0    0    0 -0.00000000000E+00 -0.00000000000E+00 -0.45593999997E+02  0.45594000000E+02  0.51100000000E-03 0. -1.
    9900012    2    1    2    0    0 -0.22610510311E+00  0.24049559575E+01  0.18569960114E+02  0.72461592034E+02  0.70000028320E+02 0.  0.
         12    1    1    2    0    0  0.22610510311E+00 -0.24049559575E+01 -0.18569960114E+02  0.18726407966E+02  0.00000000000E+00 0. -1.
         11    1    3    3    0    0  0.81622785507E+01  0.22311289264E+02  0.15426952894E+02  0.28326794659E+02  0.51100000000E-03 0. -1.
        -11    1    3    3    0    0 -0.34827175136E+01 -0.80203250007E+01  0.20643077414E+02  0.22418554364E+02  0.51100000000E-03 0.  1.
         12    1    3    3    0    0 -0.49056661402E+01 -0.11886008306E+02 -0.17500070194E+02  0.21716243012E+02  0.00000000000E+00 0. -1.
</event>
<event>
 7    1  0.1360399E-013  0.7246158E+02  0.7816164E-02  0.1226708E+00
        -11   -1    0    0    0    0  0.00000000000E+00  0.00000000000E+00  0.45593999997E+02  0.45594000000E+02  0.51100000000E-03 0.  1.
         11   -1    0    0    0    0 -0.00000000000E+00 -0.00000000000E+00 -0.45593999997E+02  0.45594000000E+02  0.51100000000E-03 0. -1.
    9900012    2    1    2    0    0  0.13974243194E+02 -0.72368759735E+01  0.10150220476E+02  0.72461579563E+02  0.70000012074E+02 0.  0.
         12    1    1    2    0    0 -0.13974243194E+02  0.72368759735E+01 -0.10150220476E+02  0.18726420437E+02  0.00000000000E+00 0. -1.
         11    1    3    3    0    0 -0.87765155858E+01  0.18366764914E+02  0.25433015623E+02  0.32576119523E+02  0.51100000000E-03 0. -1.
        -11    1    3    3    0    0  0.56879554887E+01 -0.13045422092E+02 -0.11646594432E+02  0.18389644839E+02  0.51100000000E-03 0.  1.
         12    1    3    3    0    0  0.17062803291E+02 -0.12558218796E+02 -0.36362007162E+01  0.21495815200E+02  0.00000000000E+00 0. -1.
</event>
<event>
 8    1  0.1360399E-013  0.7246158E+02  0.7816164E-02  0.1226708E+00
        -11   -1    0    0    0    0  0.00000000000E+00  0.00000000000E+00  0.45593999997E+02  0.45594000000E+02  0.51100000000E-03 0.  1.
         11   -1    0    0    0    0 -0.00000000000E+00 -0.00000000000E+00 -0.45593999997E+02  0.45594000000E+02  0.51100000000E-03 0. -1.
    9900012    2    1    2    0    0  0.27041886991E+01 -0.59848830023E+01  0.17537028211E+02  0.72461579639E+02  0.70000012173E+02 0.  0.
         24    2    3    3    0    0  0.80392338788E+00 -0.15917647958E+02  0.18632663592E+01  0.53808493064E+02  0.51360143642E+02 0.  0.
         12    1    1    2    0    0 -0.27041886991E+01  0.59848830023E+01 -0.17537028211E+02  0.18726420361E+02  0.00000000000E+00 0. -1.
         11    1    3    3    0    0  0.19002653112E+01  0.99327649559E+01  0.15673761852E+02  0.18653086575E+02  0.51100000000E-03 0. -1.
        -11    1    4    4    0    0  0.10988039462E+02 -0.29644064485E+02 -0.98201638368E+01  0.33105032676E+02  0.51100000000E-03 0.  1.
         12    1    4    4    0    0 -0.10184116074E+02  0.13726416527E+02  0.11683430196E+02  0.20703460388E+02  0.00000000000E+00 0. -1.
</event>
<event>
 7    1  0.1360399E-013  0.7246154E+02  0.7816164E-02  0.1226708E+00
        -11   -1    0    0    0    0  0.00000000000E+00  0.00000000000E+00  0.45593999997E+02  0.45594000000E+02  0.51100000000E-03 0. -1.
         11   -1    0    0    0    0 -0.00000000000E+00 -0.00000000000E+00 -0.45593999997E+02  0.45594000000E+02  0.51100000000E-03 0.  1.
    9900012    2    1    2    0    0  0.55308044114E+01  0.17886954462E+02  0.38394328802E+00  0.72461538781E+02  0.69999958947E+02 0.  0.
         12    1    1    2    0    0 -0.55308044114E+01 -0.17886954462E+02 -0.38394328802E+00  0.18726461219E+02  0.00000000000E+00 0. -1.
         11    1    3    3    0    0 -0.14787911903E+02 -0.17469119314E+02  0.22160789749E+00  0.22888896399E+02  0.51100000000E-03 0. -1.
        -11    1    3    3    0    0  0.46465624365E+01  0.27426830516E+02  0.98550880272E+01  0.29511766041E+02  0.51100000000E-03 0.  1.
         12    1    3    3    0    0  0.15672153878E+02  0.79292432599E+01 -0.96927526367E+01  0.20060876340E+02  0.00000000000E+00 0. -1.
</event>
<event>
 7    1  0.1360399E-013  0.7246159E+02  0.7816164E-02  0.1226708E+00
        -11   -1    0    0    0    0  0.00000000000E+00  0.00000000000E+00  0.45593999997E+02  0.45594000000E+02  0.51100000000E-03 0.  1.
         11   -1    0    0    0    0 -0.00000000000E+00 -0.00000000000E+00 -0.45593999997E+02  0.45594000000E+02  0.51100000000E-03 0. -1.
    9900012    2    1    2    0    0 -0.29360606225E+01  0.13388883740E+02  0.12759148178E+02  0.72461587583E+02  0.70000022521E+02 0.  0.
         12    1    1    2    0    0  0.29360606225E+01 -0.13388883740E+02 -0.12759148178E+02  0.18726412417E+02  0.00000000000E+00 0. -1.
         11    1    3    3    0    0  0.20172091726E+02 -0.10606747049E+02  0.17483363904E+02  0.28724282084E+02  0.51100000000E-03 0. -1.
        -11    1    3    3    0    0 -0.76497703656E+01  0.22804058460E+02 -0.11686357266E+02  0.26741634492E+02  0.51100000000E-03 0.  1.
         12    1    3    3    0    0 -0.15458381983E+02  0.11915723296E+01  0.69621415404E+01  0.16995671007E+02  0.00000000000E+00 0. -1.
</event>
<event>
 7    1  0.1360399E-013  0.7246157E+02  0.7816164E-02  0.1226708E+00
        -11   -1    0    0    0    0  0.00000000000E+00  0.00000000000E+00  0.45593999997E+02  0.45594000000E+02  0.51100000000E-03 0.  1.
         11   -1    0    0    0    0 -0.00000000000E+00 -0.00000000000E+00 -0.45593999997E+02  0.45594000000E+02  0.51100000000E-03 0. -1.
    9900012    2    1    2    0    0 -0.16274484722E+02 -0.18590948321E+01  0.90754682172E+01  0.72461569216E+02  0.69999998595E+02 0.  0.
         12    1    1    2    0    0  0.16274484722E+02  0.18590948321E+01 -0.90754682172E+01  0.18726430784E+02  0.00000000000E+00 0. -1.
         11    1    3    3    0    0 -0.76265667953E+01  0.12278027943E+01 -0.23127035605E+02  0.24383022719E+02  0.51100000000E-03 0. -1.
        -11    1    3    3    0    0  0.36309787278E+00 -0.11987377655E+02  0.33272450226E+02  0.35367852740E+02  0.51100000000E-03 0.  1.
        -12    1    3    3    0    0 -0.90110157994E+01  0.89004800286E+01 -0.10699464041E+01  0.12710693757E+02  0.00000000000E+00 0.  1.
</event>
<event>
 7    1  0.1360399E-013  0.7246155E+02  0.7816164E-02  0.1226708E+00
        -11   -1    0    0    0    0  0.00000000000E+00  0.00000000000E+00  0.45593999997E+02  0.45594000000E+02  0.51100000000E-03 0. -1.
         11   -1    0    0    0    0 -0.00000000000E+00 -0.00000000000E+00 -0.45593999997E+02  0.45594000000E+02  0.51100000000E-03 0.  1.
    9900012    2    1    2    0    0 -0.60219716229E+00  0.83323573963E+01 -0.16759750223E+02  0.72461546819E+02  0.69999969419E+02 0.  0.
         12    1    1    2    0    0  0.60219716229E+00 -0.83323573963E+01  0.16759750223E+02  0.18726453181E+02  0.00000000000E+00 0. -1.
         11    1    3    3    0    0 -0.15708799341E+02 -0.11160591060E+02  0.66891122627E+01  0.20397779111E+02  0.51100000000E-03 0. -1.
        -11    1    3    3    0    0  0.26322151639E+02  0.29443156917E+01 -0.12921226067E+02  0.29470031305E+02  0.51100000000E-03 0.  1.
        -12    1    3    3    0    0 -0.11215549460E+02  0.16548632765E+02 -0.10527636419E+02  0.22593736403E+02  0.00000000000E+00 0.  1.
</event>
<event>
 7    1  0.1360399E-013  0.7246153E+02  0.7816164E-02  0.1226708E+00
        -11   -1    0    0    0    0  0.00000000000E+00  0.00000000000E+00  0.45593999997E+02  0.45594000000E+02  0.51100000000E-03 0. -1.
         11   -1    0    0    0    0 -0.00000000000E+00 -0.00000000000E+00 -0.45593999997E+02  0.45594000000E+02  0.51100000000E-03 0.  1.
    9900012    2    1    2    0    0  0.17962734612E+02  0.52918165435E+01  0.13277410788E+00  0.72461527133E+02  0.69999943774E+02 0.  0.
         12    1    1    2    0    0 -0.17962734612E+02 -0.52918165435E+01 -0.13277410788E+00  0.18726472867E+02  0.00000000000E+00 0. -1.
         11    1    3    3    0    0  0.30625882004E+02  0.19397040100E+02  0.37776915343E+01  0.36448055733E+02  0.51100000000E-03 0. -1.
        -11    1    3    3    0    0 -0.22581830862E+02 -0.11212251678E+02 -0.46331585962E+01  0.25634348667E+02  0.51100000000E-03 0.  1.
         12    1    3    3    0    0  0.99186834705E+01 -0.28929718791E+01  0.98824116983E+00  0.10379122732E+02  0.00000000000E+00 0. -1.
</event>
<event>
 7    1  0.1360399E-013  0.7246154E+02  0.7816164E-02  0.1226708E+00
        -11   -1    0    0    0    0  0.00000000000E+00  0.00000000000E+00  0.45593999997E+02  0.45594000000E+02  0.51100000000E-03 0. -1.
         11   -1    0    0    0    0 -0.00000000000E+00 -0.00000000000E+00 -0.45593999997E+02  0.45594000000E+02  0.51100000000E-03 0.  1.
    9900012    2    1    2    0    0 -0.13256718630E+02  0.12943774925E+02 -0.27200157480E+01  0.72461537872E+02  0.69999957764E+02 0.  0.
         12    1    1    2    0    0  0.13256718630E+02 -0.12943774925E+02  0.27200157480E+01  0.18726462128E+02  0.00000000000E+00 0. -1.
         11    1    3    3    0    0 -0.13807159898E+02  0.45843987872E+01  0.19306924079E+02  0.24174608463E+02  0.51100000000E-03 0. -1.
        -11    1    3    3    0    0  0.21122315662E+02  0.41017153059E+01 -0.76752246000E+01  0.22844810358E+02  0.51100000000E-03 0.  1.
        -12    1    3    3    0    0 -0.20571874394E+02  0.42576608322E+01 -0.14351715227E+02  0.25442119051E+02  0.00000000000E+00 0.  1.
</event>
<event>
 7    1  0.1360399E-013  0.7246147E+02  0.7816164E-02  0.1226708E+00
        -11   -1    0    0    0    0  0.00000000000E+00  0.00000000000E+00  0.45593999997E+02  0.45594000000E+02  0.51100000000E-03 0.  1.
         11   -1    0    0    0    0 -0.00000000000E+00 -0.00000000000E+00 -0.45593999997E+02  0.45594000000E+02  0.51100000000E-03 0. -1.
    9900012    2    1    2    0    0 -0.17212190532E+02 -0.46741342317E+01 -0.57075131907E+01  0.72461474947E+02  0.69999875792E+02 0.  0.
         12    1    1    2    0    0  0.17212190532E+02  0.46741342317E+01  0.57075131907E+01  0.18726525053E+02  0.00000000000E+00 0. -1.
         11    1    3    3    0    0 -0.15861920455E+02 -0.95911293540E+00 -0.31979507226E+02  0.35710072820E+02  0.51100000000E-03 0. -1.
        -11    1    3    3    0    0  0.93886174415E+01 -0.57044447619E+01  0.22770782977E+02  0.25282313683E+02  0.51100000000E-03 0.  1.
        -12    1    3    3    0    0 -0.10738887519E+02  0.19894234656E+01  0.35012110578E+01  0.11469088444E+02  0.00000000000E+00 0.  1.
</event>
<event>
 7    1  0.1360399E-013  0.7246140E+02  0.7816164E-02  0.1226708E+00
        -11   -1    0    0    0    0  0.00000000000E+00  0.00000000000E+00  0.45593999997E+02  0.45594000000E+02  0.51100000000E-03 0.  1.
         11   -1    0    0    0    0 -0.00000000000E+00 -0.00000000000E+00 -0.45593999997E+02  0.45594000000E+02  0.51100000000E-03 0. -1.
    9900012    2    1    2    0    0  0.11833847075E+02  0.13927339480E+02 -0.40834611331E+01  0.72461404569E+02  0.69999784112E+02 0.  0.
         12    1    1    2    0    0 -0.11833847075E+02 -0.13927339480E+02  0.40834611331E+01  0.18726595431E+02  0.00000000000E+00 0. -1.
         11    1    3    3    0    0  0.26417777989E+02  0.10927288174E+01  0.10034209067E+02  0.28280353640E+02  0.51100000000E-03 0. -1.
        -11    1    3    3    0    0 -0.61642359160E+01  0.50283541480E+01 -0.26278618702E+02  0.27456291647E+02  0.51100000000E-03 0.  1.
        -12    1    3    3    0    0 -0.84196949971E+01  0.78062565146E+01  0.12160948501E+02  0.16724759283E+02  0.00000000000E+00 0.  1.
</event>
<event>
 7    1  0.1360399E-013  0.7246159E+02  0.7816164E-02  0.1226708E+00
        -11   -1    0    0    0    0  0.00000000000E+00  0.00000000000E+00  0.45593999997E+02  0.45594000000E+02  0.51100000000E-03 0.  1.
         11   -1    0    0    0    0 -0.00000000000E+00 -0.00000000000E+00 -0.45593999997E+02  0.45594000000E+02  0.51100000000E-03 0. -1.
    9900012    2    1    2    0    0 -0.84478321184E+00 -0.96733924218E+01  0.16012188130E+02  0.72461592220E+02  0.70000028562E+02 0.  0.
         12    1    1    2    0    0  0.84478321184E+00  0.96733924218E+01 -0.16012188130E+02  0.18726407780E+02  0.00000000000E+00 0. -1.
         11    1    3    3    0    0 -0.71416091331E+01  0.11904466494E+02 -0.20297553566E+02  0.24590843510E+02  0.51100000000E-03 0. -1.
        -11    1    3    3    0    0 -0.43644199460E+01 -0.17052561598E+02  0.13134302402E+02  0.21962420594E+02  0.51100000000E-03 0.  1.
         12    1    3    3    0    0  0.10661245867E+02 -0.45252973178E+01  0.23175439295E+02  0.25908328116E+02  0.00000000000E+00 0. -1.
</event>
<event>
 7    1  0.1360399E-013  0.7246157E+02  0.7816164E-02  0.1226708E+00
        -11   -1    0    0    0    0  0.00000000000E+00  0.00000000000E+00  0.45593999997E+02  0.45594000000E+02  0.51100000000E-03 0.  1.
         11   -1    0    0    0    0 -0.00000000000E+00 -0.00000000000E+00 -0.45593999997E+02  0.45594000000E+02  0.51100000000E-03 0. -1.
    9900012    2    1    2    0    0 -0.12042486460E+02 -0.98311020606E+01  0.10440654571E+02  0.72461566390E+02  0.69999994914E+02 0.  0.
         12    1    1    2    0    0  0.12042486460E+02  0.98311020606E+01 -0.10440654571E+02  0.18726433610E+02  0.00000000000E+00 0. -1.
         11    1    3    3    0    0  0.18256534857E+02  0.78335224758E+01 -0.14855125459E+02  0.24806045473E+02  0.51100000000E-03 0. -1.
        -11    1    3    3    0    0 -0.79804532464E+00 -0.51345641259E+01  0.11771508313E+02  0.12867363107E+02  0.51100000000E-03 0.  1.
         12    1    3    3    0    0 -0.29500975992E+02 -0.12530060411E+02  0.13524271717E+02  0.34788157810E+02  0.00000000000E+00 0. -1.
</event>
<event>
 7    1  0.1360399E-013  0.7246160E+02  0.7816164E-02  0.1226708E+00
        -11   -1    0    0    0    0  0.00000000000E+00  0.00000000000E+00  0.45593999997E+02  0.45594000000E+02  0.51100000000E-03 0.  1.
         11   -1    0    0    0    0 -0.00000000000E+00 -0.00000000000E+00 -0.45593999997E+02  0.45594000000E+02  0.51100000000E-03 0. -1.
    9900012    2    1    2    0    0 -0.15973393721E+01 -0.11307795443E+02  0.14841168483E+02  0.72461601180E+02  0.70000040234E+02 0.  0.
         12    1    1    2    0    0  0.15973393721E+01  0.11307795443E+02 -0.14841168483E+02  0.18726398820E+02  0.00000000000E+00 0. -1.
         11    1    3    3    0    0 -0.24331365218E+02  0.18844955613E+02  0.14759022426E+02  0.34131751034E+02  0.51100000000E-03 0. -1.
        -11    1    3    3    0    0  0.12122723878E+02 -0.14524183799E+02  0.31892459729E+01  0.19185505972E+02  0.51100000000E-03 0.  1.
         12    1    3    3    0    0  0.10611301968E+02 -0.15628567257E+02 -0.31070999164E+01  0.19144344174E+02  0.00000000000E+00 0. -1.
</event>
<event>
 7    1  0.1360399E-013  0.7246150E+02  0.7816164E-02  0.1226708E+00
        -11   -1    0    0    0    0  0.00000000000E+00  0.00000000000E+00  0.45593999997E+02  0.45594000000E+02  0.51100000000E-03 0.  1.
         11   -1    0    0    0    0 -0.00000000000E+00 -0.00000000000E+00 -0.45593999997E+02  0.45594000000E+02  0.51100000000E-03 0. -1.
    9900012    2    1    2    0    0 -0.35430272096E+00 -0.10255759424E+02  0.15664467529E+02  0.72461503404E+02  0.69999912863E+02 0.  0.
         12    1    1    2    0    0  0.35430272096E+00  0.10255759424E+02 -0.15664467529E+02  0.18726496596E+02  0.00000000000E+00 0. -1.
         11    1    3    3    0    0  0.16775439822E+02  0.50104089566E+01  0.25205290038E+02  0.30689187433E+02  0.51100000000E-03 0.  1.
        -11    1    3    3    0    0 -0.25804589809E+02 -0.36556420881E+01 -0.76124207276E+01  0.27151234298E+02  0.51100000000E-03 0. -1.
        -12    1    3    3    0    0  0.86748472666E+01 -0.11610526292E+02 -0.19284017815E+01  0.14621081674E+02  0.00000000000E+00 0.  1.
</event>
<event>
 7    1  0.1360399E-013  0.7246173E+02  0.7816164E-02  0.1226708E+00
        -11   -1    0    0    0    0  0.00000000000E+00  0.00000000000E+00  0.45593999997E+02  0.45594000000E+02  0.51100000000E-03 0. -1.
         11   -1    0    0    0    0 -0.00000000000E+00 -0.00000000000E+00 -0.45593999997E+02  0.45594000000E+02  0.51100000000E-03 0.  1.
    9900012    2    1    2    0    0  0.14031665864E+02 -0.10612832478E+02  0.64150815905E+01  0.72461731500E+02  0.70000209999E+02 0.  0.
         12    1    1    2    0    0 -0.14031665864E+02  0.10612832478E+02 -0.64150815905E+01  0.18726268500E+02  0.00000000000E+00 0. -1.
         11    1    3    3    0    0  0.19836662113E+02 -0.57260455986E+00 -0.10542884934E+02  0.22471614600E+02  0.51100000000E-03 0.  1.
        -11    1    3    3    0    0 -0.20322512693E+02 -0.20130861142E+02  0.61194736255E+01  0.29252419561E+02  0.51100000000E-03 0. -1.
        -12    1    3    3    0    0  0.14517516444E+02  0.10090633224E+02  0.10838492898E+02  0.20737697338E+02  0.00000000000E+00 0.  1.
</event>
<event>
 7    1  0.1360399E-013  0.7246140E+02  0.7816164E-02  0.1226708E+00
        -11   -1    0    0    0    0  0.00000000000E+00  0.00000000000E+00  0.45593999997E+02  0.45594000000E+02  0.51100000000E-03 0.  1.
         11   -1    0    0    0    0 -0.00000000000E+00 -0.00000000000E+00 -0.45593999997E+02  0.45594000000E+02  0.51100000000E-03 0. -1.
    9900012    2    1    2    0    0  0.17228170669E+02  0.72526939194E+01  0.11288285692E+01  0.72461396260E+02  0.69999773288E+02 0.  0.
         12    1    1    2    0    0 -0.17228170669E+02 -0.72526939194E+01 -0.11288285692E+01  0.18726603740E+02  0.00000000000E+00 0. -1.
         11    1    3    3    0    0 -0.53504109959E+01  0.15802861911E+02  0.18059612502E+02  0.24586722970E+02  0.51100000000E-03 0.  1.
        -11    1    3    3    0    0  0.23029012574E+02 -0.98243092890E+01 -0.27516935488E+02  0.37202610285E+02  0.51100000000E-03 0. -1.
         12    1    3    3    0    0 -0.45043090945E+00  0.12741412979E+01  0.10586151555E+02  0.10672063005E+02  0.00000000000E+00 0. -1.
</event>
<event>
 7    1  0.1360399E-013  0.7246175E+02  0.7816164E-02  0.1226708E+00
        -11   -1    0    0    0    0  0.00000000000E+00  0.00000000000E+00  0.45593999997E+02  0.45594000000E+02  0.51100000000E-03 0.  1.
         11   -1    0    0    0    0 -0.00000000000E+00 -0.00000000000E+00 -0.45593999997E+02  0.45594000000E+02  0.51100000000E-03 0. -1.
    9900012    2    1    2    0    0  0.11649847319E+02 -0.12877381741E+02  0.70090281908E+01  0.72461751597E+02  0.70000236180E+02 0.  0.
         12    1    1    2    0    0 -0.11649847319E+02  0.12877381741E+02 -0.70090281908E+01  0.18726248403E+02  0.00000000000E+00 0. -1.
         11    1    3    3    0    0 -0.10753543764E+02 -0.30810943382E+02 -0.52097583057E+01  0.33046853367E+02  0.51100000000E-03 0. -1.
        -11    1    3    3    0    0  0.13657682179E+02  0.23047389535E+02  0.57669608313E+01  0.27403873529E+02  0.51100000000E-03 0.  1.
        -12    1    3    3    0    0  0.87457089044E+01 -0.51138278936E+01  0.64518256652E+01  0.12011024701E+02  0.00000000000E+00 0.  1.
</event>
<event>
 7    1  0.1360399E-013  0.7246159E+02  0.7816164E-02  0.1226708E+00
        -11   -1    0    0    0    0  0.00000000000E+00  0.00000000000E+00  0.45593999997E+02  0.45594000000E+02  0.51100000000E-03 0.  1.
         11   -1    0    0    0    0 -0.00000000000E+00 -0.00000000000E+00 -0.45593999997E+02  0.45594000000E+02  0.51100000000E-03 0. -1.
    9900012    2    1    2    0    0  0.11543007419E+02  0.29283319904E+01  0.14452071154E+02  0.72461587926E+02  0.70000022969E+02 0.  0.
         12    1    1    2    0    0 -0.11543007419E+02 -0.29283319904E+01 -0.14452071154E+02  0.18726412074E+02  0.00000000000E+00 0. -1.
         11    1    3    3    0    0  0.12913157406E+02 -0.25415655812E+02  0.10984806057E+01  0.28529140443E+02  0.51100000000E-03 0. -1.
        -11    1    3    3    0    0  0.10022285539E+02  0.28549235699E+02  0.11596625080E+02  0.32403499501E+02  0.51100000000E-03 0.  1.
        -12    1    3    3    0    0 -0.11392435525E+02 -0.20524789667E+00  0.17569654679E+01  0.11528947981E+02  0.00000000000E+00 0.  1.
</event>
<event>
 7    1  0.1360399E-013  0.7246160E+02  0.7816164E-02  0.1226708E+00
        -11   -1    0    0    0    0  0.00000000000E+00  0.00000000000E+00  0.45593999997E+02  0.45594000000E+02  0.51100000000E-03 0.  1.
         11   -1    0    0    0    0 -0.00000000000E+00 -0.00000000000E+00 -0.45593999997E+02  0.45594000000E+02  0.51100000000E-03 0. -1.
    9900012    2    1    2    0    0  0.10376038648E+02 -0.13579891563E+02  0.76552127321E+01  0.72461603794E+02  0.70000043640E+02 0.  0.
         12    1    1    2    0    0 -0.10376038648E+02  0.13579891563E+02 -0.76552127321E+01  0.18726396206E+02  0.00000000000E+00 0. -1.
         11    1    3    3    0    0  0.28067845091E+01 -0.28536825156E+02  0.72897026362E+01  0.29586621876E+02  0.51100000000E-03 0. -1.
        -11    1    3    3    0    0 -0.33106015730E+00  0.27655078353E+02  0.24931202633E+01  0.27769202517E+02  0.51100000000E-03 0.  1.
        -12    1    3    3    0    0  0.79003142960E+01 -0.12698144759E+02 -0.21276101673E+01  0.15105779401E+02  0.00000000000E+00 0.  1.
</event>
<event>
 7    1  0.1360399E-013  0.7246157E+02  0.7816164E-02  0.1226708E+00
        -11   -1    0    0    0    0  0.00000000000E+00  0.00000000000E+00  0.45593999997E+02  0.45594000000E+02  0.51100000000E-03 0.  1.
         11   -1    0    0    0    0 -0.00000000000E+00 -0.00000000000E+00 -0.45593999997E+02  0.45594000000E+02  0.51100000000E-03 0. -1.
    9900012    2    1    2    0    0  0.14923390289E+02  0.79681984562E+00  0.11284363668E+02  0.72461565130E+02  0.69999993272E+02 0.  0.
         12    1    1    2    0    0 -0.14923390289E+02 -0.79681984562E+00 -0.11284363668E+02  0.18726434870E+02  0.00000000000E+00 0. -1.
         11    1    3    3    0    0 -0.34926151249E+01  0.51680565432E+00 -0.13887731600E+02  0.14329498866E+02  0.51100000000E-03 0. -1.
        -11    1    3    3    0    0  0.33868392171E+02 -0.29377066858E+01  0.82314913726E+01  0.34977929603E+02  0.51100000000E-03 0.  1.
        -12    1    3    3    0    0 -0.15452386757E+02  0.32177208771E+01  0.16940603896E+02  0.23154136660E+02  0.00000000000E+00 0.  1.
</event>
<event>
 7    1  0.1360399E-013  0.7246154E+02  0.7816164E-02  0.1226708E+00
        -11   -1    0    0    0    0  0.00000000000E+00  0.00000000000E+00  0.45593999997E+02  0.45594000000E+02  0.51100000000E-03 0.  1.
         11   -1    0    0    0    0 -0.00000000000E+00 -0.00000000000E+00 -0.45593999997E+02  0.45594000000E+02  0.51100000000E-03 0. -1.
    9900012    2    1    2    0    0  0.32497042010E+01  0.74808659853E+01  0.16856939130E+02  0.72461539306E+02  0.69999959632E+02 0.  0.
         12    1    1    2    0    0 -0.32497042010E+01 -0.74808659853E+01 -0.16856939130E+02  0.18726460694E+02  0.00000000000E+00 0. -1.
         11    1    3    3    0    0 -0.19648478491E+02 -0.54298493655E+00  0.17370066883E+02  0.26231217346E+02  0.51100000000E-03 0.  1.
        -11    1    3    3    0    0  0.24817887120E+02  0.19300237982E+02 -0.81477543769E+01  0.32477878763E+02  0.51100000000E-03 0. -1.
        -12    1    3    3    0    0 -0.19197044282E+01 -0.11276387060E+02  0.76346266246E+01  0.13752443198E+02  0.00000000000E+00 0.  1.
</event>
<event>
 7    1  0.1360399E-013  0.7246156E+02  0.7816164E-02  0.1226708E+00
        -11   -1    0    0    0    0  0.00000000000E+00  0.00000000000E+00  0.45593999997E+02  0.45594000000E+02  0.51100000000E-03 0. -1.
         11   -1    0    0    0    0 -0.00000000000E+00 -0.00000000000E+00 -0.45593999997E+02  0.45594000000E+02  0.51100000000E-03 0.  1.
    9900012    2    1    2    0    0  0.15822688156E+02 -0.99640112927E+01 -0.10201295452E+01  0.72461557577E+02  0.69999983433E+02 0.  0.
         12    1    1    2    0    0 -0.15822688156E+02  0.99640112927E+01  0.10201295452E+01  0.18726442423E+02  0.00000000000E+00 0. -1.
         11    1    3    3    0    0 -0.14061297747E+02 -0.42515769250E+01  0.23264753148E+02  0.27514446023E+02  0.51100000000E-03 0. -1.
        -11    1    3    3    0    0  0.34027016354E+01  0.38846769483E+01 -0.14065920190E+02  0.14983964911E+02  0.51100000000E-03 0.  1.
         12    1    3    3    0    0  0.26481284268E+02 -0.95971113160E+01 -0.10218962504E+02  0.29963146643E+02  0.00000000000E+00 0. -1.
</event>
<event>
 7    1  0.1360399E-013  0.7246129E+02  0.7816164E-02  0.1226709E+00
        -11   -1    0    0    0    0  0.00000000000E+00  0.00000000000E+00  0.45593999997E+02  0.45594000000E+02  0.51100000000E-03 0.  1.
         11   -1    0    0    0    0 -0.00000000000E+00 -0.00000000000E+00 -0.45593999997E+02  0.45594000000E+02  0.51100000000E-03 0. -1.
    9900012    2    1    2    0    0 -0.15493075966E+02 -0.61945690951E+01 -0.85018677322E+01  0.72461285283E+02  0.69999628719E+02 0.  0.
         12    1    1    2    0    0  0.15493075966E+02  0.61945690951E+01  0.85018677322E+01  0.18726714717E+02  0.00000000000E+00 0. -1.
         11    1    3    3    0    0 -0.81358597040E+01 -0.28408652140E+02 -0.17591656658E+02  0.34390552682E+02  0.51100000000E-03 0. -1.
        -11    1    3    3    0    0  0.47324321662E+01  0.22688863841E+02  0.11278048205E+02  0.25775469505E+02  0.51100000000E-03 0.  1.
        -12    1    3    3    0    0 -0.12089648428E+02 -0.47478079601E+00 -0.21882592791E+01  0.12295263096E+02  0.00000000000E+00 0.  1.
</event>
<event>
 7    1  0.1360399E-013  0.7246156E+02  0.7816164E-02  0.1226708E+00
        -11   -1    0    0    0    0  0.00000000000E+00  0.00000000000E+00  0.45593999997E+02  0.45594000000E+02  0.51100000000E-03 0.  1.
         11   -1    0    0    0    0 -0.00000000000E+00 -0.00000000000E+00 -0.45593999997E+02  0.45594000000E+02  0.51100000000E-03 0. -1.
    9900012    2    1    2    0    0 -0.12258539726E+02 -0.13608623036E+02  0.39004004113E+01  0.72461560389E+02  0.69999987097E+02 0.  0.
         12    1    1    2    0    0  0.12258539726E+02  0.13608623036E+02 -0.39004004113E+01  0.18726439611E+02  0.00000000000E+00 0. -1.
         11    1    3    3    0    0  0.42575094392E+01 -0.29892300674E+02 -0.65347600296E+01  0.30893026966E+02  0.51100000000E-03 0. -1.
        -11    1    3    3    0    0  0.25985473250E+01  0.10547632442E+02  0.17330967371E+02  0.20454032087E+02  0.51100000000E-03 0.  1.
         12    1    3    3    0    0 -0.19114596490E+02  0.57360451962E+01 -0.68958069299E+01  0.21114501336E+02  0.00000000000E+00 0. -1.
</event>
<event>
 7    1  0.1360399E-013  0.7246148E+02  0.7816164E-02  0.1226708E+00
        -11   -1    0    0    0    0  0.00000000000E+00  0.00000000000E+00  0.45593999997E+02  0.45594000000E+02  0.51100000000E-03 0.  1.
         11   -1    0    0    0    0 -0.00000000000E+00 -0.00000000000E+00 -0.45593999997E+02  0.45594000000E+02  0.51100000000E-03 0. -1.
    9900012    2    1    2    0    0  0.94444836328E+01 -0.28737137526E+01  0.15913082930E+02  0.72461475759E+02  0.69999876850E+02 0.  0.
         12    1    1    2    0    0 -0.94444836328E+01  0.28737137526E+01 -0.15913082930E+02  0.18726524241E+02  0.00000000000E+00 0. -1.
         11    1    3    3    0    0 -0.62908475485E+01 -0.80138902960E+01 -0.20606480498E+01  0.10394396144E+02  0.51100000000E-03 0. -1.
        -11    1    3    3    0    0  0.31305581637E+02 -0.14161139090E+02  0.76232207449E+01  0.35195039377E+02  0.51100000000E-03 0.  1.
        -12    1    3    3    0    0 -0.15570250455E+02  0.19301315633E+02  0.10350510235E+02  0.26872040238E+02  0.00000000000E+00 0.  1.
</event>
<event>
 7    1  0.1360399E-013  0.7246160E+02  0.7816164E-02  0.1226708E+00
        -11   -1    0    0    0    0  0.00000000000E+00  0.00000000000E+00  0.45593999997E+02  0.45594000000E+02  0.51100000000E-03 0. -1.
         11   -1    0    0    0    0 -0.00000000000E+00 -0.00000000000E+00 -0.45593999997E+02  0.45594000000E+02  0.51100000000E-03 0.  1.
    9900012    2    1    2    0    0 -0.10424387174E+02  0.12135487817E+02 -0.97334539560E+01  0.72461600495E+02  0.70000039342E+02 0.  0.
         12    1    1    2    0    0  0.10424387174E+02 -0.12135487817E+02  0.97334539560E+01  0.18726399505E+02  0.00000000000E+00 0. -1.
         11    1    3    3    0    0  0.21065091086E+02  0.97122786390E+01 -0.15163700419E+02  0.27712889230E+02  0.51100000000E-03 0. -1.
        -11    1    3    3    0    0 -0.21071093940E+02 -0.13694388473E+02  0.45354874180E+01  0.25536208055E+02  0.51100000000E-03 0.  1.
         12    1    3    3    0    0 -0.10418384320E+02  0.16117597651E+02  0.89475904494E+00  0.19212503210E+02  0.00000000000E+00 0. -1.
</event>
<event>
 7    1  0.1360399E-013  0.7246156E+02  0.7816164E-02  0.1226708E+00
        -11   -1    0    0    0    0  0.00000000000E+00  0.00000000000E+00  0.45593999997E+02  0.45594000000E+02  0.51100000000E-03 0.  1.
         11   -1    0    0    0    0 -0.00000000000E+00 -0.00000000000E+00 -0.45593999997E+02  0.45594000000E+02  0.51100000000E-03 0. -1.
    9900012    2    1    2    0    0  0.15974019421E+02 -0.53877022577E+00 -0.97580705377E+01  0.72461561192E+02  0.69999988143E+02 0.  0.
         12    1    1    2    0    0 -0.15974019421E+02  0.53877022577E+00  0.97580705377E+01  0.18726438808E+02  0.00000000000E+00 0. -1.
         11    1    3    3    0    0 -0.19186409540E+01  0.27621545548E+02 -0.16560081720E+02  0.32262474617E+02  0.51100000000E-03 0. -1.
        -11    1    3    3    0    0 -0.13332633586E+01 -0.15893390582E+02 -0.12869470428E+01  0.16001052725E+02  0.51100000000E-03 0.  1.
         12    1    3    3    0    0  0.19225923733E+02 -0.12266925192E+02  0.80889582248E+01  0.24198033850E+02  0.00000000000E+00 0. -1.
</event>
<event>
 7    1  0.1360399E-013  0.7246156E+02  0.7816164E-02  0.1226708E+00
        -11   -1    0    0    0    0  0.00000000000E+00  0.00000000000E+00  0.45593999997E+02  0.45594000000E+02  0.51100000000E-03 0.  1.
         11   -1    0    0    0    0 -0.00000000000E+00 -0.00000000000E+00 -0.45593999997E+02  0.45594000000E+02  0.51100000000E-03 0. -1.
    9900012    2    1    2    0    0  0.49921036482E+01  0.16783306935E+02  0.66392023626E+01  0.72461561510E+02  0.69999988557E+02 0.  0.
         12    1    1    2    0    0 -0.49921036482E+01 -0.16783306935E+02 -0.66392023626E+01  0.18726438490E+02  0.00000000000E+00 0. -1.
         11    1    3    3    0    0  0.50051931667E+01 -0.24731376490E+02  0.18719504909E+00  0.25233469519E+02  0.51100000000E-03 0. -1.
        -11    1    3    3    0    0  0.88658504967E+00  0.55433855348E+01  0.95864960634E+01  0.11109278252E+02  0.51100000000E-03 0.  1.
         12    1    3    3    0    0 -0.89967456810E+00  0.35971297890E+02 -0.31344887499E+01  0.36118813739E+02  0.00000000000E+00 0. -1.
</event>
<event>
 7    1  0.1360399E-013  0.7246232E+02  0.7816164E-02  0.1226706E+00
        -11   -1    0    0    0    0  0.00000000000E+00  0.00000000000E+00  0.45593999997E+02  0.45594000000E+02  0.51100000000E-03 0. -1.
         11   -1    0    0    0    0 -0.00000000000E+00 -0.00000000000E+00 -0.45593999997E+02  0.45594000000E+02  0.51100000000E-03 0.  1.
    9900012    2    1    2    0    0  0.11783843081E+02  0.49863326505E+01 -0.13672185038E+02  0.72462319377E+02  0.70000975813E+02 0.  0.
         12    1    1    2    0    0 -0.11783843081E+02 -0.49863326505E+01  0.13672185038E+02  0.18725680623E+02  0.00000000000E+00 0. -1.
         11    1    3    3    0    0  0.30031616668E+02 -0.96217050258E+01 -0.32941410698E+01  0.31706885261E+02  0.51100000000E-03 0. -1.
        -11    1    3    3    0    0 -0.18391908687E+02 -0.49805428743E+01 -0.11158551669E+01  0.19086991525E+02  0.51100000000E-03 0.  1.
         12    1    3    3    0    0  0.14413510028E+00  0.19588580551E+02 -0.92621888014E+01  0.21668442591E+02  0.00000000000E+00 0. -1.
</event>
<event>
 7    1  0.1360399E-013  0.7246158E+02  0.7816164E-02  0.1226708E+00
        -11   -1    0    0    0    0  0.00000000000E+00  0.00000000000E+00  0.45593999997E+02  0.45594000000E+02  0.51100000000E-03 0.  1.
         11   -1    0    0    0    0 -0.00000000000E+00 -0.00000000000E+00 -0.45593999997E+02  0.45594000000E+02  0.51100000000E-03 0. -1.
    9900012    2    1    2    0    0  0.18249436984E+02  0.39388897879E+01  0.14567669100E+01  0.72461575546E+02  0.70000006842E+02 0.  0.
         12    1    1    2    0    0 -0.18249436984E+02 -0.39388897879E+01 -0.14567669100E+01  0.18726424454E+02  0.00000000000E+00 0. -1.
         11    1    3    3    0    0 -0.66493323568E+01 -0.64323868049E+01 -0.15373415047E+01  0.93783068814E+01  0.51100000000E-03 0. -1.
        -11    1    3    3    0    0  0.38956414861E+02 -0.20084403520E+01  0.13896890908E+02  0.41409656707E+02  0.51100000000E-03 0.  1.
        -12    1    3    3    0    0 -0.14057645520E+02  0.12379716945E+02 -0.10902782493E+02  0.21673611958E+02  0.00000000000E+00 0.  1.
</event>
<event>
 7    1  0.1360399E-013  0.7246159E+02  0.7816164E-02  0.1226708E+00
        -11   -1    0    0    0    0  0.00000000000E+00  0.00000000000E+00  0.45593999997E+02  0.45594000000E+02  0.51100000000E-03 0. -1.
         11   -1    0    0    0    0 -0.00000000000E+00 -0.00000000000E+00 -0.45593999997E+02  0.45594000000E+02  0.51100000000E-03 0.  1.
    9900012    2    1    2    0    0 -0.18333738366E+02  0.16580443555E+01  0.34355764341E+01  0.72461594606E+02  0.70000031670E+02 0.  0.
         12    1    1    2    0    0  0.18333738366E+02 -0.16580443555E+01 -0.34355764341E+01  0.18726405394E+02  0.00000000000E+00 0. -1.
         11    1    3    3    0    0 -0.34190922021E+01  0.17646151442E+02  0.14399384315E+02  0.23030829796E+02  0.51100000000E-03 0. -1.
        -11    1    3    3    0    0 -0.20010495141E+02  0.41354745840E+01 -0.18283685481E+02  0.27419249093E+02  0.51100000000E-03 0.  1.
        -12    1    3    3    0    0  0.50958489768E+01 -0.20123581671E+02  0.73198775998E+01  0.22011515716E+02  0.00000000000E+00 0.  1.
</event>
<event>
 7    1  0.1360399E-013  0.7246151E+02  0.7816164E-02  0.1226708E+00
        -11   -1    0    0    0    0  0.00000000000E+00  0.00000000000E+00  0.45593999997E+02  0.45594000000E+02  0.51100000000E-03 0.  1.
         11   -1    0    0    0    0 -0.00000000000E+00 -0.00000000000E+00 -0.45593999997E+02  0.45594000000E+02  0.51100000000E-03 0. -1.
    9900012    2    1    2    0    0 -0.14481349335E+02 -0.45054655162E+01  0.10985118003E+02  0.72461507653E+02  0.69999918398E+02 0.  0.
         12    1    1    2    0    0  0.14481349335E+02  0.45054655162E+01 -0.10985118003E+02  0.18726492347E+02  0.00000000000E+00 0. -1.
         11    1    3    3    0    0  0.21331259908E+01  0.27059045150E+02  0.11354553505E+02  0.29422237109E+02  0.51100000000E-03 0. -1.
        -11    1    3    3    0    0 -0.22908878569E+02 -0.24530732567E+02  0.42292850258E+00  0.33567133127E+02  0.51100000000E-03 0.  1.
         12    1    3    3    0    0  0.62944032428E+01 -0.70337780994E+01 -0.79236400518E+00  0.94721374173E+01  0.00000000000E+00 0. -1.
</event>
<event>
 7    1  0.1360399E-013  0.7246161E+02  0.7816164E-02  0.1226708E+00
        -11   -1    0    0    0    0  0.00000000000E+00  0.00000000000E+00  0.45593999997E+02  0.45594000000E+02  0.51100000000E-03 0. -1.
         11   -1    0    0    0    0 -0.00000000000E+00 -0.00000000000E+00 -0.45593999997E+02  0.45594000000E+02  0.51100000000E-03 0.  1.
    9900012    2    1    2    0    0  0.96108309976E+01  0.40331583604E+01 -0.15557740716E+02  0.72461608596E+02  0.70000049895E+02 0.  0.
         12    1    1    2    0    0 -0.96108309976E+01 -0.40331583604E+01  0.15557740716E+02  0.18726391404E+02  0.00000000000E+00 0. -1.
         11    1    3    3    0    0 -0.12114190767E+02  0.18373273545E+02  0.14588599278E+02  0.26403750261E+02  0.51100000000E-03 0. -1.
        -11    1    3    3    0    0  0.47817656683E+01  0.78251266114E+00 -0.21038222402E+02  0.21588988190E+02  0.51100000000E-03 0.  1.
         12    1    3    3    0    0  0.16943256096E+02 -0.15122627846E+02 -0.91081175921E+01  0.24468870145E+02  0.00000000000E+00 0. -1.
</event>
<event>
 7    1  0.1360399E-013  0.7246161E+02  0.7816164E-02  0.1226708E+00
        -11   -1    0    0    0    0  0.00000000000E+00  0.00000000000E+00  0.45593999997E+02  0.45594000000E+02  0.51100000000E-03 0.  1.
         11   -1    0    0    0    0 -0.00000000000E+00 -0.00000000000E+00 -0.45593999997E+02  0.45594000000E+02  0.51100000000E-03 0. -1.
    9900012    2    1    2    0    0 -0.14301375716E+02 -0.11915543883E+02 -0.20416299850E+01  0.72461607224E+02  0.70000048108E+02 0.  0.
         12    1    1    2    0    0  0.14301375716E+02  0.11915543883E+02  0.20416299850E+01  0.18726392776E+02  0.00000000000E+00 0. -1.
         11    1    3    3    0    0 -0.18433082737E+02 -0.18425880119E+02  0.13132320548E+02  0.29184746710E+02  0.51100000000E-03 0.  1.
        -11    1    3    3    0    0 -0.44197655634E+01 -0.13485150786E+02 -0.16160848829E+02  0.21507130317E+02  0.51100000000E-03 0. -1.
         12    1    3    3    0    0  0.85514725840E+01  0.19995487021E+02  0.98689829611E+00  0.21769730196E+02  0.00000000000E+00 0. -1.
</event>
<event>
 7    1  0.1360399E-013  0.7246143E+02  0.7816164E-02  0.1226708E+00
        -11   -1    0    0    0    0  0.00000000000E+00  0.00000000000E+00  0.45593999997E+02  0.45594000000E+02  0.51100000000E-03 0. -1.
         11   -1    0    0    0    0 -0.00000000000E+00 -0.00000000000E+00 -0.45593999997E+02  0.45594000000E+02  0.51100000000E-03 0.  1.
    9900012    2    1    2    0    0 -0.78647662027E+01 -0.10242999843E+02 -0.13561369943E+02  0.72461432030E+02  0.69999819884E+02 0.  0.
         12    1    1    2    0    0  0.78647662027E+01  0.10242999843E+02  0.13561369943E+02  0.18726567970E+02  0.00000000000E+00 0. -1.
         11    1    3    3    0    0  0.14452736633E+02  0.13996809522E+01 -0.17681455165E+02  0.22879566429E+02  0.51100000000E-03 0. -1.
        -11    1    3    3    0    0 -0.30498060480E+02  0.49095498504E+01  0.37223251929E+01  0.31114162014E+02  0.51100000000E-03 0.  1.
        -12    1    3    3    0    0  0.81805576442E+01 -0.16552230646E+02  0.39776002893E+00  0.18467703587E+02  0.00000000000E+00 0.  1.
</event>
<event>
 7    1  0.1360399E-013  0.7246157E+02  0.7816164E-02  0.1226708E+00
        -11   -1    0    0    0    0  0.00000000000E+00  0.00000000000E+00  0.45593999997E+02  0.45594000000E+02  0.51100000000E-03 0.  1.
         11   -1    0    0    0    0 -0.00000000000E+00 -0.00000000000E+00 -0.45593999997E+02  0.45594000000E+02  0.51100000000E-03 0. -1.
    9900012    2    1    2    0    0  0.27021311473E+01 -0.13426844472E+02  0.12770965026E+02  0.72461569136E+02  0.69999998490E+02 0.  0.
         12    1    1    2    0    0 -0.27021311473E+01  0.13426844472E+02 -0.12770965026E+02  0.18726430864E+02  0.00000000000E+00 0. -1.
         11    1    3    3    0    0 -0.10709036216E+02  0.13756790239E+02 -0.59310462861E+01  0.18414940800E+02  0.51100000000E-03 0. -1.
        -11    1    3    3    0    0  0.22189124679E+02 -0.14272595136E+02  0.25795654939E+02  0.36898238981E+02  0.51100000000E-03 0.  1.
        -12    1    3    3    0    0 -0.87779573149E+01 -0.12911039576E+02 -0.70936436262E+01  0.17148389354E+02  0.00000000000E+00 0.  1.
</event>
<event>
 8    1  0.1360399E-013  0.7246151E+02  0.7816164E-02  0.1226708E+00
        -11   -1    0    0    0    0  0.00000000000E+00  0.00000000000E+00  0.45593999997E+02  0.45594000000E+02  0.51100000000E-03 0.  1.
         11   -1    0    0    0    0 -0.00000000000E+00 -0.00000000000E+00 -0.45593999997E+02  0.45594000000E+02  0.51100000000E-03 0. -1.
    9900012    2    1    2    0    0  0.70570084088E+01 -0.55723154050E+01  0.16426487025E+02  0.72461506932E+02  0.69999917459E+02 0.  0.
         24    2    3    3    0    0  0.27297365894E+00 -0.18747147606E+02  0.70062920437E+01  0.54901911129E+02  0.51123396400E+02 0.  0.
         12    1    1    2    0    0 -0.70570084088E+01  0.55723154050E+01 -0.16426487025E+02  0.18726493068E+02  0.00000000000E+00 0. -1.
         11    1    3    3    0    0  0.67840347499E+01  0.13174832201E+02  0.94201949808E+01  0.17559595803E+02  0.51100000000E-03 0. -1.
        -11    1    4    4    0    0  0.23476596262E+02 -0.16986934474E+02 -0.38346006974E+01  0.29230304098E+02  0.51100000000E-03 0.  1.
         12    1    4    4    0    0 -0.23203622603E+02 -0.17602131319E+01  0.10840892741E+02  0.25671607032E+02  0.00000000000E+00 0. -1.
</event>
<event>
 7    1  0.1360399E-013  0.7246172E+02  0.7816164E-02  0.1226708E+00
        -11   -1    0    0    0    0  0.00000000000E+00  0.00000000000E+00  0.45593999997E+02  0.45594000000E+02  0.51100000000E-03 0.  1.
         11   -1    0    0    0    0 -0.00000000000E+00 -0.00000000000E+00 -0.45593999997E+02  0.45594000000E+02  0.51100000000E-03 0. -1.
    9900012    2    1    2    0    0 -0.31293948287E+01 -0.84407564532E+01  0.16420534944E+02  0.72461723025E+02  0.70000198960E+02 0.  0.
         12    1    1    2    0    0  0.31293948287E+01  0.84407564532E+01 -0.16420534944E+02  0.18726276975E+02  0.00000000000E+00 0. -1.
         11    1    3    3    0    0  0.20515315642E+02 -0.15804869455E+02  0.88913792541E+01  0.27381174184E+02  0.51100000000E-03 0. -1.
        -11    1    3    3    0    0 -0.17340010246E+02 -0.36208298316E+01  0.20403699960E+02  0.27020313401E+02  0.51100000000E-03 0.  1.
        -12    1    3    3    0    0 -0.63047002251E+01  0.10984942834E+02 -0.12874544269E+02  0.18060235440E+02  0.00000000000E+00 0.  1.
</event>
<event>
 7    1  0.1360399E-013  0.7246147E+02  0.7816164E-02  0.1226708E+00
        -11   -1    0    0    0    0  0.00000000000E+00  0.00000000000E+00  0.45593999997E+02  0.45594000000E+02  0.51100000000E-03 0.  1.
         11   -1    0    0    0    0 -0.00000000000E+00 -0.00000000000E+00 -0.45593999997E+02  0.45594000000E+02  0.51100000000E-03 0. -1.
    9900012    2    1    2    0    0 -0.59608843602E+00 -0.11442218589E+02  0.14812268270E+02  0.72461468581E+02  0.69999867500E+02 0.  0.
         12    1    1    2    0    0  0.59608843602E+00  0.11442218589E+02 -0.14812268270E+02  0.18726531419E+02  0.00000000000E+00 0. -1.
         11    1    3    3    0    0 -0.56191611070E+01 -0.34270685837E+01 -0.11586390541E+02  0.13325322385E+02  0.51100000000E-03 0. -1.
        -11    1    3    3    0    0 -0.36477267027E+01 -0.19339634305E+02  0.36630620866E+02  0.41582805947E+02  0.51100000000E-03 0.  1.
        -12    1    3    3    0    0  0.86707993736E+01  0.11324484300E+02 -0.10231962054E+02  0.17553340250E+02  0.00000000000E+00 0.  1.
</event>
<event>
 7    1  0.1360399E-013  0.7246157E+02  0.7816164E-02  0.1226708E+00
        -11   -1    0    0    0    0  0.00000000000E+00  0.00000000000E+00  0.45593999997E+02  0.45594000000E+02  0.51100000000E-03 0. -1.
         11   -1    0    0    0    0 -0.00000000000E+00 -0.00000000000E+00 -0.45593999997E+02  0.45594000000E+02  0.51100000000E-03 0.  1.
    9900012    2    1    2    0    0 -0.14237915882E+02 -0.96652525876E+01 -0.73853763927E+01  0.72461571064E+02  0.70000001002E+02 0.  0.
         12    1    1    2    0    0  0.14237915882E+02  0.96652525876E+01  0.73853763927E+01  0.18726428936E+02  0.00000000000E+00 0. -1.
         11    1    3    3    0    0 -0.16765018266E+02  0.15703069754E+02  0.68989775414E+01  0.23984330897E+02  0.51100000000E-03 0. -1.
        -11    1    3    3    0    0  0.25021345994E+00 -0.35379811777E+02 -0.74878280475E+01  0.36164364467E+02  0.51100000000E-03 0.  1.
         12    1    3    3    0    0  0.22768889245E+01  0.10011489435E+02 -0.67965258865E+01  0.12312875700E+02  0.00000000000E+00 0. -1.
</event>
<event>
 7    1  0.1360399E-013  0.7246182E+02  0.7816164E-02  0.1226707E+00
        -11   -1    0    0    0    0  0.00000000000E+00  0.00000000000E+00  0.45593999997E+02  0.45594000000E+02  0.51100000000E-03 0.  1.
         11   -1    0    0    0    0 -0.00000000000E+00 -0.00000000000E+00 -0.45593999997E+02  0.45594000000E+02  0.51100000000E-03 0. -1.
    9900012    2    1    2    0    0 -0.10761558086E+02  0.14959914456E+02  0.33256083627E+01  0.72461819291E+02  0.70000324363E+02 0.  0.
         12    1    1    2    0    0  0.10761558086E+02 -0.14959914456E+02 -0.33256083627E+01  0.18726180709E+02  0.00000000000E+00 0. -1.
         11    1    3    3    0    0 -0.41258440457E+01  0.16536469040E+02 -0.24951689802E+02  0.30216952554E+02  0.51100000000E-03 0. -1.
        -11    1    3    3    0    0 -0.65620186415E+01  0.13496978663E+02  0.20134815266E+02  0.25112532882E+02  0.51100000000E-03 0.  1.
         12    1    3    3    0    0 -0.73695398958E-01 -0.15073533247E+02  0.81424828990E+01  0.17132333855E+02  0.00000000000E+00 0. -1.
</event>
<event>
 7    1  0.1360399E-013  0.7246094E+02  0.7816164E-02  0.1226710E+00
        -11   -1    0    0    0    0  0.00000000000E+00  0.00000000000E+00  0.45593999997E+02  0.45594000000E+02  0.51100000000E-03 0. -1.
         11   -1    0    0    0    0 -0.00000000000E+00 -0.00000000000E+00 -0.45593999997E+02  0.45594000000E+02  0.51100000000E-03 0.  1.
    9900012    2    1    2    0    0  0.43423874646E+01  0.18169517661E+02 -0.13095398736E+01  0.72460944823E+02  0.69999185202E+02 0.  0.
         12    1    1    2    0    0 -0.43423874646E+01 -0.18169517661E+02  0.13095398736E+01  0.18727055177E+02  0.00000000000E+00 0. -1.
         11    1    3    3    0    0  0.10127708422E+02 -0.20064848756E+02  0.14699781508E+02  0.26856139151E+02  0.51100000000E-03 0. -1.
        -11    1    3    3    0    0 -0.32915447816E+01  0.19919512304E+02 -0.17955335573E+02  0.27018795555E+02  0.51100000000E-03 0.  1.
         12    1    3    3    0    0 -0.24937761761E+01  0.18314854113E+02  0.19460141917E+01  0.18586010116E+02  0.00000000000E+00 0. -1.
</event>
<event>
 7    1  0.1360399E-013  0.7246208E+02  0.7816164E-02  0.1226707E+00
        -11   -1    0    0    0    0  0.00000000000E+00  0.00000000000E+00  0.45593999997E+02  0.45594000000E+02  0.51100000000E-03 0.  1.
         11   -1    0    0    0    0 -0.00000000000E+00 -0.00000000000E+00 -0.45593999997E+02  0.45594000000E+02  0.51100000000E-03 0. -1.
    9900012    2    1    2    0    0  0.68749220585E+00 -0.51162629992E+01  0.18000312433E+02  0.72462081056E+02  0.70000665358E+02 0.  0.
         12    1    1    2    0    0 -0.68749220585E+00  0.51162629992E+01 -0.18000312433E+02  0.18725918944E+02  0.00000000000E+00 0. -1.
         11    1    3    3    0    0  0.35350010780E+01  0.26713842049E+01 -0.10449105256E+02  0.11349728063E+02  0.51100000000E-03 0. -1.
        -11    1    3    3    0    0  0.13769150722E+02 -0.25953078024E+02  0.13738672260E+02  0.32433052373E+02  0.51100000000E-03 0.  1.
        -12    1    3    3    0    0 -0.16616659594E+02  0.18165430820E+02  0.14710745429E+02  0.28679300620E+02  0.00000000000E+00 0.  1.
</event>
<event>
 7    1  0.1360399E-013  0.7246155E+02  0.7816164E-02  0.1226708E+00
        -11   -1    0    0    0    0  0.00000000000E+00  0.00000000000E+00  0.45593999997E+02  0.45594000000E+02  0.51100000000E-03 0.  1.
         11   -1    0    0    0    0 -0.00000000000E+00 -0.00000000000E+00 -0.45593999997E+02  0.45594000000E+02  0.51100000000E-03 0. -1.
    9900012    2    1    2    0    0 -0.88691479533E+01 -0.92206655882E+01  0.13674707907E+02  0.72461545567E+02  0.69999967788E+02 0.  0.
         12    1    1    2    0    0  0.88691479533E+01  0.92206655882E+01 -0.13674707907E+02  0.18726454433E+02  0.00000000000E+00 0. -1.
         11    1    3    3    0    0  0.17788605394E+02 -0.11460141037E+02  0.14347292985E+02  0.25565878250E+02  0.51100000000E-03 0.  1.
        -11    1    3    3    0    0 -0.32948303203E+02 -0.29426676273E+01  0.89661375918E+01  0.34273044806E+02  0.51100000000E-03 0. -1.
        -12    1    3    3    0    0  0.62905498558E+01  0.51821430763E+01 -0.96387226697E+01  0.12622622511E+02  0.00000000000E+00 0.  1.
</event>
<event>
 7    1  0.1360399E-013  0.7246153E+02  0.7816164E-02  0.1226708E+00
        -11   -1    0    0    0    0  0.00000000000E+00  0.00000000000E+00  0.45593999997E+02  0.45594000000E+02  0.51100000000E-03 0.  1.
         11   -1    0    0    0    0 -0.00000000000E+00 -0.00000000000E+00 -0.45593999997E+02  0.45594000000E+02  0.51100000000E-03 0. -1.
    9900012    2    1    2    0    0 -0.49404496181E+01 -0.13942485573E+02  0.11483893456E+02  0.72461527954E+02  0.69999944844E+02 0.  0.
         12    1    1    2    0    0  0.49404496181E+01  0.13942485573E+02 -0.11483893456E+02  0.18726472046E+02  0.00000000000E+00 0. -1.
         11    1    3    3    0    0  0.31534783672E+01  0.12763859056E+02 -0.18688067036E+02  0.22849603358E+02  0.51100000000E-03 0. -1.
        -11    1    3    3    0    0 -0.58095851952E+01 -0.22952509620E+01  0.23338081978E+02  0.24159584595E+02  0.51100000000E-03 0.  1.
         12    1    3    3    0    0 -0.22843427901E+01 -0.24411093667E+02  0.68338785143E+01  0.25452340001E+02  0.00000000000E+00 0. -1.
</event>
<event>
 7    1  0.1360399E-013  0.7246163E+02  0.7816164E-02  0.1226708E+00
        -11   -1    0    0    0    0  0.00000000000E+00  0.00000000000E+00  0.45593999997E+02  0.45594000000E+02  0.51100000000E-03 0.  1.
         11   -1    0    0    0    0 -0.00000000000E+00 -0.00000000000E+00 -0.45593999997E+02  0.45594000000E+02  0.51100000000E-03 0. -1.
    9900012    2    1    2    0    0  0.79974642320E+01  0.13878540317E+02  0.97007061709E+01  0.72461627802E+02  0.70000074915E+02 0.  0.
         12    1    1    2    0    0 -0.79974642320E+01 -0.13878540317E+02 -0.97007061709E+01  0.18726372198E+02  0.00000000000E+00 0. -1.
         11    1    3    3    0    0 -0.21245861592E+02  0.13696007016E+02 -0.79363192647E+01  0.26494384437E+02  0.51100000000E-03 0. -1.
        -11    1    3    3    0    0  0.19462071758E+02 -0.14113105651E+02  0.50762567648E+01  0.24570721830E+02  0.51100000000E-03 0.  1.
        -12    1    3    3    0    0  0.97812540661E+01  0.14295638953E+02  0.12560768671E+02  0.21396521535E+02  0.00000000000E+00 0.  1.
</event>
<event>
 7    1  0.1360399E-013  0.7246156E+02  0.7816164E-02  0.1226708E+00
        -11   -1    0    0    0    0  0.00000000000E+00  0.00000000000E+00  0.45593999997E+02  0.45594000000E+02  0.51100000000E-03 0.  1.
         11   -1    0    0    0    0 -0.00000000000E+00 -0.00000000000E+00 -0.45593999997E+02  0.45594000000E+02  0.51100000000E-03 0. -1.
    9900012    2    1    2    0    0 -0.22336979447E+01 -0.18590211617E+02 -0.30715461709E+00  0.72461555639E+02  0.69999980908E+02 0.  0.
         12    1    1    2    0    0  0.22336979447E+01  0.18590211617E+02  0.30715461709E+00  0.18726444361E+02  0.00000000000E+00 0. -1.
         11    1    3    3    0    0  0.20346533903E+02 -0.62557740944E+01 -0.23062330101E+02  0.31384506071E+02  0.51100000000E-03 0. -1.
        -11    1    3    3    0    0 -0.10745403095E+02  0.32892454963E+01  0.17478129016E+02  0.20779023504E+02  0.51100000000E-03 0.  1.
         12    1    3    3    0    0 -0.11834828753E+02 -0.15623683018E+02  0.52770464677E+01  0.20298026064E+02  0.00000000000E+00 0. -1.
</event>
<event>
 7    1  0.1360399E-013  0.7246165E+02  0.7816164E-02  0.1226708E+00
        -11   -1    0    0    0    0  0.00000000000E+00  0.00000000000E+00  0.45593999997E+02  0.45594000000E+02  0.51100000000E-03 0. -1.
         11   -1    0    0    0    0 -0.00000000000E+00 -0.00000000000E+00 -0.45593999997E+02  0.45594000000E+02  0.51100000000E-03 0.  1.
    9900012    2    1    2    0    0  0.11238984514E+02  0.12882214237E+02  0.76426299125E+01  0.72461654694E+02  0.70000109946E+02 0.  0.
         12    1    1    2    0    0 -0.11238984514E+02 -0.12882214237E+02 -0.76426299125E+01  0.18726345306E+02  0.00000000000E+00 0. -1.
         11    1    3    3    0    0  0.18830472315E+02  0.36050819058E+01  0.23700917639E+02  0.30484697807E+02  0.51100000000E-03 0. -1.
        -11    1    3    3    0    0 -0.20911393092E+02  0.36955650381E+01 -0.17426146307E+02  0.27470240942E+02  0.51100000000E-03 0.  1.
         12    1    3    3    0    0  0.13319905291E+02  0.55815672936E+01  0.13678585803E+01  0.14506715945E+02  0.00000000000E+00 0. -1.
</event>
<event>
 7    1  0.1360399E-013  0.7246156E+02  0.7816164E-02  0.1226708E+00
        -11   -1    0    0    0    0  0.00000000000E+00  0.00000000000E+00  0.45593999997E+02  0.45594000000E+02  0.51100000000E-03 0.  1.
         11   -1    0    0    0    0 -0.00000000000E+00 -0.00000000000E+00 -0.45593999997E+02  0.45594000000E+02  0.51100000000E-03 0. -1.
    9900012    2    1    2    0    0  0.68701341936E+01  0.76263278156E+01  0.15662689799E+02  0.72461562230E+02  0.69999989495E+02 0.  0.
         12    1    1    2    0    0 -0.68701341936E+01 -0.76263278156E+01 -0.15662689799E+02  0.18726437770E+02  0.00000000000E+00 0. -1.
         11    1    3    3    0    0  0.30518080775E+02 -0.21029573412E+01  0.15683581034E+02  0.34376596662E+02  0.51100000000E-03 0.  1.
        -11    1    3    3    0    0 -0.26557359173E+02  0.11255795437E+02  0.75636409573E+01  0.29819371589E+02  0.51100000000E-03 0. -1.
         12    1    3    3    0    0  0.29094125908E+01 -0.15265102807E+01 -0.75845321918E+01  0.82655939793E+01  0.00000000000E+00 0. -1.
</event>
<event>
 7    1  0.1360399E-013  0.7246160E+02  0.7816164E-02  0.1226708E+00
        -11   -1    0    0    0    0  0.00000000000E+00  0.00000000000E+00  0.45593999997E+02  0.45594000000E+02  0.51100000000E-03 0.  1.
         11   -1    0    0    0    0 -0.00000000000E+00 -0.00000000000E+00 -0.45593999997E+02  0.45594000000E+02  0.51100000000E-03 0. -1.
    9900012    2    1    2    0    0  0.27953273313E+01 -0.18408936801E+02  0.19937909577E+01  0.72461601216E+02  0.70000040281E+02 0.  0.
         12    1    1    2    0    0 -0.27953273313E+01  0.18408936801E+02 -0.19937909577E+01  0.18726398784E+02  0.00000000000E+00 0. -1.
         11    1    3    3    0    0 -0.58806964603E+01 -0.18078866825E+02 -0.28241655056E+01  0.19219883652E+02  0.51100000000E-03 0. -1.
        -11    1    3    3    0    0 -0.11375046773E+02  0.10802665226E+02  0.20237642406E+02  0.25605691467E+02  0.51100000000E-03 0.  1.
        -12    1    3    3    0    0  0.20051070564E+02 -0.11132735203E+02 -0.15419685943E+02  0.27636026097E+02  0.00000000000E+00 0.  1.
</event>
<event>
 7    1  0.1360399E-013  0.7246158E+02  0.7816164E-02  0.1226708E+00
        -11   -1    0    0    0    0  0.00000000000E+00  0.00000000000E+00  0.45593999997E+02  0.45594000000E+02  0.51100000000E-03 0. -1.
         11   -1    0    0    0    0 -0.00000000000E+00 -0.00000000000E+00 -0.45593999997E+02  0.45594000000E+02  0.51100000000E-03 0.  1.
    9900012    2    1    2    0    0  0.13994942415E+02 -0.30559307242E+01 -0.12061576506E+02  0.72461581400E+02  0.70000014467E+02 0.  0.
         12    1    1    2    0    0 -0.13994942415E+02  0.30559307242E+01  0.12061576506E+02  0.18726418600E+02  0.00000000000E+00 0. -1.
         11    1    3    3    0    0  0.13700535657E+01 -0.13458585834E+02  0.10856728893E+02  0.17345868152E+02  0.51100000000E-03 0. -1.
        -11    1    3    3    0    0 -0.17698438908E+02  0.84150439735E+00 -0.12398671035E+02  0.21625677172E+02  0.51100000000E-03 0.  1.
         12    1    3    3    0    0  0.30323327757E+02  0.95611507126E+01 -0.10519634363E+02  0.33490036076E+02  0.00000000000E+00 0. -1.
</event>
<event>
 7    1  0.1360399E-013  0.7246150E+02  0.7816164E-02  0.1226708E+00
        -11   -1    0    0    0    0  0.00000000000E+00  0.00000000000E+00  0.45593999997E+02  0.45594000000E+02  0.51100000000E-03 0.  1.
         11   -1    0    0    0    0 -0.00000000000E+00 -0.00000000000E+00 -0.45593999997E+02  0.45594000000E+02  0.51100000000E-03 0. -1.
    9900012    2    1    2    0    0  0.13169037389E+02  0.98439263299E+01  0.89641068737E+01  0.72461504242E+02  0.69999913955E+02 0.  0.
         12    1    1    2    0    0 -0.13169037389E+02 -0.98439263299E+01 -0.89641068737E+01  0.18726495758E+02  0.00000000000E+00 0. -1.
         11    1    3    3    0    0 -0.83595058266E+01  0.20067403514E+02  0.31495609116E+02  0.38269510257E+02  0.51100000000E-03 0.  1.
        -11    1    3    3    0    0  0.14618577567E+02 -0.11599236584E+02 -0.15900741143E+02  0.24516905771E+02  0.51100000000E-03 0. -1.
        -12    1    3    3    0    0  0.69099656481E+01  0.13757594000E+01 -0.66307610995E+01  0.96750882137E+01  0.00000000000E+00 0.  1.
</event>
<event>
 7    1  0.1360399E-013  0.7246126E+02  0.7816164E-02  0.1226709E+00
        -11   -1    0    0    0    0  0.00000000000E+00  0.00000000000E+00  0.45593999997E+02  0.45594000000E+02  0.51100000000E-03 0. -1.
         11   -1    0    0    0    0 -0.00000000000E+00 -0.00000000000E+00 -0.45593999997E+02  0.45594000000E+02  0.51100000000E-03 0.  1.
    9900012    2    1    2    0    0  0.17781199454E+02 -0.57389459345E+01 -0.12586646764E+01  0.72461259995E+02  0.69999595776E+02 0.  0.
         12    1    1    2    0    0 -0.17781199454E+02  0.57389459345E+01  0.12586646764E+01  0.18726740005E+02  0.00000000000E+00 0. -1.
         11    1    3    3    0    0  0.16703005568E+01 -0.30942474408E+02  0.10658924457E+02  0.32769487291E+02  0.51100000000E-03 0. -1.
        -11    1    3    3    0    0  0.18053265480E+02  0.24308223261E+02 -0.28924959308E+01  0.30416716548E+02  0.51100000000E-03 0.  1.
        -12    1    3    3    0    0 -0.19423665830E+01  0.89530521232E+00 -0.90250932031E+01  0.92750561556E+01  0.00000000000E+00 0.  1.
</event>
<event>
 7    1  0.1360399E-013  0.7246142E+02  0.7816164E-02  0.1226708E+00
        -11   -1    0    0    0    0  0.00000000000E+00  0.00000000000E+00  0.45593999997E+02  0.45594000000E+02  0.51100000000E-03 0. -1.
         11   -1    0    0    0    0 -0.00000000000E+00 -0.00000000000E+00 -0.45593999997E+02  0.45594000000E+02  0.51100000000E-03 0.  1.
    9900012    2    1    2    0    0  0.14162123311E+02  0.82816660221E+01 -0.90295742657E+01  0.72461416217E+02  0.69999799285E+02 0.  0.
         12    1    1    2    0    0 -0.14162123311E+02 -0.82816660221E+01  0.90295742657E+01  0.18726583783E+02  0.00000000000E+00 0. -1.
         11    1    3    3    0    0  0.37852654535E+02  0.10936121465E+01 -0.35870384313E+01  0.38037958513E+02  0.51100000000E-03 0. -1.
        -11    1    3    3    0    0 -0.10188216312E+02  0.14726691577E+02 -0.61741507069E+01  0.18941893613E+02  0.51100000000E-03 0.  1.
         12    1    3    3    0    0 -0.13502314912E+02 -0.75386377018E+01  0.73161487245E+00  0.15481564091E+02  0.00000000000E+00 0. -1.
</event>
<event>
 7    1  0.1360399E-013  0.7246139E+02  0.7816164E-02  0.1226708E+00
        -11   -1    0    0    0    0  0.00000000000E+00  0.00000000000E+00  0.45593999997E+02  0.45594000000E+02  0.51100000000E-03 0. -1.
         11   -1    0    0    0    0 -0.00000000000E+00 -0.00000000000E+00 -0.45593999997E+02  0.45594000000E+02  0.51100000000E-03 0.  1.
    9900012    2    1    2    0    0 -0.11357898240E+02 -0.13224056251E+02 -0.68416545038E+01  0.72461394528E+02  0.69999771031E+02 0.  0.
         12    1    1    2    0    0  0.11357898240E+02  0.13224056251E+02  0.68416545038E+01  0.18726605472E+02  0.00000000000E+00 0. -1.
         11    1    3    3    0    0  0.13961503119E+02 -0.16288476361E+02 -0.58224459745E+01  0.22229235455E+02  0.51100000000E-03 0. -1.
        -11    1    3    3    0    0 -0.29802777846E+02  0.14864819250E+02 -0.99618630048E+01  0.34762150875E+02  0.51100000000E-03 0.  1.
        -12    1    3    3    0    0  0.44833764868E+01 -0.11800399140E+02  0.89426544755E+01  0.15470008198E+02  0.00000000000E+00 0.  1.
</event>
<event>
 7    1  0.1360399E-013  0.7246160E+02  0.7816164E-02  0.1226708E+00
        -11   -1    0    0    0    0  0.00000000000E+00  0.00000000000E+00  0.45593999997E+02  0.45594000000E+02  0.51100000000E-03 0.  1.
         11   -1    0    0    0    0 -0.00000000000E+00 -0.00000000000E+00 -0.45593999997E+02  0.45594000000E+02  0.51100000000E-03 0. -1.
    9900012    2    1    2    0    0  0.12297071987E+02 -0.12026887340E+02  0.74036431821E+01  0.72461603365E+02  0.70000043081E+02 0.  0.
         12    1    1    2    0    0 -0.12297071987E+02  0.12026887340E+02 -0.74036431821E+01  0.18726396635E+02  0.00000000000E+00 0. -1.
         11    1    3    3    0    0 -0.62760984033E+01 -0.15499698874E+02 -0.18588293705E+02  0.25003094599E+02  0.51100000000E-03 0. -1.
        -11    1    3    3    0    0  0.27420930864E+02 -0.19264264085E+01  0.11872162594E+02  0.29942725545E+02  0.51100000000E-03 0.  1.
        -12    1    3    3    0    0 -0.88477604734E+01  0.53992379426E+01  0.14119774293E+02  0.17515783221E+02  0.00000000000E+00 0.  1.
</event>
<event>
 7    1  0.1360399E-013  0.7246156E+02  0.7816164E-02  0.1226708E+00
        -11   -1    0    0    0    0  0.00000000000E+00  0.00000000000E+00  0.45593999997E+02  0.45594000000E+02  0.51100000000E-03 0.  1.
         11   -1    0    0    0    0 -0.00000000000E+00 -0.00000000000E+00 -0.45593999997E+02  0.45594000000E+02  0.51100000000E-03 0. -1.
    9900012    2    1    2    0    0 -0.12137724627E+02  0.14260189433E+02 -0.46000458071E-01  0.72461562062E+02  0.69999989276E+02 0.  0.
         12    1    1    2    0    0  0.12137724627E+02 -0.14260189433E+02  0.46000458071E-01  0.18726437938E+02  0.00000000000E+00 0. -1.
         11    1    3    3    0    0  0.68964016142E+00  0.18606321769E+02 -0.62638400580E+01  0.19644503197E+02  0.51100000000E-03 0. -1.
        -11    1    3    3    0    0 -0.77405979013E+01 -0.15300523775E+02 -0.18550096547E+02  0.25261214655E+02  0.51100000000E-03 0.  1.
        -12    1    3    3    0    0 -0.50867668874E+01  0.10954391439E+02  0.24767936147E+02  0.27555844210E+02  0.00000000000E+00 0.  1.
</event>
<event>
 7    1  0.1360399E-013  0.7246165E+02  0.7816164E-02  0.1226708E+00
        -11   -1    0    0    0    0  0.00000000000E+00  0.00000000000E+00  0.45593999997E+02  0.45594000000E+02  0.51100000000E-03 0. -1.
         11   -1    0    0    0    0 -0.00000000000E+00 -0.00000000000E+00 -0.45593999997E+02  0.45594000000E+02  0.51100000000E-03 0.  1.
    9900012    2    1    2    0    0  0.73197728485E+00  0.17647171319E+02 -0.62223516178E+01  0.72461652092E+02  0.70000106557E+02 0.  0.
         12    1    1    2    0    0 -0.73197728485E+00 -0.17647171319E+02  0.62223516178E+01  0.18726347908E+02  0.00000000000E+00 0. -1.
         11    1    3    3    0    0  0.13908881442E+02  0.14529112197E+02 -0.13864563672E+02  0.24429044400E+02  0.51100000000E-03 0.  1.
        -11    1    3    3    0    0 -0.20132936802E+02 -0.12566274378E+02  0.16322685334E+02  0.28804104791E+02  0.51100000000E-03 0. -1.
         12    1    3    3    0    0  0.69560326443E+01  0.15684333500E+02 -0.86804732799E+01  0.19228502902E+02  0.00000000000E+00 0. -1.
</event>
<event>
 7    1  0.1360399E-013  0.7246158E+02  0.7816164E-02  0.1226708E+00
        -11   -1    0    0    0    0  0.00000000000E+00  0.00000000000E+00  0.45593999997E+02  0.45594000000E+02  0.51100000000E-03 0.  1.
         11   -1    0    0    0    0 -0.00000000000E+00 -0.00000000000E+00 -0.45593999997E+02  0.45594000000E+02  0.51100000000E-03 0. -1.
    9900012    2    1    2    0    0  0.12873196681E+01 -0.28973294424E+01  0.18456084072E+02  0.72461581519E+02  0.70000014623E+02 0.  0.
         12    1    1    2    0    0 -0.12873196681E+01  0.28973294424E+01 -0.18456084072E+02  0.18726418481E+02  0.00000000000E+00 0. -1.
         11    1    3    3    0    0 -0.17386338498E+02 -0.29915119433E+02  0.35755203762E+01  0.34784816850E+02  0.51100000000E-03 0. -1.
        -11    1    3    3    0    0  0.14523186141E+02  0.11474895804E+02  0.85464648439E+01  0.20387207533E+02  0.51100000000E-03 0.  1.
         12    1    3    3    0    0  0.41504720247E+01  0.15542894187E+02  0.63340988521E+01  0.17289557137E+02  0.00000000000E+00 0. -1.
</event>
<event>
 7    1  0.1360399E-013  0.7246155E+02  0.7816164E-02  0.1226708E+00
        -11   -1    0    0    0    0  0.00000000000E+00  0.00000000000E+00  0.45593999997E+02  0.45594000000E+02  0.51100000000E-03 0.  1.
         11   -1    0    0    0    0 -0.00000000000E+00 -0.00000000000E+00 -0.45593999997E+02  0.45594000000E+02  0.51100000000E-03 0. -1.
    9900012    2    1    2    0    0  0.28039045868E+01  0.18459198612E+02 -0.14408976863E+01  0.72461545972E+02  0.69999968316E+02 0.  0.
         12    1    1    2    0    0 -0.28039045868E+01 -0.18459198612E+02  0.14408976863E+01  0.18726454028E+02  0.00000000000E+00 0. -1.
         11    1    3    3    0    0 -0.49249284757E+01 -0.14377788313E+01 -0.22394996981E+01  0.55979896049E+01  0.51100000000E-03 0. -1.
        -11    1    3    3    0    0  0.84875599319E+01 -0.99160342973E+01  0.25167463260E+02  0.28350795702E+02  0.51100000000E-03 0.  1.
        -12    1    3    3    0    0 -0.75872686937E+00  0.29813011740E+02 -0.24368861248E+02  0.38512760665E+02  0.00000000000E+00 0.  1.
</event>
<event>
 7    1  0.1360399E-013  0.7246148E+02  0.7816164E-02  0.1226708E+00
        -11   -1    0    0    0    0  0.00000000000E+00  0.00000000000E+00  0.45593999997E+02  0.45594000000E+02  0.51100000000E-03 0. -1.
         11   -1    0    0    0    0 -0.00000000000E+00 -0.00000000000E+00 -0.45593999997E+02  0.45594000000E+02  0.51100000000E-03 0.  1.
    9900012    2    1    2    0    0 -0.56991438410E+01 -0.16733893684E+02 -0.61789387871E+01  0.72461475419E+02  0.69999876407E+02 0.  0.
         12    1    1    2    0    0  0.56991438410E+01  0.16733893684E+02  0.61789387871E+01  0.18726524581E+02  0.00000000000E+00 0. -1.
         11    1    3    3    0    0  0.13285848497E+02  0.18236207880E+02  0.25108440767E+01  0.22701924729E+02  0.51100000000E-03 0. -1.
        -11    1    3    3    0    0 -0.25529772737E+02 -0.19418741637E+02 -0.46597205362E+01  0.32412494790E+02  0.51100000000E-03 0.  1.
         12    1    3    3    0    0  0.65447803985E+01 -0.15551359927E+02 -0.40300623277E+01  0.17347055900E+02  0.00000000000E+00 0. -1.
</event>
<event>
 7    1  0.1360399E-013  0.7246153E+02  0.7816164E-02  0.1226708E+00
        -11   -1    0    0    0    0  0.00000000000E+00  0.00000000000E+00  0.45593999997E+02  0.45594000000E+02  0.51100000000E-03 0.  1.
         11   -1    0    0    0    0 -0.00000000000E+00 -0.00000000000E+00 -0.45593999997E+02  0.45594000000E+02  0.51100000000E-03 0. -1.
    9900012    2    1    2    0    0 -0.24257003719E+01 -0.10238579180E+02  0.15490907459E+02  0.72461528367E+02  0.69999945382E+02 0.  0.
         12    1    1    2    0    0  0.24257003719E+01  0.10238579180E+02 -0.15490907459E+02  0.18726471633E+02  0.00000000000E+00 0. -1.
         11    1    3    3    0    0 -0.16546342231E+02 -0.10722300860E+02  0.19428858344E+01  0.19812218013E+02  0.51100000000E-03 0. -1.
        -11    1    3    3    0    0  0.23899836842E+02 -0.13164138253E+02 -0.48813208765E+01  0.27718658531E+02  0.51100000000E-03 0.  1.
        -12    1    3    3    0    0 -0.97791949827E+01  0.13647859934E+02  0.18429342501E+02  0.24930651823E+02  0.00000000000E+00 0.  1.
</event>
<event>
 7    1  0.1360399E-013  0.7246151E+02  0.7816164E-02  0.1226708E+00
        -11   -1    0    0    0    0  0.00000000000E+00  0.00000000000E+00  0.45593999997E+02  0.45594000000E+02  0.51100000000E-03 0. -1.
         11   -1    0    0    0    0 -0.00000000000E+00 -0.00000000000E+00 -0.45593999997E+02  0.45594000000E+02  0.51100000000E-03 0.  1.
    9900012    2    1    2    0    0 -0.37214754538E+01 -0.13639689589E+02 -0.12279701910E+02  0.72461505650E+02  0.69999915788E+02 0.  0.
         12    1    1    2    0    0  0.37214754538E+01  0.13639689589E+02  0.12279701910E+02  0.18726494350E+02  0.00000000000E+00 0. -1.
         11    1    3    3    0    0  0.14614364456E+01 -0.19762609152E+02 -0.57810727727E+01  0.20642609323E+02  0.51100000000E-03 0. -1.
        -11    1    3    3    0    0  0.17899409139E+02  0.14362182887E+02 -0.13115674923E+02  0.26432594912E+02  0.51100000000E-03 0.  1.
        -12    1    3    3    0    0 -0.23082321038E+02 -0.82392633242E+01  0.66170457855E+01  0.25386301416E+02  0.00000000000E+00 0.  1.
</event>
<event>
 7    1  0.1360399E-013  0.7246159E+02  0.7816164E-02  0.1226708E+00
        -11   -1    0    0    0    0  0.00000000000E+00  0.00000000000E+00  0.45593999997E+02  0.45594000000E+02  0.51100000000E-03 0. -1.
         11   -1    0    0    0    0 -0.00000000000E+00 -0.00000000000E+00 -0.45593999997E+02  0.45594000000E+02  0.51100000000E-03 0.  1.
    9900012    2    1    2    0    0 -0.71197141283E+01 -0.17551468776E+01 -0.17231010133E+02  0.72461586034E+02  0.70000020504E+02 0.  0.
         12    1    1    2    0    0  0.71197141283E+01  0.17551468776E+01  0.17231010133E+02  0.18726413966E+02  0.00000000000E+00 0. -1.
         11    1    3    3    0    0 -0.12075551163E+02 -0.12919305920E+02  0.15960237897E+02  0.23821347470E+02  0.51100000000E-03 0. -1.
        -11    1    3    3    0    0  0.15452163750E+02  0.66121370719E+01 -0.39854418135E+01  0.17273490322E+02  0.51100000000E-03 0.  1.
         12    1    3    3    0    0 -0.10496326715E+02  0.45520219700E+01 -0.29205806216E+02  0.31366748242E+02  0.00000000000E+00 0. -1.
</event>
<event>
 7    1  0.1360399E-013  0.7246159E+02  0.7816164E-02  0.1226708E+00
        -11   -1    0    0    0    0  0.00000000000E+00  0.00000000000E+00  0.45593999997E+02  0.45594000000E+02  0.51100000000E-03 0. -1.
         11   -1    0    0    0    0 -0.00000000000E+00 -0.00000000000E+00 -0.45593999997E+02  0.45594000000E+02  0.51100000000E-03 0.  1.
    9900012    2    1    2    0    0 -0.13417452427E+02  0.11948938820E+02  0.52795191018E+01  0.72461588424E+02  0.70000023617E+02 0.  0.
         12    1    1    2    0    0  0.13417452427E+02 -0.11948938820E+02 -0.52795191018E+01  0.18726411576E+02  0.00000000000E+00 0. -1.
         11    1    3    3    0    0 -0.33509514505E+02  0.11171525428E+02  0.13041666610E+02  0.37653361217E+02  0.51100000000E-03 0. -1.
        -11    1    3    3    0    0  0.26776063883E+02 -0.12578208369E+01 -0.74166309302E+01  0.27812697190E+02  0.51100000000E-03 0.  1.
        -12    1    3    3    0    0 -0.66840018062E+01  0.20352342293E+01 -0.34551657800E+00  0.69955300171E+01  0.00000000000E+00 0.  1.
</event>
<event>
 7    1  0.1360399E-013  0.7246156E+02  0.7816164E-02  0.1226708E+00
        -11   -1    0    0    0    0  0.00000000000E+00  0.00000000000E+00  0.45593999997E+02  0.45594000000E+02  0.51100000000E-03 0.  1.
         11   -1    0    0    0    0 -0.00000000000E+00 -0.00000000000E+00 -0.45593999997E+02  0.45594000000E+02  0.51100000000E-03 0. -1.
    9900012    2    1    2    0    0  0.94824478231E+00 -0.11740968531E+01  0.18665523684E+02  0.72461562913E+02  0.69999990384E+02 0.  0.
         12    1    1    2    0    0 -0.94824478231E+00  0.11740968531E+01 -0.18665523684E+02  0.18726437087E+02  0.00000000000E+00 0. -1.
         11    1    3    3    0    0 -0.29287327661E+01 -0.63895622920E+01  0.46942179002E+01  0.84521987586E+01  0.51100000000E-03 0. -1.
        -11    1    3    3    0    0 -0.35152689189E+01  0.29467061916E+02 -0.76972905108E+01  0.30658002789E+02  0.51100000000E-03 0.  1.
        -12    1    3    3    0    0  0.73922464673E+01 -0.24251596478E+02  0.21668596294E+02  0.33351361365E+02  0.00000000000E+00 0.  1.
</event>
<event>
 7    1  0.1360399E-013  0.7246173E+02  0.7816164E-02  0.1226708E+00
        -11   -1    0    0    0    0  0.00000000000E+00  0.00000000000E+00  0.45593999997E+02  0.45594000000E+02  0.51100000000E-03 0. -1.
         11   -1    0    0    0    0 -0.00000000000E+00 -0.00000000000E+00 -0.45593999997E+02  0.45594000000E+02  0.51100000000E-03 0.  1.
    9900012    2    1    2    0    0  0.60354535912E+01  0.17717853242E+02  0.56926738330E+00  0.72461732649E+02  0.70000211497E+02 0.  0.
         12    1    1    2    0    0 -0.60354535912E+01 -0.17717853242E+02 -0.56926738330E+00  0.18726267351E+02  0.00000000000E+00 0. -1.
         11    1    3    3    0    0  0.98835199200E+01  0.17202518909E+02  0.17964889470E+02  0.26764675913E+02  0.51100000000E-03 0. -1.
        -11    1    3    3    0    0  0.13547249945E+02 -0.13803819200E+02 -0.11114839429E+02  0.22307242352E+02  0.51100000000E-03 0.  1.
         12    1    3    3    0    0 -0.17395316273E+02  0.14319153532E+02 -0.62807826574E+01  0.23389814384E+02  0.00000000000E+00 0. -1.
</event>
<event>
 7    1  0.1360399E-013  0.7246156E+02  0.7816164E-02  0.1226708E+00
        -11   -1    0    0    0    0  0.00000000000E+00  0.00000000000E+00  0.45593999997E+02  0.45594000000E+02  0.51100000000E-03 0. -1.
         11   -1    0    0    0    0 -0.00000000000E+00 -0.00000000000E+00 -0.45593999997E+02  0.45594000000E+02  0.51100000000E-03 0.  1.
    9900012    2    1    2    0    0 -0.95633339763E+01  0.13358037810E+02 -0.89880577503E+01  0.72461555783E+02  0.69999981097E+02 0.  0.
         12    1    1    2    0    0  0.95633339763E+01 -0.13358037810E+02  0.89880577503E+01  0.18726444217E+02  0.00000000000E+00 0. -1.
         11    1    3    3    0    0 -0.18159821640E+02  0.29073575763E+02  0.13850940062E+02  0.36971617094E+02  0.51100000000E-03 0. -1.
        -11    1    3    3    0    0  0.93688091287E+01  0.16559375972E+01 -0.57882848508E+01  0.11136469620E+02  0.51100000000E-03 0.  1.
         12    1    3    3    0    0 -0.77232146471E+00 -0.17371475550E+02 -0.17050712962E+02  0.24353469070E+02  0.00000000000E+00 0. -1.
</event>
<event>
 7    1  0.1360399E-013  0.7246211E+02  0.7816164E-02  0.1226707E+00
        -11   -1    0    0    0    0  0.00000000000E+00  0.00000000000E+00  0.45593999997E+02  0.45594000000E+02  0.51100000000E-03 0.  1.
         11   -1    0    0    0    0 -0.00000000000E+00 -0.00000000000E+00 -0.45593999997E+02  0.45594000000E+02  0.51100000000E-03 0. -1.
    9900012    2    1    2    0    0  0.16362603396E+02  0.61191929520E+01  0.67438621979E+01  0.72462109110E+02  0.70000701904E+02 0.  0.
         12    1    1    2    0    0 -0.16362603396E+02 -0.61191929520E+01 -0.67438621979E+01  0.18725890890E+02  0.00000000000E+00 0. -1.
         11    1    3    3    0    0  0.35889232260E+02  0.17044977152E+02 -0.90043895324E+01  0.40738768629E+02  0.51100000000E-03 0.  1.
        -11    1    3    3    0    0 -0.19808480484E+02 -0.63620185302E+01  0.17126682530E+02  0.26947623895E+02  0.51100000000E-03 0. -1.
         12    1    3    3    0    0  0.28185162031E+00 -0.45637656703E+01 -0.13784308001E+01  0.47757165849E+01  0.00000000000E+00 0. -1.
</event>
<event>
 7    1  0.1360399E-013  0.7246160E+02  0.7816164E-02  0.1226708E+00
        -11   -1    0    0    0    0  0.00000000000E+00  0.00000000000E+00  0.45593999997E+02  0.45594000000E+02  0.51100000000E-03 0.  1.
         11   -1    0    0    0    0 -0.00000000000E+00 -0.00000000000E+00 -0.45593999997E+02  0.45594000000E+02  0.51100000000E-03 0. -1.
    9900012    2    1    2    0    0  0.43352960546E+01  0.18165316405E+02 -0.13800205383E+01  0.72461602358E+02  0.70000041768E+02 0.  0.
         12    1    1    2    0    0 -0.43352960546E+01 -0.18165316405E+02  0.13800205383E+01  0.18726397642E+02  0.00000000000E+00 0. -1.
         11    1    3    3    0    0 -0.75000501976E+01 -0.18619395084E+02  0.14931344774E+02  0.25017547508E+02  0.51100000000E-03 0. -1.
        -11    1    3    3    0    0  0.15448256635E+02  0.22824504774E+02 -0.28340128781E+01  0.27706285939E+02  0.51100000000E-03 0.  1.
         12    1    3    3    0    0 -0.36129103830E+01  0.13960206714E+02 -0.13477352435E+02  0.19737768911E+02  0.00000000000E+00 0. -1.
</event>
<event>
 7    1  0.1360399E-013  0.7246149E+02  0.7816164E-02  0.1226708E+00
        -11   -1    0    0    0    0  0.00000000000E+00  0.00000000000E+00  0.45593999997E+02  0.45594000000E+02  0.51100000000E-03 0. -1.
         11   -1    0    0    0    0 -0.00000000000E+00 -0.00000000000E+00 -0.45593999997E+02  0.45594000000E+02  0.51100000000E-03 0.  1.
    9900012    2    1    2    0    0  0.12383195441E+02 -0.28030207816E+01 -0.13765240891E+02  0.72461486400E+02  0.69999890711E+02 0.  0.
         12    1    1    2    0    0 -0.12383195441E+02  0.28030207816E+01  0.13765240891E+02  0.18726513600E+02  0.00000000000E+00 0. -1.
         11    1    3    3    0    0  0.27972896033E+02  0.22440997092E+02 -0.10745537340E+02  0.37437251982E+02  0.51100000000E-03 0. -1.
        -11    1    3    3    0    0 -0.13965343851E+02 -0.19411942259E+02 -0.98804715148E+01  0.25874273879E+02  0.51100000000E-03 0.  1.
         12    1    3    3    0    0 -0.16243567409E+01 -0.58320756152E+01  0.68607679639E+01  0.91499605386E+01  0.00000000000E+00 0. -1.
</event>
<event>
 7    1  0.1360399E-013  0.7246144E+02  0.7816164E-02  0.1226708E+00
        -11   -1    0    0    0    0  0.00000000000E+00  0.00000000000E+00  0.45593999997E+02  0.45594000000E+02  0.51100000000E-03 0.  1.
         11   -1    0    0    0    0 -0.00000000000E+00 -0.00000000000E+00 -0.45593999997E+02  0.45594000000E+02  0.51100000000E-03 0. -1.
    9900012    2    1    2    0    0  0.59870387174E+01 -0.17279169853E+02 -0.40335614587E+01  0.72461442349E+02  0.69999833327E+02 0.  0.
         12    1    1    2    0    0 -0.59870387174E+01  0.17279169853E+02  0.40335614587E+01  0.18726557651E+02  0.00000000000E+00 0. -1.
         11    1    3    3    0    0  0.16972786768E+02 -0.24778187356E+02 -0.51512072405E+01  0.30472430090E+02  0.51100000000E-03 0. -1.
        -11    1    3    3    0    0 -0.44198226315E+01  0.12865184292E+02 -0.17125856057E+02  0.21871048098E+02  0.51100000000E-03 0.  1.
        -12    1    3    3    0    0 -0.65659254189E+01 -0.53661667898E+01  0.18243501839E+02  0.20117964161E+02  0.00000000000E+00 0.  1.
</event>
<event>
 7    1  0.1360399E-013  0.7246165E+02  0.7816164E-02  0.1226708E+00
        -11   -1    0    0    0    0  0.00000000000E+00  0.00000000000E+00  0.45593999997E+02  0.45594000000E+02  0.51100000000E-03 0.  1.
         11   -1    0    0    0    0 -0.00000000000E+00 -0.00000000000E+00 -0.45593999997E+02  0.45594000000E+02  0.51100000000E-03 0. -1.
    9900012    2    1    2    0    0 -0.12733266152E+02  0.34138540599E+00  0.13726747558E+02  0.72461649330E+02  0.70000102959E+02 0.  0.
         12    1    1    2    0    0  0.12733266152E+02 -0.34138540599E+00 -0.13726747558E+02  0.18726350670E+02  0.00000000000E+00 0. -1.
         11    1    3    3    0    0  0.47746050498E+01 -0.35322462362E+01 -0.36786550779E+01  0.69861377239E+01  0.51100000000E-03 0. -1.
        -11    1    3    3    0    0 -0.10281058355E+02  0.57129687078E+01  0.39994096444E+02  0.41687719091E+02  0.51100000000E-03 0.  1.
        -12    1    3    3    0    0 -0.72268128461E+01 -0.18393370656E+01 -0.22588693809E+02  0.23787792515E+02  0.00000000000E+00 0.  1.
</event>
<event>
 7    1  0.1360399E-013  0.7246156E+02  0.7816164E-02  0.1226708E+00
        -11   -1    0    0    0    0  0.00000000000E+00  0.00000000000E+00  0.45593999997E+02  0.45594000000E+02  0.51100000000E-03 0. -1.
         11   -1    0    0    0    0 -0.00000000000E+00 -0.00000000000E+00 -0.45593999997E+02  0.45594000000E+02  0.51100000000E-03 0.  1.
    9900012    2    1    2    0    0 -0.57698615342E+01 -0.12845091394E+02 -0.12344708970E+02  0.72461561081E+02  0.69999987997E+02 0.  0.
         12    1    1    2    0    0  0.57698615342E+01  0.12845091394E+02  0.12344708970E+02  0.18726438919E+02  0.00000000000E+00 0. -1.
         11    1    3    3    0    0  0.24250597623E+01  0.18915939301E+02 -0.15686484014E+02  0.24693307909E+02  0.51100000000E-03 0. -1.
        -11    1    3    3    0    0  0.27448717264E+01 -0.31780686943E+02  0.11725121933E+02  0.33985656798E+02  0.51100000000E-03 0.  1.
        -12    1    3    3    0    0 -0.10939793023E+02  0.19656248384E-01 -0.83833468887E+01  0.13782596374E+02  0.00000000000E+00 0.  1.
</event>
<event>
 7    1  0.1360399E-013  0.7246155E+02  0.7816164E-02  0.1226708E+00
        -11   -1    0    0    0    0  0.00000000000E+00  0.00000000000E+00  0.45593999997E+02  0.45594000000E+02  0.51100000000E-03 0. -1.
         11   -1    0    0    0    0 -0.00000000000E+00 -0.00000000000E+00 -0.45593999997E+02  0.45594000000E+02  0.51100000000E-03 0.  1.
    9900012    2    1    2    0    0  0.15680394755E+02  0.40842636432E+01 -0.93874347232E+01  0.72461550260E+02  0.69999973902E+02 0.  0.
         12    1    1    2    0    0 -0.15680394755E+02 -0.40842636432E+01  0.93874347232E+01  0.18726449740E+02  0.00000000000E+00 0. -1.
         11    1    3    3    0    0 -0.50075765876E+01  0.11938517832E+01 -0.25393398322E+01  0.57401526465E+01  0.51100000000E-03 0. -1.
        -11    1    3    3    0    0  0.19257822065E+02  0.31104908122E+02  0.32316616626E+01  0.36726321043E+02  0.51100000000E-03 0.  1.
        -12    1    3    3    0    0  0.14301492773E+01 -0.28214496262E+02 -0.10079756554E+02  0.29995076571E+02  0.00000000000E+00 0.  1.
</event>
<event>
 7    1  0.1360399E-013  0.7246156E+02  0.7816164E-02  0.1226708E+00
        -11   -1    0    0    0    0  0.00000000000E+00  0.00000000000E+00  0.45593999997E+02  0.45594000000E+02  0.51100000000E-03 0. -1.
         11   -1    0    0    0    0 -0.00000000000E+00 -0.00000000000E+00 -0.45593999997E+02  0.45594000000E+02  0.51100000000E-03 0.  1.
    9900012    2    1    2    0    0 -0.10341114480E+02  0.13657559137E+02 -0.75638551747E+01  0.72461562128E+02  0.69999989362E+02 0.  0.
         12    1    1    2    0    0  0.10341114480E+02 -0.13657559137E+02  0.75638551747E+01  0.18726437872E+02  0.00000000000E+00 0. -1.
         11    1    3    3    0    0 -0.23021388870E+01 -0.21030027752E+02 -0.91748263796E+01  0.23059474193E+02  0.51100000000E-03 0. -1.
        -11    1    3    3    0    0  0.13572514160E+00  0.22401813599E+02 -0.15170213980E+02  0.27055407339E+02  0.51100000000E-03 0.  1.
         12    1    3    3    0    0 -0.81747007345E+01  0.12285773290E+02  0.16781185185E+02  0.22346680595E+02  0.00000000000E+00 0. -1.
</event>
<event>
 7    1  0.1360399E-013  0.7246157E+02  0.7816164E-02  0.1226708E+00
        -11   -1    0    0    0    0  0.00000000000E+00  0.00000000000E+00  0.45593999997E+02  0.45594000000E+02  0.51100000000E-03 0.  1.
         11   -1    0    0    0    0 -0.00000000000E+00 -0.00000000000E+00 -0.45593999997E+02  0.45594000000E+02  0.51100000000E-03 0. -1.
    9900012    2    1    2    0    0 -0.16514455268E+02  0.63563231571E+01  0.61277457373E+01  0.72461565617E+02  0.69999993907E+02 0.  0.
         12    1    1    2    0    0  0.16514455268E+02 -0.63563231571E+01 -0.61277457373E+01  0.18726434383E+02  0.00000000000E+00 0. -1.
         11    1    3    3    0    0 -0.29519454062E+02  0.28356116971E+02  0.36955794057E+00  0.40934143586E+02  0.51100000000E-03 0. -1.
        -11    1    3    3    0    0 -0.43548312149E+01 -0.57927553044E+01  0.14335287622E+01  0.73875282673E+01  0.51100000000E-03 0.  1.
         12    1    3    3    0    0  0.17359830009E+02 -0.16207038509E+02  0.43246590346E+01  0.24139893764E+02  0.00000000000E+00 0. -1.
</event>
<event>
 7    1  0.1360399E-013  0.7246156E+02  0.7816164E-02  0.1226708E+00
        -11   -1    0    0    0    0  0.00000000000E+00  0.00000000000E+00  0.45593999997E+02  0.45594000000E+02  0.51100000000E-03 0.  1.
         11   -1    0    0    0    0 -0.00000000000E+00 -0.00000000000E+00 -0.45593999997E+02  0.45594000000E+02  0.51100000000E-03 0. -1.
    9900012    2    1    2    0    0  0.18299983079E+02  0.13703088357E+01 -0.37299156348E+01  0.72461564204E+02  0.69999992066E+02 0.  0.
         12    1    1    2    0    0 -0.18299983079E+02 -0.13703088357E+01  0.37299156348E+01  0.18726435796E+02  0.00000000000E+00 0. -1.
         11    1    3    3    0    0 -0.24967739198E+01  0.21142906061E+02 -0.77163591049E+01  0.22645055858E+02  0.51100000000E-03 0. -1.
        -11    1    3    3    0    0  0.20875329304E+02 -0.22519532647E+02  0.17961242831E+02  0.35574077198E+02  0.51100000000E-03 0.  1.
         12    1    3    3    0    0 -0.78572305786E-01  0.27469354211E+01 -0.13974799361E+02  0.14242431148E+02  0.00000000000E+00 0. -1.
</event>
<event>
 7    1  0.1360399E-013  0.7246157E+02  0.7816164E-02  0.1226708E+00
        -11   -1    0    0    0    0  0.00000000000E+00  0.00000000000E+00  0.45593999997E+02  0.45594000000E+02  0.51100000000E-03 0.  1.
         11   -1    0    0    0    0 -0.00000000000E+00 -0.00000000000E+00 -0.45593999997E+02  0.45594000000E+02  0.51100000000E-03 0. -1.
    9900012    2    1    2    0    0 -0.15946039778E+02 -0.90445335896E+01 -0.38209183641E+01  0.72461569758E+02  0.69999999302E+02 0.  0.
         12    1    1    2    0    0  0.15946039778E+02  0.90445335896E+01  0.38209183641E+01  0.18726430242E+02  0.00000000000E+00 0. -1.
         11    1    3    3    0    0  0.94216577117E+01  0.16574309705E+02 -0.60112903125E+01  0.19990272327E+02  0.51100000000E-03 0. -1.
        -11    1    3    3    0    0 -0.25532848666E+02 -0.20549998926E+02  0.16925602649E+02  0.36887732949E+02  0.51100000000E-03 0.  1.
         12    1    3    3    0    0  0.16515117596E+00 -0.50688443684E+01 -0.14735230701E+02  0.15583564482E+02  0.00000000000E+00 0. -1.
</event>
<event>
 7    1  0.1360399E-013  0.7246139E+02  0.7816164E-02  0.1226708E+00
        -11   -1    0    0    0    0  0.00000000000E+00  0.00000000000E+00  0.45593999997E+02  0.45594000000E+02  0.51100000000E-03 0. -1.
         11   -1    0    0    0    0 -0.00000000000E+00 -0.00000000000E+00 -0.45593999997E+02  0.45594000000E+02  0.51100000000E-03 0.  1.
    9900012    2    1    2    0    0  0.10374229947E+02  0.98688397605E+01 -0.12069273361E+02  0.72461387795E+02  0.69999762260E+02 0.  0.
         12    1    1    2    0    0 -0.10374229947E+02 -0.98688397605E+01  0.12069273361E+02  0.18726612205E+02  0.00000000000E+00 0. -1.
         11    1    3    3    0    0  0.36025150264E+02  0.27144473335E+01  0.96634569161E+01  0.37397353860E+02  0.51100000000E-03 0. -1.
        -11    1    3    3    0    0 -0.42137048439E+01  0.39446885876E+01 -0.56114647787E+01  0.80501188680E+01  0.51100000000E-03 0.  1.
         12    1    3    3    0    0 -0.21437215474E+02  0.32097038395E+01 -0.16121265498E+02  0.27013915067E+02  0.00000000000E+00 0. -1.
</event>
<event>
 7    1  0.1360399E-013  0.7246189E+02  0.7816164E-02  0.1226707E+00
        -11   -1    0    0    0    0  0.00000000000E+00  0.00000000000E+00  0.45593999997E+02  0.45594000000E+02  0.51100000000E-03 0.  1.
         11   -1    0    0    0    0 -0.00000000000E+00 -0.00000000000E+00 -0.45593999997E+02  0.45594000000E+02  0.51100000000E-03 0. -1.
    9900012    2    1    2    0    0  0.93034227972E+01  0.16245098909E+02  0.45871920892E+00  0.72461886211E+02  0.70000411539E+02 0.  0.
         12    1    1    2    0    0 -0.93034227972E+01 -0.16245098909E+02 -0.45871920892E+00  0.18726113789E+02  0.00000000000E+00 0. -1.
         11    1    3    3    0    0  0.22045342315E+02  0.32759752723E+02 -0.93148305985E+01  0.40570489097E+02  0.51100000000E-03 0. -1.
        -11    1    3    3    0    0 -0.11153180699E+02  0.23727236925E+01  0.36812001473E+01  0.11982257392E+02  0.51100000000E-03 0.  1.
         12    1    3    3    0    0 -0.15887388191E+01 -0.18887377506E+02  0.60923496601E+01  0.19909139722E+02  0.00000000000E+00 0. -1.
</event>
<event>
 7    1  0.1360399E-013  0.7246157E+02  0.7816164E-02  0.1226708E+00
        -11   -1    0    0    0    0  0.00000000000E+00  0.00000000000E+00  0.45593999997E+02  0.45594000000E+02  0.51100000000E-03 0.  1.
         11   -1    0    0    0    0 -0.00000000000E+00 -0.00000000000E+00 -0.45593999997E+02  0.45594000000E+02  0.51100000000E-03 0. -1.
    9900012    2    1    2    0    0 -0.18522901429E+02  0.20526030771E+01  0.18352494388E+01  0.72461569554E+02  0.69999999036E+02 0.  0.
         12    1    1    2    0    0  0.18522901429E+02 -0.20526030771E+01 -0.18352494388E+01  0.18726430446E+02  0.00000000000E+00 0. -1.
         11    1    3    3    0    0 -0.10315357273E+02  0.11364167943E+02  0.12249119356E+02  0.19636492405E+02  0.51100000000E-03 0. -1.
        -11    1    3    3    0    0 -0.80249858534E+01 -0.15073345242E+02 -0.28840995507E+02  0.33517296383E+02  0.51100000000E-03 0.  1.
        -12    1    3    3    0    0 -0.18255830222E+00  0.57617803765E+01  0.18427125589E+02  0.19307780766E+02  0.00000000000E+00 0.  1.
</event>
<event>
 8    1  0.1360399E-013  0.7246158E+02  0.7816164E-02  0.1226708E+00
        -11   -1    0    0    0    0  0.00000000000E+00  0.00000000000E+00  0.45593999997E+02  0.45594000000E+02  0.51100000000E-03 0.  1.
         11   -1    0    0    0    0 -0.00000000000E+00 -0.00000000000E+00 -0.45593999997E+02  0.45594000000E+02  0.51100000000E-03 0. -1.
    9900012    2    1    2    0    0  0.63042309130E+01  0.56363495388E+01  0.16708290152E+02  0.72461582208E+02  0.70000015519E+02 0.  0.
        -24    2    3    3    0    0  0.24350155709E+01  0.17294345816E+02  0.22309749361E+02  0.58961358132E+02  0.51707766710E+02 0.  0.
         12    1    1    2    0    0 -0.63042309130E+01 -0.56363495388E+01 -0.16708290152E+02  0.18726417792E+02  0.00000000000E+00 0. -1.
         11    1    4    4    0    0 -0.20337731195E+02  0.22921840136E+02  0.87587110833E+01  0.31870818713E+02  0.51100000000E-03 0. -1.
        -11    1    3    3    0    0  0.38692153421E+01 -0.11657996277E+02 -0.56014592093E+01  0.13500224076E+02  0.51100000000E-03 0.  1.
        -12    1    4    4    0    0  0.22772746766E+02 -0.56274943197E+01  0.13551038278E+02  0.27090539419E+02  0.00000000000E+00 0.  1.
</event>
<event>
 7    1  0.1360399E-013  0.7246141E+02  0.7816164E-02  0.1226708E+00
        -11   -1    0    0    0    0  0.00000000000E+00  0.00000000000E+00  0.45593999997E+02  0.45594000000E+02  0.51100000000E-03 0.  1.
         11   -1    0    0    0    0 -0.00000000000E+00 -0.00000000000E+00 -0.45593999997E+02  0.45594000000E+02  0.51100000000E-03 0. -1.
    9900012    2    1    2    0    0  0.14078670535E+02  0.83809255077E+01  0.90684147442E+01  0.72461414023E+02  0.69999796427E+02 0.  0.
         12    1    1    2    0    0 -0.14078670535E+02 -0.83809255077E+01 -0.90684147442E+01  0.18726585977E+02  0.00000000000E+00 0. -1.
         11    1    3    3    0    0  0.16502978887E+00  0.34445797150E+02 -0.59139729307E+01  0.34950182435E+02  0.51100000000E-03 0. -1.
        -11    1    3    3    0    0  0.24785038326E+01 -0.44139560727E+01 -0.40629906439E+01  0.64910617539E+01  0.51100000000E-03 0.  1.
         12    1    3    3    0    0  0.11435136913E+02 -0.21650915570E+02  0.19045378319E+02  0.31020169834E+02  0.00000000000E+00 0. -1.
</event>
<event>
 7    1  0.1360399E-013  0.7246157E+02  0.7816164E-02  0.1226708E+00
        -11   -1    0    0    0    0  0.00000000000E+00  0.00000000000E+00  0.45593999997E+02  0.45594000000E+02  0.51100000000E-03 0.  1.
         11   -1    0    0    0    0 -0.00000000000E+00 -0.00000000000E+00 -0.45593999997E+02  0.45594000000E+02  0.51100000000E-03 0. -1.
    9900012    2    1    2    0    0 -0.32084683917E+01  0.18443917762E+02  0.45493104883E+00  0.72461565900E+02  0.69999994276E+02 0.  0.
         12    1    1    2    0    0  0.32084683917E+01 -0.18443917762E+02 -0.45493104883E+00  0.18726434100E+02  0.00000000000E+00 0. -1.
         11    1    3    3    0    0 -0.17383119571E+02  0.76236030248E+01 -0.23908283502E+02  0.30527007540E+02  0.51100000000E-03 0. -1.
        -11    1    3    3    0    0  0.86906716592E+01 -0.96131359383E+01  0.98706004943E+01  0.16290147662E+02  0.51100000000E-03 0.  1.
        -12    1    3    3    0    0  0.54839795197E+01  0.20433450676E+02  0.14492614056E+02  0.25644410699E+02  0.00000000000E+00 0.  1.
</event>
<event>
 7    1  0.1360399E-013  0.7246171E+02  0.7816164E-02  0.1226708E+00
        -11   -1    0    0    0    0  0.00000000000E+00  0.00000000000E+00  0.45593999997E+02  0.45594000000E+02  0.51100000000E-03 0.  1.
         11   -1    0    0    0    0 -0.00000000000E+00 -0.00000000000E+00 -0.45593999997E+02  0.45594000000E+02  0.51100000000E-03 0. -1.
    9900012    2    1    2    0    0  0.10782478467E+02 -0.12358569392E+02  0.90375761772E+01  0.72461711995E+02  0.70000184591E+02 0.  0.
         12    1    1    2    0    0 -0.10782478467E+02  0.12358569392E+02 -0.90375761772E+01  0.18726288005E+02  0.00000000000E+00 0. -1.
         11    1    3    3    0    0  0.14296707214E+02  0.63227888357E+01 -0.12840957533E+02  0.20230266593E+02  0.51100000000E-03 0. -1.
        -11    1    3    3    0    0 -0.13560939978E+02 -0.64672655453E+01  0.30658978722E+02  0.34142313824E+02  0.51100000000E-03 0.  1.
         12    1    3    3    0    0  0.10046711231E+02 -0.12214092682E+02 -0.87804450118E+01  0.18089131577E+02  0.00000000000E+00 0. -1.
</event>
<event>
 7    1  0.1360399E-013  0.7246154E+02  0.7816164E-02  0.1226708E+00
        -11   -1    0    0    0    0  0.00000000000E+00  0.00000000000E+00  0.45593999997E+02  0.45594000000E+02  0.51100000000E-03 0. -1.
         11   -1    0    0    0    0 -0.00000000000E+00 -0.00000000000E+00 -0.45593999997E+02  0.45594000000E+02  0.51100000000E-03 0.  1.
    9900012    2    1    2    0    0 -0.74658422402E+01 -0.13788964513E+02 -0.10237475360E+02  0.72461541594E+02  0.69999962612E+02 0.  0.
         12    1    1    2    0    0  0.74658422402E+01  0.13788964513E+02  0.10237475360E+02  0.18726458406E+02  0.00000000000E+00 0. -1.
         11    1    3    3    0    0 -0.20062941030E+02 -0.26238919152E+02  0.14200548393E+02  0.35953554149E+02  0.51100000000E-03 0.  1.
        -11    1    3    3    0    0  0.50487941734E+01  0.11776779200E+02 -0.25801550522E+02  0.28808034652E+02  0.51100000000E-03 0. -1.
         12    1    3    3    0    0  0.75483046167E+01  0.67317543959E+00  0.13635267682E+01  0.76999527925E+01  0.00000000000E+00 0. -1.
</event>
<event>
 7    1  0.1360399E-013  0.7246163E+02  0.7816164E-02  0.1226708E+00
        -11   -1    0    0    0    0  0.00000000000E+00  0.00000000000E+00  0.45593999997E+02  0.45594000000E+02  0.51100000000E-03 0. -1.
         11   -1    0    0    0    0 -0.00000000000E+00 -0.00000000000E+00 -0.45593999997E+02  0.45594000000E+02  0.51100000000E-03 0.  1.
    9900012    2    1    2    0    0  0.17078622321E+02 -0.76801538575E+01 -0.11295595576E+00  0.72461631887E+02  0.70000080236E+02 0.  0.
         12    1    1    2    0    0 -0.17078622321E+02  0.76801538575E+01  0.11295595576E+00  0.18726368113E+02  0.00000000000E+00 0. -1.
         11    1    3    3    0    0  0.88394780212E+00  0.62704135093E+01 -0.20462569290E+02  0.21419995134E+02  0.51100000000E-03 0.  1.
        -11    1    3    3    0    0  0.51028285244E+01 -0.27083073641E+02  0.50277690674E+01  0.28014464101E+02  0.51100000000E-03 0. -1.
         12    1    3    3    0    0  0.11091845995E+02  0.13132506274E+02  0.15321844267E+02  0.23027172652E+02  0.00000000000E+00 0. -1.
</event>
<event>
 7    1  0.1360399E-013  0.7246197E+02  0.7816164E-02  0.1226707E+00
        -11   -1    0    0    0    0  0.00000000000E+00  0.00000000000E+00  0.45593999997E+02  0.45594000000E+02  0.51100000000E-03 0.  1.
         11   -1    0    0    0    0 -0.00000000000E+00 -0.00000000000E+00 -0.45593999997E+02  0.45594000000E+02  0.51100000000E-03 0. -1.
    9900012    2    1    2    0    0  0.56510841833E+01 -0.80627079224E+01 -0.15928662451E+02  0.72461967346E+02  0.70000517232E+02 0.  0.
         12    1    1    2    0    0 -0.56510841833E+01  0.80627079224E+01  0.15928662451E+02  0.18726032654E+02  0.00000000000E+00 0. -1.
         11    1    3    3    0    0  0.13194640743E+02 -0.20833202976E+02 -0.46177343707E+01  0.25088729771E+02  0.51100000000E-03 0. -1.
        -11    1    3    3    0    0 -0.19009544727E+02  0.35245284966E+01  0.97655693910E+01  0.21659903915E+02  0.51100000000E-03 0.  1.
         12    1    3    3    0    0  0.11465988167E+02  0.92459665567E+01 -0.21076497471E+02  0.25713333659E+02  0.00000000000E+00 0. -1.
</event>
<event>
 7    1  0.1360399E-013  0.7246157E+02  0.7816164E-02  0.1226708E+00
        -11   -1    0    0    0    0  0.00000000000E+00  0.00000000000E+00  0.45593999997E+02  0.45594000000E+02  0.51100000000E-03 0.  1.
         11   -1    0    0    0    0 -0.00000000000E+00 -0.00000000000E+00 -0.45593999997E+02  0.45594000000E+02  0.51100000000E-03 0. -1.
    9900012    2    1    2    0    0  0.14279651261E+02 -0.10386855619E+02  0.62356975924E+01  0.72461571236E+02  0.70000001227E+02 0.  0.
         12    1    1    2    0    0 -0.14279651261E+02  0.10386855619E+02 -0.62356975924E+01  0.18726428764E+02  0.00000000000E+00 0. -1.
         11    1    3    3    0    0 -0.17794380393E+02  0.84167990869E+01  0.24018444772E+02  0.31054277805E+02  0.51100000000E-03 0. -1.
        -11    1    3    3    0    0  0.20376923663E+02 -0.10088045299E+02 -0.12060270746E+02  0.25737867174E+02  0.51100000000E-03 0.  1.
         12    1    3    3    0    0  0.11697107992E+02 -0.87156094066E+01 -0.57224764337E+01  0.15669426257E+02  0.00000000000E+00 0. -1.
</event>
<event>
 7    1  0.1360399E-013  0.7246157E+02  0.7816164E-02  0.1226708E+00
        -11   -1    0    0    0    0  0.00000000000E+00  0.00000000000E+00  0.45593999997E+02  0.45594000000E+02  0.51100000000E-03 0.  1.
         11   -1    0    0    0    0 -0.00000000000E+00 -0.00000000000E+00 -0.45593999997E+02  0.45594000000E+02  0.51100000000E-03 0. -1.
    9900012    2    1    2    0    0  0.53215129956E+01  0.13721885794E+02  0.11578882904E+02  0.72461570025E+02  0.69999999649E+02 0.  0.
         12    1    1    2    0    0 -0.53215129956E+01 -0.13721885794E+02 -0.11578882904E+02  0.18726429975E+02  0.00000000000E+00 0. -1.
         11    1    3    3    0    0 -0.98978049550E+01  0.27929689661E+02  0.82480890760E+01  0.30758170966E+02  0.51100000000E-03 0.  1.
        -11    1    3    3    0    0  0.25966337684E+02 -0.16131442411E+02  0.36129315319E+01  0.30781933037E+02  0.51100000000E-03 0. -1.
         12    1    3    3    0    0 -0.10747019733E+02  0.19236385433E+01 -0.28213770420E+00  0.10921466022E+02  0.00000000000E+00 0. -1.
</event>
<event>
 7    1  0.1360399E-013  0.7246159E+02  0.7816164E-02  0.1226708E+00
        -11   -1    0    0    0    0  0.00000000000E+00  0.00000000000E+00  0.45593999997E+02  0.45594000000E+02  0.51100000000E-03 0. -1.
         11   -1    0    0    0    0 -0.00000000000E+00 -0.00000000000E+00 -0.45593999997E+02  0.45594000000E+02  0.51100000000E-03 0.  1.
    9900012    2    1    2    0    0 -0.55101836332E+01  0.93630890757E+01 -0.15252835317E+02  0.72461586945E+02  0.70000021690E+02 0.  0.
         12    1    1    2    0    0  0.55101836332E+01 -0.93630890757E+01  0.15252835317E+02  0.18726413055E+02  0.00000000000E+00 0. -1.
         11    1    3    3    0    0  0.11876436183E+02  0.20278817604E+02 -0.93931208296E+01  0.25308316796E+02  0.51100000000E-03 0. -1.
        -11    1    3    3    0    0 -0.33621114693E+01 -0.25413975445E+02 -0.80344418277E+01  0.26864962259E+02  0.51100000000E-03 0.  1.
        -12    1    3    3    0    0 -0.14024508347E+02  0.14498246916E+02  0.21747273405E+01  0.20288307890E+02  0.00000000000E+00 0.  1.
</event>
<event>
 7    1  0.1360399E-013  0.7246164E+02  0.7816164E-02  0.1226708E+00
        -11   -1    0    0    0    0  0.00000000000E+00  0.00000000000E+00  0.45593999997E+02  0.45594000000E+02  0.51100000000E-03 0.  1.
         11   -1    0    0    0    0 -0.00000000000E+00 -0.00000000000E+00 -0.45593999997E+02  0.45594000000E+02  0.51100000000E-03 0. -1.
    9900012    2    1    2    0    0 -0.99265720788E+01  0.18624767315E+01  0.15769307830E+02  0.72461635637E+02  0.70000085121E+02 0.  0.
         12    1    1    2    0    0  0.99265720788E+01 -0.18624767315E+01 -0.15769307830E+02  0.18726364363E+02  0.00000000000E+00 0. -1.
         11    1    3    3    0    0  0.96301677874E+01 -0.73395434612E+01  0.15444542049E+02  0.19625058196E+02  0.51100000000E-03 0. -1.
        -11    1    3    3    0    0 -0.28059565272E+02  0.11060769462E+02  0.16565477620E+02  0.34410679641E+02  0.51100000000E-03 0.  1.
         12    1    3    3    0    0  0.85028254058E+01 -0.18587492693E+01 -0.16240711838E+02  0.18425897800E+02  0.00000000000E+00 0. -1.
</event>
<event>
 7    1  0.1360399E-013  0.7246158E+02  0.7816164E-02  0.1226708E+00
        -11   -1    0    0    0    0  0.00000000000E+00  0.00000000000E+00  0.45593999997E+02  0.45594000000E+02  0.51100000000E-03 0. -1.
         11   -1    0    0    0    0 -0.00000000000E+00 -0.00000000000E+00 -0.45593999997E+02  0.45594000000E+02  0.51100000000E-03 0.  1.
    9900012    2    1    2    0    0 -0.13242103924E+02 -0.11360196795E+02 -0.68023119373E+01  0.72461579220E+02  0.70000011627E+02 0.  0.
         12    1    1    2    0    0  0.13242103924E+02  0.11360196795E+02  0.68023119373E+01  0.18726420780E+02  0.00000000000E+00 0. -1.
         11    1    3    3    0    0 -0.32735659322E+02 -0.18650159115E+02 -0.14217514270E+02  0.40268964955E+02  0.51100000000E-03 0.  1.
        -11    1    3    3    0    0  0.20165028308E+02  0.76826129614E+01  0.13895467566E+02  0.25665831912E+02  0.51100000000E-03 0. -1.
        -12    1    3    3    0    0 -0.67147290969E+00 -0.39265064112E+00 -0.64802652325E+01  0.65267823526E+01  0.00000000000E+00 0.  1.
</event>
<event>
 7    1  0.1360399E-013  0.7246163E+02  0.7816164E-02  0.1226708E+00
        -11   -1    0    0    0    0  0.00000000000E+00  0.00000000000E+00  0.45593999997E+02  0.45594000000E+02  0.51100000000E-03 0. -1.
         11   -1    0    0    0    0 -0.00000000000E+00 -0.00000000000E+00 -0.45593999997E+02  0.45594000000E+02  0.51100000000E-03 0.  1.
    9900012    2    1    2    0    0 -0.53261852823E+01 -0.17642179505E+02  0.33259736452E+01  0.72461632278E+02  0.70000080746E+02 0.  0.
         12    1    1    2    0    0  0.53261852823E+01  0.17642179505E+02 -0.33259736452E+01  0.18726367722E+02  0.00000000000E+00 0. -1.
         11    1    3    3    0    0 -0.21621412636E+02 -0.31949167477E+02  0.51590901253E+01  0.38921086804E+02  0.51100000000E-03 0. -1.
        -11    1    3    3    0    0  0.38763822376E+01  0.14984225032E+02 -0.10213142182E+02  0.18543505940E+02  0.51100000000E-03 0.  1.
         12    1    3    3    0    0  0.12418845116E+02 -0.67723705990E+00  0.83800257017E+01  0.14997039535E+02  0.00000000000E+00 0. -1.
</event>
<event>
 7    1  0.1360399E-013  0.7246157E+02  0.7816164E-02  0.1226708E+00
        -11   -1    0    0    0    0  0.00000000000E+00  0.00000000000E+00  0.45593999997E+02  0.45594000000E+02  0.51100000000E-03 0.  1.
         11   -1    0    0    0    0 -0.00000000000E+00 -0.00000000000E+00 -0.45593999997E+02  0.45594000000E+02  0.51100000000E-03 0. -1.
    9900012    2    1    2    0    0  0.17729099338E+02 -0.56569228150E+01 -0.20874744670E+01  0.72461567112E+02  0.69999995854E+02 0.  0.
         12    1    1    2    0    0 -0.17729099338E+02  0.56569228150E+01  0.20874744670E+01  0.18726432888E+02  0.00000000000E+00 0. -1.
         11    1    3    3    0    0  0.71447049573E+01  0.16834354731E+02 -0.26894056922E+01  0.18484458645E+02  0.51100000000E-03 0. -1.
        -11    1    3    3    0    0 -0.29482776013E+01 -0.22369853203E+02 -0.19447487970E+02  0.29787706554E+02  0.51100000000E-03 0.  1.
        -12    1    3    3    0    0  0.13532671982E+02 -0.12142434342E+00  0.20049419195E+02  0.24189401913E+02  0.00000000000E+00 0.  1.
</event>
<event>
 7    1  0.1360399E-013  0.7246158E+02  0.7816164E-02  0.1226708E+00
        -11   -1    0    0    0    0  0.00000000000E+00  0.00000000000E+00  0.45593999997E+02  0.45594000000E+02  0.51100000000E-03 0. -1.
         11   -1    0    0    0    0 -0.00000000000E+00 -0.00000000000E+00 -0.45593999997E+02  0.45594000000E+02  0.51100000000E-03 0.  1.
    9900012    2    1    2    0    0 -0.54400379831E+01 -0.11630609752E+02 -0.13631351623E+02  0.72461578999E+02  0.70000011339E+02 0.  0.
         12    1    1    2    0    0  0.54400379831E+01  0.11630609752E+02  0.13631351623E+02  0.18726421001E+02  0.00000000000E+00 0. -1.
         11    1    3    3    0    0 -0.19589731423E+02  0.42727395115E+01 -0.13585106693E+02  0.24219186698E+02  0.51100000000E-03 0. -1.
        -11    1    3    3    0    0  0.12540381092E+02 -0.29938688017E+02 -0.58274594688E+01  0.32977954489E+02  0.51100000000E-03 0.  1.
         12    1    3    3    0    0  0.16093123480E+01  0.14035338754E+02  0.57812145394E+01  0.15264437812E+02  0.00000000000E+00 0. -1.
</event>
<event>
 7    1  0.1360399E-013  0.7246160E+02  0.7816164E-02  0.1226708E+00
        -11   -1    0    0    0    0  0.00000000000E+00  0.00000000000E+00  0.45593999997E+02  0.45594000000E+02  0.51100000000E-03 0. -1.
         11   -1    0    0    0    0 -0.00000000000E+00 -0.00000000000E+00 -0.45593999997E+02  0.45594000000E+02  0.51100000000E-03 0.  1.
    9900012    2    1    2    0    0 -0.18499798410E+02 -0.29033489769E+01 -0.76767757785E-01  0.72461604998E+02  0.70000045208E+02 0.  0.
         12    1    1    2    0    0  0.18499798410E+02  0.29033489769E+01  0.76767757785E-01  0.18726395002E+02  0.00000000000E+00 0. -1.
         11    1    3    3    0    0 -0.19163595817E+02  0.11780836282E+02  0.87278204734E+01  0.24128952705E+02  0.51100000000E-03 0. -1.
        -11    1    3    3    0    0  0.20106182722E+02 -0.93764798593E+00 -0.13266771027E+02  0.24106948814E+02  0.51100000000E-03 0.  1.
        -12    1    3    3    0    0 -0.19442385315E+02 -0.13746537273E+02  0.44621827956E+01  0.24225703479E+02  0.00000000000E+00 0.  1.
</event>
<event>
 7    1  0.1360399E-013  0.7246153E+02  0.7816164E-02  0.1226708E+00
        -11   -1    0    0    0    0  0.00000000000E+00  0.00000000000E+00  0.45593999997E+02  0.45594000000E+02  0.51100000000E-03 0.  1.
         11   -1    0    0    0    0 -0.00000000000E+00 -0.00000000000E+00 -0.45593999997E+02  0.45594000000E+02  0.51100000000E-03 0. -1.
    9900012    2    1    2    0    0  0.12718127692E+02  0.12279297805E+02 -0.61764613025E+01  0.72461532079E+02  0.69999950218E+02 0.  0.
         12    1    1    2    0    0 -0.12718127692E+02 -0.12279297805E+02  0.61764613025E+01  0.18726467921E+02  0.00000000000E+00 0. -1.
         11    1    3    3    0    0  0.39193988114E+02  0.29634700012E+01 -0.95203172650E+01  0.40442394833E+02  0.51100000000E-03 0. -1.
        -11    1    3    3    0    0 -0.20068840589E+02  0.10522096509E+02 -0.30778351198E+01  0.22868011431E+02  0.51100000000E-03 0.  1.
         12    1    3    3    0    0 -0.64070198326E+01 -0.12062687051E+01  0.64216910823E+01  0.91511258149E+01  0.00000000000E+00 0. -1.
</event>
<event>
 7    1  0.1360399E-013  0.7246221E+02  0.7816164E-02  0.1226706E+00
        -11   -1    0    0    0    0  0.00000000000E+00  0.00000000000E+00  0.45593999997E+02  0.45594000000E+02  0.51100000000E-03 0. -1.
         11   -1    0    0    0    0 -0.00000000000E+00 -0.00000000000E+00 -0.45593999997E+02  0.45594000000E+02  0.51100000000E-03 0.  1.
    9900012    2    1    2    0    0 -0.58034339406E+01 -0.10962229303E+02 -0.14028711253E+02  0.72462214136E+02  0.70000838719E+02 0.  0.
         12    1    1    2    0    0  0.58034339406E+01  0.10962229303E+02  0.14028711253E+02  0.18725785864E+02  0.00000000000E+00 0. -1.
         11    1    3    3    0    0  0.11811049256E+02 -0.20553520925E+02  0.63536849473E+01  0.24542155969E+02  0.51100000000E-03 0. -1.
        -11    1    3    3    0    0 -0.27855980324E+02  0.35088501903E+01 -0.22300632889E+02  0.35855067940E+02  0.51100000000E-03 0.  1.
         12    1    3    3    0    0  0.10241497127E+02  0.60824414316E+01  0.19182366893E+01  0.12064990227E+02  0.00000000000E+00 0. -1.
</event>
<event>
 7    1  0.1360399E-013  0.7246169E+02  0.7816164E-02  0.1226708E+00
        -11   -1    0    0    0    0  0.00000000000E+00  0.00000000000E+00  0.45593999997E+02  0.45594000000E+02  0.51100000000E-03 0. -1.
         11   -1    0    0    0    0 -0.00000000000E+00 -0.00000000000E+00 -0.45593999997E+02  0.45594000000E+02  0.51100000000E-03 0.  1.
    9900012    2    1    2    0    0  0.15122070693E+02 -0.11006508766E+02  0.92434454975E+00  0.72461690430E+02  0.70000156499E+02 0.  0.
         12    1    1    2    0    0 -0.15122070693E+02  0.11006508766E+02 -0.92434454975E+00  0.18726309570E+02  0.00000000000E+00 0. -1.
         11    1    3    3    0    0 -0.45557842468E+01 -0.32662338825E+02  0.73830116536E+01  0.33794857730E+02  0.51100000000E-03 0. -1.
        -11    1    3    3    0    0  0.10849784959E+02  0.10153241306E+02  0.90796632833E+01  0.17413972214E+02  0.51100000000E-03 0.  1.
         12    1    3    3    0    0  0.88280699807E+01  0.11502588753E+02 -0.15538330387E+02  0.21252860486E+02  0.00000000000E+00 0. -1.
</event>
<event>
 7    1  0.1360399E-013  0.7246157E+02  0.7816164E-02  0.1226708E+00
        -11   -1    0    0    0    0  0.00000000000E+00  0.00000000000E+00  0.45593999997E+02  0.45594000000E+02  0.51100000000E-03 0. -1.
         11   -1    0    0    0    0 -0.00000000000E+00 -0.00000000000E+00 -0.45593999997E+02  0.45594000000E+02  0.51100000000E-03 0.  1.
    9900012    2    1    2    0    0  0.13667511354E+02 -0.99452717767E+01  0.80603895913E+01  0.72461570077E+02  0.69999999716E+02 0.  0.
         12    1    1    2    0    0 -0.13667511354E+02  0.99452717767E+01 -0.80603895913E+01  0.18726429923E+02  0.00000000000E+00 0. -1.
         11    1    3    3    0    0 -0.86078580859E+01  0.22482438403E+02  0.32423742992E+01  0.24291320441E+02  0.51100000000E-03 0. -1.
        -11    1    3    3    0    0  0.15116615132E+02 -0.35218952509E+02  0.90754461575E+01  0.39385916164E+02  0.51100000000E-03 0.  1.
        -12    1    3    3    0    0  0.71587543078E+01  0.27912423286E+01 -0.42574308654E+01  0.87843334721E+01  0.00000000000E+00 0.  1.
</event>
<event>
 7    1  0.1360399E-013  0.7246150E+02  0.7816164E-02  0.1226708E+00
        -11   -1    0    0    0    0  0.00000000000E+00  0.00000000000E+00  0.45593999997E+02  0.45594000000E+02  0.51100000000E-03 0.  1.
         11   -1    0    0    0    0 -0.00000000000E+00 -0.00000000000E+00 -0.45593999997E+02  0.45594000000E+02  0.51100000000E-03 0. -1.
    9900012    2    1    2    0    0  0.13149549892E+02  0.59301235491E+01 -0.11941724478E+02  0.72461499761E+02  0.69999908118E+02 0.  0.
         12    1    1    2    0    0 -0.13149549892E+02 -0.59301235491E+01  0.11941724478E+02  0.18726500239E+02  0.00000000000E+00 0. -1.
         11    1    3    3    0    0  0.13616108363E+02  0.33755791922E+02 -0.11590098579E+02  0.38199244503E+02  0.51100000000E-03 0. -1.
        -11    1    3    3    0    0  0.11606857050E+01  0.50214608345E+00  0.51984239925E+01  0.53500424542E+01  0.51100000000E-03 0.  1.
         12    1    3    3    0    0 -0.16272441761E+01 -0.28327814456E+02 -0.55500498911E+01  0.28912212805E+02  0.00000000000E+00 0. -1.
</event>
<event>
 7    1  0.1360399E-013  0.7246159E+02  0.7816164E-02  0.1226708E+00
        -11   -1    0    0    0    0  0.00000000000E+00  0.00000000000E+00  0.45593999997E+02  0.45594000000E+02  0.51100000000E-03 0. -1.
         11   -1    0    0    0    0 -0.00000000000E+00 -0.00000000000E+00 -0.45593999997E+02  0.45594000000E+02  0.51100000000E-03 0.  1.
    9900012    2    1    2    0    0 -0.88446527647E+01  0.15329942407E+02 -0.61191157090E+01  0.72461585667E+02  0.70000020025E+02 0.  0.
         12    1    1    2    0    0  0.88446527647E+01 -0.15329942407E+02  0.61191157090E+01  0.18726414333E+02  0.00000000000E+00 0. -1.
         11    1    3    3    0    0  0.11645755304E+02 -0.10383593743E+02  0.23143216253E+01  0.15773354762E+02  0.51100000000E-03 0. -1.
        -11    1    3    3    0    0 -0.28165588010E+02 -0.10737247257E+01 -0.46631940977E+01  0.28569189911E+02  0.51100000000E-03 0.  1.
        -12    1    3    3    0    0  0.76751799410E+01  0.26787260875E+02 -0.37702432366E+01  0.28119040993E+02  0.00000000000E+00 0.  1.
</event>
<event>
 7    1  0.1360399E-013  0.7246164E+02  0.7816164E-02  0.1226708E+00
        -11   -1    0    0    0    0  0.00000000000E+00  0.00000000000E+00  0.45593999997E+02  0.45594000000E+02  0.51100000000E-03 0.  1.
         11   -1    0    0    0    0 -0.00000000000E+00 -0.00000000000E+00 -0.45593999997E+02  0.45594000000E+02  0.51100000000E-03 0. -1.
    9900012    2    1    2    0    0  0.12538001707E+02  0.13598225292E+01  0.13842898876E+02  0.72461642816E+02  0.70000094473E+02 0.  0.
         12    1    1    2    0    0 -0.12538001707E+02 -0.13598225292E+01 -0.13842898876E+02  0.18726357184E+02  0.00000000000E+00 0. -1.
         11    1    3    3    0    0  0.49983406975E+01  0.44431498761E+01  0.36584081520E+02  0.37190321476E+02  0.51100000000E-03 0. -1.
        -11    1    3    3    0    0 -0.93038436856E+01 -0.33985158365E+01 -0.63451575481E+01  0.11763181618E+02  0.51100000000E-03 0.  1.
         12    1    3    3    0    0  0.16843504695E+02  0.31518848970E+00 -0.16396025097E+02  0.23508139721E+02  0.00000000000E+00 0. -1.
</event>
<event>
 7    1  0.1360399E-013  0.7246163E+02  0.7816164E-02  0.1226708E+00
        -11   -1    0    0    0    0  0.00000000000E+00  0.00000000000E+00  0.45593999997E+02  0.45594000000E+02  0.51100000000E-03 0.  1.
         11   -1    0    0    0    0 -0.00000000000E+00 -0.00000000000E+00 -0.45593999997E+02  0.45594000000E+02  0.51100000000E-03 0. -1.
    9900012    2    1    2    0    0 -0.13118748960E+02 -0.85175104894E+01  0.10296953062E+02  0.72461633519E+02  0.70000082362E+02 0.  0.
         12    1    1    2    0    0  0.13118748960E+02  0.85175104894E+01 -0.10296953062E+02  0.18726366481E+02  0.00000000000E+00 0. -1.
         11    1    3    3    0    0  0.14783932193E+02 -0.25959729796E+02  0.13451512385E+02  0.32763018906E+02  0.51100000000E-03 0.  1.
        -11    1    3    3    0    0 -0.14374626885E+01  0.57538306978E+01  0.68736142646E+01  0.90785152971E+01  0.51100000000E-03 0. -1.
         12    1    3    3    0    0 -0.26465218464E+02  0.11688388608E+02 -0.10028173587E+02  0.30620099316E+02  0.00000000000E+00 0. -1.
</event>
<event>
 7    1  0.1360399E-013  0.7246159E+02  0.7816164E-02  0.1226708E+00
        -11   -1    0    0    0    0  0.00000000000E+00  0.00000000000E+00  0.45593999997E+02  0.45594000000E+02  0.51100000000E-03 0.  1.
         11   -1    0    0    0    0 -0.00000000000E+00 -0.00000000000E+00 -0.45593999997E+02  0.45594000000E+02  0.51100000000E-03 0. -1.
    9900012    2    1    2    0    0  0.82365809907E+01 -0.11162561054E+02  0.12579130769E+02  0.72461586393E+02  0.70000020971E+02 0.  0.
         12    1    1    2    0    0 -0.82365809907E+01  0.11162561054E+02 -0.12579130769E+02  0.18726413607E+02  0.00000000000E+00 0. -1.
         11    1    3    3    0    0 -0.29323866285E+01  0.17399837632E+02 -0.27146598335E+01  0.17852804240E+02  0.51100000000E-03 0. -1.
        -11    1    3    3    0    0  0.19791450013E+02 -0.29744622099E+02 -0.14299638960E+01  0.35755962222E+02  0.51100000000E-03 0.  1.
        -12    1    3    3    0    0 -0.86224823936E+01  0.11822234123E+01  0.16723754498E+02  0.18852819931E+02  0.00000000000E+00 0.  1.
</event>
<event>
 7    1  0.1360399E-013  0.7246152E+02  0.7816164E-02  0.1226708E+00
        -11   -1    0    0    0    0  0.00000000000E+00  0.00000000000E+00  0.45593999997E+02  0.45594000000E+02  0.51100000000E-03 0.  1.
         11   -1    0    0    0    0 -0.00000000000E+00 -0.00000000000E+00 -0.45593999997E+02  0.45594000000E+02  0.51100000000E-03 0. -1.
    9900012    2    1    2    0    0  0.33485522089E+01  0.18039835683E+02  0.37460162125E+01  0.72461518461E+02  0.69999932478E+02 0.  0.
         12    1    1    2    0    0 -0.33485522089E+01 -0.18039835683E+02 -0.37460162125E+01  0.18726481539E+02  0.00000000000E+00 0. -1.
         11    1    3    3    0    0  0.79150352896E+01 -0.12209833048E+00  0.98156992255E+01  0.12609942236E+02  0.51100000000E-03 0. -1.
        -11    1    3    3    0    0 -0.12157091268E+02 -0.37978844160E+01 -0.26185626552E+02  0.29118822646E+02  0.51100000000E-03 0.  1.
        -12    1    3    3    0    0  0.75906081871E+01  0.21959818429E+02  0.20115943539E+02  0.30732753579E+02  0.00000000000E+00 0.  1.
</event>
<event>
 7    1  0.1360399E-013  0.7246153E+02  0.7816164E-02  0.1226708E+00
        -11   -1    0    0    0    0  0.00000000000E+00  0.00000000000E+00  0.45593999997E+02  0.45594000000E+02  0.51100000000E-03 0. -1.
         11   -1    0    0    0    0 -0.00000000000E+00 -0.00000000000E+00 -0.45593999997E+02  0.45594000000E+02  0.51100000000E-03 0.  1.
    9900012    2    1    2    0    0 -0.27377779600E+01 -0.35849367534E+01 -0.18175079957E+02  0.72461528599E+02  0.69999945684E+02 0.  0.
         12    1    1    2    0    0  0.27377779600E+01  0.35849367534E+01  0.18175079957E+02  0.18726471401E+02  0.00000000000E+00 0. -1.
         11    1    3    3    0    0  0.13791541835E+02  0.16121519852E+02 -0.62506468074E+01  0.22117427841E+02  0.51100000000E-03 0. -1.
        -11    1    3    3    0    0  0.46163113225E+01 -0.26346397363E+02 -0.65763032408E+01  0.27544341502E+02  0.51100000000E-03 0.  1.
         12    1    3    3    0    0 -0.21145631117E+02  0.66399407570E+01 -0.53481299090E+01  0.22799759256E+02  0.00000000000E+00 0. -1.
</event>
<event>
 7    1  0.1360399E-013  0.7246156E+02  0.7816164E-02  0.1226708E+00
        -11   -1    0    0    0    0  0.00000000000E+00  0.00000000000E+00  0.45593999997E+02  0.45594000000E+02  0.51100000000E-03 0. -1.
         11   -1    0    0    0    0 -0.00000000000E+00 -0.00000000000E+00 -0.45593999997E+02  0.45594000000E+02  0.51100000000E-03 0.  1.
    9900012    2    1    2    0    0 -0.14588628920E+02  0.88851914176E+01 -0.76749400652E+01  0.72461563465E+02  0.69999991104E+02 0.  0.
         12    1    1    2    0    0  0.14588628920E+02 -0.88851914176E+01  0.76749400652E+01  0.18726436535E+02  0.00000000000E+00 0. -1.
         11    1    3    3    0    0 -0.54434238055E+01  0.20759463000E+02  0.91718809670E+01  0.23339013850E+02  0.51100000000E-03 0. -1.
        -11    1    3    3    0    0 -0.12420571645E+01 -0.27948938098E+02 -0.12764110647E+02  0.30750745806E+02  0.51100000000E-03 0.  1.
         12    1    3    3    0    0 -0.79031479497E+01  0.16074666515E+02 -0.40827103854E+01  0.18371803809E+02  0.00000000000E+00 0. -1.
</event>
<event>
 7    1  0.1360399E-013  0.7246169E+02  0.7816164E-02  0.1226708E+00
        -11   -1    0    0    0    0  0.00000000000E+00  0.00000000000E+00  0.45593999997E+02  0.45594000000E+02  0.51100000000E-03 0.  1.
         11   -1    0    0    0    0 -0.00000000000E+00 -0.00000000000E+00 -0.45593999997E+02  0.45594000000E+02  0.51100000000E-03 0. -1.
    9900012    2    1    2    0    0  0.81190416663E+01 -0.74406143364E+01  0.15145732586E+02  0.72461687099E+02  0.70000152160E+02 0.  0.
         12    1    1    2    0    0 -0.81190416663E+01  0.74406143364E+01 -0.15145732586E+02  0.18726312901E+02  0.00000000000E+00 0. -1.
         11    1    3    3    0    0 -0.15088661921E+02 -0.28484849510E+02  0.15782357022E+02  0.35890627796E+02  0.51100000000E-03 0. -1.
        -11    1    3    3    0    0  0.79933701877E+01  0.17631362070E+02  0.49951248536E+01  0.19992752886E+02  0.51100000000E-03 0.  1.
         12    1    3    3    0    0  0.15214333400E+02  0.34128731027E+01 -0.56317492888E+01  0.16578306417E+02  0.00000000000E+00 0. -1.
</event>
<event>
 7    1  0.1360399E-013  0.7246163E+02  0.7816164E-02  0.1226708E+00
        -11   -1    0    0    0    0  0.00000000000E+00  0.00000000000E+00  0.45593999997E+02  0.45594000000E+02  0.51100000000E-03 0.  1.
         11   -1    0    0    0    0 -0.00000000000E+00 -0.00000000000E+00 -0.45593999997E+02  0.45594000000E+02  0.51100000000E-03 0. -1.
    9900012    2    1    2    0    0  0.39585246324E+01 -0.37650508979E+01  0.17911765972E+02  0.72461631272E+02  0.70000079434E+02 0.  0.
         12    1    1    2    0    0 -0.39585246324E+01  0.37650508979E+01 -0.17911765972E+02  0.18726368728E+02  0.00000000000E+00 0. -1.
         11    1    3    3    0    0 -0.19595679137E+01 -0.33871318440E+02  0.44206763089E+01  0.34214740954E+02  0.51100000000E-03 0. -1.
        -11    1    3    3    0    0  0.62725901328E+01  0.13390801061E+02  0.15482481122E+02  0.21409487663E+02  0.51100000000E-03 0.  1.
         12    1    3    3    0    0 -0.35449758676E+00  0.16715466481E+02 -0.19913914597E+01  0.16837402655E+02  0.00000000000E+00 0. -1.
</event>
<event>
 7    1  0.1360399E-013  0.7246149E+02  0.7816164E-02  0.1226708E+00
        -11   -1    0    0    0    0  0.00000000000E+00  0.00000000000E+00  0.45593999997E+02  0.45594000000E+02  0.51100000000E-03 0. -1.
         11   -1    0    0    0    0 -0.00000000000E+00 -0.00000000000E+00 -0.45593999997E+02  0.45594000000E+02  0.51100000000E-03 0.  1.
    9900012    2    1    2    0    0  0.24833786011E+01  0.17760657559E+02  0.53920232786E+01  0.72461493619E+02  0.69999900116E+02 0.  0.
         12    1    1    2    0    0 -0.24833786011E+01 -0.17760657559E+02 -0.53920232786E+01  0.18726506381E+02  0.00000000000E+00 0. -1.
         11    1    3    3    0    0  0.15445318359E+02 -0.14034392109E+01  0.23345184083E+02  0.28027221071E+02  0.51100000000E-03 0. -1.
        -11    1    3    3    0    0 -0.20399134837E+02  0.15197980274E+02 -0.94917191635E+00  0.25455927288E+02  0.51100000000E-03 0.  1.
        -12    1    3    3    0    0  0.74371950795E+01  0.39661164955E+01 -0.17003988888E+02  0.18978345260E+02  0.00000000000E+00 0.  1.
</event>
<event>
 7    1  0.1360399E-013  0.7246156E+02  0.7816164E-02  0.1226708E+00
        -11   -1    0    0    0    0  0.00000000000E+00  0.00000000000E+00  0.45593999997E+02  0.45594000000E+02  0.51100000000E-03 0.  1.
         11   -1    0    0    0    0 -0.00000000000E+00 -0.00000000000E+00 -0.45593999997E+02  0.45594000000E+02  0.51100000000E-03 0. -1.
    9900012    2    1    2    0    0 -0.16427791515E+02  0.30184498282E+00 -0.89842078765E+01  0.72461563190E+02  0.69999990745E+02 0.  0.
         12    1    1    2    0    0  0.16427791515E+02 -0.30184498282E+00  0.89842078765E+01  0.18726436810E+02  0.00000000000E+00 0. -1.
         11    1    3    3    0    0 -0.45251755618E+00 -0.14048123672E+02 -0.33011361822E+02  0.35879026749E+02  0.51100000000E-03 0. -1.
        -11    1    3    3    0    0 -0.18948975648E+02  0.11637332976E+02  0.23768833425E+02  0.32549172640E+02  0.51100000000E-03 0.  1.
         12    1    3    3    0    0  0.29737016892E+01  0.27126356789E+01  0.25832052064E+00  0.40333638014E+01  0.00000000000E+00 0. -1.
</event>
<event>
 7    1  0.1360399E-013  0.7246155E+02  0.7816164E-02  0.1226708E+00
        -11   -1    0    0    0    0  0.00000000000E+00  0.00000000000E+00  0.45593999997E+02  0.45594000000E+02  0.51100000000E-03 0.  1.
         11   -1    0    0    0    0 -0.00000000000E+00 -0.00000000000E+00 -0.45593999997E+02  0.45594000000E+02  0.51100000000E-03 0. -1.
    9900012    2    1    2    0    0  0.25437699459E+01 -0.79949644080E+01  0.16741857850E+02  0.72461547434E+02  0.69999970221E+02 0.  0.
         12    1    1    2    0    0 -0.25437699459E+01  0.79949644080E+01 -0.16741857850E+02  0.18726452566E+02  0.00000000000E+00 0. -1.
         11    1    3    3    0    0  0.19565822064E+02 -0.33920810707E+01 -0.16494151537E+02  0.25814427017E+02  0.51100000000E-03 0. -1.
        -11    1    3    3    0    0 -0.54475484784E+01 -0.15082687645E+01  0.34165622781E+02  0.34630051102E+02  0.51100000000E-03 0.  1.
        -12    1    3    3    0    0 -0.11574503640E+02 -0.30946145728E+01 -0.92961339371E+00  0.12017069315E+02  0.00000000000E+00 0.  1.
</event>
<event>
 7    1  0.1360399E-013  0.7246152E+02  0.7816164E-02  0.1226708E+00
        -11   -1    0    0    0    0  0.00000000000E+00  0.00000000000E+00  0.45593999997E+02  0.45594000000E+02  0.51100000000E-03 0.  1.
         11   -1    0    0    0    0 -0.00000000000E+00 -0.00000000000E+00 -0.45593999997E+02  0.45594000000E+02  0.51100000000E-03 0. -1.
    9900012    2    1    2    0    0 -0.17024801867E+02 -0.10887122722E+01  0.77234740377E+01  0.72461515433E+02  0.69999928533E+02 0.  0.
         12    1    1    2    0    0  0.17024801867E+02  0.10887122722E+01 -0.77234740377E+01  0.18726484567E+02  0.00000000000E+00 0. -1.
         11    1    3    3    0    0 -0.27578654148E+02  0.22611320267E+02  0.20688348384E+02  0.41229379428E+02  0.51100000000E-03 0. -1.
        -11    1    3    3    0    0  0.64550408983E+01 -0.13444627362E+02 -0.13580726890E+02  0.20170813098E+02  0.51100000000E-03 0.  1.
        -12    1    3    3    0    0  0.40988113831E+01 -0.10255405178E+02  0.61585254398E+00  0.11061322908E+02  0.00000000000E+00 0.  1.
</event>
<event>
 7    1  0.1360399E-013  0.7246170E+02  0.7816164E-02  0.1226708E+00
        -11   -1    0    0    0    0  0.00000000000E+00  0.00000000000E+00  0.45593999997E+02  0.45594000000E+02  0.51100000000E-03 0. -1.
         11   -1    0    0    0    0 -0.00000000000E+00 -0.00000000000E+00 -0.45593999997E+02  0.45594000000E+02  0.51100000000E-03 0.  1.
    9900012    2    1    2    0    0  0.12063725055E+02 -0.11542146955E+02 -0.84805430401E+01  0.72461702214E+02  0.70000171849E+02 0.  0.
         12    1    1    2    0    0 -0.12063725055E+02  0.11542146955E+02  0.84805430401E+01  0.18726297786E+02  0.00000000000E+00 0. -1.
         11    1    3    3    0    0  0.27118415740E+00  0.34996745413E+01  0.17806811649E+02  0.18149484955E+02  0.51100000000E-03 0. -1.
        -11    1    3    3    0    0 -0.11216477199E+02 -0.16190787098E+02 -0.24167478195E+02  0.31177202411E+02  0.51100000000E-03 0.  1.
         12    1    3    3    0    0  0.23009018096E+02  0.11489656021E+01 -0.21198764947E+01  0.23135014849E+02  0.00000000000E+00 0. -1.
</event>
<event>
 7    1  0.1360399E-013  0.7246162E+02  0.7816164E-02  0.1226708E+00
        -11   -1    0    0    0    0  0.00000000000E+00  0.00000000000E+00  0.45593999997E+02  0.45594000000E+02  0.51100000000E-03 0. -1.
         11   -1    0    0    0    0 -0.00000000000E+00 -0.00000000000E+00 -0.45593999997E+02  0.45594000000E+02  0.51100000000E-03 0.  1.
    9900012    2    1    2    0    0 -0.90614535600E+00  0.10370874540E+02 -0.15566031108E+02  0.72461615870E+02  0.70000059371E+02 0.  0.
         12    1    1    2    0    0  0.90614535600E+00 -0.10370874540E+02  0.15566031108E+02  0.18726384130E+02  0.00000000000E+00 0. -1.
         11    1    3    3    0    0  0.26854200286E+02  0.36025188077E+00  0.10159192196E+02  0.28713882370E+02  0.51100000000E-03 0. -1.
        -11    1    3    3    0    0 -0.19089251516E+02  0.15788175783E+02 -0.15967078459E+02  0.29472251573E+02  0.51100000000E-03 0.  1.
        -12    1    3    3    0    0 -0.86710941265E+01 -0.57775531238E+01 -0.97581448448E+01  0.14275481927E+02  0.00000000000E+00 0.  1.
</event>
<event>
 7    1  0.1360399E-013  0.7246155E+02  0.7816164E-02  0.1226708E+00
        -11   -1    0    0    0    0  0.00000000000E+00  0.00000000000E+00  0.45593999997E+02  0.45594000000E+02  0.51100000000E-03 0. -1.
         11   -1    0    0    0    0 -0.00000000000E+00 -0.00000000000E+00 -0.45593999997E+02  0.45594000000E+02  0.51100000000E-03 0.  1.
    9900012    2    1    2    0    0  0.21609328710E+01 -0.11191056778E+02 -0.14858344555E+02  0.72461553845E+02  0.69999978572E+02 0.  0.
         12    1    1    2    0    0 -0.21609328710E+01  0.11191056778E+02  0.14858344555E+02  0.18726446155E+02  0.00000000000E+00 0. -1.
         11    1    3    3    0    0 -0.24899924515E+02 -0.55576963632E+01  0.72601353748E+01  0.26525531015E+02  0.51100000000E-03 0. -1.
        -11    1    3    3    0    0  0.88381116509E+01  0.79570086804E+01 -0.19785054033E+02  0.23084076071E+02  0.51100000000E-03 0.  1.
         12    1    3    3    0    0  0.18222745735E+02 -0.13590369096E+02 -0.23334258964E+01  0.22851946759E+02  0.00000000000E+00 0. -1.
</event>
<event>
 7    1  0.1360399E-013  0.7246156E+02  0.7816164E-02  0.1226708E+00
        -11   -1    0    0    0    0  0.00000000000E+00  0.00000000000E+00  0.45593999997E+02  0.45594000000E+02  0.51100000000E-03 0. -1.
         11   -1    0    0    0    0 -0.00000000000E+00 -0.00000000000E+00 -0.45593999997E+02  0.45594000000E+02  0.51100000000E-03 0.  1.
    9900012    2    1    2    0    0 -0.18292831231E+02  0.32559699139E+01  0.23346394281E+01  0.72461559981E+02  0.69999986565E+02 0.  0.
         12    1    1    2    0    0  0.18292831231E+02 -0.32559699139E+01 -0.23346394281E+01  0.18726440019E+02  0.00000000000E+00 0. -1.
         11    1    3    3    0    0 -0.34302652292E+01  0.86442245017E+00  0.57976443513E+01  0.67916585603E+01  0.51100000000E-03 0. -1.
        -11    1    3    3    0    0 -0.31458053417E+02 -0.11072371376E+02 -0.19787252814E+02  0.38778111182E+02  0.51100000000E-03 0.  1.
        -12    1    3    3    0    0  0.16595487415E+02  0.13463918840E+02  0.16324247891E+02  0.26891790239E+02  0.00000000000E+00 0.  1.
</event>
<event>
 7    1  0.1360399E-013  0.7246155E+02  0.7816164E-02  0.1226708E+00
        -11   -1    0    0    0    0  0.00000000000E+00  0.00000000000E+00  0.45593999997E+02  0.45594000000E+02  0.51100000000E-03 0.  1.
         11   -1    0    0    0    0 -0.00000000000E+00 -0.00000000000E+00 -0.45593999997E+02  0.45594000000E+02  0.51100000000E-03 0. -1.
    9900012    2    1    2    0    0 -0.18202508120E+02 -0.42872714586E+01  0.98381233011E+00  0.72461551188E+02  0.69999975111E+02 0.  0.
         12    1    1    2    0    0  0.18202508120E+02  0.42872714586E+01 -0.98381233011E+00  0.18726448812E+02  0.00000000000E+00 0. -1.
         11    1    3    3    0    0 -0.10581854382E+02 -0.46398358388E+01 -0.27382499257E+02  0.29720447248E+02  0.51100000000E-03 0. -1.
        -11    1    3    3    0    0 -0.13309819263E+02 -0.10221747996E+02  0.25279887312E+02  0.30343172604E+02  0.51100000000E-03 0.  1.
        -12    1    3    3    0    0  0.56891655255E+01  0.10574312377E+02  0.30864242755E+01  0.12397931336E+02  0.00000000000E+00 0.  1.
</event>
<event>
 7    1  0.1360399E-013  0.7246166E+02  0.7816164E-02  0.1226708E+00
        -11   -1    0    0    0    0  0.00000000000E+00  0.00000000000E+00  0.45593999997E+02  0.45594000000E+02  0.51100000000E-03 0.  1.
         11   -1    0    0    0    0 -0.00000000000E+00 -0.00000000000E+00 -0.45593999997E+02  0.45594000000E+02  0.51100000000E-03 0. -1.
    9900012    2    1    2    0    0 -0.46304184380E+01 -0.18138495404E+02 -0.47951294188E+00  0.72461662315E+02  0.70000119874E+02 0.  0.
         12    1    1    2    0    0  0.46304184380E+01  0.18138495404E+02  0.47951294188E+00  0.18726337685E+02  0.00000000000E+00 0. -1.
         11    1    3    3    0    0 -0.24577414227E+01 -0.76044393639E+01  0.19209385926E+02  0.20805492036E+02  0.51100000000E-03 0. -1.
        -11    1    3    3    0    0 -0.17055766853E+02 -0.18568699882E+02 -0.23334959380E+02  0.34354273792E+02  0.51100000000E-03 0.  1.
         12    1    3    3    0    0  0.14883089838E+02  0.80346438417E+01  0.36460605123E+01  0.17301896487E+02  0.00000000000E+00 0. -1.
</event>
<event>
 7    1  0.1360399E-013  0.7246156E+02  0.7816164E-02  0.1226708E+00
        -11   -1    0    0    0    0  0.00000000000E+00  0.00000000000E+00  0.45593999997E+02  0.45594000000E+02  0.51100000000E-03 0. -1.
         11   -1    0    0    0    0 -0.00000000000E+00 -0.00000000000E+00 -0.45593999997E+02  0.45594000000E+02  0.51100000000E-03 0.  1.
    9900012    2    1    2    0    0  0.77269930124E+01 -0.15935746365E+01 -0.16983338702E+02  0.72461556274E+02  0.69999981736E+02 0.  0.
         12    1    1    2    0    0 -0.77269930124E+01  0.15935746365E+01  0.16983338702E+02  0.18726443726E+02  0.00000000000E+00 0. -1.
         11    1    3    3    0    0  0.24780709544E+02  0.10025283273E+02 -0.23527870152E+02  0.35611101420E+02  0.51100000000E-03 0. -1.
        -11    1    3    3    0    0 -0.22571935760E+02 -0.55146784483E+01 -0.38926193065E+01  0.23559635984E+02  0.51100000000E-03 0.  1.
         12    1    3    3    0    0  0.55182192288E+01 -0.61041794613E+01  0.10437150756E+02  0.13290818871E+02  0.00000000000E+00 0. -1.
</event>
<event>
 7    1  0.1360399E-013  0.7246160E+02  0.7816164E-02  0.1226708E+00
        -11   -1    0    0    0    0  0.00000000000E+00  0.00000000000E+00  0.45593999997E+02  0.45594000000E+02  0.51100000000E-03 0. -1.
         11   -1    0    0    0    0 -0.00000000000E+00 -0.00000000000E+00 -0.45593999997E+02  0.45594000000E+02  0.51100000000E-03 0.  1.
    9900012    2    1    2    0    0 -0.64202779484E+00 -0.94418151347E+01 -0.16159145096E+02  0.72461600374E+02  0.70000039184E+02 0.  0.
         12    1    1    2    0    0  0.64202779484E+00  0.94418151347E+01  0.16159145096E+02  0.18726399626E+02  0.00000000000E+00 0. -1.
         11    1    3    3    0    0  0.14872148484E+02  0.11744655637E+02  0.15512506894E+02  0.24489908268E+02  0.51100000000E-03 0. -1.
        -11    1    3    3    0    0 -0.66866407495E+01 -0.13808759116E+02 -0.32998472751E+02  0.36390825726E+02  0.51100000000E-03 0.  1.
         12    1    3    3    0    0 -0.88275355295E+01 -0.73777116552E+01  0.13268207608E+01  0.11580866381E+02  0.00000000000E+00 0. -1.
</event>
<event>
 7    1  0.1360399E-013  0.7246185E+02  0.7816164E-02  0.1226707E+00
        -11   -1    0    0    0    0  0.00000000000E+00  0.00000000000E+00  0.45593999997E+02  0.45594000000E+02  0.51100000000E-03 0. -1.
         11   -1    0    0    0    0 -0.00000000000E+00 -0.00000000000E+00 -0.45593999997E+02  0.45594000000E+02  0.51100000000E-03 0.  1.
    9900012    2    1    2    0    0 -0.48623499066E+00 -0.57058086006E+01 -0.17829076924E+02  0.72461850897E+02  0.70000365536E+02 0.  0.
         12    1    1    2    0    0  0.48623499066E+00  0.57058086006E+01  0.17829076924E+02  0.18726149103E+02  0.00000000000E+00 0. -1.
         11    1    3    3    0    0 -0.53832503084E+01  0.43579409419E+01  0.25392134578E+02  0.26319793537E+02  0.51100000000E-03 0. -1.
        -11    1    3    3    0    0  0.89563826130E+00 -0.11753253028E+02 -0.32696158724E+02  0.34756005527E+02  0.51100000000E-03 0.  1.
         12    1    3    3    0    0  0.40013770564E+01  0.16895034853E+01 -0.10525052778E+02  0.11386051834E+02  0.00000000000E+00 0. -1.
</event>
<event>
 7    1  0.1360399E-013  0.7246159E+02  0.7816164E-02  0.1226708E+00
        -11   -1    0    0    0    0  0.00000000000E+00  0.00000000000E+00  0.45593999997E+02  0.45594000000E+02  0.51100000000E-03 0.  1.
         11   -1    0    0    0    0 -0.00000000000E+00 -0.00000000000E+00 -0.45593999997E+02  0.45594000000E+02  0.51100000000E-03 0. -1.
    9900012    2    1    2    0    0 -0.17613143341E+02  0.62550098344E+01 -0.11534083294E+01  0.72461593053E+02  0.70000029648E+02 0.  0.
         12    1    1    2    0    0  0.17613143341E+02 -0.62550098344E+01  0.11534083294E+01  0.18726406947E+02  0.00000000000E+00 0. -1.
         11    1    3    3    0    0 -0.19874775574E+02  0.23779135276E+02 -0.18386319736E+02  0.36034854409E+02  0.51100000000E-03 0. -1.
        -11    1    3    3    0    0 -0.10023594507E+02 -0.68625442440E+01  0.16034192321E+02  0.20116219426E+02  0.51100000000E-03 0.  1.
         12    1    3    3    0    0  0.12285226741E+02 -0.10661581198E+02  0.11987190857E+01  0.16310519218E+02  0.00000000000E+00 0. -1.
</event>
<event>
 7    1  0.1360399E-013  0.7246162E+02  0.7816164E-02  0.1226708E+00
        -11   -1    0    0    0    0  0.00000000000E+00  0.00000000000E+00  0.45593999997E+02  0.45594000000E+02  0.51100000000E-03 0.  1.
         11   -1    0    0    0    0 -0.00000000000E+00 -0.00000000000E+00 -0.45593999997E+02  0.45594000000E+02  0.51100000000E-03 0. -1.
    9900012    2    1    2    0    0  0.11755429173E+02  0.64078845779E+01  0.13092980651E+02  0.72461621756E+02  0.70000067039E+02 0.  0.
         12    1    1    2    0    0 -0.11755429173E+02 -0.64078845779E+01 -0.13092980651E+02  0.18726378244E+02  0.00000000000E+00 0. -1.
         11    1    3    3    0    0 -0.15812742460E+02  0.11783953942E+02 -0.18213388815E+02  0.26844588411E+02  0.51100000000E-03 0. -1.
        -11    1    3    3    0    0  0.47881420270E+01  0.24383398184E+01  0.16485086690E+02  0.17338681859E+02  0.51100000000E-03 0.  1.
         12    1    3    3    0    0  0.22780029605E+02 -0.78144091827E+01  0.14821282775E+02  0.28278351486E+02  0.00000000000E+00 0. -1.
</event>
<event>
 7    1  0.1360399E-013  0.7246153E+02  0.7816164E-02  0.1226708E+00
        -11   -1    0    0    0    0  0.00000000000E+00  0.00000000000E+00  0.45593999997E+02  0.45594000000E+02  0.51100000000E-03 0. -1.
         11   -1    0    0    0    0 -0.00000000000E+00 -0.00000000000E+00 -0.45593999997E+02  0.45594000000E+02  0.51100000000E-03 0.  1.
    9900012    2    1    2    0    0 -0.31366600938E+01  0.65783707502E+01 -0.17250135283E+02  0.72461527680E+02  0.69999944486E+02 0.  0.
         12    1    1    2    0    0  0.31366600938E+01 -0.65783707502E+01  0.17250135283E+02  0.18726472320E+02  0.00000000000E+00 0. -1.
         11    1    3    3    0    0 -0.15795747524E+01  0.34181226161E+02 -0.10994071018E+02  0.35940518584E+02  0.51100000000E-03 0. -1.
        -11    1    3    3    0    0 -0.75041667766E+00 -0.30984750010E+02 -0.20465293071E+01  0.31061328704E+02  0.51100000000E-03 0.  1.
        -12    1    3    3    0    0 -0.80666866377E+00  0.33818945994E+01 -0.42095349580E+01  0.54596803915E+01  0.00000000000E+00 0.  1.
</event>
<event>
 7    1  0.1360399E-013  0.7246155E+02  0.7816164E-02  0.1226708E+00
        -11   -1    0    0    0    0  0.00000000000E+00  0.00000000000E+00  0.45593999997E+02  0.45594000000E+02  0.51100000000E-03 0.  1.
         11   -1    0    0    0    0 -0.00000000000E+00 -0.00000000000E+00 -0.45593999997E+02  0.45594000000E+02  0.51100000000E-03 0. -1.
    9900012    2    1    2    0    0 -0.10038680365E+02 -0.11973542890E+02  0.10321772024E+02  0.72461553180E+02  0.69999977705E+02 0.  0.
         12    1    1    2    0    0  0.10038680365E+02  0.11973542890E+02 -0.10321772024E+02  0.18726446820E+02  0.00000000000E+00 0. -1.
         11    1    3    3    0    0  0.26394022885E+01 -0.10299776070E+02 -0.85189332666E+01  0.13624391942E+02  0.51100000000E-03 0. -1.
        -11    1    3    3    0    0  0.19321948325E+02  0.11325391627E+01  0.18408666658E+02  0.26711408432E+02  0.51100000000E-03 0.  1.
        -12    1    3    3    0    0 -0.32000030979E+02 -0.28063059822E+01  0.43203863294E+00  0.32125752805E+02  0.00000000000E+00 0.  1.
</event>
<event>
 7    1  0.1360399E-013  0.7246159E+02  0.7816164E-02  0.1226708E+00
        -11   -1    0    0    0    0  0.00000000000E+00  0.00000000000E+00  0.45593999997E+02  0.45594000000E+02  0.51100000000E-03 0. -1.
         11   -1    0    0    0    0 -0.00000000000E+00 -0.00000000000E+00 -0.45593999997E+02  0.45594000000E+02  0.51100000000E-03 0.  1.
    9900012    2    1    2    0    0  0.17585560699E+02  0.24314776418E+01 -0.59593992217E+01  0.72461589033E+02  0.70000024410E+02 0.  0.
         12    1    1    2    0    0 -0.17585560699E+02 -0.24314776418E+01  0.59593992217E+01  0.18726410967E+02  0.00000000000E+00 0. -1.
         11    1    3    3    0    0 -0.22135893320E+02  0.33122675682E+01 -0.87461148448E+01  0.24030468465E+02  0.51100000000E-03 0. -1.
        -11    1    3    3    0    0  0.31902582669E+02  0.99682519564E+00 -0.98933971109E+01  0.33416279687E+02  0.51100000000E-03 0.  1.
         12    1    3    3    0    0  0.78188713499E+01 -0.18776151220E+01  0.12680112734E+02  0.15014840881E+02  0.00000000000E+00 0. -1.
</event>
<event>
 7    1  0.1360399E-013  0.7246154E+02  0.7816164E-02  0.1226708E+00
        -11   -1    0    0    0    0  0.00000000000E+00  0.00000000000E+00  0.45593999997E+02  0.45594000000E+02  0.51100000000E-03 0.  1.
         11   -1    0    0    0    0 -0.00000000000E+00 -0.00000000000E+00 -0.45593999997E+02  0.45594000000E+02  0.51100000000E-03 0. -1.
    9900012    2    1    2    0    0 -0.34386813320E+01  0.72434360918E+01  0.16923009134E+02  0.72461544546E+02  0.69999966458E+02 0.  0.
         12    1    1    2    0    0  0.34386813320E+01 -0.72434360918E+01 -0.16923009134E+02  0.18726455454E+02  0.00000000000E+00 0. -1.
         11    1    3    3    0    0 -0.19999517388E+02  0.22333230184E+02 -0.11515782179E+02  0.32114904728E+02  0.51100000000E-03 0. -1.
        -11    1    3    3    0    0  0.93705307247E+01 -0.17681144301E+02  0.15470245671E+02  0.25293442060E+02  0.51100000000E-03 0.  1.
        -12    1    3    3    0    0  0.71903053311E+01  0.25913502091E+01  0.12968545642E+02  0.15053197758E+02  0.00000000000E+00 0.  1.
</event>
<event>
 7    1  0.1360399E-013  0.7246154E+02  0.7816164E-02  0.1226708E+00
        -11   -1    0    0    0    0  0.00000000000E+00  0.00000000000E+00  0.45593999997E+02  0.45594000000E+02  0.51100000000E-03 0. -1.
         11   -1    0    0    0    0 -0.00000000000E+00 -0.00000000000E+00 -0.45593999997E+02  0.45594000000E+02  0.51100000000E-03 0.  1.
    9900012    2    1    2    0    0 -0.70700679691E+00  0.13972469540E+02 -0.12447916798E+02  0.72461537540E+02  0.69999957331E+02 0.  0.
         12    1    1    2    0    0  0.70700679691E+00 -0.13972469540E+02  0.12447916798E+02  0.18726462460E+02  0.00000000000E+00 0. -1.
         11    1    3    3    0    0 -0.22960917209E+01 -0.10264648974E+02  0.12627343248E+02  0.16434258532E+02  0.51100000000E-03 0. -1.
        -11    1    3    3    0    0 -0.15023227110E+02  0.29131163826E+02 -0.15938236959E+02  0.36446528728E+02  0.51100000000E-03 0.  1.
        -12    1    3    3    0    0  0.16612312034E+02 -0.48940453116E+01 -0.91370230865E+01  0.19580750280E+02  0.00000000000E+00 0.  1.
</event>
<event>
 7    1  0.1360399E-013  0.7246148E+02  0.7816164E-02  0.1226708E+00
        -11   -1    0    0    0    0  0.00000000000E+00  0.00000000000E+00  0.45593999997E+02  0.45594000000E+02  0.51100000000E-03 0. -1.
         11   -1    0    0    0    0 -0.00000000000E+00 -0.00000000000E+00 -0.45593999997E+02  0.45594000000E+02  0.51100000000E-03 0.  1.
    9900012    2    1    2    0    0 -0.50284476212E+01 -0.18035976474E+02  0.31758203410E+00  0.72461478935E+02  0.69999880988E+02 0.  0.
         12    1    1    2    0    0  0.50284476212E+01  0.18035976474E+02 -0.31758203410E+00  0.18726521065E+02  0.00000000000E+00 0. -1.
         11    1    3    3    0    0 -0.80808430940E+01 -0.24280883044E+02  0.75580772888E+01  0.26683062776E+02  0.51100000000E-03 0. -1.
        -11    1    3    3    0    0 -0.10259275576E+02  0.69804533321E+01 -0.22389593214E+02  0.25598307534E+02  0.51100000000E-03 0.  1.
         12    1    3    3    0    0  0.13311671049E+02 -0.73554676145E+00  0.15149097959E+02  0.20180108625E+02  0.00000000000E+00 0. -1.
</event>
<event>
 7    1  0.1360399E-013  0.7246159E+02  0.7816164E-02  0.1226708E+00
        -11   -1    0    0    0    0  0.00000000000E+00  0.00000000000E+00  0.45593999997E+02  0.45594000000E+02  0.51100000000E-03 0.  1.
         11   -1    0    0    0    0 -0.00000000000E+00 -0.00000000000E+00 -0.45593999997E+02  0.45594000000E+02  0.51100000000E-03 0. -1.
    9900012    2    1    2    0    0  0.46200135695E+00  0.11726410304E+02  0.14593016822E+02  0.72461593942E+02  0.70000030806E+02 0.  0.
         12    1    1    2    0    0 -0.46200135695E+00 -0.11726410304E+02 -0.14593016822E+02  0.18726406058E+02  0.00000000000E+00 0. -1.
         11    1    3    3    0    0 -0.10808032573E+02  0.19492674820E+02 -0.17743694858E+02  0.28488886381E+02  0.51100000000E-03 0. -1.
        -11    1    3    3    0    0  0.15174032361E+02  0.27602630408E+01  0.27942304606E+02  0.31916182370E+02  0.51100000000E-03 0.  1.
         12    1    3    3    0    0 -0.39039984305E+01 -0.10526527557E+02  0.43944070742E+01  0.12056525191E+02  0.00000000000E+00 0. -1.
</event>
<event>
 7    1  0.1360399E-013  0.7246138E+02  0.7816164E-02  0.1226709E+00
        -11   -1    0    0    0    0  0.00000000000E+00  0.00000000000E+00  0.45593999997E+02  0.45594000000E+02  0.51100000000E-03 0.  1.
         11   -1    0    0    0    0 -0.00000000000E+00 -0.00000000000E+00 -0.45593999997E+02  0.45594000000E+02  0.51100000000E-03 0. -1.
    9900012    2    1    2    0    0 -0.64327058877E+01  0.17114067386E+02 -0.40515677659E+01  0.72461382342E+02  0.69999755157E+02 0.  0.
         12    1    1    2    0    0  0.64327058877E+01 -0.17114067386E+02  0.40515677659E+01  0.18726617658E+02  0.00000000000E+00 0. -1.
         11    1    3    3    0    0 -0.12553699025E+02  0.94052354492E+01 -0.57197608995E+01  0.16696391169E+02  0.51100000000E-03 0.  1.
        -11    1    3    3    0    0  0.19909915494E+02  0.77258850999E+01 -0.20535737648E+02  0.29627867905E+02  0.51100000000E-03 0. -1.
        -12    1    3    3    0    0 -0.13788922357E+02 -0.17053162705E-01  0.22203930782E+02  0.26137123268E+02  0.00000000000E+00 0.  1.
</event>
<event>
 7    1  0.1360399E-013  0.7246155E+02  0.7816164E-02  0.1226708E+00
        -11   -1    0    0    0    0  0.00000000000E+00  0.00000000000E+00  0.45593999997E+02  0.45594000000E+02  0.51100000000E-03 0.  1.
         11   -1    0    0    0    0 -0.00000000000E+00 -0.00000000000E+00 -0.45593999997E+02  0.45594000000E+02  0.51100000000E-03 0. -1.
    9900012    2    1    2    0    0 -0.14650905119E+02  0.87235725718E+01 -0.77414475725E+01  0.72461554803E+02  0.69999979819E+02 0.  0.
         12    1    1    2    0    0  0.14650905119E+02 -0.87235725718E+01  0.77414475725E+01  0.18726445197E+02  0.00000000000E+00 0. -1.
         11    1    3    3    0    0 -0.35540139951E+02  0.20944321944E+02 -0.11059244269E+02  0.42709168261E+02  0.51100000000E-03 0. -1.
        -11    1    3    3    0    0  0.26139181135E+01 -0.62499595202E+01 -0.53795728753E+01  0.86506858971E+01  0.51100000000E-03 0.  1.
         12    1    3    3    0    0  0.18275316719E+02 -0.59707898523E+01  0.86973695715E+01  0.21101700645E+02  0.00000000000E+00 0. -1.
</event>
<event>
 7    1  0.1360399E-013  0.7246160E+02  0.7816164E-02  0.1226708E+00
        -11   -1    0    0    0    0  0.00000000000E+00  0.00000000000E+00  0.45593999997E+02  0.45594000000E+02  0.51100000000E-03 0.  1.
         11   -1    0    0    0    0 -0.00000000000E+00 -0.00000000000E+00 -0.45593999997E+02  0.45594000000E+02  0.51100000000E-03 0. -1.
    9900012    2    1    2    0    0  0.12766488731E+02 -0.13598641657E+02  0.16648767636E+01  0.72461598742E+02  0.70000037058E+02 0.  0.
         12    1    1    2    0    0 -0.12766488731E+02  0.13598641657E+02 -0.16648767636E+01  0.18726401258E+02  0.00000000000E+00 0. -1.
         11    1    3    3    0    0 -0.11264528836E+02 -0.11448709795E+02 -0.28539319393E+02  0.32748363586E+02  0.51100000000E-03 0. -1.
        -11    1    3    3    0    0  0.19307962808E+02 -0.65273602149E+00  0.17460363628E+02  0.26040118863E+02  0.51100000000E-03 0.  1.
         12    1    3    3    0    0  0.47230547587E+01 -0.14971958405E+01  0.12743832529E+02  0.13673116293E+02  0.00000000000E+00 0. -1.
</event>
<event>
 7    1  0.1360399E-013  0.7246158E+02  0.7816164E-02  0.1226708E+00
        -11   -1    0    0    0    0  0.00000000000E+00  0.00000000000E+00  0.45593999997E+02  0.45594000000E+02  0.51100000000E-03 0.  1.
         11   -1    0    0    0    0 -0.00000000000E+00 -0.00000000000E+00 -0.45593999997E+02  0.45594000000E+02  0.51100000000E-03 0. -1.
    9900012    2    1    2    0    0  0.12375065241E+02  0.13689349807E+02 -0.31840716197E+01  0.72461578827E+02  0.70000011115E+02 0.  0.
         12    1    1    2    0    0 -0.12375065241E+02 -0.13689349807E+02  0.31840716197E+01  0.18726421173E+02  0.00000000000E+00 0. -1.
         11    1    3    3    0    0 -0.19812269651E+02  0.18843110275E+02 -0.96613944451E+01  0.28998816811E+02  0.51100000000E-03 0.  1.
        -11    1    3    3    0    0  0.30620663419E+02  0.60521301447E+01  0.75009546591E+01  0.32101676414E+02  0.51100000000E-03 0. -1.
        -12    1    3    3    0    0  0.15666714730E+01 -0.11205890612E+02 -0.10236318337E+01  0.11361085602E+02  0.00000000000E+00 0.  1.
</event>
<event>
 7    1  0.1360399E-013  0.7246156E+02  0.7816164E-02  0.1226708E+00
        -11   -1    0    0    0    0  0.00000000000E+00  0.00000000000E+00  0.45593999997E+02  0.45594000000E+02  0.51100000000E-03 0. -1.
         11   -1    0    0    0    0 -0.00000000000E+00 -0.00000000000E+00 -0.45593999997E+02  0.45594000000E+02  0.51100000000E-03 0.  1.
    9900012    2    1    2    0    0  0.16107275084E+02 -0.89066375035E+01 -0.34506853183E+01  0.72461555291E+02  0.69999980456E+02 0.  0.
         12    1    1    2    0    0 -0.16107275084E+02  0.89066375035E+01  0.34506853183E+01  0.18726444709E+02  0.00000000000E+00 0. -1.
         11    1    3    3    0    0  0.27305100248E+02  0.72589473148E+01 -0.12808285215E+02  0.31021169967E+02  0.51100000000E-03 0. -1.
        -11    1    3    3    0    0  0.45883845901E+01 -0.22616122600E+02  0.31424674787E+01  0.23289855662E+02  0.51100000000E-03 0.  1.
        -12    1    3    3    0    0 -0.15786209754E+02  0.64505377822E+01  0.62151324181E+01  0.18150529663E+02  0.00000000000E+00 0.  1.
</event>
<event>
 7    1  0.1360399E-013  0.7246157E+02  0.7816164E-02  0.1226708E+00
        -11   -1    0    0    0    0  0.00000000000E+00  0.00000000000E+00  0.45593999997E+02  0.45594000000E+02  0.51100000000E-03 0.  1.
         11   -1    0    0    0    0 -0.00000000000E+00 -0.00000000000E+00 -0.45593999997E+02  0.45594000000E+02  0.51100000000E-03 0. -1.
    9900012    2    1    2    0    0  0.14051627866E+02 -0.60243458019E+01  0.10813804744E+02  0.72461565180E+02  0.69999993338E+02 0.  0.
         12    1    1    2    0    0 -0.14051627866E+02  0.60243458019E+01 -0.10813804744E+02  0.18726434820E+02  0.00000000000E+00 0. -1.
         11    1    3    3    0    0  0.21777721920E+02  0.31569647177E+01 -0.46106128741E+00  0.22010183462E+02  0.51100000000E-03 0. -1.
        -11    1    3    3    0    0 -0.15541664146E+02  0.12446417248E+02  0.17628102414E+02  0.26593356721E+02  0.51100000000E-03 0.  1.
        -12    1    3    3    0    0  0.78155700917E+01 -0.21627727767E+02 -0.63532363829E+01  0.23858024997E+02  0.00000000000E+00 0.  1.
</event>
<event>
 7    1  0.1360399E-013  0.7246160E+02  0.7816164E-02  0.1226708E+00
        -11   -1    0    0    0    0  0.00000000000E+00  0.00000000000E+00  0.45593999997E+02  0.45594000000E+02  0.51100000000E-03 0.  1.
         11   -1    0    0    0    0 -0.00000000000E+00 -0.00000000000E+00 -0.45593999997E+02  0.45594000000E+02  0.51100000000E-03 0. -1.
    9900012    2    1    2    0    0  0.14399347076E+02  0.93011832666E+01  0.75382282945E+01  0.72461599060E+02  0.70000037472E+02 0.  0.
         12    1    1    2    0    0 -0.14399347076E+02 -0.93011832666E+01 -0.75382282945E+01  0.18726400940E+02  0.00000000000E+00 0. -1.
         11    1    3    3    0    0  0.21814983314E+02  0.27089312628E+02 -0.25995785712E+01  0.34878104373E+02  0.51100000000E-03 0. -1.
        -11    1    3    3    0    0 -0.80246753463E+01 -0.24748893997E+02  0.14057065152E+02  0.29572018014E+02  0.51100000000E-03 0.  1.
         12    1    3    3    0    0  0.60903910745E+00  0.69607646361E+01 -0.39192582860E+01  0.80114766720E+01  0.00000000000E+00 0. -1.
</event>
<event>
 7    1  0.1360399E-013  0.7246158E+02  0.7816164E-02  0.1226708E+00
        -11   -1    0    0    0    0  0.00000000000E+00  0.00000000000E+00  0.45593999997E+02  0.45594000000E+02  0.51100000000E-03 0.  1.
         11   -1    0    0    0    0 -0.00000000000E+00 -0.00000000000E+00 -0.45593999997E+02  0.45594000000E+02  0.51100000000E-03 0. -1.
    9900012    2    1    2    0    0  0.10391451780E+02  0.14483571248E+02  0.57378213784E+01  0.72461582821E+02  0.70000016319E+02 0.  0.
         12    1    1    2    0    0 -0.10391451780E+02 -0.14483571248E+02 -0.57378213784E+01  0.18726417179E+02  0.00000000000E+00 0. -1.
         11    1    3    3    0    0  0.86582346590E+01 -0.19265332234E+02 -0.46011288187E+01  0.21616855464E+02  0.51100000000E-03 0.  1.
        -11    1    3    3    0    0 -0.95656616037E+01  0.36317121509E+02  0.11297090729E+02  0.39218101125E+02  0.51100000000E-03 0. -1.
         12    1    3    3    0    0  0.11298878725E+02 -0.25682180277E+01 -0.95814053215E+00  0.11626626232E+02  0.00000000000E+00 0. -1.
</event>
<event>
 7    1  0.1360399E-013  0.7246152E+02  0.7816164E-02  0.1226708E+00
        -11   -1    0    0    0    0  0.00000000000E+00  0.00000000000E+00  0.45593999997E+02  0.45594000000E+02  0.51100000000E-03 0. -1.
         11   -1    0    0    0    0 -0.00000000000E+00 -0.00000000000E+00 -0.45593999997E+02  0.45594000000E+02  0.51100000000E-03 0.  1.
    9900012    2    1    2    0    0  0.89572244096E+01 -0.43806819196E+01 -0.15851148528E+02  0.72461517339E+02  0.69999931016E+02 0.  0.
         12    1    1    2    0    0 -0.89572244096E+01  0.43806819196E+01  0.15851148528E+02  0.18726482661E+02  0.00000000000E+00 0. -1.
         11    1    3    3    0    0  0.22949786661E+02  0.96499600109E+01 -0.29923700413E+02  0.38926113120E+02  0.51100000000E-03 0. -1.
        -11    1    3    3    0    0  0.36229712594E+01 -0.10389916620E+02  0.52394985625E+00  0.11015934451E+02  0.51100000000E-03 0.  1.
         12    1    3    3    0    0 -0.17615533511E+02 -0.36407253103E+01  0.13548602029E+02  0.22519469767E+02  0.00000000000E+00 0. -1.
</event>
<event>
 7    1  0.1360399E-013  0.7246146E+02  0.7816164E-02  0.1226708E+00
        -11   -1    0    0    0    0  0.00000000000E+00  0.00000000000E+00  0.45593999997E+02  0.45594000000E+02  0.51100000000E-03 0.  1.
         11   -1    0    0    0    0 -0.00000000000E+00 -0.00000000000E+00 -0.45593999997E+02  0.45594000000E+02  0.51100000000E-03 0. -1.
    9900012    2    1    2    0    0 -0.49661420534E+01  0.15046587707E+02  0.99810242385E+01  0.72461462323E+02  0.69999859347E+02 0.  0.
         12    1    1    2    0    0  0.49661420534E+01 -0.15046587707E+02 -0.99810242385E+01  0.18726537677E+02  0.00000000000E+00 0. -1.
         11    1    3    3    0    0 -0.25826063226E+01  0.18099770068E+02 -0.26331587484E+02  0.32056575482E+02  0.51100000000E-03 0. -1.
        -11    1    3    3    0    0 -0.76987363879E+01 -0.61516582722E+00  0.67123241474E+01  0.10232510283E+02  0.51100000000E-03 0.  1.
         12    1    3    3    0    0  0.53152006571E+01 -0.24380165340E+01  0.29600287575E+02  0.30172376558E+02  0.00000000000E+00 0. -1.
</event>
<event>
 7    1  0.1360399E-013  0.7246157E+02  0.7816164E-02  0.1226708E+00
        -11   -1    0    0    0    0  0.00000000000E+00  0.00000000000E+00  0.45593999997E+02  0.45594000000E+02  0.51100000000E-03 0. -1.
         11   -1    0    0    0    0 -0.00000000000E+00 -0.00000000000E+00 -0.45593999997E+02  0.45594000000E+02  0.51100000000E-03 0.  1.
    9900012    2    1    2    0    0 -0.11872649071E+02 -0.51026042429E+01 -0.13552960564E+02  0.72461571989E+02  0.70000002207E+02 0.  0.
         12    1    1    2    0    0  0.11872649071E+02  0.51026042429E+01  0.13552960564E+02  0.18726428011E+02  0.00000000000E+00 0. -1.
         11    1    3    3    0    0 -0.11158523459E+02  0.13962587714E+02  0.21538581355E+01  0.18002933277E+02  0.51100000000E-03 0. -1.
        -11    1    3    3    0    0 -0.18295827284E+02 -0.23949809072E+02 -0.19397903805E+02  0.35841446997E+02  0.51100000000E-03 0.  1.
        -12    1    3    3    0    0  0.17581701672E+02  0.48846171149E+01  0.36910851053E+01  0.18617191714E+02  0.00000000000E+00 0.  1.
</event>
<event>
 7    1  0.1360399E-013  0.7246159E+02  0.7816164E-02  0.1226708E+00
        -11   -1    0    0    0    0  0.00000000000E+00  0.00000000000E+00  0.45593999997E+02  0.45594000000E+02  0.51100000000E-03 0.  1.
         11   -1    0    0    0    0 -0.00000000000E+00 -0.00000000000E+00 -0.45593999997E+02  0.45594000000E+02  0.51100000000E-03 0. -1.
    9900012    2    1    2    0    0  0.13281929646E+02 -0.11272979126E+02  0.68693968631E+01  0.72461592796E+02  0.70000029312E+02 0.  0.
         12    1    1    2    0    0 -0.13281929646E+02  0.11272979126E+02 -0.68693968631E+01  0.18726407204E+02  0.00000000000E+00 0. -1.
         11    1    3    3    0    0  0.74520473143E+01 -0.36634698861E+02 -0.56920686270E+01  0.37815787911E+02  0.51100000000E-03 0. -1.
        -11    1    3    3    0    0 -0.68066355767E+01  0.12610807005E+02  0.59115771517E+01  0.15501918780E+02  0.51100000000E-03 0.  1.
        -12    1    3    3    0    0  0.12636517909E+02  0.12750912730E+02  0.66498883384E+01  0.19143886105E+02  0.00000000000E+00 0.  1.
</event>
<event>
 7    1  0.1360399E-013  0.7246157E+02  0.7816164E-02  0.1226708E+00
        -11   -1    0    0    0    0  0.00000000000E+00  0.00000000000E+00  0.45593999997E+02  0.45594000000E+02  0.51100000000E-03 0. -1.
         11   -1    0    0    0    0 -0.00000000000E+00 -0.00000000000E+00 -0.45593999997E+02  0.45594000000E+02  0.51100000000E-03 0.  1.
    9900012    2    1    2    0    0 -0.91617209635E+01  0.10014424125E+02 -0.12901678783E+02  0.72461571163E+02  0.70000001132E+02 0.  0.
         12    1    1    2    0    0  0.91617209635E+01 -0.10014424125E+02  0.12901678783E+02  0.18726428837E+02  0.00000000000E+00 0. -1.
         11    1    3    3    0    0 -0.21491795076E+02  0.98467996142E+01 -0.20207858584E+01  0.23726362847E+02  0.51100000000E-03 0. -1.
        -11    1    3    3    0    0  0.29380720967E+02 -0.21870167045E+01 -0.24355619306E+01  0.29562506132E+02  0.51100000000E-03 0.  1.
        -12    1    3    3    0    0 -0.17050646855E+02  0.23546412152E+01 -0.84453309938E+01  0.19172702184E+02  0.00000000000E+00 0.  1.
</event>
<event>
 7    1  0.1360399E-013  0.7246131E+02  0.7816164E-02  0.1226709E+00
        -11   -1    0    0    0    0  0.00000000000E+00  0.00000000000E+00  0.45593999997E+02  0.45594000000E+02  0.51100000000E-03 0.  1.
         11   -1    0    0    0    0 -0.00000000000E+00 -0.00000000000E+00 -0.45593999997E+02  0.45594000000E+02  0.51100000000E-03 0. -1.
    9900012    2    1    2    0    0  0.80917149323E+01  0.72730618993E+01  0.15241908352E+02  0.72461306482E+02  0.69999656334E+02 0.  0.
         12    1    1    2    0    0 -0.80917149323E+01 -0.72730618993E+01 -0.15241908352E+02  0.18726693518E+02  0.00000000000E+00 0. -1.
         11    1    3    3    0    0  0.12166202431E+02  0.77212523374E+01 -0.25875770884E+02  0.29617389122E+02  0.51100000000E-03 0. -1.
        -11    1    3    3    0    0 -0.33062026339E+01  0.52805880789E+01  0.19847790093E+02  0.20802652671E+02  0.51100000000E-03 0.  1.
         12    1    3    3    0    0 -0.76828486518E+00 -0.57287785169E+01  0.21269889143E+02  0.22041264689E+02  0.00000000000E+00 0. -1.
</event>
<event>
 7    1  0.1360399E-013  0.7246155E+02  0.7816164E-02  0.1226708E+00
        -11   -1    0    0    0    0  0.00000000000E+00  0.00000000000E+00  0.45593999997E+02  0.45594000000E+02  0.51100000000E-03 0.  1.
         11   -1    0    0    0    0 -0.00000000000E+00 -0.00000000000E+00 -0.45593999997E+02  0.45594000000E+02  0.51100000000E-03 0. -1.
    9900012    2    1    2    0    0 -0.51147663025E+01  0.91383075182E+01  0.15524514445E+02  0.72461546855E+02  0.69999969466E+02 0.  0.
         12    1    1    2    0    0  0.51147663025E+01 -0.91383075182E+01 -0.15524514445E+02  0.18726453145E+02  0.00000000000E+00 0. -1.
         11    1    3    3    0    0 -0.86924995033E+01  0.42016227327E+01  0.37588165975E+02  0.38808290387E+02  0.51100000000E-03 0.  1.
        -11    1    3    3    0    0  0.18423328560E+01 -0.67962505231E+01 -0.20517663313E+02  0.21692342419E+02  0.51100000000E-03 0. -1.
         12    1    3    3    0    0  0.17354003448E+01  0.11732935309E+02 -0.15459882161E+01  0.11960914049E+02  0.00000000000E+00 0. -1.
</event>
<event>
 7    1  0.1360399E-013  0.7246154E+02  0.7816164E-02  0.1226708E+00
        -11   -1    0    0    0    0  0.00000000000E+00  0.00000000000E+00  0.45593999997E+02  0.45594000000E+02  0.51100000000E-03 0.  1.
         11   -1    0    0    0    0 -0.00000000000E+00 -0.00000000000E+00 -0.45593999997E+02  0.45594000000E+02  0.51100000000E-03 0. -1.
    9900012    2    1    2    0    0  0.17152701346E+01 -0.13495601643E+02  0.12868836702E+02  0.72461538150E+02  0.69999958127E+02 0.  0.
         12    1    1    2    0    0 -0.17152701346E+01  0.13495601643E+02 -0.12868836702E+02  0.18726461850E+02  0.00000000000E+00 0. -1.
         11    1    3    3    0    0  0.12999574182E+02  0.46338543783E+01 -0.12010535400E+02  0.18295204185E+02  0.51100000000E-03 0. -1.
        -11    1    3    3    0    0 -0.12842360213E+02 -0.29123982644E+02  0.61886180625E+01  0.32425785645E+02  0.51100000000E-03 0.  1.
        -12    1    3    3    0    0  0.15580561653E+01  0.10994526623E+02  0.18690754040E+02  0.21740548320E+02  0.00000000000E+00 0.  1.
</event>
<event>
 7    1  0.1360399E-013  0.7246147E+02  0.7816164E-02  0.1226708E+00
        -11   -1    0    0    0    0  0.00000000000E+00  0.00000000000E+00  0.45593999997E+02  0.45594000000E+02  0.51100000000E-03 0.  1.
         11   -1    0    0    0    0 -0.00000000000E+00 -0.00000000000E+00 -0.45593999997E+02  0.45594000000E+02  0.51100000000E-03 0. -1.
    9900012    2    1    2    0    0 -0.12148149759E+02 -0.31407736657E+00  0.14248040482E+02  0.72461472166E+02  0.69999872169E+02 0.  0.
         12    1    1    2    0    0  0.12148149759E+02  0.31407736657E+00 -0.14248040482E+02  0.18726527834E+02  0.00000000000E+00 0. -1.
         11    1    3    3    0    0  0.51476873557E+01 -0.93027433476E+01  0.23315527213E+02  0.25625251772E+02  0.51100000000E-03 0.  1.
        -11    1    3    3    0    0  0.81005286647E+01  0.15123489278E+02 -0.11410838905E+02  0.20604507695E+02  0.51100000000E-03 0. -1.
         12    1    3    3    0    0 -0.25396365779E+02 -0.61348232971E+01  0.23433521738E+01  0.26231712698E+02  0.00000000000E+00 0. -1.
</event>
<event>
 7    1  0.1360399E-013  0.7246157E+02  0.7816164E-02  0.1226708E+00
        -11   -1    0    0    0    0  0.00000000000E+00  0.00000000000E+00  0.45593999997E+02  0.45594000000E+02  0.51100000000E-03 0.  1.
         11   -1    0    0    0    0 -0.00000000000E+00 -0.00000000000E+00 -0.45593999997E+02  0.45594000000E+02  0.51100000000E-03 0. -1.
    9900012    2    1    2    0    0  0.18114727982E+02  0.30673526336E+01 -0.36231220418E+01  0.72461573877E+02  0.70000004667E+02 0.  0.
         12    1    1    2    0    0 -0.18114727982E+02 -0.30673526336E+01  0.36231220418E+01  0.18726426123E+02  0.00000000000E+00 0. -1.
         11    1    3    3    0    0  0.12430016118E+01 -0.23545511296E+02 -0.22469101957E+02  0.32569874089E+02  0.51100000000E-03 0. -1.
        -11    1    3    3    0    0  0.18504352529E+02  0.26712743267E+02  0.15158085465E+02  0.35857346117E+02  0.51100000000E-03 0.  1.
         12    1    3    3    0    0 -0.16326261592E+01 -0.99879337028E-01  0.36878944503E+01  0.40343536700E+01  0.00000000000E+00 0. -1.
</event>
<event>
 7    1  0.1360399E-013  0.7246157E+02  0.7816164E-02  0.1226708E+00
        -11   -1    0    0    0    0  0.00000000000E+00  0.00000000000E+00  0.45593999997E+02  0.45594000000E+02  0.51100000000E-03 0.  1.
         11   -1    0    0    0    0 -0.00000000000E+00 -0.00000000000E+00 -0.45593999997E+02  0.45594000000E+02  0.51100000000E-03 0. -1.
    9900012    2    1    2    0    0  0.64119772319E+01 -0.77971033980E+01  0.15772476395E+02  0.72461567210E+02  0.69999995982E+02 0.  0.
         12    1    1    2    0    0 -0.64119772319E+01  0.77971033980E+01 -0.15772476395E+02  0.18726432790E+02  0.00000000000E+00 0. -1.
         11    1    3    3    0    0 -0.13361655694E+02  0.16359206552E+02 -0.10773132110E+02  0.23711133622E+02  0.51100000000E-03 0. -1.
        -11    1    3    3    0    0  0.29598230112E+01 -0.15889819031E+02  0.25236418436E+02  0.29968712298E+02  0.51100000000E-03 0.  1.
         12    1    3    3    0    0  0.16813809915E+02 -0.82664909194E+01  0.13091900689E+01  0.18781721290E+02  0.00000000000E+00 0. -1.
</event>
<event>
 7    1  0.1360399E-013  0.7246153E+02  0.7816164E-02  0.1226708E+00
        -11   -1    0    0    0    0  0.00000000000E+00  0.00000000000E+00  0.45593999997E+02  0.45594000000E+02  0.51100000000E-03 0.  1.
         11   -1    0    0    0    0 -0.00000000000E+00 -0.00000000000E+00 -0.45593999997E+02  0.45594000000E+02  0.51100000000E-03 0. -1.
    9900012    2    1    2    0    0 -0.95744186620E+01 -0.15978923766E+02  0.19196653993E+01  0.72461531761E+02  0.69999949804E+02 0.  0.
         12    1    1    2    0    0  0.95744186620E+01  0.15978923766E+02 -0.19196653993E+01  0.18726468239E+02  0.00000000000E+00 0. -1.
         11    1    3    3    0    0 -0.16946508096E+02 -0.91831167146E+01  0.23477803904E+01  0.19417153300E+02  0.51100000000E-03 0. -1.
        -11    1    3    3    0    0  0.72138045315E+01 -0.18041844426E+02 -0.21610433638E+02  0.29061279538E+02  0.51100000000E-03 0.  1.
        -12    1    3    3    0    0  0.15828490266E+00  0.11246037374E+02  0.21182318646E+02  0.23983098924E+02  0.00000000000E+00 0.  1.
</event>
<event>
 7    1  0.1360399E-013  0.7246142E+02  0.7816164E-02  0.1226708E+00
        -11   -1    0    0    0    0  0.00000000000E+00  0.00000000000E+00  0.45593999997E+02  0.45594000000E+02  0.51100000000E-03 0.  1.
         11   -1    0    0    0    0 -0.00000000000E+00 -0.00000000000E+00 -0.45593999997E+02  0.45594000000E+02  0.51100000000E-03 0. -1.
    9900012    2    1    2    0    0 -0.10347126940E+02  0.12338796784E+02  0.95590742288E+01  0.72461418836E+02  0.69999802697E+02 0.  0.
         12    1    1    2    0    0  0.10347126940E+02 -0.12338796784E+02 -0.95590742288E+01  0.18726581164E+02  0.00000000000E+00 0. -1.
         11    1    3    3    0    0  0.20205040562E+01 -0.11565174333E+02 -0.15332259908E+01  0.11840037001E+02  0.51100000000E-03 0. -1.
        -11    1    3    3    0    0 -0.17949397415E+02  0.63950246915E+01  0.29170669811E+02  0.34842577199E+02  0.51100000000E-03 0.  1.
        -12    1    3    3    0    0  0.55817664194E+01  0.17508946426E+02 -0.18078369592E+02  0.25778804635E+02  0.00000000000E+00 0.  1.
</event>
<event>
 7    1  0.1360399E-013  0.7246161E+02  0.7816164E-02  0.1226708E+00
        -11   -1    0    0    0    0  0.00000000000E+00  0.00000000000E+00  0.45593999997E+02  0.45594000000E+02  0.51100000000E-03 0. -1.
         11   -1    0    0    0    0 -0.00000000000E+00 -0.00000000000E+00 -0.45593999997E+02  0.45594000000E+02  0.51100000000E-03 0.  1.
    9900012    2    1    2    0    0 -0.86684064222E+01  0.13800642744E+02 -0.92238134256E+01  0.72461608352E+02  0.70000049577E+02 0.  0.
         12    1    1    2    0    0  0.86684064222E+01 -0.13800642744E+02  0.92238134256E+01  0.18726391648E+02  0.00000000000E+00 0. -1.
         11    1    3    3    0    0  0.87216666767E+01 -0.94122735083E+01  0.43297263697E+01  0.13542706262E+02  0.51100000000E-03 0. -1.
        -11    1    3    3    0    0 -0.30446237885E+02 -0.18926258072E+00 -0.88911237527E+01  0.31718469438E+02  0.51100000000E-03 0.  1.
        -12    1    3    3    0    0  0.13056164786E+02  0.23402178833E+02 -0.46624160426E+01  0.27200432651E+02  0.00000000000E+00 0.  1.
</event>
<event>
 7    1  0.1360399E-013  0.7246148E+02  0.7816164E-02  0.1226708E+00
        -11   -1    0    0    0    0  0.00000000000E+00  0.00000000000E+00  0.45593999997E+02  0.45594000000E+02  0.51100000000E-03 0.  1.
         11   -1    0    0    0    0 -0.00000000000E+00 -0.00000000000E+00 -0.45593999997E+02  0.45594000000E+02  0.51100000000E-03 0. -1.
    9900012    2    1    2    0    0  0.64385191541E+01  0.12270135603E+02  0.12596499086E+02  0.72461480146E+02  0.69999882565E+02 0.  0.
         12    1    1    2    0    0 -0.64385191541E+01 -0.12270135603E+02 -0.12596499086E+02  0.18726519854E+02  0.00000000000E+00 0. -1.
         11    1    3    3    0    0 -0.10310347548E+02  0.12962736628E+02  0.77226145801E+01  0.18274971509E+02  0.51100000000E-03 0. -1.
        -11    1    3    3    0    0  0.28648049582E+02  0.16478760895E+02  0.38083101461E+01  0.33268055728E+02  0.51100000000E-03 0.  1.
        -12    1    3    3    0    0 -0.11899182880E+02 -0.17171361920E+02  0.10655743598E+01  0.20918452909E+02  0.00000000000E+00 0.  1.
</event>
<event>
 7    1  0.1360399E-013  0.7246165E+02  0.7816164E-02  0.1226708E+00
        -11   -1    0    0    0    0  0.00000000000E+00  0.00000000000E+00  0.45593999997E+02  0.45594000000E+02  0.51100000000E-03 0. -1.
         11   -1    0    0    0    0 -0.00000000000E+00 -0.00000000000E+00 -0.45593999997E+02  0.45594000000E+02  0.51100000000E-03 0.  1.
    9900012    2    1    2    0    0 -0.73201242176E+01  0.13342352107E+02 -0.10912082128E+02  0.72461651859E+02  0.70000106254E+02 0.  0.
         12    1    1    2    0    0  0.73201242176E+01 -0.13342352107E+02  0.10912082128E+02  0.18726348141E+02  0.00000000000E+00 0. -1.
         11    1    3    3    0    0 -0.21463669091E+02  0.13512051294E+02 -0.16647853233E+02  0.30338352601E+02  0.51100000000E-03 0. -1.
        -11    1    3    3    0    0  0.25600590357E+02  0.67411852883E+01 -0.22040576983E+01  0.26564857921E+02  0.51100000000E-03 0.  1.
         12    1    3    3    0    0 -0.11457045484E+02 -0.69108844753E+01  0.79398288026E+01  0.15558441338E+02  0.00000000000E+00 0. -1.
</event>
<event>
 7    1  0.1360399E-013  0.7246153E+02  0.7816164E-02  0.1226708E+00
        -11   -1    0    0    0    0  0.00000000000E+00  0.00000000000E+00  0.45593999997E+02  0.45594000000E+02  0.51100000000E-03 0. -1.
         11   -1    0    0    0    0 -0.00000000000E+00 -0.00000000000E+00 -0.45593999997E+02  0.45594000000E+02  0.51100000000E-03 0.  1.
    9900012    2    1    2    0    0 -0.67347578123E+01 -0.14394587587E+01 -0.17414125932E+02  0.72461527127E+02  0.69999943766E+02 0.  0.
         12    1    1    2    0    0  0.67347578123E+01  0.14394587587E+01  0.17414125932E+02  0.18726472873E+02  0.00000000000E+00 0. -1.
         11    1    3    3    0    0  0.14272668822E+02 -0.18271024531E+02 -0.65839012503E+01  0.24101600956E+02  0.51100000000E-03 0. -1.
        -11    1    3    3    0    0 -0.10914601121E+02  0.26089505754E+02 -0.17363598907E+02  0.33185620311E+02  0.51100000000E-03 0.  1.
        -12    1    3    3    0    0 -0.10092825513E+02 -0.92579399819E+01  0.65333742260E+01  0.15174305860E+02  0.00000000000E+00 0.  1.
</event>
<event>
 7    1  0.1360399E-013  0.7246156E+02  0.7816164E-02  0.1226708E+00
        -11   -1    0    0    0    0  0.00000000000E+00  0.00000000000E+00  0.45593999997E+02  0.45594000000E+02  0.51100000000E-03 0.  1.
         11   -1    0    0    0    0 -0.00000000000E+00 -0.00000000000E+00 -0.45593999997E+02  0.45594000000E+02  0.51100000000E-03 0. -1.
    9900012    2    1    2    0    0 -0.10073785926E+02 -0.82678717574E-01  0.15785802452E+02  0.72461559930E+02  0.69999986498E+02 0.  0.
         12    1    1    2    0    0  0.10073785926E+02  0.82678717574E-01 -0.15785802452E+02  0.18726440070E+02  0.00000000000E+00 0. -1.
         11    1    3    3    0    0  0.42909513930E+01  0.37976626692E+01  0.31527880007E+01  0.65402276753E+01  0.51100000000E-03 0.  1.
        -11    1    3    3    0    0 -0.34560050271E+02  0.48048821822E+01  0.22819877297E+02  0.41692094786E+02  0.51100000000E-03 0. -1.
        -12    1    3    3    0    0  0.20195312952E+02 -0.86852235689E+01 -0.10186862845E+02  0.24229237469E+02  0.00000000000E+00 0.  1.
</event>
<event>
 7    1  0.1360399E-013  0.7246161E+02  0.7816164E-02  0.1226708E+00
        -11   -1    0    0    0    0  0.00000000000E+00  0.00000000000E+00  0.45593999997E+02  0.45594000000E+02  0.51100000000E-03 0. -1.
         11   -1    0    0    0    0 -0.00000000000E+00 -0.00000000000E+00 -0.45593999997E+02  0.45594000000E+02  0.51100000000E-03 0.  1.
    9900012    2    1    2    0    0 -0.11846729690E+02  0.11985894239E+02 -0.81652420610E+01  0.72461605713E+02  0.70000046140E+02 0.  0.
         12    1    1    2    0    0  0.11846729690E+02 -0.11985894239E+02  0.81652420610E+01  0.18726394287E+02  0.00000000000E+00 0. -1.
         11    1    3    3    0    0  0.63004219435E+01  0.20589432299E+02  0.19448153984E+02  0.29014664098E+02  0.51100000000E-03 0. -1.
        -11    1    3    3    0    0 -0.23521424481E+02 -0.66770930348E+01 -0.12857878869E+02  0.27625459820E+02  0.51100000000E-03 0.  1.
        -12    1    3    3    0    0  0.53742728476E+01 -0.19264450244E+01 -0.14755517176E+02  0.15821481796E+02  0.00000000000E+00 0.  1.
</event>
<event>
 7    1  0.1360399E-013  0.7246156E+02  0.7816164E-02  0.1226708E+00
        -11   -1    0    0    0    0  0.00000000000E+00  0.00000000000E+00  0.45593999997E+02  0.45594000000E+02  0.51100000000E-03 0. -1.
         11   -1    0    0    0    0 -0.00000000000E+00 -0.00000000000E+00 -0.45593999997E+02  0.45594000000E+02  0.51100000000E-03 0.  1.
    9900012    2    1    2    0    0  0.13865676453E+02 -0.10150507925E+02 -0.74424407868E+01  0.72461555610E+02  0.69999980871E+02 0.  0.
         12    1    1    2    0    0 -0.13865676453E+02  0.10150507925E+02  0.74424407868E+01  0.18726444390E+02  0.00000000000E+00 0. -1.
         11    1    3    3    0    0  0.21161380983E+02  0.16858231290E+02  0.51396127265E+00  0.27060453873E+02  0.51100000000E-03 0. -1.
        -11    1    3    3    0    0  0.16132762017E+01 -0.24890764057E+02  0.86806821428E+01  0.26410358540E+02  0.51100000000E-03 0.  1.
        -12    1    3    3    0    0 -0.89089807322E+01 -0.21179751571E+01 -0.16637084202E+02  0.18990743198E+02  0.00000000000E+00 0.  1.
</event>
<event>
 7    1  0.1360399E-013  0.7246157E+02  0.7816164E-02  0.1226708E+00
        -11   -1    0    0    0    0  0.00000000000E+00  0.00000000000E+00  0.45593999997E+02  0.45594000000E+02  0.51100000000E-03 0.  1.
         11   -1    0    0    0    0 -0.00000000000E+00 -0.00000000000E+00 -0.45593999997E+02  0.45594000000E+02  0.51100000000E-03 0. -1.
    9900012    2    1    2    0    0  0.13956775906E+02  0.95594763809E+01 -0.80314272761E+01  0.72461574648E+02  0.70000005672E+02 0.  0.
         12    1    1    2    0    0 -0.13956775906E+02 -0.95594763809E+01  0.80314272761E+01  0.18726425352E+02  0.00000000000E+00 0. -1.
         11    1    3    3    0    0  0.48695146028E+01 -0.28466056064E+02 -0.11526359305E+02  0.31094782189E+02  0.51100000000E-03 0. -1.
        -11    1    3    3    0    0 -0.98001722313E+00  0.21484199844E+02 -0.84206670603E+00  0.21523019149E+02  0.51100000000E-03 0.  1.
         12    1    3    3    0    0  0.10067278526E+02  0.16541332601E+02  0.43369987346E+01  0.19843773310E+02  0.00000000000E+00 0. -1.
</event>
<event>
 7    1  0.1360399E-013  0.7246152E+02  0.7816164E-02  0.1226708E+00
        -11   -1    0    0    0    0  0.00000000000E+00  0.00000000000E+00  0.45593999997E+02  0.45594000000E+02  0.51100000000E-03 0.  1.
         11   -1    0    0    0    0 -0.00000000000E+00 -0.00000000000E+00 -0.45593999997E+02  0.45594000000E+02  0.51100000000E-03 0. -1.
    9900012    2    1    2    0    0  0.25158676096E+01  0.18451250355E+02 -0.19755841614E+01  0.72461517087E+02  0.69999930688E+02 0.  0.
         12    1    1    2    0    0 -0.25158676096E+01 -0.18451250355E+02  0.19755841614E+01  0.18726482913E+02  0.00000000000E+00 0. -1.
         11    1    3    3    0    0  0.24930560320E+01 -0.14514203798E+02 -0.19154818233E+02  0.24161632852E+02  0.51100000000E-03 0. -1.
        -11    1    3    3    0    0 -0.75305289002E+01  0.21174184085E+02  0.23866381148E+02  0.32781993328E+02  0.51100000000E-03 0.  1.
         12    1    3    3    0    0  0.75533404778E+01  0.11791270068E+02 -0.66871470755E+01  0.15517890907E+02  0.00000000000E+00 0. -1.
</event>
<event>
 7    1  0.1360399E-013  0.7246162E+02  0.7816164E-02  0.1226708E+00
        -11   -1    0    0    0    0  0.00000000000E+00  0.00000000000E+00  0.45593999997E+02  0.45594000000E+02  0.51100000000E-03 0.  1.
         11   -1    0    0    0    0 -0.00000000000E+00 -0.00000000000E+00 -0.45593999997E+02  0.45594000000E+02  0.51100000000E-03 0. -1.
    9900012    2    1    2    0    0 -0.70387066108E+01  0.13042014138E+02  0.11447268605E+02  0.72461615350E+02  0.70000058694E+02 0.  0.
         12    1    1    2    0    0  0.70387066108E+01 -0.13042014138E+02 -0.11447268605E+02  0.18726384650E+02  0.00000000000E+00 0. -1.
         11    1    3    3    0    0  0.21859596907E+02 -0.24125306186E+01  0.48727206246E+01  0.22525667303E+02  0.51100000000E-03 0. -1.
        -11    1    3    3    0    0 -0.31556680798E+02 -0.15364658181E+01  0.19958092578E+00  0.31594693590E+02  0.51100000000E-03 0.  1.
        -12    1    3    3    0    0  0.26583772806E+01  0.16991010575E+02  0.63749670543E+01  0.18341254457E+02  0.00000000000E+00 0.  1.
</event>
<event>
 7    1  0.1360399E-013  0.7246156E+02  0.7816164E-02  0.1226708E+00
        -11   -1    0    0    0    0  0.00000000000E+00  0.00000000000E+00  0.45593999997E+02  0.45594000000E+02  0.51100000000E-03 0.  1.
         11   -1    0    0    0    0 -0.00000000000E+00 -0.00000000000E+00 -0.45593999997E+02  0.45594000000E+02  0.51100000000E-03 0. -1.
    9900012    2    1    2    0    0 -0.22509705423E+01  0.29670258752E+01  0.18352372090E+02  0.72461556872E+02  0.69999982514E+02 0.  0.
         12    1    1    2    0    0  0.22509705423E+01 -0.29670258752E+01 -0.18352372090E+02  0.18726443128E+02  0.00000000000E+00 0. -1.
         11    1    3    3    0    0 -0.23698764994E+02  0.11096955349E+02  0.11954155120E+02  0.28769353575E+02  0.51100000000E-03 0. -1.
        -11    1    3    3    0    0  0.80075279341E+01 -0.95667299793E+01  0.20601861710E+02  0.24084840300E+02  0.51100000000E-03 0.  1.
         12    1    3    3    0    0  0.13440266518E+02  0.14368005060E+01 -0.14203644740E+02  0.19607362996E+02  0.00000000000E+00 0. -1.
</event>
<event>
 7    1  0.1360399E-013  0.7246160E+02  0.7816164E-02  0.1226708E+00
        -11   -1    0    0    0    0  0.00000000000E+00  0.00000000000E+00  0.45593999997E+02  0.45594000000E+02  0.51100000000E-03 0.  1.
         11   -1    0    0    0    0 -0.00000000000E+00 -0.00000000000E+00 -0.45593999997E+02  0.45594000000E+02  0.51100000000E-03 0. -1.
    9900012    2    1    2    0    0 -0.14288090030E+02  0.46846213528E+01  0.11161675880E+02  0.72461596117E+02  0.70000033639E+02 0.  0.
         12    1    1    2    0    0  0.14288090030E+02 -0.46846213528E+01 -0.11161675880E+02  0.18726403883E+02  0.00000000000E+00 0. -1.
         11    1    3    3    0    0  0.76060684447E+00  0.44804473320E+01 -0.25283334028E+02  0.25688517102E+02  0.51100000000E-03 0. -1.
        -11    1    3    3    0    0 -0.20532768165E+02 -0.32617862229E+01  0.19013675172E+02  0.28173634158E+02  0.51100000000E-03 0.  1.
        -12    1    3    3    0    0  0.54840712905E+01  0.34659602437E+01  0.17431334736E+02  0.18599444858E+02  0.00000000000E+00 0.  1.
</event>
<event>
 7    1  0.1360399E-013  0.7246160E+02  0.7816164E-02  0.1226708E+00
        -11   -1    0    0    0    0  0.00000000000E+00  0.00000000000E+00  0.45593999997E+02  0.45594000000E+02  0.51100000000E-03 0.  1.
         11   -1    0    0    0    0 -0.00000000000E+00 -0.00000000000E+00 -0.45593999997E+02  0.45594000000E+02  0.51100000000E-03 0. -1.
    9900012    2    1    2    0    0  0.91052960110E+01 -0.53707128289E+01  0.15457264238E+02  0.72461601802E+02  0.70000041045E+02 0.  0.
         12    1    1    2    0    0 -0.91052960110E+01  0.53707128289E+01 -0.15457264238E+02  0.18726398198E+02  0.00000000000E+00 0. -1.
         11    1    3    3    0    0  0.89724285983E+01  0.85437187315E+01 -0.10027428885E+02  0.15938912605E+02  0.51100000000E-03 0. -1.
        -11    1    3    3    0    0 -0.22763260377E+02 -0.11634128763E+01  0.51907199674E+01  0.23376550784E+02  0.51100000000E-03 0.  1.
        -12    1    3    3    0    0  0.22896127790E+02 -0.12751018684E+02  0.20293973156E+02  0.33146138413E+02  0.00000000000E+00 0.  1.
</event>
<event>
 7    1  0.1360399E-013  0.7246161E+02  0.7816164E-02  0.1226708E+00
        -11   -1    0    0    0    0  0.00000000000E+00  0.00000000000E+00  0.45593999997E+02  0.45594000000E+02  0.51100000000E-03 0.  1.
         11   -1    0    0    0    0 -0.00000000000E+00 -0.00000000000E+00 -0.45593999997E+02  0.45594000000E+02  0.51100000000E-03 0. -1.
    9900012    2    1    2    0    0 -0.33065331575E+01  0.16560581171E+02  0.80926960758E+01  0.72461608462E+02  0.70000049721E+02 0.  0.
         12    1    1    2    0    0  0.33065331575E+01 -0.16560581171E+02 -0.80926960758E+01  0.18726391538E+02  0.00000000000E+00 0. -1.
         11    1    3    3    0    0 -0.17738903288E+02 -0.12742640136E+01 -0.12889437807E+02  0.21964290243E+02  0.51100000000E-03 0. -1.
        -11    1    3    3    0    0  0.19101154728E+02  0.22356312909E+02  0.28229693873E+02  0.40762414737E+02  0.51100000000E-03 0.  1.
        -12    1    3    3    0    0 -0.46687845974E+01 -0.45214677237E+01 -0.72475599899E+01  0.97349034818E+01  0.00000000000E+00 0.  1.
</event>
<event>
 7    1  0.1360399E-013  0.7246159E+02  0.7816164E-02  0.1226708E+00
        -11   -1    0    0    0    0  0.00000000000E+00  0.00000000000E+00  0.45593999997E+02  0.45594000000E+02  0.51100000000E-03 0.  1.
         11   -1    0    0    0    0 -0.00000000000E+00 -0.00000000000E+00 -0.45593999997E+02  0.45594000000E+02  0.51100000000E-03 0. -1.
    9900012    2    1    2    0    0 -0.16689103204E+02 -0.67210882859E+01 -0.51941421848E+01  0.72461593337E+02  0.70000030017E+02 0.  0.
         12    1    1    2    0    0  0.16689103204E+02  0.67210882859E+01  0.51941421848E+01  0.18726406663E+02  0.00000000000E+00 0. -1.
         11    1    3    3    0    0  0.30119120744E+00 -0.98414529264E+01  0.18030192604E+02  0.20543435872E+02  0.51100000000E-03 0.  1.
        -11    1    3    3    0    0 -0.36866323088E+01 -0.12573873899E+02 -0.27896121632E+02  0.30820239535E+02  0.51100000000E-03 0. -1.
         12    1    3    3    0    0 -0.13303662102E+02  0.15694238539E+02  0.46717868433E+01  0.21097917930E+02  0.00000000000E+00 0. -1.
</event>
<event>
 7    1  0.1360399E-013  0.7246153E+02  0.7816164E-02  0.1226708E+00
        -11   -1    0    0    0    0  0.00000000000E+00  0.00000000000E+00  0.45593999997E+02  0.45594000000E+02  0.51100000000E-03 0.  1.
         11   -1    0    0    0    0 -0.00000000000E+00 -0.00000000000E+00 -0.45593999997E+02  0.45594000000E+02  0.51100000000E-03 0. -1.
    9900012    2    1    2    0    0  0.14628807228E+02 -0.11481723077E+02 -0.22019648309E+01  0.72461531704E+02  0.69999949728E+02 0.  0.
         12    1    1    2    0    0 -0.14628807228E+02  0.11481723077E+02  0.22019648309E+01  0.18726468296E+02  0.00000000000E+00 0. -1.
         11    1    3    3    0    0  0.33171192328E+02 -0.97471509543E+01 -0.21002641682E+02  0.40453008665E+02  0.51100000000E-03 0. -1.
        -11    1    3    3    0    0 -0.43017477208E+01 -0.89012434148E+01  0.60126807119E+01  0.11571062932E+02  0.51100000000E-03 0.  1.
         12    1    3    3    0    0 -0.14240637378E+02  0.71666712920E+01  0.12787996139E+02  0.20437460106E+02  0.00000000000E+00 0. -1.
</event>
<event>
 7    1  0.1360399E-013  0.7246162E+02  0.7816164E-02  0.1226708E+00
        -11   -1    0    0    0    0  0.00000000000E+00  0.00000000000E+00  0.45593999997E+02  0.45594000000E+02  0.51100000000E-03 0.  1.
         11   -1    0    0    0    0 -0.00000000000E+00 -0.00000000000E+00 -0.45593999997E+02  0.45594000000E+02  0.51100000000E-03 0. -1.
    9900012    2    1    2    0    0  0.62392365509E+01 -0.83293269710E+01  0.15568282977E+02  0.72461623005E+02  0.70000068665E+02 0.  0.
         12    1    1    2    0    0 -0.62392365509E+01  0.83293269710E+01 -0.15568282977E+02  0.18726376995E+02  0.00000000000E+00 0. -1.
         11    1    3    3    0    0 -0.82718509898E+01 -0.20109972660E+02 -0.18551095597E+02  0.28582821192E+02  0.51100000000E-03 0. -1.
        -11    1    3    3    0    0  0.17622848013E+02  0.24981610010E+01  0.22186299381E+02  0.28443583827E+02  0.51100000000E-03 0.  1.
        -12    1    3    3    0    0 -0.31117604719E+01  0.92824846884E+01  0.11933079193E+02  0.15435217985E+02  0.00000000000E+00 0.  1.
</event>
<event>
 7    1  0.1360399E-013  0.7246175E+02  0.7816164E-02  0.1226708E+00
        -11   -1    0    0    0    0  0.00000000000E+00  0.00000000000E+00  0.45593999997E+02  0.45594000000E+02  0.51100000000E-03 0.  1.
         11   -1    0    0    0    0 -0.00000000000E+00 -0.00000000000E+00 -0.45593999997E+02  0.45594000000E+02  0.51100000000E-03 0. -1.
    9900012    2    1    2    0    0  0.17064706560E+02  0.64076303296E+01  0.42907306922E+01  0.72461753545E+02  0.70000238718E+02 0.  0.
         12    1    1    2    0    0 -0.17064706560E+02 -0.64076303296E+01 -0.42907306922E+01  0.18726246455E+02  0.00000000000E+00 0. -1.
         11    1    3    3    0    0  0.12374659079E+01  0.92030921442E+01 -0.91316996667E-01  0.92863645170E+01  0.51100000000E-03 0. -1.
        -11    1    3    3    0    0  0.16460450757E+02 -0.17132427252E+02  0.27265315168E+02  0.36164401199E+02  0.51100000000E-03 0.  1.
        -12    1    3    3    0    0 -0.63321010481E+00  0.14336965438E+02 -0.22883267479E+02  0.27010987829E+02  0.00000000000E+00 0.  1.
</event>
<event>
 7    1  0.1360399E-013  0.7246161E+02  0.7816164E-02  0.1226708E+00
        -11   -1    0    0    0    0  0.00000000000E+00  0.00000000000E+00  0.45593999997E+02  0.45594000000E+02  0.51100000000E-03 0.  1.
         11   -1    0    0    0    0 -0.00000000000E+00 -0.00000000000E+00 -0.45593999997E+02  0.45594000000E+02  0.51100000000E-03 0. -1.
    9900012    2    1    2    0    0 -0.16903300911E+02 -0.29211623563E+01  0.75115297376E+01  0.72461605521E+02  0.70000045889E+02 0.  0.
         12    1    1    2    0    0  0.16903300911E+02  0.29211623563E+01 -0.75115297376E+01  0.18726394479E+02  0.00000000000E+00 0. -1.
         11    1    3    3    0    0  0.14071904454E+02  0.55362419363E+01 -0.12871469279E+02  0.19858076226E+02  0.51100000000E-03 0. -1.
        -11    1    3    3    0    0 -0.31811222221E+02  0.69653716580E+01  0.10286481021E+02  0.34150870466E+02  0.51100000000E-03 0.  1.
        -12    1    3    3    0    0  0.83601685605E+00 -0.15422775951E+02  0.10096517996E+02  0.18452658829E+02  0.00000000000E+00 0.  1.
</event>
<event>
 7    1  0.1360399E-013  0.7246155E+02  0.7816164E-02  0.1226708E+00
        -11   -1    0    0    0    0  0.00000000000E+00  0.00000000000E+00  0.45593999997E+02  0.45594000000E+02  0.51100000000E-03 0.  1.
         11   -1    0    0    0    0 -0.00000000000E+00 -0.00000000000E+00 -0.45593999997E+02  0.45594000000E+02  0.51100000000E-03 0. -1.
    9900012    2    1    2    0    0  0.17552297389E+01  0.12082800985E+02  0.14198765882E+02  0.72461551761E+02  0.69999975857E+02 0.  0.
         12    1    1    2    0    0 -0.17552297389E+01 -0.12082800985E+02 -0.14198765882E+02  0.18726448239E+02  0.00000000000E+00 0. -1.
         11    1    3    3    0    0  0.72992207452E+01 -0.27330907334E+02  0.40503509574E+01  0.28577306772E+02  0.51100000000E-03 0. -1.
        -11    1    3    3    0    0  0.36053555605E+01  0.24468169772E+02  0.90142957335E+01  0.26323895011E+02  0.51100000000E-03 0.  1.
         12    1    3    3    0    0 -0.91493465668E+01  0.14945538547E+02  0.11341191911E+01  0.17560349979E+02  0.00000000000E+00 0. -1.
</event>
<event>
 7    1  0.1360399E-013  0.7246158E+02  0.7816164E-02  0.1226708E+00
        -11   -1    0    0    0    0  0.00000000000E+00  0.00000000000E+00  0.45593999997E+02  0.45594000000E+02  0.51100000000E-03 0. -1.
         11   -1    0    0    0    0 -0.00000000000E+00 -0.00000000000E+00 -0.45593999997E+02  0.45594000000E+02  0.51100000000E-03 0.  1.
    9900012    2    1    2    0    0 -0.12622979283E+02  0.13356697685E+02  0.35969057556E+01  0.72461582563E+02  0.70000015982E+02 0.  0.
         12    1    1    2    0    0  0.12622979283E+02 -0.13356697685E+02 -0.35969057556E+01  0.18726417437E+02  0.00000000000E+00 0. -1.
         11    1    3    3    0    0 -0.13202019794E+01  0.37979888667E+02  0.22055528149E+01  0.38066774750E+02  0.51100000000E-03 0. -1.
        -11    1    3    3    0    0  0.40087624006E+01 -0.13535764242E+02  0.53208768170E+01  0.15086378623E+02  0.51100000000E-03 0.  1.
         12    1    3    3    0    0 -0.15311539705E+02 -0.11087426740E+02 -0.39295238763E+01  0.19308429189E+02  0.00000000000E+00 0. -1.
</event>
<event>
 7    1  0.1360399E-013  0.7246166E+02  0.7816164E-02  0.1226708E+00
        -11   -1    0    0    0    0  0.00000000000E+00  0.00000000000E+00  0.45593999997E+02  0.45594000000E+02  0.51100000000E-03 0.  1.
         11   -1    0    0    0    0 -0.00000000000E+00 -0.00000000000E+00 -0.45593999997E+02  0.45594000000E+02  0.51100000000E-03 0. -1.
    9900012    2    1    2    0    0  0.96114428840E+01  0.11952185659E+02  0.10744360702E+02  0.72461658573E+02  0.70000115000E+02 0.  0.
         12    1    1    2    0    0 -0.96114428840E+01 -0.11952185659E+02 -0.10744360702E+02  0.18726341427E+02  0.00000000000E+00 0. -1.
         11    1    3    3    0    0  0.10305664727E+02 -0.56223869176E+01  0.92614459327E+01  0.14953004419E+02  0.51100000000E-03 0. -1.
        -11    1    3    3    0    0  0.28772742733E+01  0.33525603249E+02  0.14473240665E+02  0.36629489159E+02  0.51100000000E-03 0.  1.
        -12    1    3    3    0    0 -0.35714961167E+01 -0.15951030673E+02 -0.12990325895E+02  0.20879164995E+02  0.00000000000E+00 0.  1.
</event>
<event>
 7    1  0.1360399E-013  0.7246167E+02  0.7816164E-02  0.1226708E+00
        -11   -1    0    0    0    0  0.00000000000E+00  0.00000000000E+00  0.45593999997E+02  0.45594000000E+02  0.51100000000E-03 0.  1.
         11   -1    0    0    0    0 -0.00000000000E+00 -0.00000000000E+00 -0.45593999997E+02  0.45594000000E+02  0.51100000000E-03 0. -1.
    9900012    2    1    2    0    0 -0.16048362317E+02  0.96474549052E+01 -0.22826580929E+00  0.72461670288E+02  0.70000130261E+02 0.  0.
         12    1    1    2    0    0  0.16048362317E+02 -0.96474549052E+01  0.22826580929E+00  0.18726329712E+02  0.00000000000E+00 0. -1.
         11    1    3    3    0    0  0.38687303749E+01 -0.57347349749E+01 -0.29290137018E+02  0.30095952996E+02  0.51100000000E-03 0. -1.
        -11    1    3    3    0    0 -0.67266568215E+01 -0.15634664180E+01  0.15496520783E+02  0.16965685835E+02  0.51100000000E-03 0.  1.
         12    1    3    3    0    0 -0.13190435870E+02  0.16945656298E+02  0.13565350426E+02  0.25400031457E+02  0.00000000000E+00 0. -1.
</event>
<event>
 7    1  0.1360399E-013  0.7246156E+02  0.7816164E-02  0.1226708E+00
        -11   -1    0    0    0    0  0.00000000000E+00  0.00000000000E+00  0.45593999997E+02  0.45594000000E+02  0.51100000000E-03 0.  1.
         11   -1    0    0    0    0 -0.00000000000E+00 -0.00000000000E+00 -0.45593999997E+02  0.45594000000E+02  0.51100000000E-03 0. -1.
    9900012    2    1    2    0    0  0.44448674994E+01 -0.18130180800E+02  0.14896642085E+01  0.72461564077E+02  0.69999991901E+02 0.  0.
         12    1    1    2    0    0 -0.44448674994E+01  0.18130180800E+02 -0.14896642085E+01  0.18726435923E+02  0.00000000000E+00 0. -1.
         11    1    3    3    0    0  0.60532412411E+01 -0.25492179934E+02  0.73778230469E+01  0.27219941963E+02  0.51100000000E-03 0. -1.
        -11    1    3    3    0    0 -0.90933649357E+00  0.19360256282E+02 -0.19217527302E+02  0.27293951198E+02  0.51100000000E-03 0.  1.
        -12    1    3    3    0    0 -0.69903724821E+00 -0.11998257148E+02  0.13329368463E+02  0.17947670915E+02  0.00000000000E+00 0.  1.
</event>
<event>
 7    1  0.1360399E-013  0.7246160E+02  0.7816164E-02  0.1226708E+00
        -11   -1    0    0    0    0  0.00000000000E+00  0.00000000000E+00  0.45593999997E+02  0.45594000000E+02  0.51100000000E-03 0. -1.
         11   -1    0    0    0    0 -0.00000000000E+00 -0.00000000000E+00 -0.45593999997E+02  0.45594000000E+02  0.51100000000E-03 0.  1.
    9900012    2    1    2    0    0  0.82692649718E+01  0.41091815724E+01 -0.16291472512E+02  0.72461596368E+02  0.70000033966E+02 0.  0.
         12    1    1    2    0    0 -0.82692649718E+01 -0.41091815724E+01  0.16291472512E+02  0.18726403632E+02  0.00000000000E+00 0. -1.
         11    1    3    3    0    0  0.23824334323E+02 -0.45928878772E+00  0.20574842025E+02  0.31482280361E+02  0.51100000000E-03 0. -1.
        -11    1    3    3    0    0 -0.65180504248E+01  0.67470591478E+00 -0.23404206835E+02  0.24304261092E+02  0.51100000000E-03 0.  1.
         12    1    3    3    0    0 -0.90370189261E+01  0.38937644453E+01 -0.13462107702E+02  0.16675054915E+02  0.00000000000E+00 0. -1.
</event>
<event>
 7    1  0.1360399E-013  0.7246155E+02  0.7816164E-02  0.1226708E+00
        -11   -1    0    0    0    0  0.00000000000E+00  0.00000000000E+00  0.45593999997E+02  0.45594000000E+02  0.51100000000E-03 0.  1.
         11   -1    0    0    0    0 -0.00000000000E+00 -0.00000000000E+00 -0.45593999997E+02  0.45594000000E+02  0.51100000000E-03 0. -1.
    9900012    2    1    2    0    0 -0.63270103946E+01 -0.17588758461E+02  0.11334019118E+01  0.72461545861E+02  0.69999968171E+02 0.  0.
         12    1    1    2    0    0  0.63270103946E+01  0.17588758461E+02 -0.11334019118E+01  0.18726454139E+02  0.00000000000E+00 0. -1.
         11    1    3    3    0    0 -0.24047970272E+02 -0.15883657555E+01  0.80764018824E+01  0.25417632612E+02  0.51100000000E-03 0. -1.
        -11    1    3    3    0    0  0.17162426752E+01 -0.67471408093E+01 -0.22079222491E+02  0.23150841542E+02  0.51100000000E-03 0.  1.
        -12    1    3    3    0    0  0.16004717203E+02 -0.92532518960E+01  0.15136222521E+02  0.23893071707E+02  0.00000000000E+00 0.  1.
</event>
<event>
 7    1  0.1360399E-013  0.7246156E+02  0.7816164E-02  0.1226708E+00
        -11   -1    0    0    0    0  0.00000000000E+00  0.00000000000E+00  0.45593999997E+02  0.45594000000E+02  0.51100000000E-03 0. -1.
         11   -1    0    0    0    0 -0.00000000000E+00 -0.00000000000E+00 -0.45593999997E+02  0.45594000000E+02  0.51100000000E-03 0.  1.
    9900012    2    1    2    0    0  0.37839973061E+01 -0.17982392297E+02  0.36048108955E+01  0.72461555331E+02  0.69999980508E+02 0.  0.
         12    1    1    2    0    0 -0.37839973061E+01  0.17982392297E+02 -0.36048108955E+01  0.18726444669E+02  0.00000000000E+00 0. -1.
         11    1    3    3    0    0 -0.76668877797E+01 -0.11966374400E+02  0.72048844165E+01  0.15933789387E+02  0.51100000000E-03 0. -1.
        -11    1    3    3    0    0  0.15215774933E+02  0.21368091030E+02 -0.10138938166E+02  0.28123178847E+02  0.51100000000E-03 0.  1.
        -12    1    3    3    0    0 -0.37648898471E+01 -0.27384108927E+02  0.65388646454E+01  0.28404587097E+02  0.00000000000E+00 0.  1.
</event>
<event>
 7    1  0.1360399E-013  0.7246156E+02  0.7816164E-02  0.1226708E+00
        -11   -1    0    0    0    0  0.00000000000E+00  0.00000000000E+00  0.45593999997E+02  0.45594000000E+02  0.51100000000E-03 0.  1.
         11   -1    0    0    0    0 -0.00000000000E+00 -0.00000000000E+00 -0.45593999997E+02  0.45594000000E+02  0.51100000000E-03 0. -1.
    9900012    2    1    2    0    0 -0.14731091544E+02  0.36959507049E+01 -0.10955107519E+02  0.72461561726E+02  0.69999988838E+02 0.  0.
         12    1    1    2    0    0  0.14731091544E+02 -0.36959507049E+01  0.10955107519E+02  0.18726438274E+02  0.00000000000E+00 0. -1.
         11    1    3    3    0    0 -0.27831073181E+02  0.15492210503E+02 -0.10449973436E+02  0.33522815599E+02  0.51100000000E-03 0. -1.
        -11    1    3    3    0    0  0.21137466829E+01 -0.22973472982E+02 -0.21984936364E+01  0.23175024497E+02  0.51100000000E-03 0.  1.
        -12    1    3    3    0    0  0.10986234954E+02  0.11177213185E+02  0.16933595537E+01  0.15763721629E+02  0.00000000000E+00 0.  1.
</event>
<event>
 7    1  0.1360399E-013  0.7246156E+02  0.7816164E-02  0.1226708E+00
        -11   -1    0    0    0    0  0.00000000000E+00  0.00000000000E+00  0.45593999997E+02  0.45594000000E+02  0.51100000000E-03 0.  1.
         11   -1    0    0    0    0 -0.00000000000E+00 -0.00000000000E+00 -0.45593999997E+02  0.45594000000E+02  0.51100000000E-03 0. -1.
    9900012    2    1    2    0    0  0.14564904283E+02 -0.90705417534E+01  0.75012340012E+01  0.72461556771E+02  0.69999982383E+02 0.  0.
         12    1    1    2    0    0 -0.14564904283E+02  0.90705417534E+01 -0.75012340012E+01  0.18726443229E+02  0.00000000000E+00 0. -1.
         11    1    3    3    0    0  0.23570217472E+02 -0.27332748248E+02 -0.23037412599E+01  0.36165473902E+02  0.51100000000E-03 0. -1.
        -11    1    3    3    0    0  0.99177984142E+00  0.23511202607E+02  0.51874565444E+01  0.24097094865E+02  0.51100000000E-03 0.  1.
         12    1    3    3    0    0 -0.99970930298E+01 -0.52489961117E+01  0.46175187166E+01  0.12198988004E+02  0.00000000000E+00 0. -1.
</event>
<event>
 7    1  0.1360399E-013  0.7246158E+02  0.7816164E-02  0.1226708E+00
        -11   -1    0    0    0    0  0.00000000000E+00  0.00000000000E+00  0.45593999997E+02  0.45594000000E+02  0.51100000000E-03 0.  1.
         11   -1    0    0    0    0 -0.00000000000E+00 -0.00000000000E+00 -0.45593999997E+02  0.45594000000E+02  0.51100000000E-03 0. -1.
    9900012    2    1    2    0    0 -0.13779042701E+02  0.93255423645E+01  0.85936626813E+01  0.72461580256E+02  0.70000012977E+02 0.  0.
         12    1    1    2    0    0  0.13779042701E+02 -0.93255423645E+01 -0.85936626813E+01  0.18726419744E+02  0.00000000000E+00 0. -1.
         11    1    3    3    0    0 -0.66134501978E+01  0.10823179183E+02  0.12239957555E+01  0.12742727221E+02  0.51100000000E-03 0. -1.
        -11    1    3    3    0    0 -0.14776076866E+01 -0.48589756557E+01 -0.25597346613E+02  0.26096304772E+02  0.51100000000E-03 0.  1.
        -12    1    3    3    0    0 -0.56879848168E+01  0.33613388369E+01  0.32967013538E+02  0.33622548263E+02  0.00000000000E+00 0.  1.
</event>
<event>
 7    1  0.1360399E-013  0.7246162E+02  0.7816164E-02  0.1226708E+00
        -11   -1    0    0    0    0  0.00000000000E+00  0.00000000000E+00  0.45593999997E+02  0.45594000000E+02  0.51100000000E-03 0. -1.
         11   -1    0    0    0    0 -0.00000000000E+00 -0.00000000000E+00 -0.45593999997E+02  0.45594000000E+02  0.51100000000E-03 0.  1.
    9900012    2    1    2    0    0  0.12567753916E+02 -0.12713743552E+02  0.55758158438E+01  0.72461616582E+02  0.70000060298E+02 0.  0.
         12    1    1    2    0    0 -0.12567753916E+02  0.12713743552E+02 -0.55758158438E+01  0.18726383418E+02  0.00000000000E+00 0. -1.
         11    1    3    3    0    0  0.78681683373E+00  0.25128332794E+01  0.93857164680E+01  0.97480811290E+01  0.51100000000E-03 0. -1.
        -11    1    3    3    0    0 -0.14420281336E+02 -0.54463957156E+01 -0.23786671885E+02  0.28344549735E+02  0.51100000000E-03 0.  1.
        -12    1    3    3    0    0  0.26201218418E+02 -0.97801811158E+01  0.19976771261E+02  0.34368985717E+02  0.00000000000E+00 0.  1.
</event>
<event>
 7    1  0.1360399E-013  0.7246166E+02  0.7816164E-02  0.1226708E+00
        -11   -1    0    0    0    0  0.00000000000E+00  0.00000000000E+00  0.45593999997E+02  0.45594000000E+02  0.51100000000E-03 0.  1.
         11   -1    0    0    0    0 -0.00000000000E+00 -0.00000000000E+00 -0.45593999997E+02  0.45594000000E+02  0.51100000000E-03 0. -1.
    9900012    2    1    2    0    0 -0.79070990774E+01 -0.16252441598E+02  0.49001915293E+01  0.72461656237E+02  0.70000111956E+02 0.  0.
         12    1    1    2    0    0  0.79070990774E+01  0.16252441598E+02 -0.49001915293E+01  0.18726343763E+02  0.00000000000E+00 0. -1.
         11    1    3    3    0    0  0.45332568358E+01 -0.14495308183E+01 -0.20137277500E+02  0.20692063757E+02  0.51100000000E-03 0. -1.
        -11    1    3    3    0    0 -0.10407243050E+02 -0.27381523241E+02  0.77623109454E+01  0.30303663052E+02  0.51100000000E-03 0.  1.
         12    1    3    3    0    0 -0.20331128628E+01  0.12578612461E+02  0.17275158084E+02  0.21465929428E+02  0.00000000000E+00 0. -1.
</event>
<event>
 7    1  0.1360399E-013  0.7246157E+02  0.7816164E-02  0.1226708E+00
        -11   -1    0    0    0    0  0.00000000000E+00  0.00000000000E+00  0.45593999997E+02  0.45594000000E+02  0.51100000000E-03 0. -1.
         11   -1    0    0    0    0 -0.00000000000E+00 -0.00000000000E+00 -0.45593999997E+02  0.45594000000E+02  0.51100000000E-03 0.  1.
    9900012    2    1    2    0    0  0.82865001190E+01 -0.14016378897E+02 -0.92495541539E+01  0.72461569116E+02  0.69999998465E+02 0.  0.
         12    1    1    2    0    0 -0.82865001190E+01  0.14016378897E+02  0.92495541539E+01  0.18726430884E+02  0.00000000000E+00 0. -1.
         11    1    3    3    0    0 -0.62448345785E+01  0.13144921547E+02  0.16237355696E+01  0.14643204528E+02  0.51100000000E-03 0. -1.
        -11    1    3    3    0    0 -0.18618288186E+01 -0.37047044796E+02 -0.10945526706E+02  0.38674985324E+02  0.51100000000E-03 0.  1.
        -12    1    3    3    0    0  0.16393163516E+02  0.98857443528E+01  0.72236982487E-01  0.19143379264E+02  0.00000000000E+00 0.  1.
</event>
<event>
 7    1  0.1360399E-013  0.7246156E+02  0.7816164E-02  0.1226708E+00
        -11   -1    0    0    0    0  0.00000000000E+00  0.00000000000E+00  0.45593999997E+02  0.45594000000E+02  0.51100000000E-03 0. -1.
         11   -1    0    0    0    0 -0.00000000000E+00 -0.00000000000E+00 -0.45593999997E+02  0.45594000000E+02  0.51100000000E-03 0.  1.
    9900012    2    1    2    0    0 -0.75063155053E+01 -0.12630889920E+02 -0.11610146711E+02  0.72461557217E+02  0.69999982965E+02 0.  0.
         12    1    1    2    0    0  0.75063155053E+01  0.12630889920E+02  0.11610146711E+02  0.18726442783E+02  0.00000000000E+00 0. -1.
         11    1    3    3    0    0  0.11470416215E+02 -0.23991153447E+02  0.19664796611E+02  0.33073404994E+02  0.51100000000E-03 0. -1.
        -11    1    3    3    0    0 -0.65684496411E+01  0.72258271561E+01 -0.77294067690E+01  0.12453948693E+02  0.51100000000E-03 0.  1.
         12    1    3    3    0    0 -0.12408282080E+02  0.41344363714E+01 -0.23545536553E+02  0.26934203531E+02  0.00000000000E+00 0. -1.
</event>
<event>
 7    1  0.1360399E-013  0.7246162E+02  0.7816164E-02  0.1226708E+00
        -11   -1    0    0    0    0  0.00000000000E+00  0.00000000000E+00  0.45593999997E+02  0.45594000000E+02  0.51100000000E-03 0.  1.
         11   -1    0    0    0    0 -0.00000000000E+00 -0.00000000000E+00 -0.45593999997E+02  0.45594000000E+02  0.51100000000E-03 0. -1.
    9900012    2    1    2    0    0 -0.38632119231E+01  0.17500367126E+02 -0.54304725715E+01  0.72461620524E+02  0.70000065434E+02 0.  0.
         12    1    1    2    0    0  0.38632119231E+01 -0.17500367126E+02  0.54304725715E+01  0.18726379476E+02  0.00000000000E+00 0. -1.
         11    1    3    3    0    0 -0.11132717704E+02  0.31760097889E+02 -0.11359415532E+02  0.35520100547E+02  0.51100000000E-03 0. -1.
        -11    1    3    3    0    0  0.17666887677E+02 -0.82062619535E+00  0.87256325502E+01  0.19721283204E+02  0.51100000000E-03 0.  1.
         12    1    3    3    0    0 -0.10397381897E+02 -0.13439104567E+02 -0.27966895896E+01  0.17220236773E+02  0.00000000000E+00 0. -1.
</event>
<event>
 8    1  0.1360399E-013  0.7246156E+02  0.7816164E-02  0.1226708E+00
        -11   -1    0    0    0    0  0.00000000000E+00  0.00000000000E+00  0.45593999997E+02  0.45594000000E+02  0.51100000000E-03 0.  1.
         11   -1    0    0    0    0 -0.00000000000E+00 -0.00000000000E+00 -0.45593999997E+02  0.45594000000E+02  0.51100000000E-03 0. -1.
    9900012    2    1    2    0    0 -0.63791861355E+01 -0.13661382564E+02 -0.11106397016E+02  0.72461562966E+02  0.69999990453E+02 0.  0.
         24    2    3    3    0    0 -0.10121354324E+02 -0.22547456021E+02 -0.12539149978E+01  0.58676153055E+02  0.53202340626E+02 0.  0.
         12    1    1    2    0    0  0.63791861355E+01  0.13661382564E+02  0.11106397016E+02  0.18726437034E+02  0.00000000000E+00 0. -1.
         11    1    3    3    0    0  0.37421681885E+01  0.88860734567E+01 -0.98524820185E+01  0.13785409911E+02  0.51100000000E-03 0. -1.
        -11    1    4    4    0    0 -0.58369263914E+01 -0.10289513371E+02  0.25957079573E+02  0.28525668710E+02  0.51100000000E-03 0.  1.
         12    1    4    4    0    0 -0.42844279326E+01 -0.12257942649E+02 -0.27210994571E+02  0.30150484345E+02  0.00000000000E+00 0. -1.
</event>
<event>
 7    1  0.1360399E-013  0.7246157E+02  0.7816164E-02  0.1226708E+00
        -11   -1    0    0    0    0  0.00000000000E+00  0.00000000000E+00  0.45593999997E+02  0.45594000000E+02  0.51100000000E-03 0. -1.
         11   -1    0    0    0    0 -0.00000000000E+00 -0.00000000000E+00 -0.45593999997E+02  0.45594000000E+02  0.51100000000E-03 0.  1.
    9900012    2    1    2    0    0  0.53552837477E-02  0.95386858565E+01 -0.16114977726E+02  0.72461573121E+02  0.70000003682E+02 0.  0.
         12    1    1    2    0    0 -0.53552837477E-02 -0.95386858565E+01  0.16114977726E+02  0.18726426879E+02  0.00000000000E+00 0. -1.
         11    1    3    3    0    0 -0.64855536191E+01  0.89456600043E+01  0.17569730484E+02  0.20755304580E+02  0.51100000000E-03 0. -1.
        -11    1    3    3    0    0 -0.11349465931E+01  0.12471146739E+02 -0.35341012868E+02  0.37494063470E+02  0.51100000000E-03 0.  1.
         12    1    3    3    0    0  0.76258554960E+01 -0.11878120886E+02  0.16563046570E+01  0.14212205070E+02  0.00000000000E+00 0. -1.
</event>
<event>
 7    1  0.1360399E-013  0.7246160E+02  0.7816164E-02  0.1226708E+00
        -11   -1    0    0    0    0  0.00000000000E+00  0.00000000000E+00  0.45593999997E+02  0.45594000000E+02  0.51100000000E-03 0.  1.
         11   -1    0    0    0    0 -0.00000000000E+00 -0.00000000000E+00 -0.45593999997E+02  0.45594000000E+02  0.51100000000E-03 0. -1.
    9900012    2    1    2    0    0 -0.67393412903E+01  0.17171732686E+02  0.32235130804E+01  0.72461597221E+02  0.70000035077E+02 0.  0.
         12    1    1    2    0    0  0.67393412903E+01 -0.17171732686E+02 -0.32235130804E+01  0.18726402779E+02  0.00000000000E+00 0. -1.
         11    1    3    3    0    0 -0.21607786982E+02 -0.69872336177E+01  0.15247847673E+00  0.22709934871E+02  0.51100000000E-03 0. -1.
        -11    1    3    3    0    0  0.28708892655E+02  0.20646180516E+02  0.16227884841E+01  0.35399134595E+02  0.51100000000E-03 0.  1.
        -12    1    3    3    0    0 -0.13840446963E+02  0.35127857879E+01  0.14482461195E+01  0.14352527755E+02  0.00000000000E+00 0.  1.
</event>
<event>
 7    1  0.1360399E-013  0.7246162E+02  0.7816164E-02  0.1226708E+00
        -11   -1    0    0    0    0  0.00000000000E+00  0.00000000000E+00  0.45593999997E+02  0.45594000000E+02  0.51100000000E-03 0. -1.
         11   -1    0    0    0    0 -0.00000000000E+00 -0.00000000000E+00 -0.45593999997E+02  0.45594000000E+02  0.51100000000E-03 0.  1.
    9900012    2    1    2    0    0  0.27259471609E+01  0.14647528578E+02 -0.11344444358E+02  0.72461620233E+02  0.70000065055E+02 0.  0.
         12    1    1    2    0    0 -0.27259471609E+01 -0.14647528578E+02  0.11344444358E+02  0.18726379767E+02  0.00000000000E+00 0. -1.
         11    1    3    3    0    0  0.51124295045E+01 -0.19180623730E+02  0.50286270231E+01  0.20477313108E+02  0.51100000000E-03 0. -1.
        -11    1    3    3    0    0  0.31384817455E+00  0.29989370756E+02 -0.27008145118E+02  0.40359642739E+02  0.51100000000E-03 0.  1.
        -12    1    3    3    0    0 -0.27003305181E+01  0.38387815517E+01  0.10635073737E+02  0.11624664386E+02  0.00000000000E+00 0.  1.
</event>
<event>
 7    1  0.1360399E-013  0.7246155E+02  0.7816164E-02  0.1226708E+00
        -11   -1    0    0    0    0  0.00000000000E+00  0.00000000000E+00  0.45593999997E+02  0.45594000000E+02  0.51100000000E-03 0.  1.
         11   -1    0    0    0    0 -0.00000000000E+00 -0.00000000000E+00 -0.45593999997E+02  0.45594000000E+02  0.51100000000E-03 0. -1.
    9900012    2    1    2    0    0  0.14984243743E+02  0.74717817102E+01  0.83859904752E+01  0.72461550291E+02  0.69999973942E+02 0.  0.
         12    1    1    2    0    0 -0.14984243743E+02 -0.74717817102E+01 -0.83859904752E+01  0.18726449709E+02  0.00000000000E+00 0. -1.
         11    1    3    3    0    0  0.13225791846E+01  0.42770993302E+01 -0.24337938839E+01  0.50956989031E+01  0.51100000000E-03 0. -1.
        -11    1    3    3    0    0 -0.14715888658E+02  0.87780903005E+01  0.28654759847E+02  0.33387235742E+02  0.51100000000E-03 0.  1.
        -12    1    3    3    0    0  0.28377553216E+02 -0.55834079205E+01 -0.17834975488E+02  0.33978615646E+02  0.00000000000E+00 0.  1.
</event>
<event>
 7    1  0.1360399E-013  0.7246153E+02  0.7816164E-02  0.1226708E+00
        -11   -1    0    0    0    0  0.00000000000E+00  0.00000000000E+00  0.45593999997E+02  0.45594000000E+02  0.51100000000E-03 0.  1.
         11   -1    0    0    0    0 -0.00000000000E+00 -0.00000000000E+00 -0.45593999997E+02  0.45594000000E+02  0.51100000000E-03 0. -1.
    9900012    2    1    2    0    0  0.28810362541E+01 -0.12244643262E+02  0.13872603825E+02  0.72461526883E+02  0.69999943449E+02 0.  0.
         12    1    1    2    0    0 -0.28810362541E+01  0.12244643262E+02 -0.13872603825E+02  0.18726473117E+02  0.00000000000E+00 0. -1.
         11    1    3    3    0    0 -0.82422245258E+01 -0.12631826759E+02  0.72709908114E+01  0.16744092094E+02  0.51100000000E-03 0. -1.
        -11    1    3    3    0    0  0.28393071200E+02 -0.13375421130E+02  0.10891128028E+02  0.33221755712E+02  0.51100000000E-03 0.  1.
        -12    1    3    3    0    0 -0.17269810420E+02  0.13762604628E+02 -0.42895150139E+01  0.22495679078E+02  0.00000000000E+00 0.  1.
</event>
<event>
 7    1  0.1360399E-013  0.7246159E+02  0.7816164E-02  0.1226708E+00
        -11   -1    0    0    0    0  0.00000000000E+00  0.00000000000E+00  0.45593999997E+02  0.45594000000E+02  0.51100000000E-03 0.  1.
         11   -1    0    0    0    0 -0.00000000000E+00 -0.00000000000E+00 -0.45593999997E+02  0.45594000000E+02  0.51100000000E-03 0. -1.
    9900012    2    1    2    0    0 -0.13317009687E+02 -0.93470268300E+01  0.92719325923E+01  0.72461591066E+02  0.70000027059E+02 0.  0.
         12    1    1    2    0    0  0.13317009687E+02  0.93470268300E+01 -0.92719325923E+01  0.18726408934E+02  0.00000000000E+00 0. -1.
         11    1    3    3    0    0 -0.63234222407E+01  0.99388363121E+01 -0.16113127712E+02  0.19959935396E+02  0.51100000000E-03 0. -1.
        -11    1    3    3    0    0  0.42537408412E+01 -0.10146403615E+02  0.33935801239E+02  0.35674674819E+02  0.51100000000E-03 0.  1.
         12    1    3    3    0    0 -0.11247328287E+02 -0.91394595275E+01 -0.85507409341E+01  0.16826980852E+02  0.00000000000E+00 0. -1.
</event>
<event>
 7    1  0.1360399E-013  0.7246160E+02  0.7816164E-02  0.1226708E+00
        -11   -1    0    0    0    0  0.00000000000E+00  0.00000000000E+00  0.45593999997E+02  0.45594000000E+02  0.51100000000E-03 0.  1.
         11   -1    0    0    0    0 -0.00000000000E+00 -0.00000000000E+00 -0.45593999997E+02  0.45594000000E+02  0.51100000000E-03 0. -1.
    9900012    2    1    2    0    0 -0.94141090825E+01 -0.10282010308E+02  0.12503314105E+02  0.72461600202E+02  0.70000038961E+02 0.  0.
         12    1    1    2    0    0  0.94141090825E+01  0.10282010308E+02 -0.12503314105E+02  0.18726399798E+02  0.00000000000E+00 0. -1.
         11    1    3    3    0    0  0.78406247580E+01 -0.66630244597E+01 -0.88826037087E+01  0.13593084288E+02  0.51100000000E-03 0. -1.
        -11    1    3    3    0    0 -0.18670940683E+02  0.71769288740E+01  0.35677149050E+02  0.40901971818E+02  0.51100000000E-03 0.  1.
        -12    1    3    3    0    0  0.14162068429E+01 -0.10795914722E+02 -0.14291231236E+02  0.17966544096E+02  0.00000000000E+00 0.  1.
</event>
<event>
 7    1  0.1360399E-013  0.7246156E+02  0.7816164E-02  0.1226708E+00
        -11   -1    0    0    0    0  0.00000000000E+00  0.00000000000E+00  0.45593999997E+02  0.45594000000E+02  0.51100000000E-03 0.  1.
         11   -1    0    0    0    0 -0.00000000000E+00 -0.00000000000E+00 -0.45593999997E+02  0.45594000000E+02  0.51100000000E-03 0. -1.
    9900012    2    1    2    0    0  0.50810358507E+01 -0.11670192457E+02  0.13735693211E+02  0.72461559193E+02  0.69999985539E+02 0.  0.
         12    1    1    2    0    0 -0.50810358507E+01  0.11670192457E+02 -0.13735693211E+02  0.18726440807E+02  0.00000000000E+00 0. -1.
         11    1    3    3    0    0 -0.17903328330E+02  0.80141730970E+01 -0.14207408223E+01  0.19666586904E+02  0.51100000000E-03 0. -1.
        -11    1    3    3    0    0  0.20064320787E+02 -0.24417059659E+02 -0.49008353314E+01  0.31981056241E+02  0.51100000000E-03 0.  1.
         12    1    3    3    0    0  0.29200433928E+01  0.47326941055E+01  0.20057269365E+02  0.20813916049E+02  0.00000000000E+00 0. -1.
</event>
<event>
 7    1  0.1360399E-013  0.7246157E+02  0.7816164E-02  0.1226708E+00
        -11   -1    0    0    0    0  0.00000000000E+00  0.00000000000E+00  0.45593999997E+02  0.45594000000E+02  0.51100000000E-03 0.  1.
         11   -1    0    0    0    0 -0.00000000000E+00 -0.00000000000E+00 -0.45593999997E+02  0.45594000000E+02  0.51100000000E-03 0. -1.
    9900012    2    1    2    0    0  0.30081779929E+01  0.16868496018E+02  0.75553841094E+01  0.72461571569E+02  0.70000001660E+02 0.  0.
         12    1    1    2    0    0 -0.30081779929E+01 -0.16868496018E+02 -0.75553841094E+01  0.18726428431E+02  0.00000000000E+00 0. -1.
         11    1    3    3    0    0 -0.64388518703E+01 -0.79032721158E+01 -0.17387185855E+02  0.20155266204E+02  0.51100000000E-03 0. -1.
        -11    1    3    3    0    0 -0.76350084895E+01  0.19008643453E+02  0.27293538381E+02  0.34125637257E+02  0.51100000000E-03 0.  1.
         12    1    3    3    0    0  0.17082038353E+02  0.57631246806E+01 -0.23509684166E+01  0.18180668108E+02  0.00000000000E+00 0. -1.
</event>
<event>
 7    1  0.1360399E-013  0.7246157E+02  0.7816164E-02  0.1226708E+00
        -11   -1    0    0    0    0  0.00000000000E+00  0.00000000000E+00  0.45593999997E+02  0.45594000000E+02  0.51100000000E-03 0.  1.
         11   -1    0    0    0    0 -0.00000000000E+00 -0.00000000000E+00 -0.45593999997E+02  0.45594000000E+02  0.51100000000E-03 0. -1.
    9900012    2    1    2    0    0 -0.70007577809E+01  0.12349381052E+02  0.12213165795E+02  0.72461568396E+02  0.69999997527E+02 0.  0.
         12    1    1    2    0    0  0.70007577809E+01 -0.12349381052E+02 -0.12213165795E+02  0.18726431604E+02  0.00000000000E+00 0. -1.
         11    1    3    3    0    0 -0.12866560882E+02  0.15656175492E+01  0.22439937034E+02  0.25914287982E+02  0.51100000000E-03 0. -1.
        -11    1    3    3    0    0  0.13529189439E+02 -0.13505945718E+02 -0.42726510576E-01  0.19116782220E+02  0.51100000000E-03 0.  1.
         12    1    3    3    0    0 -0.76633863385E+01  0.24289709220E+02 -0.10184044728E+02  0.27430498195E+02  0.00000000000E+00 0. -1.
</event>
<event>
 7    1  0.1360399E-013  0.7246156E+02  0.7816164E-02  0.1226708E+00
        -11   -1    0    0    0    0  0.00000000000E+00  0.00000000000E+00  0.45593999997E+02  0.45594000000E+02  0.51100000000E-03 0.  1.
         11   -1    0    0    0    0 -0.00000000000E+00 -0.00000000000E+00 -0.45593999997E+02  0.45594000000E+02  0.51100000000E-03 0. -1.
    9900012    2    1    2    0    0 -0.18447344933E+02  0.32169670259E+01  0.16131188362E+00  0.72461563247E+02  0.69999990820E+02 0.  0.
         12    1    1    2    0    0  0.18447344933E+02 -0.32169670259E+01 -0.16131188362E+00  0.18726436753E+02  0.00000000000E+00 0. -1.
         11    1    3    3    0    0 -0.10408326153E+02 -0.32123556580E+02 -0.24505298975E+01  0.33856479996E+02  0.51100000000E-03 0. -1.
        -11    1    3    3    0    0 -0.10732029034E+02  0.33062076348E+02  0.35879636505E+01  0.34944968494E+02  0.51100000000E-03 0.  1.
         12    1    3    3    0    0  0.26930102536E+01  0.22784472575E+01 -0.97612186938E+00  0.36601147571E+01  0.00000000000E+00 0. -1.
</event>
<event>
 7    1  0.1360399E-013  0.7246152E+02  0.7816164E-02  0.1226708E+00
        -11   -1    0    0    0    0  0.00000000000E+00  0.00000000000E+00  0.45593999997E+02  0.45594000000E+02  0.51100000000E-03 0.  1.
         11   -1    0    0    0    0 -0.00000000000E+00 -0.00000000000E+00 -0.45593999997E+02  0.45594000000E+02  0.51100000000E-03 0. -1.
    9900012    2    1    2    0    0  0.11487401066E+02 -0.24937543104E+01  0.14577445363E+02  0.72461518560E+02  0.69999932606E+02 0.  0.
         12    1    1    2    0    0 -0.11487401066E+02  0.24937543104E+01 -0.14577445363E+02  0.18726481440E+02  0.00000000000E+00 0. -1.
         11    1    3    3    0    0 -0.22413220151E+02 -0.10716936800E+02  0.88784946153E+01  0.26382434285E+02  0.51100000000E-03 0. -1.
        -11    1    3    3    0    0  0.29643494140E+02  0.14894067862E+02  0.12690685758E+02  0.35519339909E+02  0.51100000000E-03 0.  1.
        -12    1    3    3    0    0  0.42571270775E+01 -0.66708853725E+01 -0.69917350100E+01  0.10559744365E+02  0.00000000000E+00 0.  1.
</event>
<event>
 7    1  0.1360399E-013  0.7246166E+02  0.7816164E-02  0.1226708E+00
        -11   -1    0    0    0    0  0.00000000000E+00  0.00000000000E+00  0.45593999997E+02  0.45594000000E+02  0.51100000000E-03 0.  1.
         11   -1    0    0    0    0 -0.00000000000E+00 -0.00000000000E+00 -0.45593999997E+02  0.45594000000E+02  0.51100000000E-03 0. -1.
    9900012    2    1    2    0    0 -0.40589112036E+01 -0.17159767037E+02  0.63042549802E+01  0.72461655034E+02  0.70000110389E+02 0.  0.
         12    1    1    2    0    0  0.40589112036E+01  0.17159767037E+02 -0.63042549802E+01  0.18726344966E+02  0.00000000000E+00 0. -1.
         11    1    3    3    0    0  0.24651023615E+01  0.38959109293E+01 -0.24191330082E+02  0.24626719291E+02  0.51100000000E-03 0. -1.
        -11    1    3    3    0    0 -0.14817455683E+02 -0.29999277753E+01  0.20833591590E+02  0.25740922640E+02  0.51100000000E-03 0.  1.
         12    1    3    3    0    0  0.82934421180E+01 -0.18055750191E+02  0.96619934725E+01  0.22094013103E+02  0.00000000000E+00 0. -1.
</event>
<event>
 7    1  0.1360399E-013  0.7246157E+02  0.7816164E-02  0.1226708E+00
        -11   -1    0    0    0    0  0.00000000000E+00  0.00000000000E+00  0.45593999997E+02  0.45594000000E+02  0.51100000000E-03 0.  1.
         11   -1    0    0    0    0 -0.00000000000E+00 -0.00000000000E+00 -0.45593999997E+02  0.45594000000E+02  0.51100000000E-03 0. -1.
    9900012    2    1    2    0    0  0.66831117735E+01 -0.16606521973E+02 -0.54989808896E+01  0.72461565587E+02  0.69999993868E+02 0.  0.
         12    1    1    2    0    0 -0.66831117735E+01  0.16606521973E+02  0.54989808896E+01  0.18726434413E+02  0.00000000000E+00 0. -1.
         11    1    3    3    0    0 -0.12806894404E+02 -0.45179553547E+01 -0.10849911222E+02  0.17382434773E+02  0.51100000000E-03 0. -1.
        -11    1    3    3    0    0  0.79763470670E+01 -0.30861373723E+02  0.80928129896E+01  0.32886777327E+02  0.51100000000E-03 0.  1.
        -12    1    3    3    0    0  0.11513659111E+02  0.18772807106E+02 -0.27418826573E+01  0.22192353486E+02  0.00000000000E+00 0.  1.
</event>
<event>
 7    1  0.1360399E-013  0.7246153E+02  0.7816164E-02  0.1226708E+00
        -11   -1    0    0    0    0  0.00000000000E+00  0.00000000000E+00  0.45593999997E+02  0.45594000000E+02  0.51100000000E-03 0.  1.
         11   -1    0    0    0    0 -0.00000000000E+00 -0.00000000000E+00 -0.45593999997E+02  0.45594000000E+02  0.51100000000E-03 0. -1.
    9900012    2    1    2    0    0 -0.11289330543E+02 -0.99496806362E+01  0.11146099833E+02  0.72461530222E+02  0.69999947799E+02 0.  0.
         12    1    1    2    0    0  0.11289330543E+02  0.99496806362E+01 -0.11146099833E+02  0.18726469778E+02  0.00000000000E+00 0. -1.
         11    1    3    3    0    0  0.11406748697E+02  0.46474193970E+01  0.30624658677E+02  0.33008819158E+02  0.51100000000E-03 0. -1.
        -11    1    3    3    0    0 -0.15828184752E+02 -0.68378172647E-01 -0.16938590352E+02  0.23183009975E+02  0.51100000000E-03 0.  1.
        -12    1    3    3    0    0 -0.68678944878E+01 -0.14528721861E+02 -0.25399684923E+01  0.16269701089E+02  0.00000000000E+00 0.  1.
</event>
<event>
 7    1  0.1360399E-013  0.7246157E+02  0.7816164E-02  0.1226708E+00
        -11   -1    0    0    0    0  0.00000000000E+00  0.00000000000E+00  0.45593999997E+02  0.45594000000E+02  0.51100000000E-03 0. -1.
         11   -1    0    0    0    0 -0.00000000000E+00 -0.00000000000E+00 -0.45593999997E+02  0.45594000000E+02  0.51100000000E-03 0.  1.
    9900012    2    1    2    0    0 -0.29811043287E+01  0.13570804363E+02 -0.12554893397E+02  0.72461573158E+02  0.70000003730E+02 0.  0.
         12    1    1    2    0    0  0.29811043287E+01 -0.13570804363E+02  0.12554893397E+02  0.18726426842E+02  0.00000000000E+00 0. -1.
         11    1    3    3    0    0  0.21962678532E+02 -0.12903938628E+02  0.24584487167E+01  0.25591304203E+02  0.51100000000E-03 0. -1.
        -11    1    3    3    0    0 -0.20469606594E+02  0.26155775201E+02 -0.21905256493E+01  0.33285549017E+02  0.51100000000E-03 0.  1.
        -12    1    3    3    0    0 -0.44741762671E+01  0.31896778998E+00 -0.12822816464E+02  0.13584719938E+02  0.00000000000E+00 0.  1.
</event>
<event>
 7    1  0.1360399E-013  0.7246178E+02  0.7816164E-02  0.1226707E+00
        -11   -1    0    0    0    0  0.00000000000E+00  0.00000000000E+00  0.45593999997E+02  0.45594000000E+02  0.51100000000E-03 0. -1.
         11   -1    0    0    0    0 -0.00000000000E+00 -0.00000000000E+00 -0.45593999997E+02  0.45594000000E+02  0.51100000000E-03 0.  1.
    9900012    2    1    2    0    0 -0.39023353498E+01 -0.74536283327E+01 -0.16729814264E+02  0.72461775559E+02  0.70000267395E+02 0.  0.
         12    1    1    2    0    0  0.39023353498E+01  0.74536283327E+01  0.16729814264E+02  0.18726224441E+02  0.00000000000E+00 0. -1.
         11    1    3    3    0    0 -0.23547894723E+02 -0.51505282074E+01  0.15041238175E+01  0.24151473566E+02  0.51100000000E-03 0. -1.
        -11    1    3    3    0    0  0.47610058222E+01  0.45585889233E+01 -0.28312359395E+02  0.29069530512E+02  0.51100000000E-03 0.  1.
        -12    1    3    3    0    0  0.14884553551E+02 -0.68616890486E+01  0.10078421314E+02  0.19240771481E+02  0.00000000000E+00 0.  1.
</event>
<event>
 7    1  0.1360399E-013  0.7246157E+02  0.7816164E-02  0.1226708E+00
        -11   -1    0    0    0    0  0.00000000000E+00  0.00000000000E+00  0.45593999997E+02  0.45594000000E+02  0.51100000000E-03 0.  1.
         11   -1    0    0    0    0 -0.00000000000E+00 -0.00000000000E+00 -0.45593999997E+02  0.45594000000E+02  0.51100000000E-03 0. -1.
    9900012    2    1    2    0    0 -0.18156139598E+02 -0.18948364537E+01  0.41765170108E+01  0.72461572027E+02  0.70000002257E+02 0.  0.
         12    1    1    2    0    0  0.18156139598E+02  0.18948364537E+01 -0.41765170108E+01  0.18726427973E+02  0.00000000000E+00 0. -1.
         11    1    3    3    0    0 -0.31897138461E+02  0.17793707452E+02 -0.30432933621E+01  0.36651126881E+02  0.51100000000E-03 0. -1.
        -11    1    3    3    0    0  0.48938799478E+01 -0.16346658709E+02  0.15640865630E+02  0.23147353841E+02  0.51100000000E-03 0.  1.
        -12    1    3    3    0    0  0.88471189146E+01 -0.33418851965E+01 -0.84210552576E+01  0.12663091305E+02  0.00000000000E+00 0.  1.
</event>
<event>
 7    1  0.1360399E-013  0.7246157E+02  0.7816164E-02  0.1226708E+00
        -11   -1    0    0    0    0  0.00000000000E+00  0.00000000000E+00  0.45593999997E+02  0.45594000000E+02  0.51100000000E-03 0. -1.
         11   -1    0    0    0    0 -0.00000000000E+00 -0.00000000000E+00 -0.45593999997E+02  0.45594000000E+02  0.51100000000E-03 0.  1.
    9900012    2    1    2    0    0  0.11688450512E+02  0.14232679988E-01 -0.14630764787E+02  0.72461565310E+02  0.69999993507E+02 0.  0.
         12    1    1    2    0    0 -0.11688450512E+02 -0.14232679988E-01  0.14630764787E+02  0.18726434690E+02  0.00000000000E+00 0. -1.
         11    1    3    3    0    0 -0.23300690490E+01  0.85011984226E+01  0.21309889165E+02  0.23061027143E+02  0.51100000000E-03 0. -1.
        -11    1    3    3    0    0  0.44170160388E+00  0.46520142867E+01 -0.28841110495E+02  0.29217220814E+02  0.51100000000E-03 0.  1.
         12    1    3    3    0    0  0.13576817957E+02 -0.13138980029E+02 -0.70995434574E+01  0.20183317353E+02  0.00000000000E+00 0. -1.
</event>
<event>
 7    1  0.1360399E-013  0.7246165E+02  0.7816164E-02  0.1226708E+00
        -11   -1    0    0    0    0  0.00000000000E+00  0.00000000000E+00  0.45593999997E+02  0.45594000000E+02  0.51100000000E-03 0. -1.
         11   -1    0    0    0    0 -0.00000000000E+00 -0.00000000000E+00 -0.45593999997E+02  0.45594000000E+02  0.51100000000E-03 0.  1.
    9900012    2    1    2    0    0  0.67295118580E+01  0.16669639475E+02  0.52452672452E+01  0.72461653892E+02  0.70000108902E+02 0.  0.
         12    1    1    2    0    0 -0.67295118580E+01 -0.16669639475E+02 -0.52452672452E+01  0.18726346108E+02  0.00000000000E+00 0. -1.
         11    1    3    3    0    0  0.17690920685E+02  0.50443393463E+01  0.25098148231E+02  0.31118018558E+02  0.51100000000E-03 0. -1.
        -11    1    3    3    0    0  0.66986316926E+00 -0.10455205948E+02 -0.10089845914E+02  0.14545275484E+02  0.51100000000E-03 0.  1.
         12    1    3    3    0    0 -0.11631271996E+02  0.22080506077E+02 -0.97630350718E+01  0.26798359850E+02  0.00000000000E+00 0. -1.
</event>
<event>
 7    1  0.1360399E-013  0.7246113E+02  0.7816164E-02  0.1226709E+00
        -11   -1    0    0    0    0  0.00000000000E+00  0.00000000000E+00  0.45593999997E+02  0.45594000000E+02  0.51100000000E-03 0.  1.
         11   -1    0    0    0    0 -0.00000000000E+00 -0.00000000000E+00 -0.45593999997E+02  0.45594000000E+02  0.51100000000E-03 0. -1.
    9900012    2    1    2    0    0 -0.12725120678E+02  0.41567456793E+01  0.13095361769E+02  0.72461128110E+02  0.69999423970E+02 0.  0.
         12    1    1    2    0    0  0.12725120678E+02 -0.41567456793E+01 -0.13095361769E+02  0.18726871890E+02  0.00000000000E+00 0. -1.
         11    1    3    3    0    0  0.16882170613E+01  0.45954588394E+01 -0.19325830741E+02  0.19936299879E+02  0.51100000000E-03 0. -1.
        -11    1    3    3    0    0 -0.46541914938E+01 -0.98429484336E+01  0.36725028466E+02  0.38304997695E+02  0.51100000000E-03 0.  1.
         12    1    3    3    0    0 -0.97591462457E+01  0.94042352735E+01 -0.43038359564E+01  0.14219830536E+02  0.00000000000E+00 0. -1.
</event>
<event>
 7    1  0.1360399E-013  0.7246162E+02  0.7816164E-02  0.1226708E+00
        -11   -1    0    0    0    0  0.00000000000E+00  0.00000000000E+00  0.45593999997E+02  0.45594000000E+02  0.51100000000E-03 0.  1.
         11   -1    0    0    0    0 -0.00000000000E+00 -0.00000000000E+00 -0.45593999997E+02  0.45594000000E+02  0.51100000000E-03 0. -1.
    9900012    2    1    2    0    0 -0.12469503330E+02  0.13617163521E+02 -0.31243489777E+01  0.72461622556E+02  0.70000068080E+02 0.  0.
         12    1    1    2    0    0  0.12469503330E+02 -0.13617163521E+02  0.31243489777E+01  0.18726377444E+02  0.00000000000E+00 0. -1.
         11    1    3    3    0    0 -0.24193964246E+02 -0.51315027425E+01  0.22305784975E+02  0.33305078741E+02  0.51100000000E-03 0. -1.
        -11    1    3    3    0    0  0.16903292928E+02  0.10644027855E+02 -0.19134772033E+02  0.27661455888E+02  0.51100000000E-03 0.  1.
         12    1    3    3    0    0 -0.51788320122E+01  0.81046384083E+01 -0.62953619197E+01  0.11495087927E+02  0.00000000000E+00 0. -1.
</event>
<event>
 7    1  0.1360399E-013  0.7246153E+02  0.7816164E-02  0.1226708E+00
        -11   -1    0    0    0    0  0.00000000000E+00  0.00000000000E+00  0.45593999997E+02  0.45594000000E+02  0.51100000000E-03 0.  1.
         11   -1    0    0    0    0 -0.00000000000E+00 -0.00000000000E+00 -0.45593999997E+02  0.45594000000E+02  0.51100000000E-03 0. -1.
    9900012    2    1    2    0    0 -0.16006176802E+01  0.18646732077E+02 -0.64673709264E+00  0.72461525078E+02  0.69999941098E+02 0.  0.
         12    1    1    2    0    0  0.16006176802E+01 -0.18646732077E+02  0.64673709264E+00  0.18726474922E+02  0.00000000000E+00 0. -1.
         11    1    3    3    0    0 -0.49962560876E+01 -0.43106725891E+01 -0.19668308309E+02  0.20745766437E+02  0.51100000000E-03 0. -1.
        -11    1    3    3    0    0  0.15672945069E+02  0.36108323529E+01  0.23393540701E+02  0.28389030702E+02  0.51100000000E-03 0.  1.
        -12    1    3    3    0    0 -0.12277306662E+02  0.19346572314E+02 -0.43719694843E+01  0.23326727939E+02  0.00000000000E+00 0.  1.
</event>
<event>
 7    1  0.1360399E-013  0.7246165E+02  0.7816164E-02  0.1226708E+00
        -11   -1    0    0    0    0  0.00000000000E+00  0.00000000000E+00  0.45593999997E+02  0.45594000000E+02  0.51100000000E-03 0. -1.
         11   -1    0    0    0    0 -0.00000000000E+00 -0.00000000000E+00 -0.45593999997E+02  0.45594000000E+02  0.51100000000E-03 0.  1.
    9900012    2    1    2    0    0  0.37335505063E+01  0.18300860080E+02 -0.13473206042E+01  0.72461650867E+02  0.70000104961E+02 0.  0.
         12    1    1    2    0    0 -0.37335505063E+01 -0.18300860080E+02  0.13473206042E+01  0.18726349133E+02  0.00000000000E+00 0. -1.
         11    1    3    3    0    0 -0.15309939309E+02  0.74522357108E+01 -0.13883685189E+01  0.17083841083E+02  0.51100000000E-03 0. -1.
        -11    1    3    3    0    0  0.11622837708E+02 -0.19619792352E+02  0.57156262726E+01  0.23509466014E+02  0.51100000000E-03 0.  1.
        -12    1    3    3    0    0  0.74206521074E+01  0.30468416720E+02 -0.56745783580E+01  0.31868343771E+02  0.00000000000E+00 0.  1.
</event>
<event>
 7    1  0.1360399E-013  0.7246160E+02  0.7816164E-02  0.1226708E+00
        -11   -1    0    0    0    0  0.00000000000E+00  0.00000000000E+00  0.45593999997E+02  0.45594000000E+02  0.51100000000E-03 0.  1.
         11   -1    0    0    0    0 -0.00000000000E+00 -0.00000000000E+00 -0.45593999997E+02  0.45594000000E+02  0.51100000000E-03 0. -1.
    9900012    2    1    2    0    0  0.40727555665E+01 -0.18220775247E+02  0.14470907805E+01  0.72461599913E+02  0.70000038583E+02 0.  0.
         12    1    1    2    0    0 -0.40727555665E+01  0.18220775247E+02 -0.14470907805E+01  0.18726400087E+02  0.00000000000E+00 0. -1.
         11    1    3    3    0    0 -0.34739610032E+00  0.17905051323E+02  0.10294207409E+02  0.20656288471E+02  0.51100000000E-03 0. -1.
        -11    1    3    3    0    0  0.98749989597E+01 -0.15837151433E+02 -0.20546950626E+02  0.27758028573E+02  0.51100000000E-03 0.  1.
        -12    1    3    3    0    0 -0.54548472929E+01 -0.20288675137E+02  0.11699833997E+02  0.24047282869E+02  0.00000000000E+00 0.  1.
</event>
<event>
 7    1  0.1360399E-013  0.7246155E+02  0.7816164E-02  0.1226708E+00
        -11   -1    0    0    0    0  0.00000000000E+00  0.00000000000E+00  0.45593999997E+02  0.45594000000E+02  0.51100000000E-03 0.  1.
         11   -1    0    0    0    0 -0.00000000000E+00 -0.00000000000E+00 -0.45593999997E+02  0.45594000000E+02  0.51100000000E-03 0. -1.
    9900012    2    1    2    0    0 -0.14919903498E+02  0.90502399676E+01  0.67948160880E+01  0.72461551070E+02  0.69999974957E+02 0.  0.
         12    1    1    2    0    0  0.14919903498E+02 -0.90502399676E+01 -0.67948160880E+01  0.18726448930E+02  0.00000000000E+00 0. -1.
         11    1    3    3    0    0 -0.13972816126E+02  0.40980076917E+01 -0.25605720895E+01  0.14784782285E+02  0.51100000000E-03 0. -1.
        -11    1    3    3    0    0  0.10660987987E+01  0.14020165357E+02  0.31045639209E+02  0.34081275174E+02  0.51100000000E-03 0.  1.
        -12    1    3    3    0    0 -0.20131861706E+01 -0.90679330814E+01 -0.21690251032E+02  0.23595493611E+02  0.00000000000E+00 0.  1.
</event>
<event>
 7    1  0.1360399E-013  0.7246156E+02  0.7816164E-02  0.1226708E+00
        -11   -1    0    0    0    0  0.00000000000E+00  0.00000000000E+00  0.45593999997E+02  0.45594000000E+02  0.51100000000E-03 0.  1.
         11   -1    0    0    0    0 -0.00000000000E+00 -0.00000000000E+00 -0.45593999997E+02  0.45594000000E+02  0.51100000000E-03 0. -1.
    9900012    2    1    2    0    0  0.96629982679E+01  0.10731794077E+02  0.11922025381E+02  0.72461558031E+02  0.69999984025E+02 0.  0.
         12    1    1    2    0    0 -0.96629982679E+01 -0.10731794077E+02 -0.11922025381E+02  0.18726441969E+02  0.00000000000E+00 0. -1.
         11    1    3    3    0    0  0.31407435272E+02  0.53862301950E+01  0.15982015597E+02  0.35649169540E+02  0.51100000000E-03 0. -1.
        -11    1    3    3    0    0 -0.42999156576E+01 -0.10802744184E+02 -0.57690851489E+01  0.12979634058E+02  0.51100000000E-03 0.  1.
         12    1    3    3    0    0 -0.17444521346E+02  0.16148308066E+02  0.17090949323E+01  0.23832754433E+02  0.00000000000E+00 0. -1.
</event>
<event>
 7    1  0.1360399E-013  0.7246159E+02  0.7816164E-02  0.1226708E+00
        -11   -1    0    0    0    0  0.00000000000E+00  0.00000000000E+00  0.45593999997E+02  0.45594000000E+02  0.51100000000E-03 0.  1.
         11   -1    0    0    0    0 -0.00000000000E+00 -0.00000000000E+00 -0.45593999997E+02  0.45594000000E+02  0.51100000000E-03 0. -1.
    9900012    2    1    2    0    0 -0.14413981303E+02 -0.87517404398E+01  0.81438587232E+01  0.72461594775E+02  0.70000031891E+02 0.  0.
         12    1    1    2    0    0  0.14413981303E+02  0.87517404398E+01 -0.81438587232E+01  0.18726405225E+02  0.00000000000E+00 0. -1.
         11    1    3    3    0    0  0.14976063593E+02 -0.10555746058E+02 -0.31673923605E+01  0.18594048247E+02  0.51100000000E-03 0. -1.
        -11    1    3    3    0    0 -0.21113149574E+02  0.22193428661E+02  0.56949938992E+01  0.31156802089E+02  0.51100000000E-03 0.  1.
        -12    1    3    3    0    0 -0.82768953227E+01 -0.20389423042E+02  0.56162571846E+01  0.22710744439E+02  0.00000000000E+00 0.  1.
</event>
<event>
 7    1  0.1360399E-013  0.7246159E+02  0.7816164E-02  0.1226708E+00
        -11   -1    0    0    0    0  0.00000000000E+00  0.00000000000E+00  0.45593999997E+02  0.45594000000E+02  0.51100000000E-03 0. -1.
         11   -1    0    0    0    0 -0.00000000000E+00 -0.00000000000E+00 -0.45593999997E+02  0.45594000000E+02  0.51100000000E-03 0.  1.
    9900012    2    1    2    0    0 -0.16198541940E+02 -0.44187610337E+01 -0.82921676325E+01  0.72461594737E+02  0.70000031841E+02 0.  0.
         12    1    1    2    0    0  0.16198541940E+02  0.44187610337E+01  0.82921676325E+01  0.18726405263E+02  0.00000000000E+00 0. -1.
         11    1    3    3    0    0 -0.60465755384E+00  0.80878543491E+01  0.24713624096E+02  0.26010425120E+02  0.51100000000E-03 0. -1.
        -11    1    3    3    0    0 -0.16022886377E+02 -0.19662721156E+02 -0.23789243355E+02  0.34774755078E+02  0.51100000000E-03 0.  1.
        -12    1    3    3    0    0  0.42900199086E+00  0.71561057733E+01 -0.92165483735E+01  0.11676414538E+02  0.00000000000E+00 0.  1.
</event>
<event>
 7    1  0.1360399E-013  0.7246160E+02  0.7816164E-02  0.1226708E+00
        -11   -1    0    0    0    0  0.00000000000E+00  0.00000000000E+00  0.45593999997E+02  0.45594000000E+02  0.51100000000E-03 0.  1.
         11   -1    0    0    0    0 -0.00000000000E+00 -0.00000000000E+00 -0.45593999997E+02  0.45594000000E+02  0.51100000000E-03 0. -1.
    9900012    2    1    2    0    0 -0.79936638541E+01 -0.34069870301E+01  0.16588302319E+02  0.72461601621E+02  0.70000040808E+02 0.  0.
         12    1    1    2    0    0  0.79936638541E+01  0.34069870301E+01 -0.16588302319E+02  0.18726398379E+02  0.00000000000E+00 0. -1.
         11    1    3    3    0    0  0.23805437942E+02 -0.10815865674E+02  0.25564384292E+00  0.26148559806E+02  0.51100000000E-03 0. -1.
        -11    1    3    3    0    0 -0.33995958843E+02  0.13705386004E+02  0.13387737705E+02  0.39022997633E+02  0.51100000000E-03 0.  1.
        -12    1    3    3    0    0  0.21968570468E+01 -0.62965073597E+01  0.29449207711E+01  0.72900441811E+01  0.00000000000E+00 0.  1.
</event>
<event>
 7    1  0.1360399E-013  0.7246161E+02  0.7816164E-02  0.1226708E+00
        -11   -1    0    0    0    0  0.00000000000E+00  0.00000000000E+00  0.45593999997E+02  0.45594000000E+02  0.51100000000E-03 0.  1.
         11   -1    0    0    0    0 -0.00000000000E+00 -0.00000000000E+00 -0.45593999997E+02  0.45594000000E+02  0.51100000000E-03 0. -1.
    9900012    2    1    2    0    0 -0.12842441243E+02 -0.12137025139E+02  0.62001744106E+01  0.72461605819E+02  0.70000046277E+02 0.  0.
         12    1    1    2    0    0  0.12842441243E+02  0.12137025139E+02 -0.62001744106E+01  0.18726394181E+02  0.00000000000E+00 0. -1.
         11    1    3    3    0    0  0.18371386979E+02 -0.26112789462E+01 -0.92256098796E+01  0.20722898329E+02  0.51100000000E-03 0. -1.
        -11    1    3    3    0    0 -0.30188101918E+02 -0.20483384606E+02  0.54526844907E+01  0.36886614249E+02  0.51100000000E-03 0.  1.
        -12    1    3    3    0    0 -0.10257263032E+01  0.10957638412E+02  0.99730997995E+01  0.14852093241E+02  0.00000000000E+00 0.  1.
</event>
<event>
 7    1  0.1360399E-013  0.7246154E+02  0.7816164E-02  0.1226708E+00
        -11   -1    0    0    0    0  0.00000000000E+00  0.00000000000E+00  0.45593999997E+02  0.45594000000E+02  0.51100000000E-03 0.  1.
         11   -1    0    0    0    0 -0.00000000000E+00 -0.00000000000E+00 -0.45593999997E+02  0.45594000000E+02  0.51100000000E-03 0. -1.
    9900012    2    1    2    0    0  0.57006376056E+01  0.13883071992E+02  0.11200151275E+02  0.72461538892E+02  0.69999959093E+02 0.  0.
         12    1    1    2    0    0 -0.57006376056E+01 -0.13883071992E+02 -0.11200151275E+02  0.18726461108E+02  0.00000000000E+00 0. -1.
         11    1    3    3    0    0  0.24731205556E+02  0.20610338939E+02 -0.65041386031E+01  0.32843909918E+02  0.51100000000E-03 0. -1.
        -11    1    3    3    0    0 -0.21188070601E+02  0.62786338977E+01  0.12884539783E+02  0.25580597043E+02  0.51100000000E-03 0.  1.
        -12    1    3    3    0    0  0.21575026501E+01 -0.13005900845E+02  0.48197500953E+01  0.14037031932E+02  0.00000000000E+00 0.  1.
</event>
<event>
 7    1  0.1360399E-013  0.7246161E+02  0.7816164E-02  0.1226708E+00
        -11   -1    0    0    0    0  0.00000000000E+00  0.00000000000E+00  0.45593999997E+02  0.45594000000E+02  0.51100000000E-03 0. -1.
         11   -1    0    0    0    0 -0.00000000000E+00 -0.00000000000E+00 -0.45593999997E+02  0.45594000000E+02  0.51100000000E-03 0.  1.
    9900012    2    1    2    0    0  0.41958513310E+01 -0.84458830272E+01 -0.16178362963E+02  0.72461613892E+02  0.70000056794E+02 0.  0.
         12    1    1    2    0    0 -0.41958513310E+01  0.84458830272E+01  0.16178362963E+02  0.18726386108E+02  0.00000000000E+00 0. -1.
         11    1    3    3    0    0  0.47715343467E+01  0.67602661060E+01  0.93228474750E+01  0.12465320820E+02  0.51100000000E-03 0. -1.
        -11    1    3    3    0    0  0.24936213145E+02 -0.14156112711E+02 -0.15296259057E+02  0.32499012208E+02  0.51100000000E-03 0.  1.
        -12    1    3    3    0    0 -0.25511896161E+02 -0.10500364219E+01 -0.10204951381E+02  0.27497280863E+02  0.00000000000E+00 0.  1.
</event>
<event>
 7    1  0.1360399E-013  0.7246166E+02  0.7816164E-02  0.1226708E+00
        -11   -1    0    0    0    0  0.00000000000E+00  0.00000000000E+00  0.45593999997E+02  0.45594000000E+02  0.51100000000E-03 0.  1.
         11   -1    0    0    0    0 -0.00000000000E+00 -0.00000000000E+00 -0.45593999997E+02  0.45594000000E+02  0.51100000000E-03 0. -1.
    9900012    2    1    2    0    0  0.16946863524E+01 -0.18589914061E+02 -0.14896430024E+01  0.72461657514E+02  0.70000113620E+02 0.  0.
         12    1    1    2    0    0 -0.16946863524E+01  0.18589914061E+02  0.14896430024E+01  0.18726342486E+02  0.00000000000E+00 0. -1.
         11    1    3    3    0    0  0.87209972541E+01  0.21725704294E+02  0.13834774043E+02  0.27193068846E+02  0.51100000000E-03 0. -1.
        -11    1    3    3    0    0 -0.27484520508E+01 -0.29558340149E+02 -0.57319966640E+01  0.30234173497E+02  0.51100000000E-03 0.  1.
         12    1    3    3    0    0 -0.42778588509E+01 -0.10757278207E+02 -0.95924203810E+01  0.15034415171E+02  0.00000000000E+00 0. -1.
</event>
<event>
 7    1  0.1360399E-013  0.7246146E+02  0.7816164E-02  0.1226708E+00
        -11   -1    0    0    0    0  0.00000000000E+00  0.00000000000E+00  0.45593999997E+02  0.45594000000E+02  0.51100000000E-03 0.  1.
         11   -1    0    0    0    0 -0.00000000000E+00 -0.00000000000E+00 -0.45593999997E+02  0.45594000000E+02  0.51100000000E-03 0. -1.
    9900012    2    1    2    0    0  0.96999287497E+01  0.13376319587E+02  0.88129797968E+01  0.72461463846E+02  0.69999861331E+02 0.  0.
         12    1    1    2    0    0 -0.96999287497E+01 -0.13376319587E+02 -0.88129797968E+01  0.18726536154E+02  0.00000000000E+00 0. -1.
         11    1    3    3    0    0  0.10372452809E+02  0.35736698709E+02 -0.10321778228E+02  0.38616557562E+02  0.51100000000E-03 0. -1.
        -11    1    3    3    0    0 -0.26957672981E+01 -0.62823797669E+01 -0.20831556595E+01  0.71466771736E+01  0.51100000000E-03 0.  1.
         12    1    3    3    0    0  0.20232432389E+01 -0.16077999355E+02  0.21217913685E+02  0.26698229110E+02  0.00000000000E+00 0. -1.
</event>
<event>
 7    1  0.1360399E-013  0.7246150E+02  0.7816164E-02  0.1226708E+00
        -11   -1    0    0    0    0  0.00000000000E+00  0.00000000000E+00  0.45593999997E+02  0.45594000000E+02  0.51100000000E-03 0.  1.
         11   -1    0    0    0    0 -0.00000000000E+00 -0.00000000000E+00 -0.45593999997E+02  0.45594000000E+02  0.51100000000E-03 0. -1.
    9900012    2    1    2    0    0  0.17751326442E+02  0.45780877542E+01 -0.38227161972E+01  0.72461504411E+02  0.69999914174E+02 0.  0.
         12    1    1    2    0    0 -0.17751326442E+02 -0.45780877542E+01  0.38227161972E+01  0.18726495589E+02  0.00000000000E+00 0. -1.
         11    1    3    3    0    0  0.12800142905E+01 -0.10666951022E+02 -0.10458331337E+02  0.14993297679E+02  0.51100000000E-03 0. -1.
        -11    1    3    3    0    0  0.31018334462E+02  0.35205260157E+01  0.17567798444E+02  0.35821204875E+02  0.51100000000E-03 0.  1.
        -12    1    3    3    0    0 -0.14547022311E+02  0.11724512760E+02 -0.10932183305E+02  0.21647001857E+02  0.00000000000E+00 0.  1.
</event>
<event>
 7    1  0.1360399E-013  0.7246161E+02  0.7816164E-02  0.1226708E+00
        -11   -1    0    0    0    0  0.00000000000E+00  0.00000000000E+00  0.45593999997E+02  0.45594000000E+02  0.51100000000E-03 0. -1.
         11   -1    0    0    0    0 -0.00000000000E+00 -0.00000000000E+00 -0.45593999997E+02  0.45594000000E+02  0.51100000000E-03 0.  1.
    9900012    2    1    2    0    0  0.15752401328E+02 -0.10079123875E+02  0.97510740914E+00  0.72461608993E+02  0.70000050412E+02 0.  0.
         12    1    1    2    0    0 -0.15752401328E+02  0.10079123875E+02 -0.97510740914E+00  0.18726391007E+02  0.00000000000E+00 0. -1.
         11    1    3    3    0    0  0.15258176173E+02  0.17229259759E+02  0.20863098728E+02  0.31063293785E+02  0.51100000000E-03 0. -1.
        -11    1    3    3    0    0 -0.33286299390E+01 -0.24003464347E+02 -0.37924401627E+01  0.24528120201E+02  0.51100000000E-03 0.  1.
         12    1    3    3    0    0  0.38228550942E+01 -0.33049192856E+01 -0.16095551156E+02  0.16870195007E+02  0.00000000000E+00 0. -1.
</event>
<event>
 7    1  0.1360399E-013  0.7246157E+02  0.7816164E-02  0.1226708E+00
        -11   -1    0    0    0    0  0.00000000000E+00  0.00000000000E+00  0.45593999997E+02  0.45594000000E+02  0.51100000000E-03 0. -1.
         11   -1    0    0    0    0 -0.00000000000E+00 -0.00000000000E+00 -0.45593999997E+02  0.45594000000E+02  0.51100000000E-03 0.  1.
    9900012    2    1    2    0    0  0.41683987675E+01 -0.99861473482E+01 -0.15283341243E+02  0.72461569302E+02  0.69999998708E+02 0.  0.
         12    1    1    2    0    0 -0.41683987675E+01  0.99861473482E+01  0.15283341243E+02  0.18726430698E+02  0.00000000000E+00 0. -1.
         11    1    3    3    0    0  0.13288670911E+02  0.78955170744E+01 -0.37513881448E+02  0.40573627715E+02  0.51100000000E-03 0.  1.
        -11    1    3    3    0    0 -0.61681603604E+01 -0.18620582284E+02  0.20560388551E+02  0.28416577282E+02  0.51100000000E-03 0. -1.
        -12    1    3    3    0    0 -0.29521117834E+01  0.73891786093E+00  0.16701516544E+01  0.34713643047E+01  0.00000000000E+00 0.  1.
</event>
<event>
 7    1  0.1360399E-013  0.7246157E+02  0.7816164E-02  0.1226708E+00
        -11   -1    0    0    0    0  0.00000000000E+00  0.00000000000E+00  0.45593999997E+02  0.45594000000E+02  0.51100000000E-03 0. -1.
         11   -1    0    0    0    0 -0.00000000000E+00 -0.00000000000E+00 -0.45593999997E+02  0.45594000000E+02  0.51100000000E-03 0.  1.
    9900012    2    1    2    0    0 -0.43304502389E+01 -0.12439293748E+02 -0.13311280788E+02  0.72461574168E+02  0.70000005046E+02 0.  0.
         12    1    1    2    0    0  0.43304502389E+01  0.12439293748E+02  0.13311280788E+02  0.18726425832E+02  0.00000000000E+00 0. -1.
         11    1    3    3    0    0 -0.37881298563E+00 -0.38786002401E+02 -0.42120301631E+01  0.39015877280E+02  0.51100000000E-03 0.  1.
        -11    1    3    3    0    0 -0.82382280237E+01  0.26361006838E+02 -0.93332175225E+01  0.29152701969E+02  0.51100000000E-03 0. -1.
        -12    1    3    3    0    0  0.42865907704E+01 -0.14298184910E-01  0.23396689726E+00  0.42929949197E+01  0.00000000000E+00 0.  1.
</event>
<event>
 7    1  0.1360399E-013  0.7246153E+02  0.7816164E-02  0.1226708E+00
        -11   -1    0    0    0    0  0.00000000000E+00  0.00000000000E+00  0.45593999997E+02  0.45594000000E+02  0.51100000000E-03 0. -1.
         11   -1    0    0    0    0 -0.00000000000E+00 -0.00000000000E+00 -0.45593999997E+02  0.45594000000E+02  0.51100000000E-03 0.  1.
    9900012    2    1    2    0    0 -0.15791028732E+02 -0.98771731408E+01 -0.19405197408E+01  0.72461527974E+02  0.69999944870E+02 0.  0.
         12    1    1    2    0    0  0.15791028732E+02  0.98771731408E+01  0.19405197408E+01  0.18726472026E+02  0.00000000000E+00 0. -1.
         11    1    3    3    0    0 -0.25897366485E+01 -0.67263176430E+00  0.16000369326E+01  0.31175772397E+01  0.51100000000E-03 0. -1.
        -11    1    3    3    0    0 -0.83499166563E+00 -0.25641881574E+01 -0.34890820045E+02  0.34994879563E+02  0.51100000000E-03 0.  1.
        -12    1    3    3    0    0 -0.12366300418E+02 -0.66403532191E+01  0.31350263371E+02  0.34349071171E+02  0.00000000000E+00 0.  1.
</event>
<event>
 7    1  0.1360399E-013  0.7246158E+02  0.7816164E-02  0.1226708E+00
        -11   -1    0    0    0    0  0.00000000000E+00  0.00000000000E+00  0.45593999997E+02  0.45594000000E+02  0.51100000000E-03 0.  1.
         11   -1    0    0    0    0 -0.00000000000E+00 -0.00000000000E+00 -0.45593999997E+02  0.45594000000E+02  0.51100000000E-03 0. -1.
    9900012    2    1    2    0    0 -0.13420495827E+02  0.12886649033E+02  0.21220738688E+01  0.72461584725E+02  0.70000018799E+02 0.  0.
         12    1    1    2    0    0  0.13420495827E+02 -0.12886649033E+02 -0.21220738688E+01  0.18726415275E+02  0.00000000000E+00 0. -1.
         11    1    3    3    0    0  0.66411765918E+01 -0.26617986838E+02  0.33460291531E+01  0.27637263996E+02  0.51100000000E-03 0. -1.
        -11    1    3    3    0    0 -0.10771514826E+02  0.28117510516E+02 -0.65406660789E+00  0.30117233151E+02  0.51100000000E-03 0.  1.
         12    1    3    3    0    0 -0.92901575931E+01  0.11387125355E+02 -0.56988867646E+00  0.14707087579E+02  0.00000000000E+00 0. -1.
</event>
<event>
 7    1  0.1360399E-013  0.7246160E+02  0.7816164E-02  0.1226708E+00
        -11   -1    0    0    0    0  0.00000000000E+00  0.00000000000E+00  0.45593999997E+02  0.45594000000E+02  0.51100000000E-03 0. -1.
         11   -1    0    0    0    0 -0.00000000000E+00 -0.00000000000E+00 -0.45593999997E+02  0.45594000000E+02  0.51100000000E-03 0.  1.
    9900012    2    1    2    0    0 -0.68703288972E+01 -0.17420270280E+02  0.10402324680E+00  0.72461600009E+02  0.70000038709E+02 0.  0.
         12    1    1    2    0    0  0.68703288972E+01  0.17420270280E+02 -0.10402324680E+00  0.18726399991E+02  0.00000000000E+00 0. -1.
         11    1    3    3    0    0 -0.15245454975E+02  0.72825603755E+01 -0.22968105552E+02  0.28513040104E+02  0.51100000000E-03 0. -1.
        -11    1    3    3    0    0  0.40461303095E+01 -0.24310808242E+02  0.47256459068E+01  0.25094188517E+02  0.51100000000E-03 0.  1.
         12    1    3    3    0    0  0.43289957686E+01 -0.39202241358E+00  0.18346482892E+02  0.18854371388E+02  0.00000000000E+00 0. -1.
</event>
<event>
 7    1  0.1360399E-013  0.7246157E+02  0.7816164E-02  0.1226708E+00
        -11   -1    0    0    0    0  0.00000000000E+00  0.00000000000E+00  0.45593999997E+02  0.45594000000E+02  0.51100000000E-03 0.  1.
         11   -1    0    0    0    0 -0.00000000000E+00 -0.00000000000E+00 -0.45593999997E+02  0.45594000000E+02  0.51100000000E-03 0. -1.
    9900012    2    1    2    0    0 -0.64998706502E+01  0.11274897493E+02  0.13465043050E+02  0.72461574385E+02  0.70000005329E+02 0.  0.
         12    1    1    2    0    0  0.64998706502E+01 -0.11274897493E+02 -0.13465043050E+02  0.18726425615E+02  0.00000000000E+00 0. -1.
         11    1    3    3    0    0 -0.57056137780E+01 -0.13844309907E+02  0.14208175140E+02  0.20641976322E+02  0.51100000000E-03 0. -1.
        -11    1    3    3    0    0 -0.54968211659E-02  0.29874083434E+02 -0.17336735475E+02  0.34540169201E+02  0.51100000000E-03 0.  1.
        -12    1    3    3    0    0 -0.78876005106E+00 -0.47548760328E+01  0.16593603386E+02  0.17279428863E+02  0.00000000000E+00 0.  1.
</event>
<event>
 7    1  0.1360399E-013  0.7246155E+02  0.7816164E-02  0.1226708E+00
        -11   -1    0    0    0    0  0.00000000000E+00  0.00000000000E+00  0.45593999997E+02  0.45594000000E+02  0.51100000000E-03 0. -1.
         11   -1    0    0    0    0 -0.00000000000E+00 -0.00000000000E+00 -0.45593999997E+02  0.45594000000E+02  0.51100000000E-03 0.  1.
    9900012    2    1    2    0    0  0.91600565320E+01 -0.15875955587E+02 -0.38376185677E+01  0.72461550316E+02  0.69999973975E+02 0.  0.
         12    1    1    2    0    0 -0.91600565320E+01  0.15875955587E+02  0.38376185677E+01  0.18726449684E+02  0.00000000000E+00 0. -1.
         11    1    3    3    0    0  0.60730641737E+01 -0.29111163475E+02 -0.18034989567E+02  0.34779344391E+02  0.51100000000E-03 0.  1.
        -11    1    3    3    0    0  0.17452145113E+02  0.10186888786E+02  0.87222790110E+01  0.22009730202E+02  0.51100000000E-03 0. -1.
         12    1    3    3    0    0 -0.14365152754E+02  0.30483191017E+01  0.54750919886E+01  0.15672475723E+02  0.00000000000E+00 0. -1.
</event>
<event>
 7    1  0.1360399E-013  0.7246156E+02  0.7816164E-02  0.1226708E+00
        -11   -1    0    0    0    0  0.00000000000E+00  0.00000000000E+00  0.45593999997E+02  0.45594000000E+02  0.51100000000E-03 0.  1.
         11   -1    0    0    0    0 -0.00000000000E+00 -0.00000000000E+00 -0.45593999997E+02  0.45594000000E+02  0.51100000000E-03 0. -1.
    9900012    2    1    2    0    0 -0.18315130078E+02 -0.20536863652E+01  0.33193355717E+01  0.72461558638E+02  0.69999984815E+02 0.  0.
         12    1    1    2    0    0  0.18315130078E+02  0.20536863652E+01 -0.33193355717E+01  0.18726441362E+02  0.00000000000E+00 0. -1.
         11    1    3    3    0    0 -0.35753917961E+02  0.12769047522E+02 -0.12215178036E+02  0.39882349465E+02  0.51100000000E-03 0. -1.
        -11    1    3    3    0    0  0.11589499727E+02 -0.13343987488E+02  0.20327409765E+01  0.17790743159E+02  0.51100000000E-03 0.  1.
         12    1    3    3    0    0  0.58492881555E+01 -0.14787463992E+01  0.13501772631E+02  0.14788466013E+02  0.00000000000E+00 0. -1.
</event>
<event>
 7    1  0.1360399E-013  0.7246167E+02  0.7816164E-02  0.1226708E+00
        -11   -1    0    0    0    0  0.00000000000E+00  0.00000000000E+00  0.45593999997E+02  0.45594000000E+02  0.51100000000E-03 0. -1.
         11   -1    0    0    0    0 -0.00000000000E+00 -0.00000000000E+00 -0.45593999997E+02  0.45594000000E+02  0.51100000000E-03 0.  1.
    9900012    2    1    2    0    0  0.64952578370E+01 -0.98757414882E+01 -0.14524348281E+02  0.72461672616E+02  0.70000133293E+02 0.  0.
         12    1    1    2    0    0 -0.64952578370E+01  0.98757414882E+01  0.14524348281E+02  0.18726327384E+02  0.00000000000E+00 0. -1.
         11    1    3    3    0    0 -0.21601741044E+02 -0.22230734204E+01 -0.25849856333E+01  0.21869143160E+02  0.51100000000E-03 0. -1.
        -11    1    3    3    0    0  0.20500535489E+02 -0.17254721600E+02  0.73141588468E+01  0.27775786087E+02  0.51100000000E-03 0.  1.
        -12    1    3    3    0    0  0.75964633914E+01  0.96020535320E+01 -0.19253521494E+02  0.22816743370E+02  0.00000000000E+00 0.  1.
</event>
<event>
 7    1  0.1360399E-013  0.7246162E+02  0.7816164E-02  0.1226708E+00
        -11   -1    0    0    0    0  0.00000000000E+00  0.00000000000E+00  0.45593999997E+02  0.45594000000E+02  0.51100000000E-03 0.  1.
         11   -1    0    0    0    0 -0.00000000000E+00 -0.00000000000E+00 -0.45593999997E+02  0.45594000000E+02  0.51100000000E-03 0. -1.
    9900012    2    1    2    0    0  0.95116423822E+01 -0.14828069739E+02  0.63509239642E+01  0.72461622128E+02  0.70000067523E+02 0.  0.
         12    1    1    2    0    0 -0.95116423822E+01  0.14828069739E+02 -0.63509239642E+01  0.18726377872E+02  0.00000000000E+00 0. -1.
         11    1    3    3    0    0 -0.12971431686E+01 -0.31076991833E+02  0.44057687832E+01  0.31414531679E+02  0.51100000000E-03 0. -1.
        -11    1    3    3    0    0 -0.91170883940E+01  0.63265254718E+00 -0.95720354973E+01  0.13234251541E+02  0.51100000000E-03 0.  1.
         12    1    3    3    0    0  0.19925873945E+02  0.15616269546E+02  0.11517190678E+02  0.27812838908E+02  0.00000000000E+00 0. -1.
</event>
<event>
 7    1  0.1360399E-013  0.7246157E+02  0.7816164E-02  0.1226708E+00
        -11   -1    0    0    0    0  0.00000000000E+00  0.00000000000E+00  0.45593999997E+02  0.45594000000E+02  0.51100000000E-03 0.  1.
         11   -1    0    0    0    0 -0.00000000000E+00 -0.00000000000E+00 -0.45593999997E+02  0.45594000000E+02  0.51100000000E-03 0. -1.
    9900012    2    1    2    0    0  0.18724718611E+02  0.12226553324E+00  0.22158217769E+00  0.72461571227E+02  0.70000001215E+02 0.  0.
         12    1    1    2    0    0 -0.18724718611E+02 -0.12226553324E+00 -0.22158217769E+00  0.18726428773E+02  0.00000000000E+00 0. -1.
         11    1    3    3    0    0  0.23461117796E+02 -0.56669298740E+00 -0.18169226324E+02  0.29679386359E+02  0.51100000000E-03 0. -1.
        -11    1    3    3    0    0 -0.59395561707E+01 -0.18170881811E+02  0.13040706368E+02  0.23141289855E+02  0.51100000000E-03 0.  1.
        -12    1    3    3    0    0  0.12031569855E+01  0.18859840332E+02  0.53501021336E+01  0.19640895013E+02  0.00000000000E+00 0.  1.
</event>
<event>
 7    1  0.1360399E-013  0.7246160E+02  0.7816164E-02  0.1226708E+00
        -11   -1    0    0    0    0  0.00000000000E+00  0.00000000000E+00  0.45593999997E+02  0.45594000000E+02  0.51100000000E-03 0. -1.
         11   -1    0    0    0    0 -0.00000000000E+00 -0.00000000000E+00 -0.45593999997E+02  0.45594000000E+02  0.51100000000E-03 0.  1.
    9900012    2    1    2    0    0 -0.38223923352E+01 -0.15910814853E+02 -0.91056683140E+01  0.72461603980E+02  0.70000043882E+02 0.  0.
         12    1    1    2    0    0  0.38223923352E+01  0.15910814853E+02  0.91056683140E+01  0.18726396020E+02  0.00000000000E+00 0. -1.
         11    1    3    3    0    0  0.20145009140E+02  0.60449374782E+00  0.43671679725E+01  0.20621807930E+02  0.51100000000E-03 0. -1.
        -11    1    3    3    0    0 -0.24401314815E+02 -0.12022219469E+02 -0.26546446336E+02  0.38008837643E+02  0.51100000000E-03 0.  1.
         12    1    3    3    0    0  0.43391334021E+00 -0.44930891321E+01  0.13073610049E+02  0.13830958407E+02  0.00000000000E+00 0. -1.
</event>
<event>
 7    1  0.1360399E-013  0.7246158E+02  0.7816164E-02  0.1226708E+00
        -11   -1    0    0    0    0  0.00000000000E+00  0.00000000000E+00  0.45593999997E+02  0.45594000000E+02  0.51100000000E-03 0. -1.
         11   -1    0    0    0    0 -0.00000000000E+00 -0.00000000000E+00 -0.45593999997E+02  0.45594000000E+02  0.51100000000E-03 0.  1.
    9900012    2    1    2    0    0  0.14066484337E+02 -0.11890104056E+02 -0.33820584804E+01  0.72461578142E+02  0.70000010223E+02 0.  0.
         12    1    1    2    0    0 -0.14066484337E+02  0.11890104056E+02  0.33820584804E+01  0.18726421858E+02  0.00000000000E+00 0. -1.
         11    1    3    3    0    0 -0.37309313354E+01  0.72692419084E+00  0.22915717202E+02  0.23228826112E+02  0.51100000000E-03 0. -1.
        -11    1    3    3    0    0  0.14128708004E+02  0.43775950817E+01 -0.28098251737E+02  0.31753668757E+02  0.51100000000E-03 0.  1.
         12    1    3    3    0    0  0.36687076687E+01 -0.16994623328E+02  0.18004760548E+01  0.17479083273E+02  0.00000000000E+00 0. -1.
</event>
<event>
 7    1  0.1360399E-013  0.7246153E+02  0.7816164E-02  0.1226708E+00
        -11   -1    0    0    0    0  0.00000000000E+00  0.00000000000E+00  0.45593999997E+02  0.45594000000E+02  0.51100000000E-03 0. -1.
         11   -1    0    0    0    0 -0.00000000000E+00 -0.00000000000E+00 -0.45593999997E+02  0.45594000000E+02  0.51100000000E-03 0.  1.
    9900012    2    1    2    0    0  0.16554314343E+02  0.86717441813E+01  0.11983984290E+01  0.72461531318E+02  0.69999949226E+02 0.  0.
         12    1    1    2    0    0 -0.16554314343E+02 -0.86717441813E+01 -0.11983984290E+01  0.18726468682E+02  0.00000000000E+00 0. -1.
         11    1    3    3    0    0  0.82687871005E+01  0.11826365514E+02  0.31550960112E+02  0.34694363312E+02  0.51100000000E-03 0. -1.
        -11    1    3    3    0    0 -0.42404285296E+01 -0.52266202650E+01 -0.20848009449E+02  0.21907493963E+02  0.51100000000E-03 0.  1.
        -12    1    3    3    0    0  0.12525955772E+02  0.20719989328E+01 -0.95045522339E+01  0.15859674043E+02  0.00000000000E+00 0.  1.
</event>
<event>
 7    1  0.1360399E-013  0.7246155E+02  0.7816164E-02  0.1226708E+00
        -11   -1    0    0    0    0  0.00000000000E+00  0.00000000000E+00  0.45593999997E+02  0.45594000000E+02  0.51100000000E-03 0. -1.
         11   -1    0    0    0    0 -0.00000000000E+00 -0.00000000000E+00 -0.45593999997E+02  0.45594000000E+02  0.51100000000E-03 0.  1.
    9900012    2    1    2    0    0 -0.97520134958E+01 -0.66321765262E+01 -0.14546220122E+02  0.72461546718E+02  0.69999969287E+02 0.  0.
         12    1    1    2    0    0  0.97520134958E+01  0.66321765262E+01  0.14546220122E+02  0.18726453282E+02  0.00000000000E+00 0. -1.
         11    1    3    3    0    0  0.68470517752E+01  0.12414224587E+02  0.10041556841E+02  0.17373196429E+02  0.51100000000E-03 0. -1.
        -11    1    3    3    0    0 -0.29952074861E+02 -0.19353195406E+02 -0.15211814268E+02  0.38769475809E+02  0.51100000000E-03 0.  1.
         12    1    3    3    0    0  0.13353009590E+02  0.30679429274E+00 -0.93759626947E+01  0.16318874480E+02  0.00000000000E+00 0. -1.
</event>
<event>
 7    1  0.1360399E-013  0.7246156E+02  0.7816164E-02  0.1226708E+00
        -11   -1    0    0    0    0  0.00000000000E+00  0.00000000000E+00  0.45593999997E+02  0.45594000000E+02  0.51100000000E-03 0.  1.
         11   -1    0    0    0    0 -0.00000000000E+00 -0.00000000000E+00 -0.45593999997E+02  0.45594000000E+02  0.51100000000E-03 0. -1.
    9900012    2    1    2    0    0  0.12128940171E+01  0.91138921267E+01  0.16313961429E+02  0.72461562028E+02  0.69999989232E+02 0.  0.
         12    1    1    2    0    0 -0.12128940171E+01 -0.91138921267E+01 -0.16313961429E+02  0.18726437972E+02  0.00000000000E+00 0. -1.
         11    1    3    3    0    0  0.17946243202E+02  0.37310091420E+01 -0.12536010749E+02  0.22206747624E+02  0.51100000000E-03 0. -1.
        -11    1    3    3    0    0 -0.16692504216E+02 -0.84018132759E+01  0.31104765051E+02  0.36286865013E+02  0.51100000000E-03 0.  1.
         12    1    3    3    0    0 -0.40844968564E-01  0.13784696261E+02 -0.22547928730E+01  0.13967949392E+02  0.00000000000E+00 0. -1.
</event>
<event>
 7    1  0.1360399E-013  0.7246157E+02  0.7816164E-02  0.1226708E+00
        -11   -1    0    0    0    0  0.00000000000E+00  0.00000000000E+00  0.45593999997E+02  0.45594000000E+02  0.51100000000E-03 0. -1.
         11   -1    0    0    0    0 -0.00000000000E+00 -0.00000000000E+00 -0.45593999997E+02  0.45594000000E+02  0.51100000000E-03 0.  1.
    9900012    2    1    2    0    0  0.67157843386E+01 -0.17479820281E+02 -0.18216536702E+00  0.72461573204E+02  0.70000003790E+02 0.  0.
         12    1    1    2    0    0 -0.67157843386E+01  0.17479820281E+02  0.18216536702E+00  0.18726426796E+02  0.00000000000E+00 0. -1.
         11    1    3    3    0    0 -0.13916369638E+02  0.15348647060E+02  0.13660187760E+01  0.20763244401E+02  0.51100000000E-03 0. -1.
        -11    1    3    3    0    0  0.27672535256E+02 -0.16835002302E+02 -0.74816211693E+01  0.33243964348E+02  0.51100000000E-03 0.  1.
        -12    1    3    3    0    0 -0.70403812792E+01 -0.15993465038E+02  0.59334370263E+01  0.18454364455E+02  0.00000000000E+00 0.  1.
</event>
<event>
 7    1  0.1360399E-013  0.7246159E+02  0.7816164E-02  0.1226708E+00
        -11   -1    0    0    0    0  0.00000000000E+00  0.00000000000E+00  0.45593999997E+02  0.45594000000E+02  0.51100000000E-03 0. -1.
         11   -1    0    0    0    0 -0.00000000000E+00 -0.00000000000E+00 -0.45593999997E+02  0.45594000000E+02  0.51100000000E-03 0.  1.
    9900012    2    1    2    0    0 -0.14494226611E+02  0.11042853132E+02  0.43187110117E+01  0.72461588834E+02  0.70000024152E+02 0.  0.
         12    1    1    2    0    0  0.14494226611E+02 -0.11042853132E+02 -0.43187110117E+01  0.18726411166E+02  0.00000000000E+00 0. -1.
         11    1    3    3    0    0 -0.12061566337E+02  0.19022107643E+02  0.97165267294E+01  0.24530243652E+02  0.51100000000E-03 0. -1.
        -11    1    3    3    0    0 -0.40287343311E+01 -0.25438091398E+02 -0.12967333070E+02  0.28835376216E+02  0.51100000000E-03 0.  1.
        -12    1    3    3    0    0  0.15960740566E+01  0.17458836887E+02  0.75695173518E+01  0.19095968966E+02  0.00000000000E+00 0.  1.
</event>
<event>
 7    1  0.1360399E-013  0.7246158E+02  0.7816164E-02  0.1226708E+00
        -11   -1    0    0    0    0  0.00000000000E+00  0.00000000000E+00  0.45593999997E+02  0.45594000000E+02  0.51100000000E-03 0. -1.
         11   -1    0    0    0    0 -0.00000000000E+00 -0.00000000000E+00 -0.45593999997E+02  0.45594000000E+02  0.51100000000E-03 0.  1.
    9900012    2    1    2    0    0  0.49728200088E+01  0.12620213327E+02 -0.12910462419E+02  0.72461581145E+02  0.70000014135E+02 0.  0.
         12    1    1    2    0    0 -0.49728200088E+01 -0.12620213327E+02  0.12910462419E+02  0.18726418855E+02  0.00000000000E+00 0. -1.
         11    1    3    3    0    0  0.15855300639E+02 -0.11399230560E+02 -0.11289315931E+02  0.22556189176E+02  0.51100000000E-03 0. -1.
        -11    1    3    3    0    0  0.91029306785E+01  0.28045856682E+02 -0.58029416610E+00  0.29491866092E+02  0.51100000000E-03 0.  1.
         12    1    3    3    0    0 -0.19985411309E+02 -0.40264127954E+01 -0.10408523221E+01  0.20413525877E+02  0.00000000000E+00 0. -1.
</event>
<event>
 7    1  0.1360399E-013  0.7246156E+02  0.7816164E-02  0.1226708E+00
        -11   -1    0    0    0    0  0.00000000000E+00  0.00000000000E+00  0.45593999997E+02  0.45594000000E+02  0.51100000000E-03 0.  1.
         11   -1    0    0    0    0 -0.00000000000E+00 -0.00000000000E+00 -0.45593999997E+02  0.45594000000E+02  0.51100000000E-03 0. -1.
    9900012    2    1    2    0    0  0.54132404002E+01  0.86803411712E+00  0.17905948403E+02  0.72461557650E+02  0.69999983529E+02 0.  0.
         12    1    1    2    0    0 -0.54132404002E+01 -0.86803411712E+00 -0.17905948403E+02  0.18726442350E+02  0.00000000000E+00 0. -1.
         11    1    3    3    0    0  0.76175659688E+01  0.24692582280E+02  0.22079615583E+02  0.33989121135E+02  0.51100000000E-03 0. -1.
        -11    1    3    3    0    0  0.38729288563E+01 -0.29483313184E+02 -0.16031408271E+01  0.29779781648E+02  0.51100000000E-03 0.  1.
        -12    1    3    3    0    0 -0.60772544249E+01  0.56587650212E+01 -0.25705263524E+01  0.86926548671E+01  0.00000000000E+00 0.  1.
</event>
<event>
 7    1  0.1360399E-013  0.7246079E+02  0.7816164E-02  0.1226710E+00
        -11   -1    0    0    0    0  0.00000000000E+00  0.00000000000E+00  0.45593999997E+02  0.45594000000E+02  0.51100000000E-03 0.  1.
         11   -1    0    0    0    0 -0.00000000000E+00 -0.00000000000E+00 -0.45593999997E+02  0.45594000000E+02  0.51100000000E-03 0. -1.
    9900012    2    1    2    0    0 -0.11929428676E+02 -0.84178265391E+01 -0.11727633808E+02  0.72460788064E+02  0.69998980992E+02 0.  0.
         12    1    1    2    0    0  0.11929428676E+02  0.84178265391E+01  0.11727633808E+02  0.18727211936E+02  0.00000000000E+00 0. -1.
         11    1    3    3    0    0 -0.20635650855E+02  0.22628233954E+01  0.10609261404E+02  0.23313234090E+02  0.51100000000E-03 0.  1.
        -11    1    3    3    0    0 -0.10272442064E+02  0.19476160578E+01 -0.24113174250E+02  0.26282340971E+02  0.51100000000E-03 0. -1.
        -12    1    3    3    0    0  0.18978664243E+02 -0.12628265992E+02  0.17762790378E+01  0.22865213002E+02  0.00000000000E+00 0.  1.
</event>
<event>
 7    1  0.1360399E-013  0.7246158E+02  0.7816164E-02  0.1226708E+00
        -11   -1    0    0    0    0  0.00000000000E+00  0.00000000000E+00  0.45593999997E+02  0.45594000000E+02  0.51100000000E-03 0. -1.
         11   -1    0    0    0    0 -0.00000000000E+00 -0.00000000000E+00 -0.45593999997E+02  0.45594000000E+02  0.51100000000E-03 0.  1.
    9900012    2    1    2    0    0 -0.13255886375E+02  0.33037286593E+01 -0.12808032063E+02  0.72461579307E+02  0.70000011741E+02 0.  0.
         12    1    1    2    0    0  0.13255886375E+02 -0.33037286593E+01  0.12808032063E+02  0.18726420693E+02  0.00000000000E+00 0. -1.
         11    1    3    3    0    0 -0.36709971043E+02  0.17800838143E+02 -0.67505852932E+01  0.41352898503E+02  0.51100000000E-03 0.  1.
        -11    1    3    3    0    0  0.28458244908E+01 -0.29652455608E+01 -0.62645946753E+01  0.74924325139E+01  0.51100000000E-03 0. -1.
         12    1    3    3    0    0  0.20608260177E+02 -0.11531863923E+02  0.20714790534E+00  0.23616248290E+02  0.00000000000E+00 0. -1.
</event>
<event>
 7    1  0.1360399E-013  0.7246129E+02  0.7816164E-02  0.1226709E+00
        -11   -1    0    0    0    0  0.00000000000E+00  0.00000000000E+00  0.45593999997E+02  0.45594000000E+02  0.51100000000E-03 0. -1.
         11   -1    0    0    0    0 -0.00000000000E+00 -0.00000000000E+00 -0.45593999997E+02  0.45594000000E+02  0.51100000000E-03 0.  1.
    9900012    2    1    2    0    0  0.98259420110E+01  0.10735802318E+02 -0.11784861874E+02  0.72461292943E+02  0.69999638697E+02 0.  0.
         12    1    1    2    0    0 -0.98259420110E+01 -0.10735802318E+02  0.11784861874E+02  0.18726707057E+02  0.00000000000E+00 0. -1.
         11    1    3    3    0    0  0.20071082585E+01  0.20010848766E+02  0.11053237512E+02  0.22948564479E+02  0.51100000000E-03 0. -1.
        -11    1    3    3    0    0  0.45925336601E+01 -0.26155484237E+02 -0.16087416220E+02  0.31048440895E+02  0.51100000000E-03 0.  1.
        -12    1    3    3    0    0  0.32263000924E+01  0.16880437789E+02 -0.67506831659E+01  0.18464287570E+02  0.00000000000E+00 0.  1.
</event>
<event>
 7    1  0.1360399E-013  0.7246232E+02  0.7816164E-02  0.1226706E+00
        -11   -1    0    0    0    0  0.00000000000E+00  0.00000000000E+00  0.45593999997E+02  0.45594000000E+02  0.51100000000E-03 0. -1.
         11   -1    0    0    0    0 -0.00000000000E+00 -0.00000000000E+00 -0.45593999997E+02  0.45594000000E+02  0.51100000000E-03 0.  1.
    9900012    2    1    2    0    0  0.61972793032E+01 -0.17586683456E+02  0.17185136722E+01  0.72462322576E+02  0.70000979979E+02 0.  0.
         12    1    1    2    0    0 -0.61972793032E+01  0.17586683456E+02 -0.17185136722E+01  0.18725677424E+02  0.00000000000E+00 0. -1.
         11    1    3    3    0    0 -0.20951668639E+02 -0.10935842279E+02  0.78248622314E+01  0.24895652920E+02  0.51100000000E-03 0. -1.
        -11    1    3    3    0    0  0.15308516279E+02  0.15031193175E+02 -0.77413517783E+01  0.22808243390E+02  0.51100000000E-03 0.  1.
        -12    1    3    3    0    0  0.11840431664E+02 -0.21682034353E+02  0.16350032191E+01  0.24758426266E+02  0.00000000000E+00 0.  1.
</event>
<event>
 7    1  0.1360399E-013  0.7246160E+02  0.7816164E-02  0.1226708E+00
        -11   -1    0    0    0    0  0.00000000000E+00  0.00000000000E+00  0.45593999997E+02  0.45594000000E+02  0.51100000000E-03 0. -1.
         11   -1    0    0    0    0 -0.00000000000E+00 -0.00000000000E+00 -0.45593999997E+02  0.45594000000E+02  0.51100000000E-03 0.  1.
    9900012    2    1    2    0    0 -0.10427486498E+02  0.70950621512E+01 -0.13842176204E+02  0.72461595549E+02  0.70000032899E+02 0.  0.
         12    1    1    2    0    0  0.10427486498E+02 -0.70950621512E+01  0.13842176204E+02  0.18726404451E+02  0.00000000000E+00 0. -1.
         11    1    3    3    0    0 -0.20343105981E+02  0.26874364049E+02 -0.17526856118E+02  0.37990315735E+02  0.51100000000E-03 0. -1.
        -11    1    3    3    0    0  0.15368630187E+02 -0.80400674611E+01  0.10051029002E+02  0.20046462602E+02  0.51100000000E-03 0.  1.
        -12    1    3    3    0    0 -0.54530107038E+01 -0.11739234436E+02 -0.63663490884E+01  0.14424817212E+02  0.00000000000E+00 0.  1.
</event>
<event>
 7    1  0.1360399E-013  0.7246152E+02  0.7816164E-02  0.1226708E+00
        -11   -1    0    0    0    0  0.00000000000E+00  0.00000000000E+00  0.45593999997E+02  0.45594000000E+02  0.51100000000E-03 0. -1.
         11   -1    0    0    0    0 -0.00000000000E+00 -0.00000000000E+00 -0.45593999997E+02  0.45594000000E+02  0.51100000000E-03 0.  1.
    9900012    2    1    2    0    0 -0.76219356580E+01 -0.13428700178E+02 -0.10595142714E+02  0.72461523001E+02  0.69999938392E+02 0.  0.
         12    1    1    2    0    0  0.76219356580E+01  0.13428700178E+02  0.10595142714E+02  0.18726476999E+02  0.00000000000E+00 0. -1.
         11    1    3    3    0    0 -0.18331610898E+02 -0.33214677186E+02 -0.15525861972E+02  0.40991647062E+02  0.51100000000E-03 0. -1.
        -11    1    3    3    0    0  0.15363475412E+02  0.19612459387E+02  0.31869906999E+00  0.24915587677E+02  0.51100000000E-03 0.  1.
         12    1    3    3    0    0 -0.46538001721E+01  0.17351762017E+00  0.46120201878E+01  0.65542882618E+01  0.00000000000E+00 0. -1.
</event>
<event>
 7    1  0.1360399E-013  0.7246177E+02  0.7816164E-02  0.1226707E+00
        -11   -1    0    0    0    0  0.00000000000E+00  0.00000000000E+00  0.45593999997E+02  0.45594000000E+02  0.51100000000E-03 0. -1.
         11   -1    0    0    0    0 -0.00000000000E+00 -0.00000000000E+00 -0.45593999997E+02  0.45594000000E+02  0.51100000000E-03 0.  1.
    9900012    2    1    2    0    0 -0.11139954822E+00 -0.66712082103E+01 -0.17497267314E+02  0.72461767268E+02  0.70000256595E+02 0.  0.
         12    1    1    2    0    0  0.11139954822E+00  0.66712082103E+01  0.17497267314E+02  0.18726232732E+02  0.00000000000E+00 0. -1.
         11    1    3    3    0    0 -0.10390143178E+02  0.73677828974E+01  0.20224641548E+02  0.23901368708E+02  0.51100000000E-03 0. -1.
        -11    1    3    3    0    0  0.93967384466E+01 -0.16801885625E+02 -0.12020122417E+02  0.22695492882E+02  0.51100000000E-03 0.  1.
         12    1    3    3    0    0  0.88200518306E+00  0.27628945174E+01 -0.25701786446E+02  0.25864905679E+02  0.00000000000E+00 0. -1.
</event>
<event>
 7    1  0.1360399E-013  0.7246158E+02  0.7816164E-02  0.1226708E+00
        -11   -1    0    0    0    0  0.00000000000E+00  0.00000000000E+00  0.45593999997E+02  0.45594000000E+02  0.51100000000E-03 0. -1.
         11   -1    0    0    0    0 -0.00000000000E+00 -0.00000000000E+00 -0.45593999997E+02  0.45594000000E+02  0.51100000000E-03 0.  1.
    9900012    2    1    2    0    0  0.74546963956E+01 -0.55215316998E+01 -0.16267109812E+02  0.72461583570E+02  0.70000017294E+02 0.  0.
         12    1    1    2    0    0 -0.74546963956E+01  0.55215316998E+01  0.16267109812E+02  0.18726416430E+02  0.00000000000E+00 0. -1.
         11    1    3    3    0    0 -0.12503414477E+02  0.82332023027E+01  0.14860756034E+02  0.21094147622E+02  0.51100000000E-03 0. -1.
        -11    1    3    3    0    0  0.51663965082E+01 -0.22774678141E+02 -0.20253278368E+02  0.30912342231E+02  0.51100000000E-03 0.  1.
        -12    1    3    3    0    0  0.14791714364E+02  0.90199441389E+01 -0.10874587479E+02  0.20455093716E+02  0.00000000000E+00 0.  1.
</event>
<event>
 7    1  0.1360399E-013  0.7246172E+02  0.7816164E-02  0.1226708E+00
        -11   -1    0    0    0    0  0.00000000000E+00  0.00000000000E+00  0.45593999997E+02  0.45594000000E+02  0.51100000000E-03 0.  1.
         11   -1    0    0    0    0 -0.00000000000E+00 -0.00000000000E+00 -0.45593999997E+02  0.45594000000E+02  0.51100000000E-03 0. -1.
    9900012    2    1    2    0    0 -0.99626683936E+01 -0.13292692181E+00  0.15855631358E+02  0.72461722291E+02  0.70000198004E+02 0.  0.
         12    1    1    2    0    0  0.99626683936E+01  0.13292692181E+00 -0.15855631358E+02  0.18726277709E+02  0.00000000000E+00 0. -1.
         11    1    3    3    0    0 -0.47956471832E+01 -0.16601747973E+02  0.18096865062E+01  0.17375017502E+02  0.51100000000E-03 0.  1.
        -11    1    3    3    0    0  0.20523029342E+02  0.10096085196E+02 -0.37700747321E+01  0.23180576641E+02  0.51100000000E-03 0. -1.
        -12    1    3    3    0    0 -0.25690050552E+02  0.63727358550E+01  0.17816019584E+02  0.31906128149E+02  0.00000000000E+00 0.  1.
</event>
<event>
 7    1  0.1360399E-013  0.7246157E+02  0.7816164E-02  0.1226708E+00
        -11   -1    0    0    0    0  0.00000000000E+00  0.00000000000E+00  0.45593999997E+02  0.45594000000E+02  0.51100000000E-03 0. -1.
         11   -1    0    0    0    0 -0.00000000000E+00 -0.00000000000E+00 -0.45593999997E+02  0.45594000000E+02  0.51100000000E-03 0.  1.
    9900012    2    1    2    0    0 -0.53453447945E+01  0.62867925212E+01 -0.16810195911E+02  0.72461570609E+02  0.70000000410E+02 0.  0.
         12    1    1    2    0    0  0.53453447945E+01 -0.62867925212E+01  0.16810195911E+02  0.18726429391E+02  0.00000000000E+00 0. -1.
         11    1    3    3    0    0  0.25854161155E+02 -0.61117601487E+01 -0.97872704907E+01  0.28312222185E+02  0.51100000000E-03 0. -1.
        -11    1    3    3    0    0 -0.24276481125E+02  0.17040575298E+02  0.44249389076E+01  0.29988478236E+02  0.51100000000E-03 0.  1.
         12    1    3    3    0    0 -0.69230248248E+01 -0.46420226286E+01 -0.11447864328E+02  0.14160870188E+02  0.00000000000E+00 0. -1.
</event>
<event>
 7    1  0.1360399E-013  0.7246138E+02  0.7816164E-02  0.1226709E+00
        -11   -1    0    0    0    0  0.00000000000E+00  0.00000000000E+00  0.45593999997E+02  0.45594000000E+02  0.51100000000E-03 0. -1.
         11   -1    0    0    0    0 -0.00000000000E+00 -0.00000000000E+00 -0.45593999997E+02  0.45594000000E+02  0.51100000000E-03 0.  1.
    9900012    2    1    2    0    0 -0.10236247114E+02 -0.59920017135E+01 -0.14491422700E+02  0.72461383344E+02  0.69999756463E+02 0.  0.
         12    1    1    2    0    0  0.10236247114E+02  0.59920017135E+01  0.14491422700E+02  0.18726616656E+02  0.00000000000E+00 0. -1.
         11    1    3    3    0    0 -0.31506538543E+02 -0.71423059956E+01 -0.18836127029E+02  0.37396178783E+02  0.51100000000E-03 0. -1.
        -11    1    3    3    0    0  0.27564772791E+02  0.29703544154E+01  0.10819370274E+01  0.27745455346E+02  0.51100000000E-03 0.  1.
        -12    1    3    3    0    0 -0.62944813620E+01 -0.18200501333E+01  0.32627673022E+01  0.73197492152E+01  0.00000000000E+00 0.  1.
</event>
<event>
 7    1  0.1360399E-013  0.7246155E+02  0.7816164E-02  0.1226708E+00
        -11   -1    0    0    0    0  0.00000000000E+00  0.00000000000E+00  0.45593999997E+02  0.45594000000E+02  0.51100000000E-03 0. -1.
         11   -1    0    0    0    0 -0.00000000000E+00 -0.00000000000E+00 -0.45593999997E+02  0.45594000000E+02  0.51100000000E-03 0.  1.
    9900012    2    1    2    0    0  0.14412898551E+02 -0.27761087455E+01 -0.11629337194E+02  0.72461550577E+02  0.69999974315E+02 0.  0.
         12    1    1    2    0    0 -0.14412898551E+02  0.27761087455E+01  0.11629337194E+02  0.18726449423E+02  0.00000000000E+00 0. -1.
         11    1    3    3    0    0 -0.66319812093E+01 -0.15414588461E+01  0.18854515755E+02  0.20046247398E+02  0.51100000000E-03 0. -1.
        -11    1    3    3    0    0 -0.34984481752E+01 -0.13584691697E+02 -0.16265059130E+02  0.21478713577E+02  0.51100000000E-03 0.  1.
         12    1    3    3    0    0  0.24543327935E+02  0.12350041798E+02 -0.14218793819E+02  0.30936589602E+02  0.00000000000E+00 0. -1.
</event>
<event>
 7    1  0.1360399E-013  0.7246123E+02  0.7816164E-02  0.1226709E+00
        -11   -1    0    0    0    0  0.00000000000E+00  0.00000000000E+00  0.45593999997E+02  0.45594000000E+02  0.51100000000E-03 0.  1.
         11   -1    0    0    0    0 -0.00000000000E+00 -0.00000000000E+00 -0.45593999997E+02  0.45594000000E+02  0.51100000000E-03 0. -1.
    9900012    2    1    2    0    0  0.61465313171E+01  0.55873965635E+01  0.16783710820E+02  0.72461233154E+02  0.69999560811E+02 0.  0.
         12    1    1    2    0    0 -0.61465313171E+01 -0.55873965635E+01 -0.16783710820E+02  0.18726766846E+02  0.00000000000E+00 0. -1.
         11    1    3    3    0    0  0.10295436628E+02 -0.21692212593E+02  0.23067169482E+02  0.33296282235E+02  0.51100000000E-03 0.  1.
        -11    1    3    3    0    0  0.88676321493E+01  0.22933496163E+02 -0.15063746539E+01  0.24634311662E+02  0.51100000000E-03 0. -1.
         12    1    3    3    0    0 -0.13016537460E+02  0.43461129934E+01 -0.47770840073E+01  0.14530639257E+02  0.00000000000E+00 0. -1.
</event>
<event>
 7    1  0.1360399E-013  0.7246158E+02  0.7816164E-02  0.1226708E+00
        -11   -1    0    0    0    0  0.00000000000E+00  0.00000000000E+00  0.45593999997E+02  0.45594000000E+02  0.51100000000E-03 0.  1.
         11   -1    0    0    0    0 -0.00000000000E+00 -0.00000000000E+00 -0.45593999997E+02  0.45594000000E+02  0.51100000000E-03 0. -1.
    9900012    2    1    2    0    0  0.13633046149E+02 -0.88954797981E+01 -0.92568597355E+01  0.72461575880E+02  0.70000007277E+02 0.  0.
         12    1    1    2    0    0 -0.13633046149E+02  0.88954797981E+01  0.92568597355E+01  0.18726424120E+02  0.00000000000E+00 0. -1.
         11    1    3    3    0    0  0.21195081088E+01 -0.67276098479E+01 -0.35068475643E+02  0.35770812587E+02  0.51100000000E-03 0. -1.
        -11    1    3    3    0    0  0.12822087626E+02 -0.10065451737E+02  0.10434085136E+02  0.19354311733E+02  0.51100000000E-03 0.  1.
         12    1    3    3    0    0 -0.13085495857E+01  0.78975817866E+01  0.15377530772E+02  0.17336451561E+02  0.00000000000E+00 0. -1.
</event>
<event>
 7    1  0.1360399E-013  0.7246157E+02  0.7816164E-02  0.1226708E+00
        -11   -1    0    0    0    0  0.00000000000E+00  0.00000000000E+00  0.45593999997E+02  0.45594000000E+02  0.51100000000E-03 0.  1.
         11   -1    0    0    0    0 -0.00000000000E+00 -0.00000000000E+00 -0.45593999997E+02  0.45594000000E+02  0.51100000000E-03 0. -1.
    9900012    2    1    2    0    0 -0.14887588190E+02 -0.10513271829E+02 -0.43023357917E+01  0.72461567880E+02  0.69999996855E+02 0.  0.
         12    1    1    2    0    0  0.14887588190E+02  0.10513271829E+02  0.43023357917E+01  0.18726432120E+02  0.00000000000E+00 0. -1.
         11    1    3    3    0    0 -0.90064280347E+01 -0.23559986472E+02  0.85642935559E+01  0.26637113824E+02  0.51100000000E-03 0. -1.
        -11    1    3    3    0    0 -0.17334200280E+02  0.70907053300E+01  0.87304805174E+01  0.20663346577E+02  0.51100000000E-03 0.  1.
         12    1    3    3    0    0  0.11453040125E+02  0.59560093128E+01 -0.21597109865E+02  0.25161107479E+02  0.00000000000E+00 0. -1.
</event>
<event>
 7    1  0.1360399E-013  0.7246151E+02  0.7816164E-02  0.1226708E+00
        -11   -1    0    0    0    0  0.00000000000E+00  0.00000000000E+00  0.45593999997E+02  0.45594000000E+02  0.51100000000E-03 0.  1.
         11   -1    0    0    0    0 -0.00000000000E+00 -0.00000000000E+00 -0.45593999997E+02  0.45594000000E+02  0.51100000000E-03 0. -1.
    9900012    2    1    2    0    0 -0.18712465655E+02 -0.45845036906E+00 -0.56116575609E+00  0.72461509282E+02  0.69999920520E+02 0.  0.
         12    1    1    2    0    0  0.18712465655E+02  0.45845036906E+00  0.56116575609E+00  0.18726490718E+02  0.00000000000E+00 0. -1.
         11    1    3    3    0    0  0.16516548909E+02 -0.12536398313E+02 -0.19262017840E+02  0.28301643098E+02  0.51100000000E-03 0. -1.
        -11    1    3    3    0    0 -0.32060243367E+02  0.59597594581E+01  0.12607092491E+02  0.34961646399E+02  0.51100000000E-03 0.  1.
         12    1    3    3    0    0 -0.31687711963E+01  0.61181884855E+01  0.60937595927E+01  0.91982197849E+01  0.00000000000E+00 0. -1.
</event>
<event>
 7    1  0.1360399E-013  0.7246146E+02  0.7816164E-02  0.1226708E+00
        -11   -1    0    0    0    0  0.00000000000E+00  0.00000000000E+00  0.45593999997E+02  0.45594000000E+02  0.51100000000E-03 0.  1.
         11   -1    0    0    0    0 -0.00000000000E+00 -0.00000000000E+00 -0.45593999997E+02  0.45594000000E+02  0.51100000000E-03 0. -1.
    9900012    2    1    2    0    0 -0.54637300626E+01  0.16130065704E+02  0.77879237819E+01  0.72461464745E+02  0.69999862502E+02 0.  0.
         12    1    1    2    0    0  0.54637300626E+01 -0.16130065704E+02 -0.77879237819E+01  0.18726535255E+02  0.00000000000E+00 0. -1.
         11    1    3    3    0    0  0.22109497202E+02 -0.64490472106E+01 -0.14249740096E+02  0.27082746713E+02  0.51100000000E-03 0. -1.
        -11    1    3    3    0    0 -0.37423044167E+01  0.12964632083E+02  0.11007732360E+02  0.17414267122E+02  0.51100000000E-03 0.  1.
         12    1    3    3    0    0 -0.23830922848E+02  0.96144808315E+01  0.11029931517E+02  0.27964450911E+02  0.00000000000E+00 0. -1.
</event>
<event>
 7    1  0.1360399E-013  0.7246152E+02  0.7816164E-02  0.1226708E+00
        -11   -1    0    0    0    0  0.00000000000E+00  0.00000000000E+00  0.45593999997E+02  0.45594000000E+02  0.51100000000E-03 0. -1.
         11   -1    0    0    0    0 -0.00000000000E+00 -0.00000000000E+00 -0.45593999997E+02  0.45594000000E+02  0.51100000000E-03 0.  1.
    9900012    2    1    2    0    0  0.97209276068E+01  0.15683261718E+02  0.31968521523E+01  0.72461521545E+02  0.69999936495E+02 0.  0.
         12    1    1    2    0    0 -0.97209276068E+01 -0.15683261718E+02 -0.31968521523E+01  0.18726478455E+02  0.00000000000E+00 0. -1.
         11    1    3    3    0    0  0.24605594554E+02  0.20662362361E+02  0.16972905653E+02  0.36337969512E+02  0.51100000000E-03 0. -1.
        -11    1    3    3    0    0 -0.10080982191E+02  0.18625301599E+01 -0.22077978629E+02  0.24341987616E+02  0.51100000000E-03 0.  1.
        -12    1    3    3    0    0 -0.48036847561E+01 -0.68416308028E+01  0.83019251279E+01  0.11781564417E+02  0.00000000000E+00 0.  1.
</event>
<event>
 7    1  0.1360399E-013  0.7246154E+02  0.7816164E-02  0.1226708E+00
        -11   -1    0    0    0    0  0.00000000000E+00  0.00000000000E+00  0.45593999997E+02  0.45594000000E+02  0.51100000000E-03 0.  1.
         11   -1    0    0    0    0 -0.00000000000E+00 -0.00000000000E+00 -0.45593999997E+02  0.45594000000E+02  0.51100000000E-03 0. -1.
    9900012    2    1    2    0    0  0.96021779491E+00 -0.98583425131E+01  0.15892491403E+02  0.72461542291E+02  0.69999963520E+02 0.  0.
         12    1    1    2    0    0 -0.96021779491E+00  0.98583425131E+01 -0.15892491403E+02  0.18726457709E+02  0.00000000000E+00 0. -1.
         11    1    3    3    0    0 -0.47983907964E+01  0.17717873173E+01 -0.23868550113E+02  0.24410478678E+02  0.51100000000E-03 0. -1.
        -11    1    3    3    0    0  0.91902841028E+01 -0.14829436575E+02  0.39694083782E+02  0.43358895265E+02  0.51100000000E-03 0.  1.
        -12    1    3    3    0    0 -0.34316755115E+01  0.31993067450E+01  0.66957734904E-01  0.46921683477E+01  0.00000000000E+00 0.  1.
</event>
<event>
 7    1  0.1360399E-013  0.7246156E+02  0.7816164E-02  0.1226708E+00
        -11   -1    0    0    0    0  0.00000000000E+00  0.00000000000E+00  0.45593999997E+02  0.45594000000E+02  0.51100000000E-03 0.  1.
         11   -1    0    0    0    0 -0.00000000000E+00 -0.00000000000E+00 -0.45593999997E+02  0.45594000000E+02  0.51100000000E-03 0. -1.
    9900012    2    1    2    0    0 -0.32263639487E+01 -0.60555681994E+01  0.17424124045E+02  0.72461563359E+02  0.69999990965E+02 0.  0.
         12    1    1    2    0    0  0.32263639487E+01  0.60555681994E+01 -0.17424124045E+02  0.18726436641E+02  0.00000000000E+00 0. -1.
         11    1    3    3    0    0 -0.70256162205E+01 -0.44370872495E+01 -0.21608842404E+02  0.23151438332E+02  0.51100000000E-03 0. -1.
        -11    1    3    3    0    0 -0.13143846737E+02 -0.75598230373E+00  0.16852741851E+02  0.21385675684E+02  0.51100000000E-03 0.  1.
         12    1    3    3    0    0  0.16943099008E+02 -0.86249864625E+00  0.22180224597E+02  0.27924449343E+02  0.00000000000E+00 0. -1.
</event>
<event>
 7    1  0.1360399E-013  0.7246154E+02  0.7816164E-02  0.1226708E+00
        -11   -1    0    0    0    0  0.00000000000E+00  0.00000000000E+00  0.45593999997E+02  0.45594000000E+02  0.51100000000E-03 0.  1.
         11   -1    0    0    0    0 -0.00000000000E+00 -0.00000000000E+00 -0.45593999997E+02  0.45594000000E+02  0.51100000000E-03 0. -1.
    9900012    2    1    2    0    0  0.28067211383E+01 -0.14778034812E+02  0.11154034547E+02  0.72461535221E+02  0.69999954310E+02 0.  0.
         12    1    1    2    0    0 -0.28067211383E+01  0.14778034812E+02 -0.11154034547E+02  0.18726464779E+02  0.00000000000E+00 0. -1.
         11    1    3    3    0    0  0.27022875523E+02  0.14932462195E+01  0.27214588821E+00  0.27065469689E+02  0.51100000000E-03 0. -1.
        -11    1    3    3    0    0 -0.30296461241E+01 -0.18195795215E+02  0.14941495976E+02  0.23738450273E+02  0.51100000000E-03 0.  1.
         12    1    3    3    0    0 -0.21186508261E+02  0.19245141834E+01 -0.40596073167E+01  0.21657615259E+02  0.00000000000E+00 0. -1.
</event>
<event>
 7    1  0.1360399E-013  0.7246159E+02  0.7816164E-02  0.1226708E+00
        -11   -1    0    0    0    0  0.00000000000E+00  0.00000000000E+00  0.45593999997E+02  0.45594000000E+02  0.51100000000E-03 0.  1.
         11   -1    0    0    0    0 -0.00000000000E+00 -0.00000000000E+00 -0.45593999997E+02  0.45594000000E+02  0.51100000000E-03 0. -1.
    9900012    2    1    2    0    0  0.16587880328E+02  0.66219104132E+01  0.56277005614E+01  0.72461588574E+02  0.70000023812E+02 0.  0.
         12    1    1    2    0    0 -0.16587880328E+02 -0.66219104132E+01 -0.56277005614E+01  0.18726411426E+02  0.00000000000E+00 0. -1.
         11    1    3    3    0    0  0.54032026242E+01  0.20249675162E+02 -0.14646103322E+02  0.25568580046E+02  0.51100000000E-03 0.  1.
        -11    1    3    3    0    0 -0.89974207394E+01 -0.47694778988E+01  0.22542570920E+02  0.24735985999E+02  0.51100000000E-03 0. -1.
         12    1    3    3    0    0  0.20182098443E+02 -0.88582868498E+01 -0.22687670362E+01  0.22157022529E+02  0.00000000000E+00 0. -1.
</event>
<event>
 7    1  0.1360399E-013  0.7246177E+02  0.7816164E-02  0.1226707E+00
        -11   -1    0    0    0    0  0.00000000000E+00  0.00000000000E+00  0.45593999997E+02  0.45594000000E+02  0.51100000000E-03 0.  1.
         11   -1    0    0    0    0 -0.00000000000E+00 -0.00000000000E+00 -0.45593999997E+02  0.45594000000E+02  0.51100000000E-03 0. -1.
    9900012    2    1    2    0    0 -0.13356017146E+02  0.10601795121E+02  0.77388900989E+01  0.72461770434E+02  0.70000260719E+02 0.  0.
         12    1    1    2    0    0  0.13356017146E+02 -0.10601795121E+02 -0.77388900989E+01  0.18726229566E+02  0.00000000000E+00 0. -1.
         11    1    3    3    0    0 -0.20242620160E+02  0.69808918017E+01 -0.15428115477E+02  0.26391727278E+02  0.51100000000E-03 0. -1.
        -11    1    3    3    0    0  0.27491517087E+01  0.20588478731E+02  0.18919770538E+02  0.28096281054E+02  0.51100000000E-03 0.  1.
        -12    1    3    3    0    0  0.41374513052E+01 -0.16967575411E+02  0.42472350386E+01  0.17973762103E+02  0.00000000000E+00 0.  1.
</event>
<event>
 7    1  0.1360399E-013  0.7246151E+02  0.7816164E-02  0.1226708E+00
        -11   -1    0    0    0    0  0.00000000000E+00  0.00000000000E+00  0.45593999997E+02  0.45594000000E+02  0.51100000000E-03 0. -1.
         11   -1    0    0    0    0 -0.00000000000E+00 -0.00000000000E+00 -0.45593999997E+02  0.45594000000E+02  0.51100000000E-03 0.  1.
    9900012    2    1    2    0    0  0.15346689119E+01 -0.18646175667E+02 -0.80396849557E+00  0.72461509645E+02  0.69999920993E+02 0.  0.
         12    1    1    2    0    0 -0.15346689119E+01  0.18646175667E+02  0.80396849557E+00  0.18726490355E+02  0.00000000000E+00 0. -1.
         11    1    3    3    0    0 -0.84637061020E+01 -0.14838940015E+02  0.30616281095E+02  0.35059736595E+02  0.51100000000E-03 0. -1.
        -11    1    3    3    0    0 -0.17711654219E+01  0.91291231716E+00 -0.20703149416E+02  0.20798818040E+02  0.51100000000E-03 0.  1.
         12    1    3    3    0    0  0.11769540436E+02 -0.47201479692E+01 -0.10717100174E+02  0.16602955010E+02  0.00000000000E+00 0. -1.
</event>
<event>
 7    1  0.1360399E-013  0.7246157E+02  0.7816164E-02  0.1226708E+00
        -11   -1    0    0    0    0  0.00000000000E+00  0.00000000000E+00  0.45593999997E+02  0.45594000000E+02  0.51100000000E-03 0.  1.
         11   -1    0    0    0    0 -0.00000000000E+00 -0.00000000000E+00 -0.45593999997E+02  0.45594000000E+02  0.51100000000E-03 0. -1.
    9900012    2    1    2    0    0  0.13026696291E+02  0.81635496972E+01  0.10693023013E+02  0.72461572122E+02  0.70000002381E+02 0.  0.
         12    1    1    2    0    0 -0.13026696291E+02 -0.81635496972E+01 -0.10693023013E+02  0.18726427878E+02  0.00000000000E+00 0. -1.
         11    1    3    3    0    0  0.14164643719E+01 -0.49495126638E+01  0.39046358082E+01  0.64614416334E+01  0.51100000000E-03 0. -1.
        -11    1    3    3    0    0  0.36980464989E+02  0.15340115815E+02  0.62933685409E+01  0.40527526841E+02  0.51100000000E-03 0.  1.
        -12    1    3    3    0    0 -0.25370233070E+02 -0.22270534535E+01  0.49501866425E+00  0.25472603648E+02  0.00000000000E+00 0.  1.
</event>
<event>
 7    1  0.1360399E-013  0.7246158E+02  0.7816164E-02  0.1226708E+00
        -11   -1    0    0    0    0  0.00000000000E+00  0.00000000000E+00  0.45593999997E+02  0.45594000000E+02  0.51100000000E-03 0.  1.
         11   -1    0    0    0    0 -0.00000000000E+00 -0.00000000000E+00 -0.45593999997E+02  0.45594000000E+02  0.51100000000E-03 0. -1.
    9900012    2    1    2    0    0  0.97667206097E+01  0.60059006170E+01  0.14806050229E+02  0.72461580239E+02  0.70000012955E+02 0.  0.
         12    1    1    2    0    0 -0.97667206097E+01 -0.60059006170E+01 -0.14806050229E+02  0.18726419761E+02  0.00000000000E+00 0. -1.
         11    1    3    3    0    0  0.52945769727E+01 -0.86509852891E+01 -0.11178457152E+02  0.15094038438E+02  0.51100000000E-03 0. -1.
        -11    1    3    3    0    0  0.23386867350E+02  0.15818166825E+02  0.26052106332E+02  0.38417082278E+02  0.51100000000E-03 0.  1.
        -12    1    3    3    0    0 -0.18914723713E+02 -0.11612809187E+01 -0.67598950952E-01  0.18950459523E+02  0.00000000000E+00 0.  1.
</event>
<event>
 7    1  0.1360399E-013  0.7246158E+02  0.7816164E-02  0.1226708E+00
        -11   -1    0    0    0    0  0.00000000000E+00  0.00000000000E+00  0.45593999997E+02  0.45594000000E+02  0.51100000000E-03 0.  1.
         11   -1    0    0    0    0 -0.00000000000E+00 -0.00000000000E+00 -0.45593999997E+02  0.45594000000E+02  0.51100000000E-03 0. -1.
    9900012    2    1    2    0    0 -0.66989022645E+01  0.16904751505E+02  0.44758159399E+01  0.72461579004E+02  0.70000011346E+02 0.  0.
         12    1    1    2    0    0  0.66989022645E+01 -0.16904751505E+02 -0.44758159399E+01  0.18726420996E+02  0.00000000000E+00 0. -1.
         11    1    3    3    0    0 -0.23395759393E+02  0.21890150130E+02 -0.89342873315E+01  0.33262016185E+02  0.51100000000E-03 0. -1.
        -11    1    3    3    0    0  0.15006881778E+02 -0.14003606590E+02 -0.26572097115E+01  0.20697059258E+02  0.51100000000E-03 0.  1.
        -12    1    3    3    0    0  0.16899753504E+01  0.90182079637E+01  0.16067312983E+02  0.18502503562E+02  0.00000000000E+00 0.  1.
</event>
<event>
 7    1  0.1360399E-013  0.7246202E+02  0.7816164E-02  0.1226707E+00
        -11   -1    0    0    0    0  0.00000000000E+00  0.00000000000E+00  0.45593999997E+02  0.45594000000E+02  0.51100000000E-03 0.  1.
         11   -1    0    0    0    0 -0.00000000000E+00 -0.00000000000E+00 -0.45593999997E+02  0.45594000000E+02  0.51100000000E-03 0. -1.
    9900012    2    1    2    0    0 -0.17165035360E+02 -0.73217032429E+01  0.15544814183E+01  0.72462023663E+02  0.70000590595E+02 0.  0.
         12    1    1    2    0    0  0.17165035360E+02  0.73217032429E+01 -0.15544814183E+01  0.18725976337E+02  0.00000000000E+00 0. -1.
         11    1    3    3    0    0 -0.32666442348E+02 -0.10599987029E+02 -0.55840079612E+01  0.34794213971E+02  0.51100000000E-03 0. -1.
        -11    1    3    3    0    0  0.12326906909E+02 -0.56809402838E+01  0.18442502453E+02  0.22898725149E+02  0.51100000000E-03 0.  1.
         12    1    3    3    0    0  0.31745000789E+01  0.89592240703E+01 -0.11304013073E+02  0.14769084543E+02  0.00000000000E+00 0. -1.
</event>
<event>
 7    1  0.1360399E-013  0.7246160E+02  0.7816164E-02  0.1226708E+00
        -11   -1    0    0    0    0  0.00000000000E+00  0.00000000000E+00  0.45593999997E+02  0.45594000000E+02  0.51100000000E-03 0.  1.
         11   -1    0    0    0    0 -0.00000000000E+00 -0.00000000000E+00 -0.45593999997E+02  0.45594000000E+02  0.51100000000E-03 0. -1.
    9900012    2    1    2    0    0  0.69700564831E+01 -0.13840708820E+02  0.10513381225E+02  0.72461599043E+02  0.70000037451E+02 0.  0.
         12    1    1    2    0    0 -0.69700564831E+01  0.13840708820E+02 -0.10513381225E+02  0.18726400957E+02  0.00000000000E+00 0. -1.
         11    1    3    3    0    0 -0.19835797346E+02 -0.20356158129E+02  0.40277684432E+01  0.28706357292E+02  0.51100000000E-03 0. -1.
        -11    1    3    3    0    0  0.19196986264E+02 -0.88848197093E+01  0.13616000899E+02  0.25156704546E+02  0.51100000000E-03 0.  1.
         12    1    3    3    0    0  0.76088675653E+01  0.15400269018E+02 -0.71303881172E+01  0.18598537205E+02  0.00000000000E+00 0. -1.
</event>
<event>
 7    1  0.1360399E-013  0.7246157E+02  0.7816164E-02  0.1226708E+00
        -11   -1    0    0    0    0  0.00000000000E+00  0.00000000000E+00  0.45593999997E+02  0.45594000000E+02  0.51100000000E-03 0. -1.
         11   -1    0    0    0    0 -0.00000000000E+00 -0.00000000000E+00 -0.45593999997E+02  0.45594000000E+02  0.51100000000E-03 0.  1.
    9900012    2    1    2    0    0  0.16373701909E+02  0.83735308406E+01 -0.35305706231E+01  0.72461573169E+02  0.70000003745E+02 0.  0.
         12    1    1    2    0    0 -0.16373701909E+02 -0.83735308406E+01  0.35305706231E+01  0.18726426831E+02  0.00000000000E+00 0. -1.
         11    1    3    3    0    0 -0.69716947452E+01  0.73038832231E+01  0.48934338432E+01  0.11220380243E+02  0.51100000000E-03 0. -1.
        -11    1    3    3    0    0  0.32834416618E+02  0.18825393775E+02 -0.13994136950E+02  0.40352574078E+02  0.51100000000E-03 0.  1.
        -12    1    3    3    0    0 -0.94890199646E+01 -0.17755746158E+02  0.55701324835E+01  0.20888618848E+02  0.00000000000E+00 0.  1.
</event>
<event>
 7    1  0.1360399E-013  0.7246108E+02  0.7816164E-02  0.1226709E+00
        -11   -1    0    0    0    0  0.00000000000E+00  0.00000000000E+00  0.45593999997E+02  0.45594000000E+02  0.51100000000E-03 0.  1.
         11   -1    0    0    0    0 -0.00000000000E+00 -0.00000000000E+00 -0.45593999997E+02  0.45594000000E+02  0.51100000000E-03 0. -1.
    9900012    2    1    2    0    0  0.12184687471E+02  0.11753902361E+02  0.80047968651E+01  0.72461078141E+02  0.69999358876E+02 0.  0.
         12    1    1    2    0    0 -0.12184687471E+02 -0.11753902361E+02 -0.80047968651E+01  0.18726921859E+02  0.00000000000E+00 0. -1.
         11    1    3    3    0    0  0.68079938954E+01  0.23078850878E+02 -0.52396634064E+01  0.24625925599E+02  0.51100000000E-03 0. -1.
        -11    1    3    3    0    0 -0.13495888295E+02 -0.12256015653E+02  0.20645010503E+02  0.27542065636E+02  0.51100000000E-03 0.  1.
         12    1    3    3    0    0  0.18872581870E+02  0.93106713493E+00 -0.74005502313E+01  0.20293086906E+02  0.00000000000E+00 0. -1.
</event>
<event>
 7    1  0.1360399E-013  0.7246151E+02  0.7816164E-02  0.1226708E+00
        -11   -1    0    0    0    0  0.00000000000E+00  0.00000000000E+00  0.45593999997E+02  0.45594000000E+02  0.51100000000E-03 0.  1.
         11   -1    0    0    0    0 -0.00000000000E+00 -0.00000000000E+00 -0.45593999997E+02  0.45594000000E+02  0.51100000000E-03 0. -1.
    9900012    2    1    2    0    0 -0.42256929010E+01 -0.10778826686E+01  0.18211617030E+02  0.72461513240E+02  0.69999925676E+02 0.  0.
         12    1    1    2    0    0  0.42256929010E+01  0.10778826686E+01 -0.18211617030E+02  0.18726486760E+02  0.00000000000E+00 0. -1.
         11    1    3    3    0    0 -0.22206820197E+02 -0.20492680452E+02 -0.75118824976E+01  0.31137135293E+02  0.51100000000E-03 0. -1.
        -11    1    3    3    0    0  0.16818835998E+01  0.14281954520E+02  0.70623851088E+01  0.16021243430E+02  0.51100000000E-03 0.  1.
         12    1    3    3    0    0  0.16299243696E+02  0.51328432630E+01  0.18661114419E+02  0.25303134517E+02  0.00000000000E+00 0. -1.
</event>
<event>
 7    1  0.1360399E-013  0.7246157E+02  0.7816164E-02  0.1226708E+00
        -11   -1    0    0    0    0  0.00000000000E+00  0.00000000000E+00  0.45593999997E+02  0.45594000000E+02  0.51100000000E-03 0.  1.
         11   -1    0    0    0    0 -0.00000000000E+00 -0.00000000000E+00 -0.45593999997E+02  0.45594000000E+02  0.51100000000E-03 0. -1.
    9900012    2    1    2    0    0  0.16844136233E+02 -0.22483064208E+01  0.78676209423E+01  0.72461567706E+02  0.69999996628E+02 0.  0.
         12    1    1    2    0    0 -0.16844136233E+02  0.22483064208E+01 -0.78676209423E+01  0.18726432294E+02  0.00000000000E+00 0. -1.
         11    1    3    3    0    0  0.17312983296E+02 -0.16011968259E+02 -0.16503510832E+02  0.28783474220E+02  0.51100000000E-03 0. -1.
        -11    1    3    3    0    0  0.79736688834E+01  0.21334286021E+02  0.88026701428E+01  0.24417578861E+02  0.51100000000E-03 0.  1.
         12    1    3    3    0    0 -0.84425159471E+01 -0.75706241834E+01  0.15568461631E+02  0.19260514625E+02  0.00000000000E+00 0. -1.
</event>
<event>
 7    1  0.1360399E-013  0.7246152E+02  0.7816164E-02  0.1226708E+00
        -11   -1    0    0    0    0  0.00000000000E+00  0.00000000000E+00  0.45593999997E+02  0.45594000000E+02  0.51100000000E-03 0. -1.
         11   -1    0    0    0    0 -0.00000000000E+00 -0.00000000000E+00 -0.45593999997E+02  0.45594000000E+02  0.51100000000E-03 0.  1.
    9900012    2    1    2    0    0 -0.14054411466E+02  0.86170178626E+01 -0.88826602685E+01  0.72461517897E+02  0.69999931743E+02 0.  0.
         12    1    1    2    0    0  0.14054411466E+02 -0.86170178626E+01  0.88826602685E+01  0.18726482103E+02  0.00000000000E+00 0. -1.
         11    1    3    3    0    0 -0.10497977421E+02 -0.17495237860E+02  0.13148836020E+02  0.24273087292E+02  0.51100000000E-03 0. -1.
        -11    1    3    3    0    0 -0.12671744002E+02  0.28973449263E+02 -0.22192239571E+02  0.38633267473E+02  0.51100000000E-03 0.  1.
        -12    1    3    3    0    0  0.91153099571E+01 -0.28611935401E+01  0.16074328217E+00  0.95551631326E+01  0.00000000000E+00 0.  1.
</event>
<event>
 7    1  0.1360399E-013  0.7246159E+02  0.7816164E-02  0.1226708E+00
        -11   -1    0    0    0    0  0.00000000000E+00  0.00000000000E+00  0.45593999997E+02  0.45594000000E+02  0.51100000000E-03 0. -1.
         11   -1    0    0    0    0 -0.00000000000E+00 -0.00000000000E+00 -0.45593999997E+02  0.45594000000E+02  0.51100000000E-03 0.  1.
    9900012    2    1    2    0    0  0.19295081590E+01 -0.61303242727E+00 -0.18616647224E+02  0.72461591793E+02  0.70000028005E+02 0.  0.
         12    1    1    2    0    0 -0.19295081590E+01  0.61303242727E+00  0.18616647224E+02  0.18726408207E+02  0.00000000000E+00 0. -1.
         11    1    3    3    0    0  0.11421575125E+00  0.22685472468E+02  0.41304791421E+01  0.23058719924E+02  0.51100000000E-03 0. -1.
        -11    1    3    3    0    0  0.19029389264E+02 -0.79991557968E+01 -0.85130268742E+01  0.22328810449E+02  0.51100000000E-03 0.  1.
         12    1    3    3    0    0 -0.17214096857E+02 -0.15299349098E+02 -0.14234099492E+02  0.27074061420E+02  0.00000000000E+00 0. -1.
</event>
<event>
 7    1  0.1360399E-013  0.7246156E+02  0.7816164E-02  0.1226708E+00
        -11   -1    0    0    0    0  0.00000000000E+00  0.00000000000E+00  0.45593999997E+02  0.45594000000E+02  0.51100000000E-03 0. -1.
         11   -1    0    0    0    0 -0.00000000000E+00 -0.00000000000E+00 -0.45593999997E+02  0.45594000000E+02  0.51100000000E-03 0.  1.
    9900012    2    1    2    0    0 -0.35013030730E+01 -0.12924526379E+01 -0.18350747987E+02  0.72461561238E+02  0.69999988203E+02 0.  0.
         12    1    1    2    0    0  0.35013030730E+01  0.12924526379E+01  0.18350747987E+02  0.18726438762E+02  0.00000000000E+00 0. -1.
         11    1    3    3    0    0  0.11015389356E+01  0.63117678989E+01  0.44853716196E+01  0.78211483085E+01  0.51100000000E-03 0. -1.
        -11    1    3    3    0    0  0.11590550351E+02 -0.14142596597E+02 -0.37575328570E+02  0.41788266455E+02  0.51100000000E-03 0.  1.
        -12    1    3    3    0    0 -0.16193392360E+02  0.65383760603E+01  0.14739208964E+02  0.22852146474E+02  0.00000000000E+00 0.  1.
</event>
<event>
 7    1  0.1360399E-013  0.7246164E+02  0.7816164E-02  0.1226708E+00
        -11   -1    0    0    0    0  0.00000000000E+00  0.00000000000E+00  0.45593999997E+02  0.45594000000E+02  0.51100000000E-03 0.  1.
         11   -1    0    0    0    0 -0.00000000000E+00 -0.00000000000E+00 -0.45593999997E+02  0.45594000000E+02  0.51100000000E-03 0. -1.
    9900012    2    1    2    0    0 -0.60419930456E+01 -0.74213292737E+01  0.16096422213E+02  0.72461638469E+02  0.70000088810E+02 0.  0.
         12    1    1    2    0    0  0.60419930456E+01  0.74213292737E+01 -0.16096422213E+02  0.18726361531E+02  0.00000000000E+00 0. -1.
         11    1    3    3    0    0 -0.10195584207E+02 -0.28289385237E+02 -0.10398040593E+02  0.31817581663E+02  0.51100000000E-03 0. -1.
        -11    1    3    3    0    0  0.10135087060E+02  0.72006620133E+01  0.21636422610E+02  0.24954043896E+02  0.51100000000E-03 0.  1.
         12    1    3    3    0    0 -0.59814958986E+01  0.13667393950E+02  0.48580401961E+01  0.15690012910E+02  0.00000000000E+00 0. -1.
</event>
<event>
 7    1  0.1360399E-013  0.7246155E+02  0.7816164E-02  0.1226708E+00
        -11   -1    0    0    0    0  0.00000000000E+00  0.00000000000E+00  0.45593999997E+02  0.45594000000E+02  0.51100000000E-03 0. -1.
         11   -1    0    0    0    0 -0.00000000000E+00 -0.00000000000E+00 -0.45593999997E+02  0.45594000000E+02  0.51100000000E-03 0.  1.
    9900012    2    1    2    0    0 -0.50253714408E+01  0.11300943526E+02 -0.14061094005E+02  0.72461546857E+02  0.69999969468E+02 0.  0.
         12    1    1    2    0    0  0.50253714408E+01 -0.11300943526E+02  0.14061094005E+02  0.18726453143E+02  0.00000000000E+00 0. -1.
         11    1    3    3    0    0  0.28572110585E+02 -0.12454563638E+01 -0.37372388571E+01  0.28842392747E+02  0.51100000000E-03 0. -1.
        -11    1    3    3    0    0 -0.14842530393E+02 -0.29761623484E+01  0.36180007358E+01  0.15564323961E+02  0.51100000000E-03 0.  1.
         12    1    3    3    0    0 -0.18754951633E+02  0.15522562238E+02 -0.13941855884E+02  0.28054830149E+02  0.00000000000E+00 0. -1.
</event>
<event>
 7    1  0.1360399E-013  0.7246158E+02  0.7816164E-02  0.1226708E+00
        -11   -1    0    0    0    0  0.00000000000E+00  0.00000000000E+00  0.45593999997E+02  0.45594000000E+02  0.51100000000E-03 0.  1.
         11   -1    0    0    0    0 -0.00000000000E+00 -0.00000000000E+00 -0.45593999997E+02  0.45594000000E+02  0.51100000000E-03 0. -1.
    9900012    2    1    2    0    0  0.64812313256E+01 -0.44362514848E+01  0.16999771244E+02  0.72461577248E+02  0.70000009058E+02 0.  0.
         12    1    1    2    0    0 -0.64812313256E+01  0.44362514848E+01 -0.16999771244E+02  0.18726422752E+02  0.00000000000E+00 0. -1.
         11    1    3    3    0    0  0.98891644037E+01  0.19978864966E+01 -0.13563054934E+02  0.16903951682E+02  0.51100000000E-03 0. -1.
        -11    1    3    3    0    0 -0.51746684134E+01 -0.25935171105E+02  0.20980258661E+02  0.33757688712E+02  0.51100000000E-03 0.  1.
        -12    1    3    3    0    0  0.17667353352E+01  0.19501033123E+02  0.95825675176E+01  0.21799936854E+02  0.00000000000E+00 0.  1.
</event>
<event>
 7    1  0.1360399E-013  0.7246132E+02  0.7816164E-02  0.1226709E+00
        -11   -1    0    0    0    0  0.00000000000E+00  0.00000000000E+00  0.45593999997E+02  0.45594000000E+02  0.51100000000E-03 0.  1.
         11   -1    0    0    0    0 -0.00000000000E+00 -0.00000000000E+00 -0.45593999997E+02  0.45594000000E+02  0.51100000000E-03 0. -1.
    9900012    2    1    2    0    0 -0.19572040284E+01 -0.18622989768E+02  0.20499884858E+00  0.72461323305E+02  0.69999678250E+02 0.  0.
         12    1    1    2    0    0  0.19572040284E+01  0.18622989768E+02 -0.20499884858E+00  0.18726676695E+02  0.00000000000E+00 0. -1.
         11    1    3    3    0    0 -0.27855999548E+02  0.41788313427E+01  0.17875493394E+02  0.33360944329E+02  0.51100000000E-03 0. -1.
        -11    1    3    3    0    0  0.75635507175E+01 -0.98587313686E+01 -0.67573866985E+01  0.14144403802E+02  0.51100000000E-03 0.  1.
         12    1    3    3    0    0  0.18335244802E+02 -0.12943089742E+02 -0.10913107847E+02  0.24955975174E+02  0.00000000000E+00 0. -1.
</event>
<event>
 7    1  0.1360399E-013  0.7246166E+02  0.7816164E-02  0.1226708E+00
        -11   -1    0    0    0    0  0.00000000000E+00  0.00000000000E+00  0.45593999997E+02  0.45594000000E+02  0.51100000000E-03 0.  1.
         11   -1    0    0    0    0 -0.00000000000E+00 -0.00000000000E+00 -0.45593999997E+02  0.45594000000E+02  0.51100000000E-03 0. -1.
    9900012    2    1    2    0    0  0.15750281597E+02  0.17619473807E+01  0.99749710358E+01  0.72461658229E+02  0.70000114551E+02 0.  0.
         12    1    1    2    0    0 -0.15750281597E+02 -0.17619473807E+01 -0.99749710358E+01  0.18726341771E+02  0.00000000000E+00 0. -1.
         11    1    3    3    0    0  0.19353316199E+02 -0.23143121156E+02  0.18053341851E+02  0.35157901772E+02  0.51100000000E-03 0. -1.
        -11    1    3    3    0    0  0.75101179367E+01  0.21625392293E+02  0.48223582958E+00  0.22897423761E+02  0.51100000000E-03 0.  1.
         12    1    3    3    0    0 -0.11113152539E+02  0.32796762439E+01 -0.85606066449E+01  0.14406332696E+02  0.00000000000E+00 0. -1.
</event>
<event>
 7    1  0.1360399E-013  0.7246150E+02  0.7816164E-02  0.1226708E+00
        -11   -1    0    0    0    0  0.00000000000E+00  0.00000000000E+00  0.45593999997E+02  0.45594000000E+02  0.51100000000E-03 0.  1.
         11   -1    0    0    0    0 -0.00000000000E+00 -0.00000000000E+00 -0.45593999997E+02  0.45594000000E+02  0.51100000000E-03 0. -1.
    9900012    2    1    2    0    0 -0.86540794152E+00  0.17155777541E+02  0.74573454253E+01  0.72461504473E+02  0.69999914256E+02 0.  0.
         12    1    1    2    0    0  0.86540794152E+00 -0.17155777541E+02 -0.74573454253E+01  0.18726495527E+02  0.00000000000E+00 0. -1.
         11    1    3    3    0    0 -0.25202435752E+02  0.70924742203E+01 -0.93009100798E+01  0.27784400065E+02  0.51100000000E-03 0. -1.
        -11    1    3    3    0    0  0.10004012378E+02  0.18415373113E+02  0.18555251843E+02  0.27991134342E+02  0.51100000000E-03 0.  1.
        -12    1    3    3    0    0  0.14333015432E+02 -0.83520697928E+01 -0.17969963380E+01  0.16685970066E+02  0.00000000000E+00 0.  1.
</event>
<event>
 7    1  0.1360399E-013  0.7246159E+02  0.7816164E-02  0.1226708E+00
        -11   -1    0    0    0    0  0.00000000000E+00  0.00000000000E+00  0.45593999997E+02  0.45594000000E+02  0.51100000000E-03 0.  1.
         11   -1    0    0    0    0 -0.00000000000E+00 -0.00000000000E+00 -0.45593999997E+02  0.45594000000E+02  0.51100000000E-03 0. -1.
    9900012    2    1    2    0    0 -0.96285183234E+01 -0.15451825210E+02  0.43830750876E+01  0.72461585110E+02  0.70000019300E+02 0.  0.
         12    1    1    2    0    0  0.96285183234E+01  0.15451825210E+02 -0.43830750876E+01  0.18726414890E+02  0.00000000000E+00 0. -1.
         11    1    3    3    0    0 -0.18702115496E+02 -0.10384499914E+01  0.13373351472E+02  0.23015082712E+02  0.51100000000E-03 0. -1.
        -11    1    3    3    0    0  0.18281908332E+02 -0.17444661706E+02  0.10744739628E+02  0.27458947982E+02  0.51100000000E-03 0.  1.
         12    1    3    3    0    0 -0.92083111601E+01  0.30312864878E+01 -0.19735016012E+02  0.21987554416E+02  0.00000000000E+00 0. -1.
</event>
<event>
 7    1  0.1360399E-013  0.7246154E+02  0.7816164E-02  0.1226708E+00
        -11   -1    0    0    0    0  0.00000000000E+00  0.00000000000E+00  0.45593999997E+02  0.45594000000E+02  0.51100000000E-03 0.  1.
         11   -1    0    0    0    0 -0.00000000000E+00 -0.00000000000E+00 -0.45593999997E+02  0.45594000000E+02  0.51100000000E-03 0. -1.
    9900012    2    1    2    0    0  0.19398300556E+00 -0.18725058680E+02  0.12241637793E+00  0.72461536433E+02  0.69999955889E+02 0.  0.
         12    1    1    2    0    0 -0.19398300556E+00  0.18725058680E+02 -0.12241637793E+00  0.18726463567E+02  0.00000000000E+00 0. -1.
         11    1    3    3    0    0  0.18940219888E+02 -0.33547747268E+02 -0.10391839752E+02  0.39902050196E+02  0.51100000000E-03 0. -1.
        -11    1    3    3    0    0 -0.87527807485E+01  0.10137017197E+02 -0.43173715030E+01  0.14071602092E+02  0.51100000000E-03 0.  1.
         12    1    3    3    0    0 -0.99934561341E+01  0.46856713907E+01  0.14831627633E+02  0.18487884144E+02  0.00000000000E+00 0. -1.
</event>
<event>
 7    1  0.1360399E-013  0.7246158E+02  0.7816164E-02  0.1226708E+00
        -11   -1    0    0    0    0  0.00000000000E+00  0.00000000000E+00  0.45593999997E+02  0.45594000000E+02  0.51100000000E-03 0.  1.
         11   -1    0    0    0    0 -0.00000000000E+00 -0.00000000000E+00 -0.45593999997E+02  0.45594000000E+02  0.51100000000E-03 0. -1.
    9900012    2    1    2    0    0  0.30580718604E+01  0.10212945554E+02  0.15395547921E+02  0.72461575990E+02  0.70000007420E+02 0.  0.
         12    1    1    2    0    0 -0.30580718604E+01 -0.10212945554E+02 -0.15395547921E+02  0.18726424010E+02  0.00000000000E+00 0. -1.
         11    1    3    3    0    0 -0.24400688526E+02  0.17822548487E+02 -0.43594515649E+01  0.30529357238E+02  0.51100000000E-03 0. -1.
        -11    1    3    3    0    0  0.17788016856E+02 -0.15348977334E+02  0.17609312884E+02  0.29361412592E+02  0.51100000000E-03 0.  1.
        -12    1    3    3    0    0  0.96707435305E+01  0.77393744006E+01  0.21456866020E+01  0.12570806161E+02  0.00000000000E+00 0.  1.
</event>
<event>
 7    1  0.1360399E-013  0.7246160E+02  0.7816164E-02  0.1226708E+00
        -11   -1    0    0    0    0  0.00000000000E+00  0.00000000000E+00  0.45593999997E+02  0.45594000000E+02  0.51100000000E-03 0. -1.
         11   -1    0    0    0    0 -0.00000000000E+00 -0.00000000000E+00 -0.45593999997E+02  0.45594000000E+02  0.51100000000E-03 0.  1.
    9900012    2    1    2    0    0  0.15387993539E+02 -0.91189370919E+01 -0.55436917238E+01  0.72461604811E+02  0.70000044965E+02 0.  0.
         12    1    1    2    0    0 -0.15387993539E+02  0.91189370919E+01  0.55436917238E+01  0.18726395189E+02  0.00000000000E+00 0. -1.
         11    1    3    3    0    0 -0.13609200305E+02  0.57545288421E+01  0.10868218912E+02  0.18342385825E+02  0.51100000000E-03 0. -1.
        -11    1    3    3    0    0  0.19677167596E+02  0.48839809916E+01 -0.23608291886E+02  0.31119055914E+02  0.51100000000E-03 0.  1.
         12    1    3    3    0    0  0.93200262481E+01 -0.19757446926E+02  0.71963812498E+01  0.23000163073E+02  0.00000000000E+00 0. -1.
</event>
<event>
 7    1  0.1360399E-013  0.7246158E+02  0.7816164E-02  0.1226708E+00
        -11   -1    0    0    0    0  0.00000000000E+00  0.00000000000E+00  0.45593999997E+02  0.45594000000E+02  0.51100000000E-03 0.  1.
         11   -1    0    0    0    0 -0.00000000000E+00 -0.00000000000E+00 -0.45593999997E+02  0.45594000000E+02  0.51100000000E-03 0. -1.
    9900012    2    1    2    0    0  0.10508708901E+02  0.14700454231E+02  0.49135019360E+01  0.72461579663E+02  0.70000012204E+02 0.  0.
         12    1    1    2    0    0 -0.10508708901E+02 -0.14700454231E+02 -0.49135019360E+01  0.18726420337E+02  0.00000000000E+00 0. -1.
         11    1    3    3    0    0 -0.12766911129E+02  0.11936962987E+02 -0.98777905233E+01  0.20076250920E+02  0.51100000000E-03 0. -1.
        -11    1    3    3    0    0  0.25108241063E+02 -0.12740520148E+02 -0.34602965854E+01  0.28367556745E+02  0.51100000000E-03 0.  1.
        -12    1    3    3    0    0 -0.18326210327E+01  0.15504011392E+02  0.18251589045E+02  0.24017771998E+02  0.00000000000E+00 0.  1.
</event>
<event>
 7    1  0.1360399E-013  0.7246158E+02  0.7816164E-02  0.1226708E+00
        -11   -1    0    0    0    0  0.00000000000E+00  0.00000000000E+00  0.45593999997E+02  0.45594000000E+02  0.51100000000E-03 0.  1.
         11   -1    0    0    0    0 -0.00000000000E+00 -0.00000000000E+00 -0.45593999997E+02  0.45594000000E+02  0.51100000000E-03 0. -1.
    9900012    2    1    2    0    0 -0.14257834945E+02  0.91210402641E+01  0.80124601864E+01  0.72461581467E+02  0.70000014555E+02 0.  0.
         12    1    1    2    0    0  0.14257834945E+02 -0.91210402641E+01 -0.80124601864E+01  0.18726418533E+02  0.00000000000E+00 0. -1.
         11    1    3    3    0    0 -0.55383594978E+01 -0.46286293464E+01  0.26381021855E+02  0.27350611510E+02  0.51100000000E-03 0.  1.
        -11    1    3    3    0    0 -0.61862045082E+01  0.17513637080E+02 -0.28495257346E+02  0.34014354344E+02  0.51100000000E-03 0. -1.
         12    1    3    3    0    0 -0.25332709389E+01 -0.37639674694E+01  0.10126695677E+02  0.11096615614E+02  0.00000000000E+00 0. -1.
</event>
<event>
 7    1  0.1360399E-013  0.7246156E+02  0.7816164E-02  0.1226708E+00
        -11   -1    0    0    0    0  0.00000000000E+00  0.00000000000E+00  0.45593999997E+02  0.45594000000E+02  0.51100000000E-03 0.  1.
         11   -1    0    0    0    0 -0.00000000000E+00 -0.00000000000E+00 -0.45593999997E+02  0.45594000000E+02  0.51100000000E-03 0. -1.
    9900012    2    1    2    0    0 -0.13403906814E+00  0.12159803424E+02  0.14240818767E+02  0.72461555998E+02  0.69999981377E+02 0.  0.
         12    1    1    2    0    0  0.13403906814E+00 -0.12159803424E+02 -0.14240818767E+02  0.18726444002E+02  0.00000000000E+00 0. -1.
         11    1    3    3    0    0  0.44394719104E+01  0.23626100515E+00 -0.75282307667E+01  0.87429393710E+01  0.51100000000E-03 0. -1.
        -11    1    3    3    0    0 -0.14659333294E+02  0.94031468309E+01  0.39497573009E+02  0.43166810130E+02  0.51100000000E-03 0.  1.
        -12    1    3    3    0    0  0.10085822316E+02  0.25203955878E+01 -0.17728523475E+02  0.20551806497E+02  0.00000000000E+00 0.  1.
</event>
<event>
 7    1  0.1360399E-013  0.7246096E+02  0.7816164E-02  0.1226710E+00
        -11   -1    0    0    0    0  0.00000000000E+00  0.00000000000E+00  0.45593999997E+02  0.45594000000E+02  0.51100000000E-03 0. -1.
         11   -1    0    0    0    0 -0.00000000000E+00 -0.00000000000E+00 -0.45593999997E+02  0.45594000000E+02  0.51100000000E-03 0.  1.
    9900012    2    1    2    0    0  0.36717433442E+01  0.13481368569E+02 -0.12468880150E+02  0.72460961530E+02  0.69999206966E+02 0.  0.
         12    1    1    2    0    0 -0.36717433442E+01 -0.13481368569E+02  0.12468880150E+02  0.18727038470E+02  0.00000000000E+00 0. -1.
         11    1    3    3    0    0  0.41741023312E+01 -0.68734009270E+00  0.38207600051E+01  0.57003310388E+01  0.51100000000E-03 0. -1.
        -11    1    3    3    0    0 -0.15097038661E+02  0.24964360929E+02  0.13286747561E+02  0.32057410281E+02  0.51100000000E-03 0.  1.
        -12    1    3    3    0    0  0.14594679674E+02 -0.10795652267E+02 -0.29576387716E+02  0.34703220210E+02  0.00000000000E+00 0.  1.
</event>
<event>
 7    1  0.1360399E-013  0.7246158E+02  0.7816164E-02  0.1226708E+00
        -11   -1    0    0    0    0  0.00000000000E+00  0.00000000000E+00  0.45593999997E+02  0.45594000000E+02  0.51100000000E-03 0.  1.
         11   -1    0    0    0    0 -0.00000000000E+00 -0.00000000000E+00 -0.45593999997E+02  0.45594000000E+02  0.51100000000E-03 0. -1.
    9900012    2    1    2    0    0 -0.74693671896E+01  0.11032406310E+02  0.13159541685E+02  0.72461575553E+02  0.70000006851E+02 0.  0.
         12    1    1    2    0    0  0.74693671896E+01 -0.11032406310E+02 -0.13159541685E+02  0.18726424447E+02  0.00000000000E+00 0. -1.
         11    1    3    3    0    0  0.21617313106E+00 -0.27796037023E+01 -0.25190935486E+01  0.37574938632E+01  0.51100000000E-03 0. -1.
        -11    1    3    3    0    0  0.10583621987E+02  0.27665734118E+02 -0.12693109006E+02  0.32226090597E+02  0.51100000000E-03 0.  1.
        -12    1    3    3    0    0 -0.18269162307E+02 -0.13853724106E+02  0.28371744240E+02  0.36477991094E+02  0.00000000000E+00 0.  1.
</event>
<event>
 7    1  0.1360399E-013  0.7246164E+02  0.7816164E-02  0.1226708E+00
        -11   -1    0    0    0    0  0.00000000000E+00  0.00000000000E+00  0.45593999997E+02  0.45594000000E+02  0.51100000000E-03 0.  1.
         11   -1    0    0    0    0 -0.00000000000E+00 -0.00000000000E+00 -0.45593999997E+02  0.45594000000E+02  0.51100000000E-03 0. -1.
    9900012    2    1    2    0    0 -0.58294845110E+01  0.14448499775E+02  0.10389146708E+02  0.72461644115E+02  0.70000096165E+02 0.  0.
         12    1    1    2    0    0  0.58294845110E+01 -0.14448499775E+02 -0.10389146708E+02  0.18726355885E+02  0.00000000000E+00 0. -1.
         11    1    3    3    0    0 -0.13182321646E+02  0.29457867843E+02  0.13423264602E+02  0.34953163158E+02  0.51100000000E-03 0.  1.
        -11    1    3    3    0    0  0.85262978938E+01 -0.25469860641E+02 -0.22528570219E+01  0.26953421339E+02  0.51100000000E-03 0. -1.
         12    1    3    3    0    0 -0.11734607584E+01  0.10460492572E+02 -0.78126087283E+00  0.10555059619E+02  0.00000000000E+00 0. -1.
</event>
<event>
 7    1  0.1360399E-013  0.7246159E+02  0.7816164E-02  0.1226708E+00
        -11   -1    0    0    0    0  0.00000000000E+00  0.00000000000E+00  0.45593999997E+02  0.45594000000E+02  0.51100000000E-03 0. -1.
         11   -1    0    0    0    0 -0.00000000000E+00 -0.00000000000E+00 -0.45593999997E+02  0.45594000000E+02  0.51100000000E-03 0.  1.
    9900012    2    1    2    0    0 -0.98268604407E+01  0.15939527385E+02 -0.20688748220E+00  0.72461587589E+02  0.70000022529E+02 0.  0.
         12    1    1    2    0    0  0.98268604407E+01 -0.15939527385E+02  0.20688748220E+00  0.18726412411E+02  0.00000000000E+00 0. -1.
         11    1    3    3    0    0  0.10084422112E+01 -0.10948201633E+02  0.45516033289E+01  0.11899460821E+02  0.51100000000E-03 0. -1.
        -11    1    3    3    0    0 -0.28519447879E+02  0.15568771656E+02 -0.16567938701E+02  0.36472484852E+02  0.51100000000E-03 0.  1.
        -12    1    3    3    0    0  0.17684145227E+02  0.11318957362E+02  0.11809447890E+02  0.24089641916E+02  0.00000000000E+00 0.  1.
</event>
<event>
 7    1  0.1360399E-013  0.7246155E+02  0.7816164E-02  0.1226708E+00
        -11   -1    0    0    0    0  0.00000000000E+00  0.00000000000E+00  0.45593999997E+02  0.45594000000E+02  0.51100000000E-03 0. -1.
         11   -1    0    0    0    0 -0.00000000000E+00 -0.00000000000E+00 -0.45593999997E+02  0.45594000000E+02  0.51100000000E-03 0.  1.
    9900012    2    1    2    0    0  0.12776604431E+02 -0.60219079295E+01 -0.12295315476E+02  0.72461554033E+02  0.69999978817E+02 0.  0.
         12    1    1    2    0    0 -0.12776604431E+02  0.60219079295E+01  0.12295315476E+02  0.18726445967E+02  0.00000000000E+00 0. -1.
         11    1    3    3    0    0  0.11561936681E+02 -0.22692807560E+02 -0.16704331753E+02  0.30457783805E+02  0.51100000000E-03 0. -1.
        -11    1    3    3    0    0 -0.15906221473E+02  0.30414383513E+01  0.10485149720E+02  0.19292397303E+02  0.51100000000E-03 0.  1.
         12    1    3    3    0    0  0.17120889223E+02  0.13629461279E+02 -0.60761334427E+01  0.22711372925E+02  0.00000000000E+00 0. -1.
</event>
<event>
 7    1  0.1360399E-013  0.7246157E+02  0.7816164E-02  0.1226708E+00
        -11   -1    0    0    0    0  0.00000000000E+00  0.00000000000E+00  0.45593999997E+02  0.45594000000E+02  0.51100000000E-03 0.  1.
         11   -1    0    0    0    0 -0.00000000000E+00 -0.00000000000E+00 -0.45593999997E+02  0.45594000000E+02  0.51100000000E-03 0. -1.
    9900012    2    1    2    0    0 -0.82124408411E+01 -0.16592196383E+02 -0.28167416460E+01  0.72461569510E+02  0.69999998979E+02 0.  0.
         12    1    1    2    0    0  0.82124408411E+01  0.16592196383E+02  0.28167416460E+01  0.18726430490E+02  0.00000000000E+00 0. -1.
         11    1    3    3    0    0 -0.10026858387E+02 -0.92172315421E+01 -0.29151751845E+02  0.32176387030E+02  0.51100000000E-03 0. -1.
        -11    1    3    3    0    0  0.13370644696E+02 -0.11955771910E+02  0.13794533579E+02  0.22627500491E+02  0.51100000000E-03 0.  1.
        -12    1    3    3    0    0 -0.11556227150E+02  0.45808070694E+01  0.12540476621E+02  0.17657681989E+02  0.00000000000E+00 0.  1.
</event>
<event>
 7    1  0.1360399E-013  0.7246153E+02  0.7816164E-02  0.1226708E+00
        -11   -1    0    0    0    0  0.00000000000E+00  0.00000000000E+00  0.45593999997E+02  0.45594000000E+02  0.51100000000E-03 0. -1.
         11   -1    0    0    0    0 -0.00000000000E+00 -0.00000000000E+00 -0.45593999997E+02  0.45594000000E+02  0.51100000000E-03 0.  1.
    9900012    2    1    2    0    0  0.18297063378E+01  0.14320688620E+02  0.11926895258E+02  0.72461527339E+02  0.69999944043E+02 0.  0.
         12    1    1    2    0    0 -0.18297063378E+01 -0.14320688620E+02 -0.11926895258E+02  0.18726472661E+02  0.00000000000E+00 0. -1.
         11    1    3    3    0    0  0.22679785313E+02  0.23101911355E+02  0.89028678194E+01  0.33575765453E+02  0.51100000000E-03 0. -1.
        -11    1    3    3    0    0 -0.10136353200E+02 -0.14852955188E+02  0.13685239305E+02  0.22597382794E+02  0.51100000000E-03 0.  1.
         12    1    3    3    0    0 -0.10713725775E+02  0.60717324537E+01 -0.10661211867E+02  0.16288379092E+02  0.00000000000E+00 0. -1.
</event>
<event>
 7    1  0.1360399E-013  0.7246153E+02  0.7816164E-02  0.1226708E+00
        -11   -1    0    0    0    0  0.00000000000E+00  0.00000000000E+00  0.45593999997E+02  0.45594000000E+02  0.51100000000E-03 0. -1.
         11   -1    0    0    0    0 -0.00000000000E+00 -0.00000000000E+00 -0.45593999997E+02  0.45594000000E+02  0.51100000000E-03 0.  1.
    9900012    2    1    2    0    0  0.91067161951E+01 -0.45141694296E+00 -0.16356787062E+02  0.72461533700E+02  0.69999952329E+02 0.  0.
         12    1    1    2    0    0 -0.91067161951E+01  0.45141694296E+00  0.16356787062E+02  0.18726466300E+02  0.00000000000E+00 0. -1.
         11    1    3    3    0    0 -0.21301538647E+02  0.10262370633E+02 -0.10348867907E+02  0.25810286068E+02  0.51100000000E-03 0. -1.
        -11    1    3    3    0    0  0.33106302208E+02 -0.12227176821E+02 -0.14087376509E+02  0.37999806263E+02  0.51100000000E-03 0.  1.
        -12    1    3    3    0    0 -0.26980473657E+01  0.15133892455E+01  0.80794573546E+01  0.86514413678E+01  0.00000000000E+00 0.  1.
</event>
<event>
 8    1  0.1360399E-013  0.7246164E+02  0.7816164E-02  0.1226708E+00
        -11   -1    0    0    0    0  0.00000000000E+00  0.00000000000E+00  0.45593999997E+02  0.45594000000E+02  0.51100000000E-03 0.  1.
         11   -1    0    0    0    0 -0.00000000000E+00 -0.00000000000E+00 -0.45593999997E+02  0.45594000000E+02  0.51100000000E-03 0. -1.
    9900012    2    1    2    0    0  0.11038043421E+02 -0.21292893559E+01  0.14976788903E+02  0.72461642063E+02  0.70000093493E+02 0.  0.
        -24    2    3    3    0    0  0.19251492701E+02 -0.94922046708E+01  0.11629787929E+01  0.54784124675E+02  0.50390732044E+02 0.  0.
         12    1    1    2    0    0 -0.11038043421E+02  0.21292893559E+01 -0.14976788903E+02  0.18726357937E+02  0.00000000000E+00 0. -1.
         11    1    4    4    0    0  0.24364318072E+02 -0.26750857878E+02  0.45498630719E+01  0.36468200485E+02  0.51100000000E-03 0. -1.
        -11    1    3    3    0    0 -0.82134492803E+01  0.73629153149E+01  0.13813810110E+02  0.17677517389E+02  0.51100000000E-03 0.  1.
        -12    1    4    4    0    0 -0.51128253707E+01  0.17258653208E+02 -0.33868842790E+01  0.18315924190E+02  0.00000000000E+00 0.  1.
</event>
<event>
 7    1  0.1360399E-013  0.7246155E+02  0.7816164E-02  0.1226708E+00
        -11   -1    0    0    0    0  0.00000000000E+00  0.00000000000E+00  0.45593999997E+02  0.45594000000E+02  0.51100000000E-03 0.  1.
         11   -1    0    0    0    0 -0.00000000000E+00 -0.00000000000E+00 -0.45593999997E+02  0.45594000000E+02  0.51100000000E-03 0. -1.
    9900012    2    1    2    0    0  0.28873782534E-01 -0.39011554189E+01  0.18315570136E+02  0.72461549276E+02  0.69999972620E+02 0.  0.
         12    1    1    2    0    0 -0.28873782534E-01  0.39011554189E+01 -0.18315570136E+02  0.18726450724E+02  0.00000000000E+00 0. -1.
         11    1    3    3    0    0 -0.41774796701E+01 -0.67157762276E+00 -0.70458269122E+01  0.82186391839E+01  0.51100000000E-03 0. -1.
        -11    1    3    3    0    0  0.81423416575E+01  0.17268361653E+02  0.36049659459E+02  0.40793038490E+02  0.51100000000E-03 0.  1.
        -12    1    3    3    0    0 -0.39359882050E+01 -0.20497939450E+02 -0.10688262410E+02  0.23449871603E+02  0.00000000000E+00 0.  1.
</event>
<event>
 7    1  0.1360399E-013  0.7246131E+02  0.7816164E-02  0.1226709E+00
        -11   -1    0    0    0    0  0.00000000000E+00  0.00000000000E+00  0.45593999997E+02  0.45594000000E+02  0.51100000000E-03 0. -1.
         11   -1    0    0    0    0 -0.00000000000E+00 -0.00000000000E+00 -0.45593999997E+02  0.45594000000E+02  0.51100000000E-03 0.  1.
    9900012    2    1    2    0    0 -0.17304525585E+02 -0.36802781850E+01 -0.61398480849E+01  0.72461313487E+02  0.69999665460E+02 0.  0.
         12    1    1    2    0    0  0.17304525585E+02  0.36802781850E+01  0.61398480849E+01  0.18726686513E+02  0.00000000000E+00 0. -1.
         11    1    3    3    0    0 -0.13695944020E+02 -0.51339321696E+01  0.18357669302E+02  0.23472114617E+02  0.51100000000E-03 0. -1.
        -11    1    3    3    0    0  0.50926519116E+01 -0.16186601567E+02 -0.23899137653E+02  0.29310577521E+02  0.51100000000E-03 0.  1.
         12    1    3    3    0    0 -0.87012334771E+01  0.17640255551E+02 -0.59837973403E+00  0.19678621350E+02  0.00000000000E+00 0. -1.
</event>
<event>
 7    1  0.1360399E-013  0.7246149E+02  0.7816164E-02  0.1226708E+00
        -11   -1    0    0    0    0  0.00000000000E+00  0.00000000000E+00  0.45593999997E+02  0.45594000000E+02  0.51100000000E-03 0.  1.
         11   -1    0    0    0    0 -0.00000000000E+00 -0.00000000000E+00 -0.45593999997E+02  0.45594000000E+02  0.51100000000E-03 0. -1.
    9900012    2    1    2    0    0  0.26355959756E+01 -0.16236916950E+01  0.18468880205E+02  0.72461487327E+02  0.69999891919E+02 0.  0.
         12    1    1    2    0    0 -0.26355959756E+01  0.16236916950E+01 -0.18468880205E+02  0.18726512673E+02  0.00000000000E+00 0. -1.
         11    1    3    3    0    0  0.17717847126E+02  0.15111669295E+02 -0.36182712412E+01  0.23566428297E+02  0.51100000000E-03 0. -1.
        -11    1    3    3    0    0 -0.17586091368E+02 -0.11106289060E+02 -0.47707268168E+01  0.21339636850E+02  0.51100000000E-03 0.  1.
        -12    1    3    3    0    0  0.25038402172E+01 -0.56290719297E+01  0.26857878264E+02  0.27555422179E+02  0.00000000000E+00 0.  1.
</event>
<event>
 7    1  0.1360399E-013  0.7246147E+02  0.7816164E-02  0.1226708E+00
        -11   -1    0    0    0    0  0.00000000000E+00  0.00000000000E+00  0.45593999997E+02  0.45594000000E+02  0.51100000000E-03 0.  1.
         11   -1    0    0    0    0 -0.00000000000E+00 -0.00000000000E+00 -0.45593999997E+02  0.45594000000E+02  0.51100000000E-03 0. -1.
    9900012    2    1    2    0    0  0.18579791698E+02  0.76861215393E+00  0.22098359428E+01  0.72461473384E+02  0.69999873756E+02 0.  0.
         12    1    1    2    0    0 -0.18579791698E+02 -0.76861215393E+00 -0.22098359428E+01  0.18726526616E+02  0.00000000000E+00 0. -1.
         11    1    3    3    0    0  0.41032115734E+02 -0.32071708637E+01 -0.25751715860E+01  0.41237749399E+02  0.51100000000E-03 0. -1.
        -11    1    3    3    0    0 -0.27832543535E+00 -0.19314100936E+01  0.78351995664E+01  0.80745379127E+01  0.51100000000E-03 0.  1.
         12    1    3    3    0    0 -0.22173998600E+02  0.59071931112E+01 -0.30501920376E+01  0.23149186073E+02  0.00000000000E+00 0. -1.
</event>
<event>
 7    1  0.1360399E-013  0.7246159E+02  0.7816164E-02  0.1226708E+00
        -11   -1    0    0    0    0  0.00000000000E+00  0.00000000000E+00  0.45593999997E+02  0.45594000000E+02  0.51100000000E-03 0.  1.
         11   -1    0    0    0    0 -0.00000000000E+00 -0.00000000000E+00 -0.45593999997E+02  0.45594000000E+02  0.51100000000E-03 0. -1.
    9900012    2    1    2    0    0 -0.12636208164E+02 -0.11575824232E+00  0.13819961017E+02  0.72461588725E+02  0.70000024009E+02 0.  0.
         12    1    1    2    0    0  0.12636208164E+02  0.11575824232E+00 -0.13819961017E+02  0.18726411275E+02  0.00000000000E+00 0. -1.
         11    1    3    3    0    0 -0.39601186681E+02 -0.71220420417E+00  0.75315184038E+01  0.40317303867E+02  0.51100000000E-03 0. -1.
        -11    1    3    3    0    0  0.24512538522E+01  0.46562574575E+01  0.50071002555E+01  0.72636376691E+01  0.51100000000E-03 0.  1.
         12    1    3    3    0    0  0.24513724664E+02 -0.40598114956E+01  0.12813423572E+01  0.24880647189E+02  0.00000000000E+00 0. -1.
</event>
<event>
 7    1  0.1360399E-013  0.7246158E+02  0.7816164E-02  0.1226708E+00
        -11   -1    0    0    0    0  0.00000000000E+00  0.00000000000E+00  0.45593999997E+02  0.45594000000E+02  0.51100000000E-03 0. -1.
         11   -1    0    0    0    0 -0.00000000000E+00 -0.00000000000E+00 -0.45593999997E+02  0.45594000000E+02  0.51100000000E-03 0.  1.
    9900012    2    1    2    0    0  0.10678062247E+02  0.21396366029E+01 -0.15234167551E+02  0.72461576981E+02  0.70000008710E+02 0.  0.
         12    1    1    2    0    0 -0.10678062247E+02 -0.21396366029E+01  0.15234167551E+02  0.18726423019E+02  0.00000000000E+00 0. -1.
         11    1    3    3    0    0  0.62466263230E+01  0.24998256735E+02 -0.28398249370E+02  0.38345713552E+02  0.51100000000E-03 0. -1.
        -11    1    3    3    0    0  0.50078699466E+01 -0.25562323772E+02  0.64208166398E+01  0.26827934036E+02  0.51100000000E-03 0.  1.
         12    1    3    3    0    0 -0.57643402289E+00  0.27037036400E+01  0.67432651799E+01  0.72879293933E+01  0.00000000000E+00 0. -1.
</event>
<event>
 7    1  0.1360399E-013  0.7246150E+02  0.7816164E-02  0.1226708E+00
        -11   -1    0    0    0    0  0.00000000000E+00  0.00000000000E+00  0.45593999997E+02  0.45594000000E+02  0.51100000000E-03 0. -1.
         11   -1    0    0    0    0 -0.00000000000E+00 -0.00000000000E+00 -0.45593999997E+02  0.45594000000E+02  0.51100000000E-03 0.  1.
    9900012    2    1    2    0    0  0.12529878849E+02 -0.73166864366E+01 -0.11838494530E+02  0.72461502274E+02  0.69999911390E+02 0.  0.
         12    1    1    2    0    0 -0.12529878849E+02  0.73166864366E+01  0.11838494530E+02  0.18726497726E+02  0.00000000000E+00 0. -1.
         11    1    3    3    0    0  0.62538672862E+01  0.26331137888E+02 -0.18641345828E+01  0.27127747354E+02  0.51100000000E-03 0. -1.
        -11    1    3    3    0    0  0.13501547683E+02 -0.13384614365E+02 -0.13788451225E+02  0.23485337532E+02  0.51100000000E-03 0.  1.
         12    1    3    3    0    0 -0.72255361203E+01 -0.20263209959E+02  0.38140912785E+01  0.21848417388E+02  0.00000000000E+00 0. -1.
</event>
<event>
 7    1  0.1360399E-013  0.7246158E+02  0.7816164E-02  0.1226708E+00
        -11   -1    0    0    0    0  0.00000000000E+00  0.00000000000E+00  0.45593999997E+02  0.45594000000E+02  0.51100000000E-03 0. -1.
         11   -1    0    0    0    0 -0.00000000000E+00 -0.00000000000E+00 -0.45593999997E+02  0.45594000000E+02  0.51100000000E-03 0.  1.
    9900012    2    1    2    0    0 -0.18415782798E+02 -0.33479445165E+01  0.57375004883E+00  0.72461575417E+02  0.70000006673E+02 0.  0.
         12    1    1    2    0    0  0.18415782798E+02  0.33479445165E+01 -0.57375004883E+00  0.18726424583E+02  0.00000000000E+00 0. -1.
         11    1    3    3    0    0 -0.29506268350E+02  0.11011374414E+02 -0.12955786539E+02  0.34054700755E+02  0.51100000000E-03 0. -1.
        -11    1    3    3    0    0  0.18818133888E+02 -0.42116837580E+01 -0.70134298184E+00  0.19296432969E+02  0.51100000000E-03 0.  1.
         12    1    3    3    0    0 -0.77276483359E+01 -0.10147635172E+02  0.14230879569E+02  0.19110441693E+02  0.00000000000E+00 0. -1.
</event>
<event>
 7    1  0.1360399E-013  0.7246137E+02  0.7816164E-02  0.1226709E+00
        -11   -1    0    0    0    0  0.00000000000E+00  0.00000000000E+00  0.45593999997E+02  0.45594000000E+02  0.51100000000E-03 0.  1.
         11   -1    0    0    0    0 -0.00000000000E+00 -0.00000000000E+00 -0.45593999997E+02  0.45594000000E+02  0.51100000000E-03 0. -1.
    9900012    2    1    2    0    0  0.30094591040E+01 -0.14853140794E+01  0.18423458274E+02  0.72461366112E+02  0.69999734014E+02 0.  0.
         12    1    1    2    0    0 -0.30094591040E+01  0.14853140794E+01 -0.18423458274E+02  0.18726633888E+02  0.00000000000E+00 0. -1.
         11    1    3    3    0    0 -0.11262727136E+02  0.15496752868E+02 -0.15856709431E+02  0.24868325360E+02  0.51100000000E-03 0. -1.
        -11    1    3    3    0    0  0.59438526569E+01 -0.21659252162E+02  0.18280817397E+02  0.28959296842E+02  0.51100000000E-03 0.  1.
         12    1    3    3    0    0  0.83283335830E+01  0.46771852149E+01  0.15999350308E+02  0.18633743909E+02  0.00000000000E+00 0. -1.
</event>
<event>
 7    1  0.1360399E-013  0.7246136E+02  0.7816164E-02  0.1226709E+00
        -11   -1    0    0    0    0  0.00000000000E+00  0.00000000000E+00  0.45593999997E+02  0.45594000000E+02  0.51100000000E-03 0. -1.
         11   -1    0    0    0    0 -0.00000000000E+00 -0.00000000000E+00 -0.45593999997E+02  0.45594000000E+02  0.51100000000E-03 0.  1.
    9900012    2    1    2    0    0 -0.78119787980E+00 -0.16131076699E+02  0.94797131174E+01  0.72461364787E+02  0.69999732288E+02 0.  0.
         12    1    1    2    0    0  0.78119787980E+00  0.16131076699E+02 -0.94797131174E+01  0.18726635213E+02  0.00000000000E+00 0. -1.
         11    1    3    3    0    0  0.89847454024E+01  0.22886610395E+02  0.14915110917E+02  0.28757314187E+02  0.51100000000E-03 0.  1.
        -11    1    3    3    0    0 -0.12637486603E+02 -0.26447204186E+02  0.92572521612E+00  0.29326057429E+02  0.51100000000E-03 0. -1.
        -12    1    3    3    0    0  0.28715433210E+01 -0.12570482909E+02 -0.63611230153E+01  0.14377993171E+02  0.00000000000E+00 0.  1.
</event>
<event>
 7    1  0.1360399E-013  0.7246168E+02  0.7816164E-02  0.1226708E+00
        -11   -1    0    0    0    0  0.00000000000E+00  0.00000000000E+00  0.45593999997E+02  0.45594000000E+02  0.51100000000E-03 0. -1.
         11   -1    0    0    0    0 -0.00000000000E+00 -0.00000000000E+00 -0.45593999997E+02  0.45594000000E+02  0.51100000000E-03 0.  1.
    9900012    2    1    2    0    0  0.89927189631E+01 -0.82939168803E+01 -0.14178046450E+02  0.72461680215E+02  0.70000143192E+02 0.  0.
         12    1    1    2    0    0 -0.89927189631E+01  0.82939168803E+01  0.14178046450E+02  0.18726319785E+02  0.00000000000E+00 0. -1.
         11    1    3    3    0    0  0.13613356929E+02 -0.24168182609E+02 -0.75864116143E+00  0.27748875188E+02  0.51100000000E-03 0. -1.
        -11    1    3    3    0    0 -0.12650348503E+02  0.76696596506E+01 -0.24588575175E+02  0.28695871233E+02  0.51100000000E-03 0.  1.
         12    1    3    3    0    0  0.80297105365E+01  0.82046060784E+01  0.11169169887E+02  0.16016933794E+02  0.00000000000E+00 0. -1.
</event>
<event>
 7    1  0.1360399E-013  0.7246150E+02  0.7816164E-02  0.1226708E+00
        -11   -1    0    0    0    0  0.00000000000E+00  0.00000000000E+00  0.45593999997E+02  0.45594000000E+02  0.51100000000E-03 0.  1.
         11   -1    0    0    0    0 -0.00000000000E+00 -0.00000000000E+00 -0.45593999997E+02  0.45594000000E+02  0.51100000000E-03 0. -1.
    9900012    2    1    2    0    0 -0.63270489525E+01  0.17622258526E+02  0.32582733526E+00  0.72461502531E+02  0.69999911725E+02 0.  0.
         12    1    1    2    0    0  0.63270489525E+01 -0.17622258526E+02 -0.32582733526E+00  0.18726497469E+02  0.00000000000E+00 0. -1.
         11    1    3    3    0    0 -0.36128496230E+01 -0.11860645362E+02 -0.13413346305E+02  0.18265964255E+02  0.51100000000E-03 0. -1.
        -11    1    3    3    0    0 -0.13046028433E+02  0.33738551535E+02  0.20054644018E+02  0.41360336852E+02  0.51100000000E-03 0.  1.
        -12    1    3    3    0    0  0.10331829104E+02 -0.42556476466E+01 -0.63154703777E+01  0.12835201425E+02  0.00000000000E+00 0.  1.
</event>
<event>
 7    1  0.1360399E-013  0.7246158E+02  0.7816164E-02  0.1226708E+00
        -11   -1    0    0    0    0  0.00000000000E+00  0.00000000000E+00  0.45593999997E+02  0.45594000000E+02  0.51100000000E-03 0. -1.
         11   -1    0    0    0    0 -0.00000000000E+00 -0.00000000000E+00 -0.45593999997E+02  0.45594000000E+02  0.51100000000E-03 0.  1.
    9900012    2    1    2    0    0  0.20999345651E+01  0.11789029139E+02 -0.14397495415E+02  0.72461579962E+02  0.70000012594E+02 0.  0.
         12    1    1    2    0    0 -0.20999345651E+01 -0.11789029139E+02  0.14397495415E+02  0.18726420038E+02  0.00000000000E+00 0. -1.
         11    1    3    3    0    0  0.59409248879E+01 -0.35913636517E+01  0.21708981988E+02  0.22791936746E+02  0.51100000000E-03 0. -1.
        -11    1    3    3    0    0 -0.33269043444E+00  0.24188715192E+02 -0.29311718158E+02  0.38005018711E+02  0.51100000000E-03 0.  1.
        -12    1    3    3    0    0 -0.35082998884E+01 -0.88083224019E+01 -0.67947592456E+01  0.11664624505E+02  0.00000000000E+00 0.  1.
</event>
<event>
 7    1  0.1360399E-013  0.7246160E+02  0.7816164E-02  0.1226708E+00
        -11   -1    0    0    0    0  0.00000000000E+00  0.00000000000E+00  0.45593999997E+02  0.45594000000E+02  0.51100000000E-03 0. -1.
         11   -1    0    0    0    0 -0.00000000000E+00 -0.00000000000E+00 -0.45593999997E+02  0.45594000000E+02  0.51100000000E-03 0.  1.
    9900012    2    1    2    0    0  0.13130364541E+02 -0.13164126327E+02  0.22309937321E+01  0.72461600774E+02  0.70000039706E+02 0.  0.
         12    1    1    2    0    0 -0.13130364541E+02  0.13164126327E+02 -0.22309937321E+01  0.18726399226E+02  0.00000000000E+00 0. -1.
         11    1    3    3    0    0 -0.19985369351E+02  0.17709432494E+01  0.74601050263E+01  0.21405709410E+02  0.51100000000E-03 0. -1.
        -11    1    3    3    0    0  0.28239560879E+02 -0.13923616573E+02  0.11562414020E+02  0.33541456667E+02  0.51100000000E-03 0.  1.
         12    1    3    3    0    0  0.48761730126E+01 -0.10114530035E+01 -0.16791525314E+02  0.17514434698E+02  0.00000000000E+00 0. -1.
</event>
<event>
 7    1  0.1360399E-013  0.7246170E+02  0.7816164E-02  0.1226708E+00
        -11   -1    0    0    0    0  0.00000000000E+00  0.00000000000E+00  0.45593999997E+02  0.45594000000E+02  0.51100000000E-03 0.  1.
         11   -1    0    0    0    0 -0.00000000000E+00 -0.00000000000E+00 -0.45593999997E+02  0.45594000000E+02  0.51100000000E-03 0. -1.
    9900012    2    1    2    0    0 -0.12601043759E+01  0.15735294458E+02 -0.10074075869E+02  0.72461698728E+02  0.70000167308E+02 0.  0.
         12    1    1    2    0    0  0.12601043759E+01 -0.15735294458E+02  0.10074075869E+02  0.18726301272E+02  0.00000000000E+00 0. -1.
         11    1    3    3    0    0  0.11717638700E+02  0.22713825509E+02 -0.31794080913E+02  0.40793191923E+02  0.51100000000E-03 0.  1.
        -11    1    3    3    0    0 -0.12632423062E+02 -0.11186545612E+02  0.21646003301E+02  0.27445698649E+02  0.51100000000E-03 0. -1.
        -12    1    3    3    0    0 -0.34532001306E+00  0.42080145618E+01  0.74001743498E-01  0.42228081559E+01  0.00000000000E+00 0.  1.
</event>
<event>
 7    1  0.1360399E-013  0.7246165E+02  0.7816164E-02  0.1226708E+00
        -11   -1    0    0    0    0  0.00000000000E+00  0.00000000000E+00  0.45593999997E+02  0.45594000000E+02  0.51100000000E-03 0.  1.
         11   -1    0    0    0    0 -0.00000000000E+00 -0.00000000000E+00 -0.45593999997E+02  0.45594000000E+02  0.51100000000E-03 0. -1.
    9900012    2    1    2    0    0 -0.10737378238E+02  0.15192843523E+02  0.21359632494E+01  0.72461651591E+02  0.70000105904E+02 0.  0.
         12    1    1    2    0    0  0.10737378238E+02 -0.15192843523E+02 -0.21359632494E+01  0.18726348409E+02  0.00000000000E+00 0. -1.
         11    1    3    3    0    0 -0.22374636919E+02 -0.60980528925E+01  0.29612859640E+01  0.23379047054E+02  0.51100000000E-03 0. -1.
        -11    1    3    3    0    0  0.13817229206E+02  0.54410836524E+01  0.18674648574E+02  0.23859247973E+02  0.51100000000E-03 0.  1.
         12    1    3    3    0    0 -0.21799705254E+01  0.15849812763E+02 -0.19499971288E+02  0.25223356564E+02  0.00000000000E+00 0. -1.
</event>
<event>
 7    1  0.1360399E-013  0.7246162E+02  0.7816164E-02  0.1226708E+00
        -11   -1    0    0    0    0  0.00000000000E+00  0.00000000000E+00  0.45593999997E+02  0.45594000000E+02  0.51100000000E-03 0.  1.
         11   -1    0    0    0    0 -0.00000000000E+00 -0.00000000000E+00 -0.45593999997E+02  0.45594000000E+02  0.51100000000E-03 0. -1.
    9900012    2    1    2    0    0  0.28930769060E+01 -0.13712879162E+02  0.12420321231E+02  0.72461619454E+02  0.70000064039E+02 0.  0.
         12    1    1    2    0    0 -0.28930769060E+01  0.13712879162E+02 -0.12420321231E+02  0.18726380546E+02  0.00000000000E+00 0. -1.
         11    1    3    3    0    0  0.46658822679E+01  0.73952226926E+01 -0.11259510057E+02  0.14256098449E+02  0.51100000000E-03 0.  1.
        -11    1    3    3    0    0 -0.14006932113E+02 -0.28443837543E+02  0.13827052709E+01  0.31735751378E+02  0.51100000000E-03 0. -1.
        -12    1    3    3    0    0  0.12234126752E+02  0.73357356891E+01  0.22297126016E+02  0.26469769626E+02  0.00000000000E+00 0.  1.
</event>
<event>
 7    1  0.1360399E-013  0.7246150E+02  0.7816164E-02  0.1226708E+00
        -11   -1    0    0    0    0  0.00000000000E+00  0.00000000000E+00  0.45593999997E+02  0.45594000000E+02  0.51100000000E-03 0. -1.
         11   -1    0    0    0    0 -0.00000000000E+00 -0.00000000000E+00 -0.45593999997E+02  0.45594000000E+02  0.51100000000E-03 0.  1.
    9900012    2    1    2    0    0 -0.28686181103E+01 -0.15336914816E+02 -0.10355274699E+02  0.72461504332E+02  0.69999914071E+02 0.  0.
         12    1    1    2    0    0  0.28686181103E+01  0.15336914816E+02  0.10355274699E+02  0.18726495668E+02  0.00000000000E+00 0. -1.
         11    1    3    3    0    0  0.23959860893E+02 -0.19514482540E+02 -0.14126481684E+02  0.33977160680E+02  0.51100000000E-03 0. -1.
        -11    1    3    3    0    0 -0.25845381159E+02  0.12069399510E+02  0.77963883438E+01  0.29570894529E+02  0.51100000000E-03 0.  1.
         12    1    3    3    0    0 -0.98309784380E+00 -0.78918317854E+01 -0.40251813582E+01  0.89134491228E+01  0.00000000000E+00 0. -1.
</event>
<event>
 7    1  0.1360399E-013  0.7246151E+02  0.7816164E-02  0.1226708E+00
        -11   -1    0    0    0    0  0.00000000000E+00  0.00000000000E+00  0.45593999997E+02  0.45594000000E+02  0.51100000000E-03 0. -1.
         11   -1    0    0    0    0 -0.00000000000E+00 -0.00000000000E+00 -0.45593999997E+02  0.45594000000E+02  0.51100000000E-03 0.  1.
    9900012    2    1    2    0    0  0.16263328910E+01  0.17240645885E+02 -0.71271637714E+01  0.72461513607E+02  0.69999926154E+02 0.  0.
         12    1    1    2    0    0 -0.16263328910E+01 -0.17240645885E+02  0.71271637714E+01  0.18726486393E+02  0.00000000000E+00 0. -1.
         11    1    3    3    0    0 -0.17996818871E+02  0.21146304157E+02  0.20080687404E+02  0.34267851930E+02  0.51100000000E-03 0. -1.
        -11    1    3    3    0    0  0.57955203860E+01  0.70073012001E+01 -0.77634577126E+01  0.11956655158E+02  0.51100000000E-03 0.  1.
         12    1    3    3    0    0  0.13827631376E+02 -0.10912959472E+02 -0.19444393463E+02  0.26237006519E+02  0.00000000000E+00 0. -1.
</event>
<event>
 7    1  0.1360399E-013  0.7246157E+02  0.7816164E-02  0.1226708E+00
        -11   -1    0    0    0    0  0.00000000000E+00  0.00000000000E+00  0.45593999997E+02  0.45594000000E+02  0.51100000000E-03 0. -1.
         11   -1    0    0    0    0 -0.00000000000E+00 -0.00000000000E+00 -0.45593999997E+02  0.45594000000E+02  0.51100000000E-03 0.  1.
    9900012    2    1    2    0    0  0.15302607637E+02 -0.42527528030E+01 -0.99208574322E+01  0.72461571641E+02  0.70000001754E+02 0.  0.
         12    1    1    2    0    0 -0.15302607637E+02  0.42527528030E+01  0.99208574322E+01  0.18726428359E+02  0.00000000000E+00 0. -1.
         11    1    3    3    0    0  0.74269801151E+01  0.22470583153E+02  0.82695648104E+00  0.23680603838E+02  0.51100000000E-03 0. -1.
        -11    1    3    3    0    0  0.16656565624E+02 -0.29318865644E+02 -0.16931385687E+02  0.37732067034E+02  0.51100000000E-03 0.  1.
         12    1    3    3    0    0 -0.87809381024E+01  0.25955296884E+01  0.61835717741E+01  0.11048900769E+02  0.00000000000E+00 0. -1.
</event>
<event>
 7    1  0.1360399E-013  0.7246162E+02  0.7816164E-02  0.1226708E+00
        -11   -1    0    0    0    0  0.00000000000E+00  0.00000000000E+00  0.45593999997E+02  0.45594000000E+02  0.51100000000E-03 0.  1.
         11   -1    0    0    0    0 -0.00000000000E+00 -0.00000000000E+00 -0.45593999997E+02  0.45594000000E+02  0.51100000000E-03 0. -1.
    9900012    2    1    2    0    0 -0.41867955030E+01  0.20199619440E+01  0.18140231050E+02  0.72461615261E+02  0.70000058577E+02 0.  0.
         12    1    1    2    0    0  0.41867955030E+01 -0.20199619440E+01 -0.18140231050E+02  0.18726384739E+02  0.00000000000E+00 0. -1.
         11    1    3    3    0    0 -0.71330793728E+00  0.34362431773E+01 -0.19683509335E+00  0.35150134711E+01  0.51100000000E-03 0. -1.
        -11    1    3    3    0    0  0.13275526496E+02 -0.27628617032E+02  0.21848912208E+02  0.37642463360E+02  0.51100000000E-03 0.  1.
        -12    1    3    3    0    0 -0.16749014062E+02  0.26212335799E+02 -0.35118460641E+01  0.31304138430E+02  0.00000000000E+00 0.  1.
</event>
<event>
 7    1  0.1360399E-013  0.7246160E+02  0.7816164E-02  0.1226708E+00
        -11   -1    0    0    0    0  0.00000000000E+00  0.00000000000E+00  0.45593999997E+02  0.45594000000E+02  0.51100000000E-03 0.  1.
         11   -1    0    0    0    0 -0.00000000000E+00 -0.00000000000E+00 -0.45593999997E+02  0.45594000000E+02  0.51100000000E-03 0. -1.
    9900012    2    1    2    0    0 -0.42525432348E+01 -0.12926806917E+02  0.12864359551E+02  0.72461595976E+02  0.70000033455E+02 0.  0.
         12    1    1    2    0    0  0.42525432348E+01  0.12926806917E+02 -0.12864359551E+02  0.18726404024E+02  0.00000000000E+00 0. -1.
         11    1    3    3    0    0  0.19538678799E+01 -0.30314263658E+01 -0.81553566463E+01  0.89172298273E+01  0.51100000000E-03 0. -1.
        -11    1    3    3    0    0 -0.45151954898E+01  0.24387589708E+02  0.14097718127E+02  0.28528707975E+02  0.51100000000E-03 0.  1.
        -12    1    3    3    0    0 -0.16912156250E+01 -0.34282970259E+02  0.69219980707E+01  0.35015658174E+02  0.00000000000E+00 0.  1.
</event>
<event>
 7    1  0.1360399E-013  0.7246157E+02  0.7816164E-02  0.1226708E+00
        -11   -1    0    0    0    0  0.00000000000E+00  0.00000000000E+00  0.45593999997E+02  0.45594000000E+02  0.51100000000E-03 0.  1.
         11   -1    0    0    0    0 -0.00000000000E+00 -0.00000000000E+00 -0.45593999997E+02  0.45594000000E+02  0.51100000000E-03 0. -1.
    9900012    2    1    2    0    0  0.33205404355E+01  0.19808949068E+01  0.18322916196E+02  0.72461569712E+02  0.69999999241E+02 0.  0.
         12    1    1    2    0    0 -0.33205404355E+01 -0.19808949068E+01 -0.18322916196E+02  0.18726430288E+02  0.00000000000E+00 0. -1.
         11    1    3    3    0    0 -0.90950912439E+01  0.27553339103E+02  0.22632928652E+02  0.36798867375E+02  0.51100000000E-03 0.  1.
        -11    1    3    3    0    0  0.18061509612E+02 -0.17311584957E+02 -0.70790988536E+00  0.25028188905E+02  0.51100000000E-03 0. -1.
        -12    1    3    3    0    0 -0.56458779323E+01 -0.82608592391E+01 -0.36021025708E+01  0.10634513432E+02  0.00000000000E+00 0.  1.
</event>
<event>
 7    1  0.1360399E-013  0.7246171E+02  0.7816164E-02  0.1226708E+00
        -11   -1    0    0    0    0  0.00000000000E+00  0.00000000000E+00  0.45593999997E+02  0.45594000000E+02  0.51100000000E-03 0. -1.
         11   -1    0    0    0    0 -0.00000000000E+00 -0.00000000000E+00 -0.45593999997E+02  0.45594000000E+02  0.51100000000E-03 0.  1.
    9900012    2    1    2    0    0 -0.61194538529E+01 -0.55780741204E+00 -0.17689407287E+02  0.72461708463E+02  0.70000179990E+02 0.  0.
         12    1    1    2    0    0  0.61194538529E+01  0.55780741204E+00  0.17689407287E+02  0.18726291537E+02  0.00000000000E+00 0. -1.
         11    1    3    3    0    0 -0.17255091085E+02 -0.13241802458E+02 -0.28571140900E+02  0.35908127120E+02  0.51100000000E-03 0. -1.
        -11    1    3    3    0    0  0.13144626428E+02  0.87986092279E+01 -0.76089620640E+01  0.17552579077E+02  0.51100000000E-03 0.  1.
         12    1    3    3    0    0 -0.20089891964E+01  0.38853858177E+01  0.18490695677E+02  0.19001002267E+02  0.00000000000E+00 0. -1.
</event>
<event>
 7    1  0.1360399E-013  0.7246156E+02  0.7816164E-02  0.1226708E+00
        -11   -1    0    0    0    0  0.00000000000E+00  0.00000000000E+00  0.45593999997E+02  0.45594000000E+02  0.51100000000E-03 0.  1.
         11   -1    0    0    0    0 -0.00000000000E+00 -0.00000000000E+00 -0.45593999997E+02  0.45594000000E+02  0.51100000000E-03 0. -1.
    9900012    2    1    2    0    0  0.12968360084E+02  0.21442983961E+01  0.13338032468E+02  0.72461561764E+02  0.69999988888E+02 0.  0.
         12    1    1    2    0    0 -0.12968360084E+02 -0.21442983961E+01 -0.13338032468E+02  0.18726438236E+02  0.00000000000E+00 0. -1.
         11    1    3    3    0    0 -0.21544790433E+02 -0.49257976313E+01  0.15482054775E+02  0.26983985944E+02  0.51100000000E-03 0. -1.
        -11    1    3    3    0    0  0.33614518172E+02  0.57386912666E+00  0.68860132735E+01  0.34317376601E+02  0.51100000000E-03 0.  1.
        -12    1    3    3    0    0  0.89863234468E+00  0.64962269007E+01 -0.90300355800E+01  0.11160199219E+02  0.00000000000E+00 0.  1.
</event>
<event>
 7    1  0.1360399E-013  0.7246153E+02  0.7816164E-02  0.1226708E+00
        -11   -1    0    0    0    0  0.00000000000E+00  0.00000000000E+00  0.45593999997E+02  0.45594000000E+02  0.51100000000E-03 0.  1.
         11   -1    0    0    0    0 -0.00000000000E+00 -0.00000000000E+00 -0.45593999997E+02  0.45594000000E+02  0.51100000000E-03 0. -1.
    9900012    2    1    2    0    0  0.21297467197E+01  0.14734988701E+02  0.11358921030E+02  0.72461526758E+02  0.69999943286E+02 0.  0.
         12    1    1    2    0    0 -0.21297467197E+01 -0.14734988701E+02 -0.11358921030E+02  0.18726473242E+02  0.00000000000E+00 0. -1.
         11    1    3    3    0    0 -0.77528070241E+01  0.26295733345E+02 -0.21708065283E+02  0.34968724705E+02  0.51100000000E-03 0. -1.
        -11    1    3    3    0    0  0.45128930577E+01 -0.13375643006E+01  0.38647078632E+01  0.60902585444E+01  0.51100000000E-03 0.  1.
         12    1    3    3    0    0  0.53696606860E+01 -0.10223180343E+02  0.29202278449E+02  0.31402543509E+02  0.00000000000E+00 0. -1.
</event>
<event>
 7    1  0.1360399E-013  0.7246160E+02  0.7816164E-02  0.1226708E+00
        -11   -1    0    0    0    0  0.00000000000E+00  0.00000000000E+00  0.45593999997E+02  0.45594000000E+02  0.51100000000E-03 0.  1.
         11   -1    0    0    0    0 -0.00000000000E+00 -0.00000000000E+00 -0.45593999997E+02  0.45594000000E+02  0.51100000000E-03 0. -1.
    9900012    2    1    2    0    0  0.13175668815E+02 -0.69905554669E+01  0.11323067631E+02  0.72461602188E+02  0.70000041547E+02 0.  0.
         12    1    1    2    0    0 -0.13175668815E+02  0.69905554669E+01 -0.11323067631E+02  0.18726397812E+02  0.00000000000E+00 0. -1.
         11    1    3    3    0    0  0.11219997604E+02 -0.14057658549E+02 -0.70029868744E+01  0.19301500862E+02  0.51100000000E-03 0. -1.
        -11    1    3    3    0    0  0.17942616093E+02  0.21550975123E+02  0.13164912570E+02  0.30978975519E+02  0.51100000000E-03 0.  1.
        -12    1    3    3    0    0 -0.15986944882E+02 -0.14483872040E+02  0.51611419354E+01  0.22181125806E+02  0.00000000000E+00 0.  1.
</event>
<event>
 7    1  0.1360399E-013  0.7246130E+02  0.7816164E-02  0.1226709E+00
        -11   -1    0    0    0    0  0.00000000000E+00  0.00000000000E+00  0.45593999997E+02  0.45594000000E+02  0.51100000000E-03 0.  1.
         11   -1    0    0    0    0 -0.00000000000E+00 -0.00000000000E+00 -0.45593999997E+02  0.45594000000E+02  0.51100000000E-03 0. -1.
    9900012    2    1    2    0    0  0.47649582184E+00 -0.49384217945E+01  0.18057529265E+02  0.72461296573E+02  0.69999643427E+02 0.  0.
         12    1    1    2    0    0 -0.47649582184E+00  0.49384217945E+01 -0.18057529265E+02  0.18726703427E+02  0.00000000000E+00 0. -1.
         11    1    3    3    0    0 -0.16970026463E+02 -0.31838540373E+01  0.61719703995E+01  0.18336083103E+02  0.51100000000E-03 0. -1.
        -11    1    3    3    0    0  0.14164747546E+02  0.52959964414E+01  0.30449593707E+02  0.33998020656E+02  0.51100000000E-03 0.  1.
        -12    1    3    3    0    0  0.32817747391E+01 -0.70505641986E+01 -0.18564034842E+02  0.20127192814E+02  0.00000000000E+00 0.  1.
</event>
<event>
 7    1  0.1360399E-013  0.7246157E+02  0.7816164E-02  0.1226708E+00
        -11   -1    0    0    0    0  0.00000000000E+00  0.00000000000E+00  0.45593999997E+02  0.45594000000E+02  0.51100000000E-03 0.  1.
         11   -1    0    0    0    0 -0.00000000000E+00 -0.00000000000E+00 -0.45593999997E+02  0.45594000000E+02  0.51100000000E-03 0. -1.
    9900012    2    1    2    0    0  0.11444421133E+02 -0.13999161141E+02  0.48711375613E+01  0.72461567642E+02  0.69999996545E+02 0.  0.
         12    1    1    2    0    0 -0.11444421133E+02  0.13999161141E+02 -0.48711375613E+01  0.18726432358E+02  0.00000000000E+00 0. -1.
         11    1    3    3    0    0  0.54190044090E+00 -0.21866042510E+02  0.42292188633E+01  0.22277876101E+02  0.51100000000E-03 0. -1.
        -11    1    3    3    0    0  0.10778459709E+02  0.25660539038E+02 -0.98533583363E+01  0.29525025456E+02  0.51100000000E-03 0.  1.
         12    1    3    3    0    0  0.12406098352E+00 -0.17793657669E+02  0.10495277034E+02  0.20658666085E+02  0.00000000000E+00 0. -1.
</event>
<event>
 7    1  0.1360399E-013  0.7246158E+02  0.7816164E-02  0.1226708E+00
        -11   -1    0    0    0    0  0.00000000000E+00  0.00000000000E+00  0.45593999997E+02  0.45594000000E+02  0.51100000000E-03 0.  1.
         11   -1    0    0    0    0 -0.00000000000E+00 -0.00000000000E+00 -0.45593999997E+02  0.45594000000E+02  0.51100000000E-03 0. -1.
    9900012    2    1    2    0    0  0.16483005551E+02  0.13368938572E+01  0.87864649702E+01  0.72461582194E+02  0.70000015501E+02 0.  0.
         12    1    1    2    0    0 -0.16483005551E+02 -0.13368938572E+01 -0.87864649702E+01  0.18726417806E+02  0.00000000000E+00 0. -1.
         11    1    3    3    0    0  0.23177014656E+02  0.18447136958E+02 -0.11518568254E+02  0.31782830037E+02  0.51100000000E-03 0. -1.
        -11    1    3    3    0    0 -0.16468883342E+02 -0.90040102139E+01  0.20740411827E+02  0.27972504383E+02  0.51100000000E-03 0.  1.
        -12    1    3    3    0    0  0.97748742368E+01 -0.81062328865E+01 -0.43537860251E+00  0.12706247774E+02  0.00000000000E+00 0.  1.
</event>
<event>
 7    1  0.1360399E-013  0.7246161E+02  0.7816164E-02  0.1226708E+00
        -11   -1    0    0    0    0  0.00000000000E+00  0.00000000000E+00  0.45593999997E+02  0.45594000000E+02  0.51100000000E-03 0.  1.
         11   -1    0    0    0    0 -0.00000000000E+00 -0.00000000000E+00 -0.45593999997E+02  0.45594000000E+02  0.51100000000E-03 0. -1.
    9900012    2    1    2    0    0 -0.78866031528E+00  0.18530676699E+02  0.25825743436E+01  0.72461610752E+02  0.70000052704E+02 0.  0.
         12    1    1    2    0    0  0.78866031528E+00 -0.18530676699E+02 -0.25825743436E+01  0.18726389248E+02  0.00000000000E+00 0. -1.
         11    1    3    3    0    0  0.10452755678E+02  0.68504825767E+01 -0.23530803406E+02  0.26643721999E+02  0.51100000000E-03 0. -1.
        -11    1    3    3    0    0  0.76386123040E+01 -0.17257932746E+01  0.20566948954E+02  0.22007411249E+02  0.51100000000E-03 0.  1.
         12    1    3    3    0    0 -0.18880028297E+02  0.13405987397E+02  0.55464287955E+01  0.23810477504E+02  0.00000000000E+00 0. -1.
</event>
<event>
 7    1  0.1360399E-013  0.7246195E+02  0.7816164E-02  0.1226707E+00
        -11   -1    0    0    0    0  0.00000000000E+00  0.00000000000E+00  0.45593999997E+02  0.45594000000E+02  0.51100000000E-03 0.  1.
         11   -1    0    0    0    0 -0.00000000000E+00 -0.00000000000E+00 -0.45593999997E+02  0.45594000000E+02  0.51100000000E-03 0. -1.
    9900012    2    1    2    0    0  0.44487067870E+01  0.12576394740E+02  0.13141844104E+02  0.72461954951E+02  0.70000501084E+02 0.  0.
         12    1    1    2    0    0 -0.44487067870E+01 -0.12576394740E+02 -0.13141844104E+02  0.18726045049E+02  0.00000000000E+00 0. -1.
         11    1    3    3    0    0 -0.25816289974E+01  0.11395052045E+02  0.59084318142E+01  0.13092806657E+02  0.51100000000E-03 0. -1.
        -11    1    3    3    0    0  0.15583840573E+02 -0.23280846316E+02 -0.82206969694E+01  0.29196468128E+02  0.51100000000E-03 0.  1.
        -12    1    3    3    0    0 -0.85535047883E+01  0.24462189012E+02  0.15454109259E+02  0.30172680166E+02  0.00000000000E+00 0.  1.
</event>
<event>
 7    1  0.1360399E-013  0.7246160E+02  0.7816164E-02  0.1226708E+00
        -11   -1    0    0    0    0  0.00000000000E+00  0.00000000000E+00  0.45593999997E+02  0.45594000000E+02  0.51100000000E-03 0.  1.
         11   -1    0    0    0    0 -0.00000000000E+00 -0.00000000000E+00 -0.45593999997E+02  0.45594000000E+02  0.51100000000E-03 0. -1.
    9900012    2    1    2    0    0  0.12925782536E+02 -0.13471978928E+02 -0.14518990540E+01  0.72461599351E+02  0.70000037852E+02 0.  0.
         12    1    1    2    0    0 -0.12925782536E+02  0.13471978928E+02  0.14518990540E+01  0.18726400649E+02  0.00000000000E+00 0. -1.
         11    1    3    3    0    0  0.16188987645E+02 -0.20601302804E+02 -0.87178581821E+01  0.27613367229E+02  0.51100000000E-03 0. -1.
        -11    1    3    3    0    0  0.71757464972E+00  0.14606388719E+02 -0.15046268970E+02  0.20982176125E+02  0.51100000000E-03 0.  1.
        -12    1    3    3    0    0 -0.39807797591E+01 -0.74770648428E+01  0.22312228098E+02  0.23866055997E+02  0.00000000000E+00 0.  1.
</event>
<event>
 7    1  0.1360399E-013  0.7246119E+02  0.7816164E-02  0.1226709E+00
        -11   -1    0    0    0    0  0.00000000000E+00  0.00000000000E+00  0.45593999997E+02  0.45594000000E+02  0.51100000000E-03 0. -1.
         11   -1    0    0    0    0 -0.00000000000E+00 -0.00000000000E+00 -0.45593999997E+02  0.45594000000E+02  0.51100000000E-03 0.  1.
    9900012    2    1    2    0    0 -0.14733682400E+00 -0.89401668021E+01 -0.16454333666E+02  0.72461190689E+02  0.69999505492E+02 0.  0.
         12    1    1    2    0    0  0.14733682400E+00  0.89401668021E+01  0.16454333666E+02  0.18726809311E+02  0.00000000000E+00 0. -1.
         11    1    3    3    0    0 -0.56250975118E+01  0.21501846117E+02 -0.14247744115E+02  0.26400176535E+02  0.51100000000E-03 0. -1.
        -11    1    3    3    0    0  0.14163063468E+02 -0.18832917097E+02 -0.13967026900E+02  0.27392498496E+02  0.51100000000E-03 0.  1.
         12    1    3    3    0    0 -0.86853027798E+01 -0.11609095823E+02  0.11760437350E+02  0.18668515658E+02  0.00000000000E+00 0. -1.
</event>
<event>
 7    1  0.1360399E-013  0.7246158E+02  0.7816164E-02  0.1226708E+00
        -11   -1    0    0    0    0  0.00000000000E+00  0.00000000000E+00  0.45593999997E+02  0.45594000000E+02  0.51100000000E-03 0. -1.
         11   -1    0    0    0    0 -0.00000000000E+00 -0.00000000000E+00 -0.45593999997E+02  0.45594000000E+02  0.51100000000E-03 0.  1.
    9900012    2    1    2    0    0 -0.43845719151E+00 -0.13401368968E+02 -0.13072488315E+02  0.72461577873E+02  0.70000009873E+02 0.  0.
         12    1    1    2    0    0  0.43845719151E+00  0.13401368968E+02  0.13072488315E+02  0.18726422127E+02  0.00000000000E+00 0. -1.
         11    1    3    3    0    0 -0.21846194735E+02 -0.72521068101E+00 -0.15606303751E+02  0.26857752549E+02  0.51100000000E-03 0. -1.
        -11    1    3    3    0    0  0.19116140308E+02 -0.15863311275E+02 -0.14065529473E+02  0.28546638760E+02  0.51100000000E-03 0.  1.
        -12    1    3    3    0    0  0.22915972356E+01  0.31871529883E+01  0.16599344909E+02  0.17057186564E+02  0.00000000000E+00 0.  1.
</event>
<event>
 7    1  0.1360399E-013  0.7246159E+02  0.7816164E-02  0.1226708E+00
        -11   -1    0    0    0    0  0.00000000000E+00  0.00000000000E+00  0.45593999997E+02  0.45594000000E+02  0.51100000000E-03 0.  1.
         11   -1    0    0    0    0 -0.00000000000E+00 -0.00000000000E+00 -0.45593999997E+02  0.45594000000E+02  0.51100000000E-03 0. -1.
    9900012    2    1    2    0    0 -0.82698579498E+01 -0.15931764374E+02  0.53354166966E+01  0.72461592499E+02  0.70000028926E+02 0.  0.
         12    1    1    2    0    0  0.82698579498E+01  0.15931764374E+02 -0.53354166966E+01  0.18726407501E+02  0.00000000000E+00 0. -1.
         11    1    3    3    0    0 -0.56710819894E+01  0.24275638581E+02  0.62269826490E+01  0.25695196295E+02  0.51100000000E-03 0. -1.
        -11    1    3    3    0    0  0.80536699000E+01 -0.31015096032E+02  0.29553872395E+01  0.32179684503E+02  0.51100000000E-03 0.  1.
         12    1    3    3    0    0 -0.10652445860E+02 -0.91923069229E+01 -0.38469531920E+01  0.14586711701E+02  0.00000000000E+00 0. -1.
</event>
<event>
 7    1  0.1360399E-013  0.7246164E+02  0.7816164E-02  0.1226708E+00
        -11   -1    0    0    0    0  0.00000000000E+00  0.00000000000E+00  0.45593999997E+02  0.45594000000E+02  0.51100000000E-03 0. -1.
         11   -1    0    0    0    0 -0.00000000000E+00 -0.00000000000E+00 -0.45593999997E+02  0.45594000000E+02  0.51100000000E-03 0.  1.
    9900012    2    1    2    0    0  0.19933963626E+01 -0.18203210342E+02  0.39174138438E+01  0.72461638179E+02  0.70000088433E+02 0.  0.
         12    1    1    2    0    0 -0.19933963626E+01  0.18203210342E+02 -0.39174138438E+01  0.18726361821E+02  0.00000000000E+00 0. -1.
         11    1    3    3    0    0  0.35803077474E+01 -0.17956225430E+02  0.24163873468E+02  0.30317279173E+02  0.51100000000E-03 0. -1.
        -11    1    3    3    0    0  0.25199858633E+00 -0.14078120213E+02 -0.23883700500E+02  0.27725225371E+02  0.51100000000E-03 0.  1.
        -12    1    3    3    0    0 -0.18389099711E+01  0.13831135301E+02  0.36372408761E+01  0.14419133635E+02  0.00000000000E+00 0.  1.
</event>
<event>
 7    1  0.1360399E-013  0.7246158E+02  0.7816164E-02  0.1226708E+00
        -11   -1    0    0    0    0  0.00000000000E+00  0.00000000000E+00  0.45593999997E+02  0.45594000000E+02  0.51100000000E-03 0.  1.
         11   -1    0    0    0    0 -0.00000000000E+00 -0.00000000000E+00 -0.45593999997E+02  0.45594000000E+02  0.51100000000E-03 0. -1.
    9900012    2    1    2    0    0  0.14114460673E+02 -0.11993291079E+02  0.27607410254E+01  0.72461582243E+02  0.70000015565E+02 0.  0.
         12    1    1    2    0    0 -0.14114460673E+02  0.11993291079E+02 -0.27607410254E+01  0.18726417757E+02  0.00000000000E+00 0. -1.
         11    1    3    3    0    0 -0.91302210650E+01  0.51230220475E+01 -0.10534302008E+02  0.14851862195E+02  0.51100000000E-03 0. -1.
        -11    1    3    3    0    0  0.36366538169E+02 -0.26580557351E+01  0.99871381758E+01  0.37806524409E+02  0.51100000000E-03 0.  1.
         12    1    3    3    0    0 -0.13121856431E+02 -0.14458257391E+02  0.33079048578E+01  0.19803195639E+02  0.00000000000E+00 0. -1.
</event>
<event>
 7    1  0.1360399E-013  0.7246156E+02  0.7816164E-02  0.1226708E+00
        -11   -1    0    0    0    0  0.00000000000E+00  0.00000000000E+00  0.45593999997E+02  0.45594000000E+02  0.51100000000E-03 0.  1.
         11   -1    0    0    0    0 -0.00000000000E+00 -0.00000000000E+00 -0.45593999997E+02  0.45594000000E+02  0.51100000000E-03 0. -1.
    9900012    2    1    2    0    0  0.11840316075E+02 -0.12283831194E+02  0.77197158361E+01  0.72461558636E+02  0.69999984812E+02 0.  0.
         12    1    1    2    0    0 -0.11840316075E+02  0.12283831194E+02 -0.77197158361E+01  0.18726441364E+02  0.00000000000E+00 0. -1.
         11    1    3    3    0    0 -0.72305567582E+01  0.40338636402E+01  0.78674135527E+00  0.83169687461E+01  0.51100000000E-03 0. -1.
        -11    1    3    3    0    0  0.39318691179E+02 -0.13685436909E+02 -0.23852700561E+01  0.41700601590E+02  0.51100000000E-03 0.  1.
        -12    1    3    3    0    0 -0.20247818346E+02 -0.26322579254E+01  0.93182445369E+01  0.22443988300E+02  0.00000000000E+00 0.  1.
</event>
<event>
 7    1  0.1360399E-013  0.7246158E+02  0.7816164E-02  0.1226708E+00
        -11   -1    0    0    0    0  0.00000000000E+00  0.00000000000E+00  0.45593999997E+02  0.45594000000E+02  0.51100000000E-03 0.  1.
         11   -1    0    0    0    0 -0.00000000000E+00 -0.00000000000E+00 -0.45593999997E+02  0.45594000000E+02  0.51100000000E-03 0. -1.
    9900012    2    1    2    0    0 -0.80066058609E+01  0.16869786708E+02 -0.14083520580E+01  0.72461577584E+02  0.70000009496E+02 0.  0.
         12    1    1    2    0    0  0.80066058609E+01 -0.16869786708E+02  0.14083520580E+01  0.18726422416E+02  0.00000000000E+00 0. -1.
         11    1    3    3    0    0  0.45618165067E+01  0.13331327877E+02  0.18269256322E+02  0.23071631924E+02  0.51100000000E-03 0.  1.
        -11    1    3    3    0    0  0.14665863259E+01  0.17659431490E+02 -0.23177398083E+02  0.29175300824E+02  0.51100000000E-03 0. -1.
        -12    1    3    3    0    0 -0.14035008694E+02 -0.14120972659E+02  0.34997897034E+01  0.20214644836E+02  0.00000000000E+00 0.  1.
</event>
<event>
 7    1  0.1360399E-013  0.7246156E+02  0.7816164E-02  0.1226708E+00
        -11   -1    0    0    0    0  0.00000000000E+00  0.00000000000E+00  0.45593999997E+02  0.45594000000E+02  0.51100000000E-03 0.  1.
         11   -1    0    0    0    0 -0.00000000000E+00 -0.00000000000E+00 -0.45593999997E+02  0.45594000000E+02  0.51100000000E-03 0. -1.
    9900012    2    1    2    0    0  0.15258036721E+01 -0.14161654033E+02  0.12157262170E+02  0.72461560262E+02  0.69999986931E+02 0.  0.
         12    1    1    2    0    0 -0.15258036721E+01  0.14161654033E+02 -0.12157262170E+02  0.18726439738E+02  0.00000000000E+00 0. -1.
         11    1    3    3    0    0  0.39801577400E+00  0.12001739979E+01  0.34447226382E+02  0.34470425583E+02  0.51100000000E-03 0. -1.
        -11    1    3    3    0    0 -0.12414735663E+02 -0.76475703902E+01 -0.70624082663E+01  0.16201500092E+02  0.51100000000E-03 0.  1.
         12    1    3    3    0    0  0.13542523561E+02 -0.77142576408E+01 -0.15227555946E+02  0.21789634587E+02  0.00000000000E+00 0. -1.
</event>
<event>
 7    1  0.1360399E-013  0.7246155E+02  0.7816164E-02  0.1226708E+00
        -11   -1    0    0    0    0  0.00000000000E+00  0.00000000000E+00  0.45593999997E+02  0.45594000000E+02  0.51100000000E-03 0. -1.
         11   -1    0    0    0    0 -0.00000000000E+00 -0.00000000000E+00 -0.45593999997E+02  0.45594000000E+02  0.51100000000E-03 0.  1.
    9900012    2    1    2    0    0  0.10835217906E+02 -0.10877168665E+02  0.10722180844E+02  0.72461550596E+02  0.69999974339E+02 0.  0.
         12    1    1    2    0    0 -0.10835217906E+02  0.10877168665E+02 -0.10722180844E+02  0.18726449404E+02  0.00000000000E+00 0. -1.
         11    1    3    3    0    0  0.84273953890E+01  0.14740371554E+02 -0.97876215814E+00  0.17007572496E+02  0.51100000000E-03 0. -1.
        -11    1    3    3    0    0 -0.12601238989E+02 -0.17443641915E+02 -0.13205388720E+02  0.25247854539E+02  0.51100000000E-03 0.  1.
        -12    1    3    3    0    0  0.15009061505E+02 -0.81738983034E+01  0.24906331722E+02  0.30206123561E+02  0.00000000000E+00 0.  1.
</event>
<event>
 7    1  0.1360399E-013  0.7246173E+02  0.7816164E-02  0.1226708E+00
        -11   -1    0    0    0    0  0.00000000000E+00  0.00000000000E+00  0.45593999997E+02  0.45594000000E+02  0.51100000000E-03 0. -1.
         11   -1    0    0    0    0 -0.00000000000E+00 -0.00000000000E+00 -0.45593999997E+02  0.45594000000E+02  0.51100000000E-03 0.  1.
    9900012    2    1    2    0    0  0.88090255674E+01  0.83753886372E+01 -0.14245248975E+02  0.72461730093E+02  0.70000208167E+02 0.  0.
         12    1    1    2    0    0 -0.88090255674E+01 -0.83753886372E+01  0.14245248975E+02  0.18726269907E+02  0.00000000000E+00 0. -1.
         11    1    3    3    0    0 -0.62015281724E+00 -0.15539969427E+02  0.13330782062E+02  0.20483773821E+02  0.51100000000E-03 0. -1.
        -11    1    3    3    0    0 -0.51017840168E+01  0.99024203459E+01 -0.29660899381E+02  0.31683672155E+02  0.51100000000E-03 0.  1.
         12    1    3    3    0    0  0.14530962401E+02  0.14012937719E+02  0.20848683444E+01  0.20294284117E+02  0.00000000000E+00 0. -1.
</event>
<event>
 7    1  0.1360399E-013  0.7246138E+02  0.7816164E-02  0.1226709E+00
        -11   -1    0    0    0    0  0.00000000000E+00  0.00000000000E+00  0.45593999997E+02  0.45594000000E+02  0.51100000000E-03 0.  1.
         11   -1    0    0    0    0 -0.00000000000E+00 -0.00000000000E+00 -0.45593999997E+02  0.45594000000E+02  0.51100000000E-03 0. -1.
    9900012    2    1    2    0    0 -0.17318207042E+00 -0.13692964279E+02  0.12773366489E+02  0.72461383802E+02  0.69999757058E+02 0.  0.
         12    1    1    2    0    0  0.17318207042E+00  0.13692964279E+02 -0.12773366489E+02  0.18726616198E+02  0.00000000000E+00 0. -1.
         11    1    3    3    0    0  0.24576642039E+02  0.96801343750E+01 -0.13258203058E+02  0.29554970547E+02  0.51100000000E-03 0. -1.
        -11    1    3    3    0    0 -0.12653833079E+02 -0.12099896780E+02  0.12065423767E+02  0.21262677268E+02  0.51100000000E-03 0.  1.
         12    1    3    3    0    0 -0.12095991031E+02 -0.11273201874E+02  0.13966145780E+02  0.21643735987E+02  0.00000000000E+00 0. -1.
</event>
<event>
 7    1  0.1360399E-013  0.7246161E+02  0.7816164E-02  0.1226708E+00
        -11   -1    0    0    0    0  0.00000000000E+00  0.00000000000E+00  0.45593999997E+02  0.45594000000E+02  0.51100000000E-03 0.  1.
         11   -1    0    0    0    0 -0.00000000000E+00 -0.00000000000E+00 -0.45593999997E+02  0.45594000000E+02  0.51100000000E-03 0. -1.
    9900012    2    1    2    0    0 -0.93714284211E+01 -0.91986618448E+01 -0.13350606545E+02  0.72461608316E+02  0.70000049530E+02 0.  0.
         12    1    1    2    0    0  0.93714284211E+01  0.91986618448E+01  0.13350606545E+02  0.18726391684E+02  0.00000000000E+00 0. -1.
         11    1    3    3    0    0  0.13595471638E+02 -0.19109617292E+02 -0.39908962485E+01  0.23789526587E+02  0.51100000000E-03 0. -1.
        -11    1    3    3    0    0 -0.22897886048E+02  0.23908666095E+02 -0.28287277233E+01  0.33225580517E+02  0.51100000000E-03 0.  1.
        -12    1    3    3    0    0 -0.69014010247E-01 -0.13997710648E+02 -0.65309825735E+01  0.15446501212E+02  0.00000000000E+00 0.  1.
</event>
<event>
 7    1  0.1360399E-013  0.7246156E+02  0.7816164E-02  0.1226708E+00
        -11   -1    0    0    0    0  0.00000000000E+00  0.00000000000E+00  0.45593999997E+02  0.45594000000E+02  0.51100000000E-03 0.  1.
         11   -1    0    0    0    0 -0.00000000000E+00 -0.00000000000E+00 -0.45593999997E+02  0.45594000000E+02  0.51100000000E-03 0. -1.
    9900012    2    1    2    0    0 -0.18221330839E+02 -0.10197204311E+01 -0.41979610475E+01  0.72461558686E+02  0.69999984878E+02 0.  0.
         12    1    1    2    0    0  0.18221330839E+02  0.10197204311E+01  0.41979610475E+01  0.18726441314E+02  0.00000000000E+00 0. -1.
         11    1    3    3    0    0  0.26095478362E+01  0.98717573504E+01 -0.43577062152E+01  0.11101843847E+02  0.51100000000E-03 0. -1.
        -11    1    3    3    0    0 -0.35785834052E+02 -0.18758617792E+02  0.10242269994E+02  0.41682319455E+02  0.51100000000E-03 0.  1.
        -12    1    3    3    0    0  0.14954955376E+02  0.78671400101E+01 -0.10082524826E+02  0.19677395384E+02  0.00000000000E+00 0.  1.
</event>
<event>
 7    1  0.1360399E-013  0.7246155E+02  0.7816164E-02  0.1226708E+00
        -11   -1    0    0    0    0  0.00000000000E+00  0.00000000000E+00  0.45593999997E+02  0.45594000000E+02  0.51100000000E-03 0. -1.
         11   -1    0    0    0    0 -0.00000000000E+00 -0.00000000000E+00 -0.45593999997E+02  0.45594000000E+02  0.51100000000E-03 0.  1.
    9900012    2    1    2    0    0 -0.37817453270E+00 -0.10175928959E+02 -0.15715830349E+02  0.72461551599E+02  0.69999975646E+02 0.  0.
         12    1    1    2    0    0  0.37817453270E+00  0.10175928959E+02  0.15715830349E+02  0.18726448401E+02  0.00000000000E+00 0. -1.
         11    1    3    3    0    0 -0.28682023818E+02  0.11765259390E+02 -0.18253287751E+02  0.35975857639E+02  0.51100000000E-03 0. -1.
        -11    1    3    3    0    0  0.18273411733E+02 -0.11213770384E+02  0.36867466245E+01  0.21754501224E+02  0.51100000000E-03 0.  1.
         12    1    3    3    0    0  0.10030437553E+02 -0.10727417966E+02 -0.11492892222E+01  0.14731192737E+02  0.00000000000E+00 0. -1.
</event>
<event>
 7    1  0.1360399E-013  0.7246161E+02  0.7816164E-02  0.1226708E+00
        -11   -1    0    0    0    0  0.00000000000E+00  0.00000000000E+00  0.45593999997E+02  0.45594000000E+02  0.51100000000E-03 0.  1.
         11   -1    0    0    0    0 -0.00000000000E+00 -0.00000000000E+00 -0.45593999997E+02  0.45594000000E+02  0.51100000000E-03 0. -1.
    9900012    2    1    2    0    0 -0.60883832985E+01 -0.40610883060E+01  0.17237075192E+02  0.72461611918E+02  0.70000054222E+02 0.  0.
         12    1    1    2    0    0  0.60883832985E+01  0.40610883060E+01 -0.17237075192E+02  0.18726388082E+02  0.00000000000E+00 0. -1.
         11    1    3    3    0    0 -0.46396497488E+01 -0.35843642234E+02  0.90529750708E+01  0.37259218943E+02  0.51100000000E-03 0. -1.
        -11    1    3    3    0    0  0.28793779499E+01  0.10179992683E+02  0.78402156551E+01  0.13167841516E+02  0.51100000000E-03 0.  1.
         12    1    3    3    0    0 -0.43281114996E+01  0.21602561244E+02  0.34388446634E+00  0.22034551459E+02  0.00000000000E+00 0. -1.
</event>
<event>
 7    1  0.1360399E-013  0.7246158E+02  0.7816164E-02  0.1226708E+00
        -11   -1    0    0    0    0  0.00000000000E+00  0.00000000000E+00  0.45593999997E+02  0.45594000000E+02  0.51100000000E-03 0.  1.
         11   -1    0    0    0    0 -0.00000000000E+00 -0.00000000000E+00 -0.45593999997E+02  0.45594000000E+02  0.51100000000E-03 0. -1.
    9900012    2    1    2    0    0  0.39311632957E+01  0.15227849212E+02 -0.10165497101E+02  0.72461581021E+02  0.70000013973E+02 0.  0.
         12    1    1    2    0    0 -0.39311632957E+01 -0.15227849212E+02  0.10165497101E+02  0.18726418979E+02  0.00000000000E+00 0. -1.
         11    1    3    3    0    0  0.21386660305E+02  0.20225250392E+02  0.10173429380E+02  0.31143998749E+02  0.51100000000E-03 0. -1.
        -11    1    3    3    0    0 -0.33053648331E+01 -0.12181117439E+02 -0.21998156676E+02  0.25361860266E+02  0.51100000000E-03 0.  1.
        -12    1    3    3    0    0 -0.14150132176E+02  0.71837162586E+01  0.16592301952E+01  0.15955722006E+02  0.00000000000E+00 0.  1.
</event>
<event>
 7    1  0.1360399E-013  0.7246153E+02  0.7816164E-02  0.1226708E+00
        -11   -1    0    0    0    0  0.00000000000E+00  0.00000000000E+00  0.45593999997E+02  0.45594000000E+02  0.51100000000E-03 0. -1.
         11   -1    0    0    0    0 -0.00000000000E+00 -0.00000000000E+00 -0.45593999997E+02  0.45594000000E+02  0.51100000000E-03 0.  1.
    9900012    2    1    2    0    0 -0.73630395361E+01  0.12893789451E+02  0.11411251250E+02  0.72461526421E+02  0.69999942846E+02 0.  0.
         12    1    1    2    0    0  0.73630395361E+01 -0.12893789451E+02 -0.11411251250E+02  0.18726473579E+02  0.00000000000E+00 0. -1.
         11    1    3    3    0    0 -0.40909507140E+01  0.21563167461E+01  0.17711430541E+02  0.18305200128E+02  0.51100000000E-03 0. -1.
        -11    1    3    3    0    0 -0.19244744606E+02  0.25332592949E+02 -0.67205211526E+01  0.32515624941E+02  0.51100000000E-03 0.  1.
        -12    1    3    3    0    0  0.15972655784E+02 -0.14595120244E+02  0.42034186209E+00  0.21640701352E+02  0.00000000000E+00 0.  1.
</event>
<event>
 7    1  0.1360399E-013  0.7246158E+02  0.7816164E-02  0.1226708E+00
        -11   -1    0    0    0    0  0.00000000000E+00  0.00000000000E+00  0.45593999997E+02  0.45594000000E+02  0.51100000000E-03 0.  1.
         11   -1    0    0    0    0 -0.00000000000E+00 -0.00000000000E+00 -0.45593999997E+02  0.45594000000E+02  0.51100000000E-03 0. -1.
    9900012    2    1    2    0    0  0.14621486827E+02  0.86478835182E+01 -0.78806741866E+01  0.72461580374E+02  0.70000013131E+02 0.  0.
         12    1    1    2    0    0 -0.14621486827E+02 -0.86478835182E+01  0.78806741866E+01  0.18726419626E+02  0.00000000000E+00 0. -1.
         11    1    3    3    0    0  0.11722377272E+02 -0.17844984014E+02 -0.63528802182E+01  0.22275921321E+02  0.51100000000E-03 0.  1.
        -11    1    3    3    0    0 -0.15204140273E+02  0.51450487440E+01 -0.12271116487E+02  0.20204398237E+02  0.51100000000E-03 0. -1.
        -12    1    3    3    0    0  0.18103249827E+02  0.21347818789E+02  0.10743322519E+02  0.29981260816E+02  0.00000000000E+00 0.  1.
</event>
<event>
 7    1  0.1360399E-013  0.7246159E+02  0.7816164E-02  0.1226708E+00
        -11   -1    0    0    0    0  0.00000000000E+00  0.00000000000E+00  0.45593999997E+02  0.45594000000E+02  0.51100000000E-03 0.  1.
         11   -1    0    0    0    0 -0.00000000000E+00 -0.00000000000E+00 -0.45593999997E+02  0.45594000000E+02  0.51100000000E-03 0. -1.
    9900012    2    1    2    0    0 -0.15961891378E+01  0.17053274779E+02  0.75707737677E+01  0.72461585076E+02  0.70000019256E+02 0.  0.
         12    1    1    2    0    0  0.15961891378E+01 -0.17053274779E+02 -0.75707737677E+01  0.18726414924E+02  0.00000000000E+00 0. -1.
         11    1    3    3    0    0  0.46766977684E+01 -0.16072580430E+02  0.17556076642E+02  0.24257270477E+02  0.51100000000E-03 0. -1.
        -11    1    3    3    0    0  0.76158052861E+01  0.30560974690E+02 -0.10929975777E+01  0.31514572948E+02  0.51100000000E-03 0.  1.
         12    1    3    3    0    0 -0.13888692192E+02  0.25648805188E+01 -0.88923052964E+01  0.16689741651E+02  0.00000000000E+00 0. -1.
</event>
<event>
 7    1  0.1360399E-013  0.7246141E+02  0.7816164E-02  0.1226708E+00
        -11   -1    0    0    0    0  0.00000000000E+00  0.00000000000E+00  0.45593999997E+02  0.45594000000E+02  0.51100000000E-03 0. -1.
         11   -1    0    0    0    0 -0.00000000000E+00 -0.00000000000E+00 -0.45593999997E+02  0.45594000000E+02  0.51100000000E-03 0.  1.
    9900012    2    1    2    0    0 -0.22055389561E+00 -0.15824632987E+02 -0.10010861693E+02  0.72461414486E+02  0.69999797030E+02 0.  0.
         12    1    1    2    0    0  0.22055389561E+00  0.15824632987E+02  0.10010861693E+02  0.18726585514E+02  0.00000000000E+00 0. -1.
         11    1    3    3    0    0 -0.16548559561E+02 -0.20861070846E+02  0.16029803175E+02  0.31080439033E+02  0.51100000000E-03 0. -1.
        -11    1    3    3    0    0  0.55001517711E+01 -0.88005363662E+01 -0.20467635401E+02  0.22948316038E+02  0.51100000000E-03 0.  1.
        -12    1    3    3    0    0  0.10827853894E+02  0.13836974225E+02 -0.55730294675E+01  0.18432659414E+02  0.00000000000E+00 0.  1.
</event>
<event>
 7    1  0.1360399E-013  0.7246154E+02  0.7816164E-02  0.1226708E+00
        -11   -1    0    0    0    0  0.00000000000E+00  0.00000000000E+00  0.45593999997E+02  0.45594000000E+02  0.51100000000E-03 0. -1.
         11   -1    0    0    0    0 -0.00000000000E+00 -0.00000000000E+00 -0.45593999997E+02  0.45594000000E+02  0.51100000000E-03 0.  1.
    9900012    2    1    2    0    0  0.10530074544E+01  0.16958231981E+02 -0.78733555845E+01  0.72461543186E+02  0.69999964687E+02 0.  0.
         12    1    1    2    0    0 -0.10530074544E+01 -0.16958231981E+02  0.78733555845E+01  0.18726456814E+02  0.00000000000E+00 0. -1.
         11    1    3    3    0    0  0.34957195010E+02  0.94738068078E+01 -0.29294890810E+01  0.36336488616E+02  0.51100000000E-03 0. -1.
        -11    1    3    3    0    0 -0.14776757778E+02  0.41536856157E+01 -0.64540682276E+01  0.16651146254E+02  0.51100000000E-03 0.  1.
         12    1    3    3    0    0 -0.19127429778E+02  0.33307395578E+01  0.15102017242E+01  0.19473908317E+02  0.00000000000E+00 0. -1.
</event>
<event>
 8    1  0.1360399E-013  0.7246157E+02  0.7816164E-02  0.1226708E+00
        -11   -1    0    0    0    0  0.00000000000E+00  0.00000000000E+00  0.45593999997E+02  0.45594000000E+02  0.51100000000E-03 0.  1.
         11   -1    0    0    0    0 -0.00000000000E+00 -0.00000000000E+00 -0.45593999997E+02  0.45594000000E+02  0.51100000000E-03 0. -1.
    9900012    2    1    2    0    0  0.65736855403E+01  0.17497278054E+02 -0.11451018408E+01  0.72461565767E+02  0.69999994102E+02 0.  0.
         24    2    3    3    0    0 -0.36529132689E+01  0.17450628775E+02  0.34716074053E+01  0.61241070952E+02  0.58485455401E+02 0.  0.
         12    1    1    2    0    0 -0.65736855403E+01 -0.17497278054E+02  0.11451018408E+01  0.18726434233E+02  0.00000000000E+00 0. -1.
         11    1    3    3    0    0  0.10226598809E+02  0.46649278838E-01 -0.46167092461E+01  0.11220494815E+02  0.51100000000E-03 0. -1.
        -11    1    4    4    0    0 -0.13339114128E+02 -0.18481720686E+02  0.70406300494E+01  0.23855323033E+02  0.51100000000E-03 0.  1.
         12    1    4    4    0    0  0.96862008595E+01  0.35932349461E+02 -0.35690226441E+01  0.37385747919E+02  0.00000000000E+00 0. -1.
</event>
<event>
 7    1  0.1360399E-013  0.7246156E+02  0.7816164E-02  0.1226708E+00
        -11   -1    0    0    0    0  0.00000000000E+00  0.00000000000E+00  0.45593999997E+02  0.45594000000E+02  0.51100000000E-03 0.  1.
         11   -1    0    0    0    0 -0.00000000000E+00 -0.00000000000E+00 -0.45593999997E+02  0.45594000000E+02  0.51100000000E-03 0. -1.
    9900012    2    1    2    0    0 -0.14604418503E+01  0.58499659785E+01  0.17729195705E+02  0.72461564870E+02  0.69999992933E+02 0.  0.
         12    1    1    2    0    0  0.14604418503E+01 -0.58499659785E+01 -0.17729195705E+02  0.18726435130E+02  0.00000000000E+00 0. -1.
         11    1    3    3    0    0 -0.19155018087E+02  0.20933104800E+02 -0.89315645228E+01  0.29746973620E+02  0.51100000000E-03 0. -1.
        -11    1    3    3    0    0 -0.27229694059E+01 -0.12003564143E+02  0.67866554885E+01  0.14055561444E+02  0.51100000000E-03 0.  1.
         12    1    3    3    0    0  0.20417545642E+02 -0.30795746786E+01  0.19874104739E+02  0.28659029806E+02  0.00000000000E+00 0. -1.
</event>
<event>
 7    1  0.1360399E-013  0.7246166E+02  0.7816164E-02  0.1226708E+00
        -11   -1    0    0    0    0  0.00000000000E+00  0.00000000000E+00  0.45593999997E+02  0.45594000000E+02  0.51100000000E-03 0. -1.
         11   -1    0    0    0    0 -0.00000000000E+00 -0.00000000000E+00 -0.45593999997E+02  0.45594000000E+02  0.51100000000E-03 0.  1.
    9900012    2    1    2    0    0 -0.17918629606E+02 -0.53826308098E+01 -0.79109038096E+00  0.72461659584E+02  0.70000116316E+02 0.  0.
         12    1    1    2    0    0  0.17918629606E+02  0.53826308098E+01  0.79109038096E+00  0.18726340416E+02  0.00000000000E+00 0. -1.
         11    1    3    3    0    0 -0.29492043159E+02  0.76091550908E+01  0.18639688043E+02  0.35708791936E+02  0.51100000000E-03 0. -1.
        -11    1    3    3    0    0  0.14469192432E+02 -0.16503262612E+02 -0.22366698103E+02  0.31336630175E+02  0.51100000000E-03 0.  1.
        -12    1    3    3    0    0 -0.28957788782E+01  0.35114767113E+01  0.29359196784E+01  0.54162374729E+01  0.00000000000E+00 0.  1.
</event>
<event>
 7    1  0.1360399E-013  0.7246163E+02  0.7816164E-02  0.1226708E+00
        -11   -1    0    0    0    0  0.00000000000E+00  0.00000000000E+00  0.45593999997E+02  0.45594000000E+02  0.51100000000E-03 0. -1.
         11   -1    0    0    0    0 -0.00000000000E+00 -0.00000000000E+00 -0.45593999997E+02  0.45594000000E+02  0.51100000000E-03 0.  1.
    9900012    2    1    2    0    0 -0.72018244100E+01 -0.13839201909E+02 -0.10357951067E+02  0.72461629967E+02  0.70000077734E+02 0.  0.
         12    1    1    2    0    0  0.72018244100E+01  0.13839201909E+02  0.10357951067E+02  0.18726370033E+02  0.00000000000E+00 0. -1.
         11    1    3    3    0    0 -0.92796490031E+01 -0.13068246244E+02 -0.36333076957E+02  0.39711250635E+02  0.51100000000E-03 0. -1.
        -11    1    3    3    0    0 -0.39915218335E+01 -0.73919515181E+01  0.46293696893E+01  0.95918849959E+01  0.51100000000E-03 0.  1.
         12    1    3    3    0    0  0.60693464266E+01  0.66209958531E+01  0.21345756201E+02  0.23158494336E+02  0.00000000000E+00 0. -1.
</event>
<event>
 7    1  0.1360399E-013  0.7246153E+02  0.7816164E-02  0.1226708E+00
        -11   -1    0    0    0    0  0.00000000000E+00  0.00000000000E+00  0.45593999997E+02  0.45594000000E+02  0.51100000000E-03 0. -1.
         11   -1    0    0    0    0 -0.00000000000E+00 -0.00000000000E+00 -0.45593999997E+02  0.45594000000E+02  0.51100000000E-03 0.  1.
    9900012    2    1    2    0    0  0.10698377795E+02 -0.14912889105E+02 -0.37190051276E+01  0.72461533488E+02  0.69999952052E+02 0.  0.
         12    1    1    2    0    0 -0.10698377795E+02  0.14912889105E+02  0.37190051276E+01  0.18726466512E+02  0.00000000000E+00 0. -1.
         11    1    3    3    0    0 -0.26339952428E+02 -0.13232261088E+02  0.10735470915E+02  0.31370944574E+02  0.51100000000E-03 0. -1.
        -11    1    3    3    0    0  0.28677560528E+02  0.80869281627E+00 -0.14954773226E+02  0.32352769656E+02  0.51100000000E-03 0.  1.
         12    1    3    3    0    0  0.83607696953E+01 -0.24893208333E+01  0.50029718367E+00  0.87378192578E+01  0.00000000000E+00 0. -1.
</event>
<event>
 7    1  0.1360399E-013  0.7246157E+02  0.7816164E-02  0.1226708E+00
        -11   -1    0    0    0    0  0.00000000000E+00  0.00000000000E+00  0.45593999997E+02  0.45594000000E+02  0.51100000000E-03 0.  1.
         11   -1    0    0    0    0 -0.00000000000E+00 -0.00000000000E+00 -0.45593999997E+02  0.45594000000E+02  0.51100000000E-03 0. -1.
    9900012    2    1    2    0    0  0.13848155515E+02  0.38437964929E+01  0.12005540853E+02  0.72461569645E+02  0.69999999155E+02 0.  0.
         12    1    1    2    0    0 -0.13848155515E+02 -0.38437964929E+01 -0.12005540853E+02  0.18726430355E+02  0.00000000000E+00 0. -1.
         11    1    3    3    0    0  0.20769584105E+02  0.48301439357E+01 -0.18978861713E+02  0.28546507781E+02  0.51100000000E-03 0. -1.
        -11    1    3    3    0    0 -0.15806505865E+02 -0.96797031518E+01  0.20663881844E+02  0.27758571539E+02  0.51100000000E-03 0.  1.
         12    1    3    3    0    0  0.88850772748E+01  0.86933557091E+01  0.10320520722E+02  0.16156490326E+02  0.00000000000E+00 0. -1.
</event>
<event>
 7    1  0.1360399E-013  0.7246153E+02  0.7816164E-02  0.1226708E+00
        -11   -1    0    0    0    0  0.00000000000E+00  0.00000000000E+00  0.45593999997E+02  0.45594000000E+02  0.51100000000E-03 0. -1.
         11   -1    0    0    0    0 -0.00000000000E+00 -0.00000000000E+00 -0.45593999997E+02  0.45594000000E+02  0.51100000000E-03 0.  1.
    9900012    2    1    2    0    0  0.81234733430E+01 -0.11351631351E+02 -0.12483207129E+02  0.72461526395E+02  0.69999942813E+02 0.  0.
         12    1    1    2    0    0 -0.81234733430E+01  0.11351631351E+02  0.12483207129E+02  0.18726473605E+02  0.00000000000E+00 0. -1.
         11    1    3    3    0    0  0.36318098985E+01  0.23666014226E+01  0.58427376585E+01  0.72751927149E+01  0.51100000000E-03 0. -1.
        -11    1    3    3    0    0  0.20621587877E+02  0.16463867718E+02 -0.16057608759E+02  0.30889409611E+02  0.51100000000E-03 0.  1.
        -12    1    3    3    0    0 -0.16129924432E+02 -0.30182100491E+02 -0.22683360285E+01  0.34296924069E+02  0.00000000000E+00 0.  1.
</event>
<event>
 7    1  0.1360399E-013  0.7246151E+02  0.7816164E-02  0.1226708E+00
        -11   -1    0    0    0    0  0.00000000000E+00  0.00000000000E+00  0.45593999997E+02  0.45594000000E+02  0.51100000000E-03 0.  1.
         11   -1    0    0    0    0 -0.00000000000E+00 -0.00000000000E+00 -0.45593999997E+02  0.45594000000E+02  0.51100000000E-03 0. -1.
    9900012    2    1    2    0    0  0.72354108344E+01 -0.15184460397E+02  0.82317991742E+01  0.72461507399E+02  0.69999918067E+02 0.  0.
         12    1    1    2    0    0 -0.72354108344E+01  0.15184460397E+02 -0.82317991742E+01  0.18726492601E+02  0.00000000000E+00 0. -1.
         11    1    3    3    0    0  0.13392737468E+02 -0.34271808396E+02  0.49683201616E+01  0.37129590263E+02  0.51100000000E-03 0. -1.
        -11    1    3    3    0    0  0.10971315011E+02  0.39088178211E+01  0.43178294265E+01  0.12421443598E+02  0.51100000000E-03 0.  1.
         12    1    3    3    0    0 -0.17128641645E+02  0.15178530177E+02 -0.10543504139E+01  0.22910473538E+02  0.00000000000E+00 0. -1.
</event>
<event>
 7    1  0.1360399E-013  0.7246168E+02  0.7816164E-02  0.1226708E+00
        -11   -1    0    0    0    0  0.00000000000E+00  0.00000000000E+00  0.45593999997E+02  0.45594000000E+02  0.51100000000E-03 0. -1.
         11   -1    0    0    0    0 -0.00000000000E+00 -0.00000000000E+00 -0.45593999997E+02  0.45594000000E+02  0.51100000000E-03 0.  1.
    9900012    2    1    2    0    0  0.85759175361E+01  0.37665472891E+01 -0.16215478513E+02  0.72461682063E+02  0.70000145599E+02 0.  0.
         12    1    1    2    0    0 -0.85759175361E+01 -0.37665472891E+01  0.16215478513E+02  0.18726317937E+02  0.00000000000E+00 0. -1.
         11    1    3    3    0    0 -0.19702828517E+02 -0.54528451982E+01  0.16712284513E+02  0.26405215891E+02  0.51100000000E-03 0. -1.
        -11    1    3    3    0    0  0.38825006377E+00  0.34680404007E+01 -0.55326847730E+01  0.65413028818E+01  0.51100000000E-03 0.  1.
         12    1    3    3    0    0  0.27890495990E+02  0.57513520866E+01 -0.27395078253E+02  0.39515163290E+02  0.00000000000E+00 0. -1.
</event>
<event>
 7    1  0.1360399E-013  0.7246159E+02  0.7816164E-02  0.1226708E+00
        -11   -1    0    0    0    0  0.00000000000E+00  0.00000000000E+00  0.45593999997E+02  0.45594000000E+02  0.51100000000E-03 0. -1.
         11   -1    0    0    0    0 -0.00000000000E+00 -0.00000000000E+00 -0.45593999997E+02  0.45594000000E+02  0.51100000000E-03 0.  1.
    9900012    2    1    2    0    0 -0.39741742013E+01 -0.17098844055E+02 -0.65202621278E+01  0.72461592261E+02  0.70000028615E+02 0.  0.
         12    1    1    2    0    0  0.39741742013E+01  0.17098844055E+02  0.65202621278E+01  0.18726407739E+02  0.00000000000E+00 0. -1.
         11    1    3    3    0    0 -0.20172320245E+02 -0.42165978601E+01 -0.98487691576E+01  0.22840763030E+02  0.51100000000E-03 0. -1.
        -11    1    3    3    0    0  0.23499053880E+02  0.88970507829E+01 -0.41421894593E+01  0.25466071147E+02  0.51100000000E-03 0.  1.
        -12    1    3    3    0    0 -0.73009078357E+01 -0.21779296978E+02  0.74706964891E+01  0.24154758084E+02  0.00000000000E+00 0.  1.
</event>
<event>
 7    1  0.1360399E-013  0.7246157E+02  0.7816164E-02  0.1226708E+00
        -11   -1    0    0    0    0  0.00000000000E+00  0.00000000000E+00  0.45593999997E+02  0.45594000000E+02  0.51100000000E-03 0.  1.
         11   -1    0    0    0    0 -0.00000000000E+00 -0.00000000000E+00 -0.45593999997E+02  0.45594000000E+02  0.51100000000E-03 0. -1.
    9900012    2    1    2    0    0 -0.11404153984E+02  0.72198699710E+00  0.14835876450E+02  0.72461568856E+02  0.69999998127E+02 0.  0.
         12    1    1    2    0    0  0.11404153984E+02 -0.72198699710E+00 -0.14835876450E+02  0.18726431144E+02  0.00000000000E+00 0. -1.
         11    1    3    3    0    0  0.89046913085E+01  0.10144189269E+02  0.52265531606E+01  0.14474631651E+02  0.51100000000E-03 0. -1.
        -11    1    3    3    0    0 -0.21498173538E+02 -0.93732732635E+01  0.29709910316E+02  0.37851135893E+02  0.51100000000E-03 0.  1.
        -12    1    3    3    0    0  0.11893282446E+01 -0.48929008734E-01 -0.20100587026E+02  0.20135801313E+02  0.00000000000E+00 0.  1.
</event>
<event>
 7    1  0.1360399E-013  0.7246156E+02  0.7816164E-02  0.1226708E+00
        -11   -1    0    0    0    0  0.00000000000E+00  0.00000000000E+00  0.45593999997E+02  0.45594000000E+02  0.51100000000E-03 0. -1.
         11   -1    0    0    0    0 -0.00000000000E+00 -0.00000000000E+00 -0.45593999997E+02  0.45594000000E+02  0.51100000000E-03 0.  1.
    9900012    2    1    2    0    0  0.86610138828E+01  0.30721666337E-01 -0.16603181039E+02  0.72461555439E+02  0.69999980648E+02 0.  0.
         12    1    1    2    0    0 -0.86610138828E+01 -0.30721666337E-01  0.16603181039E+02  0.18726444561E+02  0.00000000000E+00 0. -1.
         11    1    3    3    0    0 -0.20383499322E+02  0.57859279402E+01 -0.30373910387E+01  0.21405367349E+02  0.51100000000E-03 0. -1.
        -11    1    3    3    0    0  0.32860187846E+02 -0.17151597027E+02 -0.11855767574E+02  0.38916942980E+02  0.51100000000E-03 0.  1.
        -12    1    3    3    0    0 -0.38156746408E+01  0.11396390753E+02 -0.17100224257E+01  0.12139245110E+02  0.00000000000E+00 0.  1.
</event>
<event>
 7    1  0.1360399E-013  0.7246150E+02  0.7816164E-02  0.1226708E+00
        -11   -1    0    0    0    0  0.00000000000E+00  0.00000000000E+00  0.45593999997E+02  0.45594000000E+02  0.51100000000E-03 0. -1.
         11   -1    0    0    0    0 -0.00000000000E+00 -0.00000000000E+00 -0.45593999997E+02  0.45594000000E+02  0.51100000000E-03 0.  1.
    9900012    2    1    2    0    0 -0.39076149547E+00 -0.17463262903E+02  0.67500809566E+01  0.72461499027E+02  0.69999907162E+02 0.  0.
         12    1    1    2    0    0  0.39076149547E+00  0.17463262903E+02 -0.67500809566E+01  0.18726500973E+02  0.00000000000E+00 0. -1.
         11    1    3    3    0    0  0.29933526102E+02 -0.15500023680E+02  0.59573744944E+01  0.34230936740E+02  0.51100000000E-03 0. -1.
        -11    1    3    3    0    0 -0.27381474951E+01 -0.79750400439E+01 -0.44192713983E+01  0.95199094197E+01  0.51100000000E-03 0.  1.
         12    1    3    3    0    0 -0.27586140103E+02  0.60118008209E+01  0.52119778605E+01  0.28710652868E+02  0.00000000000E+00 0. -1.
</event>
<event>
 7    1  0.1360399E-013  0.7246164E+02  0.7816164E-02  0.1226708E+00
        -11   -1    0    0    0    0  0.00000000000E+00  0.00000000000E+00  0.45593999997E+02  0.45594000000E+02  0.51100000000E-03 0. -1.
         11   -1    0    0    0    0 -0.00000000000E+00 -0.00000000000E+00 -0.45593999997E+02  0.45594000000E+02  0.51100000000E-03 0.  1.
    9900012    2    1    2    0    0 -0.91225162603E+01  0.16052352573E+02  0.31270382557E+01  0.72461636384E+02  0.70000086094E+02 0.  0.
         12    1    1    2    0    0  0.91225162603E+01 -0.16052352573E+02 -0.31270382557E+01  0.18726363616E+02  0.00000000000E+00 0. -1.
         11    1    3    3    0    0  0.14755706359E+02 -0.13327933882E+02  0.13657313931E+02  0.24122332304E+02  0.51100000000E-03 0. -1.
        -11    1    3    3    0    0 -0.13735404076E+02  0.13230940278E+02  0.89598991098E+01  0.21071281359E+02  0.51100000000E-03 0.  1.
         12    1    3    3    0    0 -0.10142818543E+02  0.16149346176E+02 -0.19490174785E+02  0.27268022720E+02  0.00000000000E+00 0. -1.
</event>
<event>
 7    1  0.1360399E-013  0.7246154E+02  0.7816164E-02  0.1226708E+00
        -11   -1    0    0    0    0  0.00000000000E+00  0.00000000000E+00  0.45593999997E+02  0.45594000000E+02  0.51100000000E-03 0.  1.
         11   -1    0    0    0    0 -0.00000000000E+00 -0.00000000000E+00 -0.45593999997E+02  0.45594000000E+02  0.51100000000E-03 0. -1.
    9900012    2    1    2    0    0 -0.22078236848E+01 -0.13735429018E+01  0.18545054907E+02  0.72461543661E+02  0.69999965305E+02 0.  0.
         12    1    1    2    0    0  0.22078236848E+01  0.13735429018E+01 -0.18545054907E+02  0.18726456339E+02  0.00000000000E+00 0. -1.
         11    1    3    3    0    0 -0.11346438342E+02  0.76404836254E+01 -0.13014152147E+02  0.18880858281E+02  0.51100000000E-03 0. -1.
        -11    1    3    3    0    0  0.20687842438E+02  0.79723330688E+01  0.20764947382E+02  0.30376437568E+02  0.51100000000E-03 0.  1.
        -12    1    3    3    0    0 -0.11549227780E+02 -0.16986359596E+02  0.10794259671E+02  0.23204247812E+02  0.00000000000E+00 0.  1.
</event>
<event>
 7    1  0.1360399E-013  0.7246156E+02  0.7816164E-02  0.1226708E+00
        -11   -1    0    0    0    0  0.00000000000E+00  0.00000000000E+00  0.45593999997E+02  0.45594000000E+02  0.51100000000E-03 0. -1.
         11   -1    0    0    0    0 -0.00000000000E+00 -0.00000000000E+00 -0.45593999997E+02  0.45594000000E+02  0.51100000000E-03 0.  1.
    9900012    2    1    2    0    0 -0.10070680603E+02  0.83162206370E+01 -0.13420182743E+02  0.72461563117E+02  0.69999990650E+02 0.  0.
         12    1    1    2    0    0  0.10070680603E+02 -0.83162206370E+01  0.13420182743E+02  0.18726436883E+02  0.00000000000E+00 0. -1.
         11    1    3    3    0    0  0.46447834686E+01  0.91415464012E+01  0.23291420457E+02  0.25448617865E+02  0.51100000000E-03 0. -1.
        -11    1    3    3    0    0 -0.75827436281E+01  0.10764281575E+02 -0.84488258263E+01  0.15644501170E+02  0.51100000000E-03 0.  1.
         12    1    3    3    0    0 -0.71327204437E+01 -0.11589607340E+02 -0.28262777374E+02  0.31368444081E+02  0.00000000000E+00 0. -1.
</event>
<event>
 7    1  0.1360399E-013  0.7246192E+02  0.7816164E-02  0.1226707E+00
        -11   -1    0    0    0    0  0.00000000000E+00  0.00000000000E+00  0.45593999997E+02  0.45594000000E+02  0.51100000000E-03 0.  1.
         11   -1    0    0    0    0 -0.00000000000E+00 -0.00000000000E+00 -0.45593999997E+02  0.45594000000E+02  0.51100000000E-03 0. -1.
    9900012    2    1    2    0    0  0.13250304620E+02 -0.11328384159E+02  0.68383515153E+01  0.72461924287E+02  0.70000461139E+02 0.  0.
         12    1    1    2    0    0 -0.13250304620E+02  0.11328384159E+02 -0.68383515153E+01  0.18726075713E+02  0.00000000000E+00 0. -1.
         11    1    3    3    0    0  0.28475084624E+01  0.65117017981E+00 -0.19991441299E+02  0.20203713830E+02  0.51100000000E-03 0. -1.
        -11    1    3    3    0    0 -0.15144811577E+02 -0.11927025879E+02  0.10767318432E+02  0.22080634287E+02  0.51100000000E-03 0.  1.
         12    1    3    3    0    0  0.25547607735E+02 -0.52528459354E-01  0.16062474382E+02  0.30177576170E+02  0.00000000000E+00 0. -1.
</event>
<event>
 7    1  0.1360399E-013  0.7246154E+02  0.7816164E-02  0.1226708E+00
        -11   -1    0    0    0    0  0.00000000000E+00  0.00000000000E+00  0.45593999997E+02  0.45594000000E+02  0.51100000000E-03 0.  1.
         11   -1    0    0    0    0 -0.00000000000E+00 -0.00000000000E+00 -0.45593999997E+02  0.45594000000E+02  0.51100000000E-03 0. -1.
    9900012    2    1    2    0    0  0.40932735257E+01 -0.99261332739E+01  0.15342667831E+02  0.72461535675E+02  0.69999954902E+02 0.  0.
         12    1    1    2    0    0 -0.40932735257E+01  0.99261332739E+01 -0.15342667831E+02  0.18726464325E+02  0.00000000000E+00 0. -1.
         11    1    3    3    0    0 -0.30945980299E+00  0.15118229169E+02  0.20386275235E+02  0.25382214970E+02  0.51100000000E-03 0. -1.
        -11    1    3    3    0    0 -0.14595296251E+02 -0.16506216828E+02 -0.12038289750E+02  0.25107733609E+02  0.51100000000E-03 0.  1.
        -12    1    3    3    0    0  0.18998029579E+02 -0.85381456145E+01  0.69946823456E+01  0.21971587097E+02  0.00000000000E+00 0.  1.
</event>
<event>
 7    1  0.1360399E-013  0.7246163E+02  0.7816164E-02  0.1226708E+00
        -11   -1    0    0    0    0  0.00000000000E+00  0.00000000000E+00  0.45593999997E+02  0.45594000000E+02  0.51100000000E-03 0. -1.
         11   -1    0    0    0    0 -0.00000000000E+00 -0.00000000000E+00 -0.45593999997E+02  0.45594000000E+02  0.51100000000E-03 0.  1.
    9900012    2    1    2    0    0  0.19391722228E+01  0.76422541299E+01 -0.16985651815E+02  0.72461633436E+02  0.70000082254E+02 0.  0.
         12    1    1    2    0    0 -0.19391722228E+01 -0.76422541299E+01  0.16985651815E+02  0.18726366564E+02  0.00000000000E+00 0. -1.
         11    1    3    3    0    0  0.98998085145E+00 -0.24518466627E+02  0.92485654135E+01  0.26223486235E+02  0.51100000000E-03 0. -1.
        -11    1    3    3    0    0  0.78896239853E+01  0.19886005029E+02 -0.23670497018E+02  0.31905983639E+02  0.51100000000E-03 0.  1.
         12    1    3    3    0    0 -0.69404326139E+01  0.12274715728E+02 -0.25637202104E+01  0.14332163563E+02  0.00000000000E+00 0. -1.
</event>
<event>
 7    1  0.1360399E-013  0.7246159E+02  0.7816164E-02  0.1226708E+00
        -11   -1    0    0    0    0  0.00000000000E+00  0.00000000000E+00  0.45593999997E+02  0.45594000000E+02  0.51100000000E-03 0.  1.
         11   -1    0    0    0    0 -0.00000000000E+00 -0.00000000000E+00 -0.45593999997E+02  0.45594000000E+02  0.51100000000E-03 0. -1.
    9900012    2    1    2    0    0 -0.46648274835E-01 -0.13358487034E+02  0.13123532636E+02  0.72461589219E+02  0.70000024653E+02 0.  0.
         12    1    1    2    0    0  0.46648274835E-01  0.13358487034E+02 -0.13123532636E+02  0.18726410781E+02  0.00000000000E+00 0. -1.
         11    1    3    3    0    0 -0.21030855043E+02 -0.10783195146E+02 -0.13330525506E+02  0.27134425955E+02  0.51100000000E-03 0. -1.
        -11    1    3    3    0    0  0.23025481704E+01 -0.88916624752E+01  0.23697019283E+02  0.25414801058E+02  0.51100000000E-03 0.  1.
         12    1    3    3    0    0  0.18681658598E+02  0.63163705875E+01  0.27570388584E+01  0.19912362206E+02  0.00000000000E+00 0. -1.
</event>
<event>
 7    1  0.1360399E-013  0.7246158E+02  0.7816164E-02  0.1226708E+00
        -11   -1    0    0    0    0  0.00000000000E+00  0.00000000000E+00  0.45593999997E+02  0.45594000000E+02  0.51100000000E-03 0.  1.
         11   -1    0    0    0    0 -0.00000000000E+00 -0.00000000000E+00 -0.45593999997E+02  0.45594000000E+02  0.51100000000E-03 0. -1.
    9900012    2    1    2    0    0 -0.12452787546E+02 -0.13922384081E+02 -0.13319834823E+01  0.72461578127E+02  0.70000010204E+02 0.  0.
         12    1    1    2    0    0  0.12452787546E+02  0.13922384081E+02  0.13319834823E+01  0.18726421873E+02  0.00000000000E+00 0. -1.
         11    1    3    3    0    0 -0.32285911973E+02 -0.25387435540E+01  0.13711780037E+02  0.35168711133E+02  0.51100000000E-03 0. -1.
        -11    1    3    3    0    0  0.18491345779E+02 -0.16015464110E+02 -0.19064580914E+02  0.31014241972E+02  0.51100000000E-03 0.  1.
         12    1    3    3    0    0  0.13417786475E+01  0.46318235824E+01  0.40208173954E+01  0.62786250218E+01  0.00000000000E+00 0. -1.
</event>
<event>
 7    1  0.1360399E-013  0.7246160E+02  0.7816164E-02  0.1226708E+00
        -11   -1    0    0    0    0  0.00000000000E+00  0.00000000000E+00  0.45593999997E+02  0.45594000000E+02  0.51100000000E-03 0. -1.
         11   -1    0    0    0    0 -0.00000000000E+00 -0.00000000000E+00 -0.45593999997E+02  0.45594000000E+02  0.51100000000E-03 0.  1.
    9900012    2    1    2    0    0  0.61973458228E+01 -0.14245586519E+02 -0.10456304653E+02  0.72461597849E+02  0.70000035895E+02 0.  0.
         12    1    1    2    0    0 -0.61973458228E+01  0.14245586519E+02  0.10456304653E+02  0.18726402151E+02  0.00000000000E+00 0. -1.
         11    1    3    3    0    0  0.24666718256E+02 -0.80347344622E+01  0.52467684848E+01  0.26467575015E+02  0.51100000000E-03 0. -1.
        -11    1    3    3    0    0 -0.15363858540E+02 -0.19720636104E+02 -0.19404461420E+02  0.31646244024E+02  0.51100000000E-03 0.  1.
         12    1    3    3    0    0 -0.31055138931E+01  0.13509784047E+02  0.37013882820E+01  0.14347778809E+02  0.00000000000E+00 0. -1.
</event>
<event>
 7    1  0.1360399E-013  0.7246152E+02  0.7816164E-02  0.1226708E+00
        -11   -1    0    0    0    0  0.00000000000E+00  0.00000000000E+00  0.45593999997E+02  0.45594000000E+02  0.51100000000E-03 0.  1.
         11   -1    0    0    0    0 -0.00000000000E+00 -0.00000000000E+00 -0.45593999997E+02  0.45594000000E+02  0.51100000000E-03 0. -1.
    9900012    2    1    2    0    0 -0.15706605826E+02 -0.25816546666E+01  0.98650220957E+01  0.72461519596E+02  0.69999933956E+02 0.  0.
         12    1    1    2    0    0  0.15706605826E+02  0.25816546666E+01 -0.98650220957E+01  0.18726480404E+02  0.00000000000E+00 0. -1.
         11    1    3    3    0    0 -0.28125946449E+02 -0.16977963827E+02  0.18152642480E+02  0.37534498114E+02  0.51100000000E-03 0.  1.
        -11    1    3    3    0    0  0.78446151962E+00 -0.72000647464E+01 -0.74372854276E+01  0.10381210287E+02  0.51100000000E-03 0. -1.
         12    1    3    3    0    0  0.11634879104E+02  0.21596373907E+02 -0.85033495646E+00  0.24545811195E+02  0.00000000000E+00 0. -1.
</event>
<event>
 7    1  0.1360399E-013  0.7246159E+02  0.7816164E-02  0.1226708E+00
        -11   -1    0    0    0    0  0.00000000000E+00  0.00000000000E+00  0.45593999997E+02  0.45594000000E+02  0.51100000000E-03 0. -1.
         11   -1    0    0    0    0 -0.00000000000E+00 -0.00000000000E+00 -0.45593999997E+02  0.45594000000E+02  0.51100000000E-03 0.  1.
    9900012    2    1    2    0    0  0.74402287014E+01 -0.54943697514E+01 -0.16282919965E+02  0.72461585910E+02  0.70000020342E+02 0.  0.
         12    1    1    2    0    0 -0.74402287014E+01  0.54943697514E+01  0.16282919965E+02  0.18726414090E+02  0.00000000000E+00 0. -1.
         11    1    3    3    0    0  0.13000665533E+02 -0.60783277412E+01 -0.36108732652E+02  0.38856195728E+02  0.51100000000E-03 0.  1.
        -11    1    3    3    0    0 -0.52062435245E+01  0.13114837300E+02  0.73114127973E+01  0.15892158016E+02  0.51100000000E-03 0. -1.
         12    1    3    3    0    0 -0.35419330689E+00 -0.12530879310E+02  0.12514399890E+02  0.17713232167E+02  0.00000000000E+00 0. -1.
</event>
<event>
 7    1  0.1360399E-013  0.7246145E+02  0.7816164E-02  0.1226708E+00
        -11   -1    0    0    0    0  0.00000000000E+00  0.00000000000E+00  0.45593999997E+02  0.45594000000E+02  0.51100000000E-03 0.  1.
         11   -1    0    0    0    0 -0.00000000000E+00 -0.00000000000E+00 -0.45593999997E+02  0.45594000000E+02  0.51100000000E-03 0. -1.
    9900012    2    1    2    0    0 -0.13608801424E+02 -0.30858353501E+01  0.12488463697E+02  0.72461452493E+02  0.69999846542E+02 0.  0.
         12    1    1    2    0    0  0.13608801424E+02  0.30858353501E+01 -0.12488463697E+02  0.18726547507E+02  0.00000000000E+00 0. -1.
         11    1    3    3    0    0 -0.11497942660E+02  0.13812877462E+00  0.80040720613E+01  0.14010243923E+02  0.51100000000E-03 0. -1.
        -11    1    3    3    0    0  0.10572261056E+02  0.25014765520E+02 -0.10022216809E+00  0.27157342333E+02  0.51100000000E-03 0.  1.
        -12    1    3    3    0    0 -0.12683119820E+02 -0.28238729645E+02  0.45846138035E+01  0.31293866237E+02  0.00000000000E+00 0.  1.
</event>
<event>
 7    1  0.1360399E-013  0.7246163E+02  0.7816164E-02  0.1226708E+00
        -11   -1    0    0    0    0  0.00000000000E+00  0.00000000000E+00  0.45593999997E+02  0.45594000000E+02  0.51100000000E-03 0. -1.
         11   -1    0    0    0    0 -0.00000000000E+00 -0.00000000000E+00 -0.45593999997E+02  0.45594000000E+02  0.51100000000E-03 0.  1.
    9900012    2    1    2    0    0 -0.82472347814E+01  0.13530246753E+02 -0.99795936219E+01  0.72461634961E+02  0.70000084240E+02 0.  0.
         12    1    1    2    0    0  0.82472347814E+01 -0.13530246753E+02  0.99795936219E+01  0.18726365039E+02  0.00000000000E+00 0. -1.
         11    1    3    3    0    0 -0.16035100796E+02  0.22317504858E+02 -0.64496628180E+01  0.28227533214E+02  0.51100000000E-03 0. -1.
        -11    1    3    3    0    0  0.54426782110E+00 -0.82712304534E+01  0.18910749832E+02  0.20647661856E+02  0.51100000000E-03 0.  1.
        -12    1    3    3    0    0  0.72435981933E+01 -0.51602765168E+00 -0.22440680636E+02  0.23586439891E+02  0.00000000000E+00 0.  1.
</event>
<event>
 7    1  0.1360399E-013  0.7246158E+02  0.7816164E-02  0.1226708E+00
        -11   -1    0    0    0    0  0.00000000000E+00  0.00000000000E+00  0.45593999997E+02  0.45594000000E+02  0.51100000000E-03 0.  1.
         11   -1    0    0    0    0 -0.00000000000E+00 -0.00000000000E+00 -0.45593999997E+02  0.45594000000E+02  0.51100000000E-03 0. -1.
    9900012    2    1    2    0    0 -0.70251718224E+00  0.60359302686E+01  0.17713071835E+02  0.72461577532E+02  0.70000009429E+02 0.  0.
         12    1    1    2    0    0  0.70251718224E+00 -0.60359302686E+01 -0.17713071835E+02  0.18726422468E+02  0.00000000000E+00 0. -1.
         11    1    3    3    0    0 -0.66910436531E+01  0.83495409562E+01  0.22436195233E+01  0.10932462128E+02  0.51100000000E-03 0. -1.
        -11    1    3    3    0    0  0.64150284266E+01 -0.26449926434E+02 -0.74750103014E+01  0.28224581083E+02  0.51100000000E-03 0.  1.
        -12    1    3    3    0    0 -0.42650195566E+00  0.24136315746E+02  0.22944462613E+02  0.33304534321E+02  0.00000000000E+00 0.  1.
</event>
<event>
 7    1  0.1360399E-013  0.7246161E+02  0.7816164E-02  0.1226708E+00
        -11   -1    0    0    0    0  0.00000000000E+00  0.00000000000E+00  0.45593999997E+02  0.45594000000E+02  0.51100000000E-03 0.  1.
         11   -1    0    0    0    0 -0.00000000000E+00 -0.00000000000E+00 -0.45593999997E+02  0.45594000000E+02  0.51100000000E-03 0. -1.
    9900012    2    1    2    0    0 -0.14275698953E+02  0.82715100267E+01  0.88580013668E+01  0.72461610948E+02  0.70000052958E+02 0.  0.
         12    1    1    2    0    0  0.14275698953E+02 -0.82715100267E+01 -0.88580013668E+01  0.18726389052E+02  0.00000000000E+00 0. -1.
         11    1    3    3    0    0  0.18735999757E+01 -0.12747830167E+02  0.41008007568E+01  0.13521616692E+02  0.51100000000E-03 0. -1.
        -11    1    3    3    0    0 -0.83667878160E+01  0.32189107453E+02 -0.13729879100E+02  0.35981263977E+02  0.51100000000E-03 0.  1.
        -12    1    3    3    0    0 -0.77825111130E+01 -0.11169767259E+02  0.18487079710E+02  0.22958730279E+02  0.00000000000E+00 0.  1.
</event>
<event>
 7    1  0.1360399E-013  0.7246157E+02  0.7816164E-02  0.1226708E+00
        -11   -1    0    0    0    0  0.00000000000E+00  0.00000000000E+00  0.45593999997E+02  0.45594000000E+02  0.51100000000E-03 0.  1.
         11   -1    0    0    0    0 -0.00000000000E+00 -0.00000000000E+00 -0.45593999997E+02  0.45594000000E+02  0.51100000000E-03 0. -1.
    9900012    2    1    2    0    0 -0.47914287799E+01  0.88756879555E+00  0.18081303824E+02  0.72461571721E+02  0.70000001858E+02 0.  0.
         12    1    1    2    0    0  0.47914287799E+01 -0.88756879555E+00 -0.18081303824E+02  0.18726428279E+02  0.00000000000E+00 0. -1.
         11    1    3    3    0    0 -0.15331139363E+02  0.37277312836E+01 -0.77440001013E+01  0.17575817264E+02  0.51100000000E-03 0. -1.
        -11    1    3    3    0    0  0.29152787412E+02  0.18684562869E+01  0.14842590230E+02  0.32767035688E+02  0.51100000000E-03 0.  1.
        -12    1    3    3    0    0 -0.18613076829E+02 -0.47086187749E+01  0.10982713696E+02  0.22118718768E+02  0.00000000000E+00 0.  1.
</event>
<event>
 7    1  0.1360399E-013  0.7246141E+02  0.7816164E-02  0.1226708E+00
        -11   -1    0    0    0    0  0.00000000000E+00  0.00000000000E+00  0.45593999997E+02  0.45594000000E+02  0.51100000000E-03 0.  1.
         11   -1    0    0    0    0 -0.00000000000E+00 -0.00000000000E+00 -0.45593999997E+02  0.45594000000E+02  0.51100000000E-03 0. -1.
    9900012    2    1    2    0    0  0.98545592916E+01 -0.10427284269E+02  0.12035145394E+02  0.72461406056E+02  0.69999786049E+02 0.  0.
         12    1    1    2    0    0 -0.98545592916E+01  0.10427284269E+02 -0.12035145394E+02  0.18726593944E+02  0.00000000000E+00 0. -1.
         11    1    3    3    0    0 -0.29022308082E+00  0.26468241691E+02 -0.93494406255E+01  0.28072479191E+02  0.51100000000E-03 0. -1.
        -11    1    3    3    0    0  0.51182498863E+01 -0.19705339739E+02  0.73871119223E+01  0.21657938936E+02  0.51100000000E-03 0.  1.
         12    1    3    3    0    0  0.50265324860E+01 -0.17190186221E+02  0.13997474097E+02  0.22730987930E+02  0.00000000000E+00 0. -1.
</event>
<event>
 7    1  0.1360399E-013  0.7246154E+02  0.7816164E-02  0.1226708E+00
        -11   -1    0    0    0    0  0.00000000000E+00  0.00000000000E+00  0.45593999997E+02  0.45594000000E+02  0.51100000000E-03 0.  1.
         11   -1    0    0    0    0 -0.00000000000E+00 -0.00000000000E+00 -0.45593999997E+02  0.45594000000E+02  0.51100000000E-03 0. -1.
    9900012    2    1    2    0    0  0.40790539216E+01 -0.18163529024E+02 -0.20316735340E+01  0.72461543719E+02  0.69999965380E+02 0.  0.
         12    1    1    2    0    0 -0.40790539216E+01  0.18163529024E+02  0.20316735340E+01  0.18726456281E+02  0.00000000000E+00 0. -1.
         11    1    3    3    0    0 -0.69636172605E+01  0.83278917095E+01 -0.22314795372E+02  0.24815233999E+02  0.51100000000E-03 0. -1.
        -11    1    3    3    0    0 -0.54534688925E+01 -0.19097127649E+02  0.21818060752E+02  0.29503701168E+02  0.51100000000E-03 0.  1.
        -12    1    3    3    0    0  0.16496140075E+02 -0.73942930845E+01 -0.15349389139E+01  0.18142608551E+02  0.00000000000E+00 0.  1.
</event>
<event>
 7    1  0.1360399E-013  0.7246176E+02  0.7816164E-02  0.1226708E+00
        -11   -1    0    0    0    0  0.00000000000E+00  0.00000000000E+00  0.45593999997E+02  0.45594000000E+02  0.51100000000E-03 0. -1.
         11   -1    0    0    0    0 -0.00000000000E+00 -0.00000000000E+00 -0.45593999997E+02  0.45594000000E+02  0.51100000000E-03 0.  1.
    9900012    2    1    2    0    0  0.12929190606E+02 -0.14955842920E+01 -0.13463706249E+02  0.72461758304E+02  0.70000244917E+02 0.  0.
         12    1    1    2    0    0 -0.12929190606E+02  0.14955842920E+01  0.13463706249E+02  0.18726241696E+02  0.00000000000E+00 0. -1.
         11    1    3    3    0    0  0.98113627720E+01  0.24329238872E+02  0.15482600037E+02  0.30461214810E+02  0.51100000000E-03 0. -1.
        -11    1    3    3    0    0  0.65603600527E+01 -0.34454419592E+01 -0.44548778977E+01  0.86461165652E+01  0.51100000000E-03 0.  1.
         12    1    3    3    0    0 -0.34425322187E+01 -0.22379381205E+02 -0.24491428389E+02  0.33354426928E+02  0.00000000000E+00 0. -1.
</event>
<event>
 7    1  0.1360399E-013  0.7246121E+02  0.7816164E-02  0.1226709E+00
        -11   -1    0    0    0    0  0.00000000000E+00  0.00000000000E+00  0.45593999997E+02  0.45594000000E+02  0.51100000000E-03 0.  1.
         11   -1    0    0    0    0 -0.00000000000E+00 -0.00000000000E+00 -0.45593999997E+02  0.45594000000E+02  0.51100000000E-03 0. -1.
    9900012    2    1    2    0    0 -0.47321054865E+01 -0.11475894389E+02  0.14021550288E+02  0.72461205110E+02  0.69999524278E+02 0.  0.
         12    1    1    2    0    0  0.47321054865E+01  0.11475894389E+02 -0.14021550288E+02  0.18726794890E+02  0.00000000000E+00 0. -1.
         11    1    3    3    0    0 -0.11710789350E+02 -0.37627406326E+02 -0.24003598540E+01  0.39480704423E+02  0.51100000000E-03 0. -1.
        -11    1    3    3    0    0  0.19369684431E+01  0.14754471393E+02  0.13693960005E+02  0.20223026819E+02  0.51100000000E-03 0.  1.
         12    1    3    3    0    0  0.50417154201E+01  0.11397040544E+02  0.27279501374E+01  0.12757473868E+02  0.00000000000E+00 0. -1.
</event>
<event>
 7    1  0.1415282E-013  0.7246199E+02  0.7816164E-02  0.1226707E+00
        -11   -1    0    0    0    0  0.00000000000E+00  0.00000000000E+00  0.45593999997E+02  0.45594000000E+02  0.51100000000E-03 0. -1.
         11   -1    0    0    0    0 -0.00000000000E+00 -0.00000000000E+00 -0.45593999997E+02  0.45594000000E+02  0.51100000000E-03 0.  1.
    9900012    2    1    2    0    0  0.64388595309E+01 -0.13244236066E+02 -0.11566967644E+02  0.72461990240E+02  0.70000547056E+02 0.  0.
         12    1    1    2    0    0 -0.64388595309E+01  0.13244236066E+02  0.11566967644E+02  0.18726009760E+02  0.00000000000E+00 0. -1.
         11    1    3    3    0    0 -0.19576323171E+02  0.56816608534E+01  0.63114204874E+01  0.21338878316E+02  0.51100000000E-03 0.  1.
        -11    1    3    3    0    0  0.14344089116E+02  0.21008552388E+01 -0.22371769892E+02  0.26658255263E+02  0.51100000000E-03 0. -1.
         12    1    3    3    0    0  0.11671093586E+02 -0.21026752158E+02  0.44933817602E+01  0.24464856661E+02  0.00000000000E+00 0. -1.
</event>
<event>
 7    1  0.1360399E-013  0.7246153E+02  0.7816164E-02  0.1226708E+00
        -11   -1    0    0    0    0  0.00000000000E+00  0.00000000000E+00  0.45593999997E+02  0.45594000000E+02  0.51100000000E-03 0.  1.
         11   -1    0    0    0    0 -0.00000000000E+00 -0.00000000000E+00 -0.45593999997E+02  0.45594000000E+02  0.51100000000E-03 0. -1.
    9900012    2    1    2    0    0  0.13394765449E+02  0.36043639450E+01  0.12580516207E+02  0.72461532930E+02  0.69999951326E+02 0.  0.
         12    1    1    2    0    0 -0.13394765449E+02 -0.36043639450E+01 -0.12580516207E+02  0.18726467070E+02  0.00000000000E+00 0. -1.
         11    1    3    3    0    0 -0.91722222739E+01  0.12934553351E+02 -0.15275679121E+02  0.22017690721E+02  0.51100000000E-03 0. -1.
        -11    1    3    3    0    0  0.20195223814E+02  0.28133247184E+01  0.31519599181E+02  0.37539938647E+02  0.51100000000E-03 0.  1.
         12    1    3    3    0    0  0.23717639092E+01 -0.12143514125E+02 -0.36634038534E+01  0.12903903562E+02  0.00000000000E+00 0. -1.
</event>
<event>
 8    1  0.1360399E-013  0.7246158E+02  0.7816164E-02  0.1226708E+00
        -11   -1    0    0    0    0  0.00000000000E+00  0.00000000000E+00  0.45593999997E+02  0.45594000000E+02  0.51100000000E-03 0.  1.
         11   -1    0    0    0    0 -0.00000000000E+00 -0.00000000000E+00 -0.45593999997E+02  0.45594000000E+02  0.51100000000E-03 0. -1.
    9900012    2    1    2    0    0  0.51890329135E+01 -0.65262562713E+01  0.16767848708E+02  0.72461579258E+02  0.70000011677E+02 0.  0.
        -24    2    3    3    0    0  0.10733340763E+02 -0.16459605559E+02  0.84071390516E+01  0.58343780427E+02  0.54288060459E+02 0.  0.
         12    1    1    2    0    0 -0.51890329135E+01  0.65262562713E+01 -0.16767848708E+02  0.18726420742E+02  0.00000000000E+00 0. -1.
         11    1    4    4    0    0 -0.17079609708E+02 -0.23490740095E+02  0.45462846277E+01  0.29397221674E+02  0.51100000000E-03 0. -1.
        -11    1    3    3    0    0 -0.55443078497E+01  0.99333492877E+01  0.83607096566E+01  0.14117798831E+02  0.51100000000E-03 0.  1.
        -12    1    4    4    0    0  0.27812950471E+02  0.70311345362E+01  0.38608544239E+01  0.28946558753E+02  0.00000000000E+00 0.  1.
</event>
<event>
 7    1  0.1360399E-013  0.7246156E+02  0.7816164E-02  0.1226708E+00
        -11   -1    0    0    0    0  0.00000000000E+00  0.00000000000E+00  0.45593999997E+02  0.45594000000E+02  0.51100000000E-03 0.  1.
         11   -1    0    0    0    0 -0.00000000000E+00 -0.00000000000E+00 -0.45593999997E+02  0.45594000000E+02  0.51100000000E-03 0. -1.
    9900012    2    1    2    0    0 -0.12742132847E+02 -0.74773383669E+01  0.11506819345E+02  0.72461563340E+02  0.69999990941E+02 0.  0.
         12    1    1    2    0    0  0.12742132847E+02  0.74773383669E+01 -0.11506819345E+02  0.18726436660E+02  0.00000000000E+00 0. -1.
         11    1    3    3    0    0  0.83908079754E+01 -0.17702865490E+00  0.27750704003E+01  0.88395708953E+01  0.51100000000E-03 0. -1.
        -11    1    3    3    0    0 -0.36658002993E+02 -0.17153136283E+02  0.16439706517E+02  0.43684130052E+02  0.51100000000E-03 0.  1.
        -12    1    3    3    0    0  0.15525062171E+02  0.98528265711E+01 -0.77079575719E+01  0.19937862393E+02  0.00000000000E+00 0.  1.
</event>
<event>
 7    1  0.1360399E-013  0.7246197E+02  0.7816164E-02  0.1226707E+00
        -11   -1    0    0    0    0  0.00000000000E+00  0.00000000000E+00  0.45593999997E+02  0.45594000000E+02  0.51100000000E-03 0. -1.
         11   -1    0    0    0    0 -0.00000000000E+00 -0.00000000000E+00 -0.45593999997E+02  0.45594000000E+02  0.51100000000E-03 0.  1.
    9900012    2    1    2    0    0  0.82999545288E+01 -0.71467568217E+01 -0.15188768308E+02  0.72461973701E+02  0.70000525510E+02 0.  0.
         12    1    1    2    0    0 -0.82999545288E+01  0.71467568217E+01  0.15188768308E+02  0.18726026299E+02  0.00000000000E+00 0. -1.
         11    1    3    3    0    0  0.17819441202E+02 -0.18013609223E+02  0.30484678148E+01  0.25520888665E+02  0.51100000000E-03 0. -1.
        -11    1    3    3    0    0 -0.20277008849E+02 -0.70049229900E+01 -0.14109634487E+02  0.25676990080E+02  0.51100000000E-03 0.  1.
         12    1    3    3    0    0  0.10757522176E+02  0.17871775392E+02 -0.41276016348E+01  0.21264094956E+02  0.00000000000E+00 0. -1.
</event>
<event>
 7    1  0.1360399E-013  0.7246157E+02  0.7816164E-02  0.1226708E+00
        -11   -1    0    0    0    0  0.00000000000E+00  0.00000000000E+00  0.45593999997E+02  0.45594000000E+02  0.51100000000E-03 0.  1.
         11   -1    0    0    0    0 -0.00000000000E+00 -0.00000000000E+00 -0.45593999997E+02  0.45594000000E+02  0.51100000000E-03 0. -1.
    9900012    2    1    2    0    0  0.12533011466E+02 -0.13195910518E+02  0.44125752617E+01  0.72461568112E+02  0.69999997157E+02 0.  0.
         12    1    1    2    0    0 -0.12533011466E+02  0.13195910518E+02 -0.44125752617E+01  0.18726431888E+02  0.00000000000E+00 0. -1.
         11    1    3    3    0    0  0.13512235679E+02 -0.28822431174E+02  0.11742460495E+02  0.33929315209E+02  0.51100000000E-03 0. -1.
        -11    1    3    3    0    0  0.14503720710E+02  0.13834080014E+02 -0.10499383974E+02  0.22626903199E+02  0.51100000000E-03 0.  1.
        -12    1    3    3    0    0 -0.15482944923E+02  0.17924406410E+01  0.31694987406E+01  0.15905349704E+02  0.00000000000E+00 0.  1.
</event>
<event>
 7    1  0.1360399E-013  0.7246162E+02  0.7816164E-02  0.1226708E+00
        -11   -1    0    0    0    0  0.00000000000E+00  0.00000000000E+00  0.45593999997E+02  0.45594000000E+02  0.51100000000E-03 0.  1.
         11   -1    0    0    0    0 -0.00000000000E+00 -0.00000000000E+00 -0.45593999997E+02  0.45594000000E+02  0.51100000000E-03 0. -1.
    9900012    2    1    2    0    0  0.18642109072E+02 -0.15196124749E+01 -0.91635406719E+00  0.72461624016E+02  0.70000069983E+02 0.  0.
         12    1    1    2    0    0 -0.18642109072E+02  0.15196124749E+01  0.91635406719E+00  0.18726375984E+02  0.00000000000E+00 0. -1.
         11    1    3    3    0    0  0.10425247253E+01 -0.12923981118E-01 -0.19382900215E+02  0.19410920788E+02  0.51100000000E-03 0. -1.
        -11    1    3    3    0    0  0.27131887094E+02 -0.16436993506E+02  0.14594378639E+02  0.34918618829E+02  0.51100000000E-03 0.  1.
        -12    1    3    3    0    0 -0.95323027477E+01  0.14930305012E+02  0.38721675082E+01  0.18132084399E+02  0.00000000000E+00 0.  1.
</event>
<event>
 7    1  0.1360399E-013  0.7246157E+02  0.7816164E-02  0.1226708E+00
        -11   -1    0    0    0    0  0.00000000000E+00  0.00000000000E+00  0.45593999997E+02  0.45594000000E+02  0.51100000000E-03 0.  1.
         11   -1    0    0    0    0 -0.00000000000E+00 -0.00000000000E+00 -0.45593999997E+02  0.45594000000E+02  0.51100000000E-03 0. -1.
    9900012    2    1    2    0    0  0.41419456285E+01  0.17514669985E+02 -0.51729739042E+01  0.72461573825E+02  0.70000004599E+02 0.  0.
         12    1    1    2    0    0 -0.41419456285E+01 -0.17514669985E+02  0.51729739042E+01  0.18726426175E+02  0.00000000000E+00 0. -1.
         11    1    3    3    0    0 -0.14224556767E+02 -0.91681094204E+01 -0.79043897091E+01  0.18678105431E+02  0.51100000000E-03 0. -1.
        -11    1    3    3    0    0  0.30649564463E+02  0.27281788262E+02 -0.61934663802E+00  0.41037487290E+02  0.51100000000E-03 0.  1.
        -12    1    3    3    0    0 -0.12283062067E+02 -0.59900885624E+00  0.33507624429E+01  0.12745981104E+02  0.00000000000E+00 0.  1.
</event>
<event>
 7    1  0.1360399E-013  0.7246158E+02  0.7816164E-02  0.1226708E+00
        -11   -1    0    0    0    0  0.00000000000E+00  0.00000000000E+00  0.45593999997E+02  0.45594000000E+02  0.51100000000E-03 0. -1.
         11   -1    0    0    0    0 -0.00000000000E+00 -0.00000000000E+00 -0.45593999997E+02  0.45594000000E+02  0.51100000000E-03 0.  1.
    9900012    2    1    2    0    0  0.29340168653E+00 -0.44312000857E+01 -0.18192227311E+02  0.72461581408E+02  0.70000014478E+02 0.  0.
         12    1    1    2    0    0 -0.29340168653E+00  0.44312000857E+01  0.18192227311E+02  0.18726418592E+02  0.00000000000E+00 0. -1.
         11    1    3    3    0    0  0.18170280653E+02  0.11805552241E+02  0.74829550451E+01  0.22924327235E+02  0.51100000000E-03 0. -1.
        -11    1    3    3    0    0 -0.79440296914E+01 -0.25978155360E+02 -0.22484410139E+02  0.35263591184E+02  0.51100000000E-03 0.  1.
        -12    1    3    3    0    0 -0.99328492746E+01  0.97414030337E+01 -0.31907722175E+01  0.14273662989E+02  0.00000000000E+00 0.  1.
</event>
<event>
 7    1  0.1360399E-013  0.7246158E+02  0.7816164E-02  0.1226708E+00
        -11   -1    0    0    0    0  0.00000000000E+00  0.00000000000E+00  0.45593999997E+02  0.45594000000E+02  0.51100000000E-03 0. -1.
         11   -1    0    0    0    0 -0.00000000000E+00 -0.00000000000E+00 -0.45593999997E+02  0.45594000000E+02  0.51100000000E-03 0.  1.
    9900012    2    1    2    0    0 -0.16179552565E+02 -0.61848404988E+01 -0.71167753905E+01  0.72461583761E+02  0.70000017543E+02 0.  0.
         12    1    1    2    0    0  0.16179552565E+02  0.61848404988E+01  0.71167753905E+01  0.18726416239E+02  0.00000000000E+00 0. -1.
         11    1    3    3    0    0  0.14841154013E+02  0.76811945725E+00 -0.18979170150E+02  0.24105160439E+02  0.51100000000E-03 0. -1.
        -11    1    3    3    0    0 -0.31932736200E+02  0.23729844215E+01 -0.14769079254E+01  0.32054827305E+02  0.51100000000E-03 0.  1.
         12    1    3    3    0    0  0.91202962136E+00 -0.93259443776E+01  0.13339302685E+02  0.16301596017E+02  0.00000000000E+00 0. -1.
</event>
<event>
 7    1  0.1360399E-013  0.7246154E+02  0.7816164E-02  0.1226708E+00
        -11   -1    0    0    0    0  0.00000000000E+00  0.00000000000E+00  0.45593999997E+02  0.45594000000E+02  0.51100000000E-03 0. -1.
         11   -1    0    0    0    0 -0.00000000000E+00 -0.00000000000E+00 -0.45593999997E+02  0.45594000000E+02  0.51100000000E-03 0.  1.
    9900012    2    1    2    0    0 -0.99629651638E+01  0.46009359225E+01 -0.15174021200E+02  0.72461542631E+02  0.69999963964E+02 0.  0.
         12    1    1    2    0    0  0.99629651638E+01 -0.46009359225E+01  0.15174021200E+02  0.18726457369E+02  0.00000000000E+00 0. -1.
         11    1    3    3    0    0  0.10357154254E+02 -0.10633550563E+02  0.53358199732E+01  0.15773839636E+02  0.51100000000E-03 0.  1.
        -11    1    3    3    0    0 -0.35455249808E+02  0.10193136317E+02 -0.14608380626E+02  0.39678451982E+02  0.51100000000E-03 0. -1.
         12    1    3    3    0    0  0.15135130390E+02  0.50413501688E+01 -0.59014605468E+01  0.17009251013E+02  0.00000000000E+00 0. -1.
</event>
<event>
 7    1  0.1360399E-013  0.7246159E+02  0.7816164E-02  0.1226708E+00
        -11   -1    0    0    0    0  0.00000000000E+00  0.00000000000E+00  0.45593999997E+02  0.45594000000E+02  0.51100000000E-03 0. -1.
         11   -1    0    0    0    0 -0.00000000000E+00 -0.00000000000E+00 -0.45593999997E+02  0.45594000000E+02  0.51100000000E-03 0.  1.
    9900012    2    1    2    0    0 -0.14233228149E+02 -0.96587863693E+01  0.74028015618E+01  0.72461590611E+02  0.70000026466E+02 0.  0.
         12    1    1    2    0    0  0.14233228149E+02  0.96587863693E+01 -0.74028015618E+01  0.18726409389E+02  0.00000000000E+00 0. -1.
         11    1    3    3    0    0 -0.26334236009E+02  0.88328235039E+01  0.16655650741E+02  0.32387056969E+02  0.51100000000E-03 0. -1.
        -11    1    3    3    0    0  0.16541956003E+02 -0.37134414869E+01 -0.15927523622E+02  0.23261813452E+02  0.51100000000E-03 0.  1.
        -12    1    3    3    0    0 -0.44409481432E+01 -0.14778168386E+02  0.66746744428E+01  0.16812720190E+02  0.00000000000E+00 0.  1.
</event>
<event>
 7    1  0.1360399E-013  0.7246157E+02  0.7816164E-02  0.1226708E+00
        -11   -1    0    0    0    0  0.00000000000E+00  0.00000000000E+00  0.45593999997E+02  0.45594000000E+02  0.51100000000E-03 0. -1.
         11   -1    0    0    0    0 -0.00000000000E+00 -0.00000000000E+00 -0.45593999997E+02  0.45594000000E+02  0.51100000000E-03 0.  1.
    9900012    2    1    2    0    0  0.18381677858E+02 -0.18972624084E+01 -0.30320574642E+01  0.72461573272E+02  0.70000003879E+02 0.  0.
         12    1    1    2    0    0 -0.18381677858E+02  0.18972624084E+01  0.30320574642E+01  0.18726426728E+02  0.00000000000E+00 0. -1.
         11    1    3    3    0    0 -0.13020366605E+02 -0.25350901113E+01  0.11401149844E+02  0.17491221982E+02  0.51100000000E-03 0. -1.
        -11    1    3    3    0    0  0.30926431543E+02  0.17551411287E+02 -0.59908978810E+01  0.36060879965E+02  0.51100000000E-03 0.  1.
        -12    1    3    3    0    0  0.47561292002E+00 -0.16913583584E+02 -0.84423094273E+01  0.18909471325E+02  0.00000000000E+00 0.  1.
</event>
<event>
 7    1  0.1360399E-013  0.7246161E+02  0.7816164E-02  0.1226708E+00
        -11   -1    0    0    0    0  0.00000000000E+00  0.00000000000E+00  0.45593999997E+02  0.45594000000E+02  0.51100000000E-03 0. -1.
         11   -1    0    0    0    0 -0.00000000000E+00 -0.00000000000E+00 -0.45593999997E+02  0.45594000000E+02  0.51100000000E-03 0.  1.
    9900012    2    1    2    0    0  0.18087589328E+02  0.10454122283E+01 -0.47353946201E+01  0.72461608553E+02  0.70000049839E+02 0.  0.
         12    1    1    2    0    0 -0.18087589328E+02 -0.10454122283E+01  0.47353946201E+01  0.18726391447E+02  0.00000000000E+00 0. -1.
         11    1    3    3    0    0  0.13990787982E+01  0.44384817967E+01  0.15521900505E+02  0.16204534479E+02  0.51100000000E-03 0. -1.
        -11    1    3    3    0    0  0.60840567253E+01  0.20052758394E+02 -0.22103967473E+02  0.30458401858E+02  0.51100000000E-03 0.  1.
        -12    1    3    3    0    0  0.10604453804E+02 -0.23445827962E+02  0.18466723478E+01  0.25798672216E+02  0.00000000000E+00 0.  1.
</event>
<event>
 7    1  0.1360399E-013  0.7246150E+02  0.7816164E-02  0.1226708E+00
        -11   -1    0    0    0    0  0.00000000000E+00  0.00000000000E+00  0.45593999997E+02  0.45594000000E+02  0.51100000000E-03 0. -1.
         11   -1    0    0    0    0 -0.00000000000E+00 -0.00000000000E+00 -0.45593999997E+02  0.45594000000E+02  0.51100000000E-03 0.  1.
    9900012    2    1    2    0    0  0.18439742094E+02  0.31301640909E+01 -0.92722379778E+00  0.72461501136E+02  0.69999909908E+02 0.  0.
         12    1    1    2    0    0 -0.18439742094E+02 -0.31301640909E+01  0.92722379778E+00  0.18726498864E+02  0.00000000000E+00 0. -1.
         11    1    3    3    0    0  0.30954559956E+01  0.21976662017E+02 -0.15489314750E+02  0.27064264130E+02  0.51100000000E-03 0. -1.
        -11    1    3    3    0    0  0.26099844362E+02 -0.11118396259E+02  0.15108922442E+02  0.32141875313E+02  0.51100000000E-03 0.  1.
         12    1    3    3    0    0 -0.10755558263E+02 -0.77281016670E+01 -0.54683148975E+00  0.13255361692E+02  0.00000000000E+00 0. -1.
</event>
<event>
 8    1  0.1360399E-013  0.7246150E+02  0.7816164E-02  0.1226708E+00
        -11   -1    0    0    0    0  0.00000000000E+00  0.00000000000E+00  0.45593999997E+02  0.45594000000E+02  0.51100000000E-03 0.  1.
         11   -1    0    0    0    0 -0.00000000000E+00 -0.00000000000E+00 -0.45593999997E+02  0.45594000000E+02  0.51100000000E-03 0. -1.
    9900012    2    1    2    0    0 -0.16478861944E+02  0.76083684761E+01  0.46088829988E+01  0.72461495672E+02  0.69999902791E+02 0.  0.
         24    2    3    3    0    0 -0.32809209225E+01 -0.43974225548E+01 -0.29377567758E+00  0.53958503270E+02  0.53678040237E+02 0.  0.
         12    1    1    2    0    0  0.16478861944E+02 -0.76083684761E+01 -0.46088829988E+01  0.18726504328E+02  0.00000000000E+00 0. -1.
         11    1    3    3    0    0 -0.13197941022E+02  0.12005791031E+02  0.49026586763E+01  0.18502992403E+02  0.51100000000E-03 0. -1.
        -11    1    4    4    0    0  0.37159513548E+01 -0.24423986914E+02  0.13983337974E+02  0.28387905390E+02  0.51100000000E-03 0.  1.
         12    1    4    4    0    0 -0.69968722774E+01  0.20026564359E+02 -0.14277113652E+02  0.25570597880E+02  0.00000000000E+00 0. -1.
</event>
<event>
 7    1  0.1360399E-013  0.7246163E+02  0.7816164E-02  0.1226708E+00
        -11   -1    0    0    0    0  0.00000000000E+00  0.00000000000E+00  0.45593999997E+02  0.45594000000E+02  0.51100000000E-03 0.  1.
         11   -1    0    0    0    0 -0.00000000000E+00 -0.00000000000E+00 -0.45593999997E+02  0.45594000000E+02  0.51100000000E-03 0. -1.
    9900012    2    1    2    0    0 -0.18284759932E+01 -0.13291205393E+02  0.13064356511E+02  0.72461631524E+02  0.70000079762E+02 0.  0.
         12    1    1    2    0    0  0.18284759932E+01  0.13291205393E+02 -0.13064356511E+02  0.18726368476E+02  0.00000000000E+00 0. -1.
         11    1    3    3    0    0 -0.17180918937E+02  0.20840287103E+02  0.14455003469E+02  0.30634109545E+02  0.51100000000E-03 0. -1.
        -11    1    3    3    0    0  0.19455483796E+02 -0.27487436436E+02 -0.31496221430E+01  0.33822997080E+02  0.51100000000E-03 0.  1.
        -12    1    3    3    0    0 -0.41030408521E+01 -0.66440560600E+01  0.17589751849E+01  0.80045248993E+01  0.00000000000E+00 0.  1.
</event>
<event>
 7    1  0.1360399E-013  0.7246164E+02  0.7816164E-02  0.1226708E+00
        -11   -1    0    0    0    0  0.00000000000E+00  0.00000000000E+00  0.45593999997E+02  0.45594000000E+02  0.51100000000E-03 0.  1.
         11   -1    0    0    0    0 -0.00000000000E+00 -0.00000000000E+00 -0.45593999997E+02  0.45594000000E+02  0.51100000000E-03 0. -1.
    9900012    2    1    2    0    0  0.10086352171E+02 -0.31788037132E+01  0.15454365158E+02  0.72461636349E+02  0.70000086048E+02 0.  0.
         12    1    1    2    0    0 -0.10086352171E+02  0.31788037132E+01 -0.15454365158E+02  0.18726363651E+02  0.00000000000E+00 0. -1.
         11    1    3    3    0    0 -0.97320870123E+01  0.23090932615E+02  0.53516215279E+01  0.25623125100E+02  0.51100000000E-03 0. -1.
        -11    1    3    3    0    0  0.11665412520E+02 -0.26070610311E+02 -0.56360211698E+01  0.29112253539E+02  0.51100000000E-03 0.  1.
        -12    1    3    3    0    0  0.81530266637E+01 -0.19912601783E+00  0.15738764800E+02  0.17726257709E+02  0.00000000000E+00 0.  1.
</event>
<event>
 7    1  0.1360399E-013  0.7246155E+02  0.7816164E-02  0.1226708E+00
        -11   -1    0    0    0    0  0.00000000000E+00  0.00000000000E+00  0.45593999997E+02  0.45594000000E+02  0.51100000000E-03 0.  1.
         11   -1    0    0    0    0 -0.00000000000E+00 -0.00000000000E+00 -0.45593999997E+02  0.45594000000E+02  0.51100000000E-03 0. -1.
    9900012    2    1    2    0    0  0.10412329662E+02 -0.15339273130E+02  0.26400913737E+01  0.72461548345E+02  0.69999971406E+02 0.  0.
         12    1    1    2    0    0 -0.10412329662E+02  0.15339273130E+02 -0.26400913737E+01  0.18726451655E+02  0.00000000000E+00 0. -1.
         11    1    3    3    0    0  0.16329376782E+02 -0.33556191273E+02 -0.65323223244E+01  0.37885851634E+02  0.51100000000E-03 0. -1.
        -11    1    3    3    0    0 -0.39144802412E+01  0.25418937067E+02  0.84240676931E+01  0.27063082491E+02  0.51100000000E-03 0.  1.
        -12    1    3    3    0    0 -0.20025668783E+01 -0.72020189232E+01  0.74834600503E+00  0.75126142198E+01  0.00000000000E+00 0.  1.
</event>
<event>
 7    1  0.1360399E-013  0.7246160E+02  0.7816164E-02  0.1226708E+00
        -11   -1    0    0    0    0  0.00000000000E+00  0.00000000000E+00  0.45593999997E+02  0.45594000000E+02  0.51100000000E-03 0.  1.
         11   -1    0    0    0    0 -0.00000000000E+00 -0.00000000000E+00 -0.45593999997E+02  0.45594000000E+02  0.51100000000E-03 0. -1.
    9900012    2    1    2    0    0  0.13910246782E+02  0.11411394518E+02  0.51926202646E+01  0.72461596298E+02  0.70000033875E+02 0.  0.
         12    1    1    2    0    0 -0.13910246782E+02 -0.11411394518E+02 -0.51926202646E+01  0.18726403702E+02  0.00000000000E+00 0. -1.
         11    1    3    3    0    0 -0.66369677267E+01 -0.74415228696E+01 -0.17220601891E+02  0.19899113874E+02  0.51100000000E-03 0. -1.
        -11    1    3    3    0    0  0.24715428334E+02  0.28084715622E+02  0.17362154438E+02  0.41243763848E+02  0.51100000000E-03 0.  1.
        -12    1    3    3    0    0 -0.41682138254E+01 -0.92317982339E+01  0.50510677173E+01  0.11318718576E+02  0.00000000000E+00 0.  1.
</event>
<event>
 7    1  0.1360399E-013  0.7246137E+02  0.7816164E-02  0.1226709E+00
        -11   -1    0    0    0    0  0.00000000000E+00  0.00000000000E+00  0.45593999997E+02  0.45594000000E+02  0.51100000000E-03 0. -1.
         11   -1    0    0    0    0 -0.00000000000E+00 -0.00000000000E+00 -0.45593999997E+02  0.45594000000E+02  0.51100000000E-03 0.  1.
    9900012    2    1    2    0    0  0.47102368815E+01 -0.21716170945E+01 -0.17994015440E+02  0.72461365387E+02  0.69999733069E+02 0.  0.
         12    1    1    2    0    0 -0.47102368815E+01  0.21716170945E+01  0.17994015440E+02  0.18726634613E+02  0.00000000000E+00 0. -1.
         11    1    3    3    0    0  0.10096307236E+02  0.16392918821E+02  0.14605738086E+02  0.24165901443E+02  0.51100000000E-03 0. -1.
        -11    1    3    3    0    0  0.11283376330E+01 -0.23114369554E+02 -0.33038713316E+02  0.40337374772E+02  0.51100000000E-03 0.  1.
         12    1    3    3    0    0 -0.65144079873E+01  0.45498336383E+01  0.43895979025E+00  0.79580891714E+01  0.00000000000E+00 0. -1.
</event>
<event>
 7    1  0.1360399E-013  0.7246158E+02  0.7816164E-02  0.1226708E+00
        -11   -1    0    0    0    0  0.00000000000E+00  0.00000000000E+00  0.45593999997E+02  0.45594000000E+02  0.51100000000E-03 0. -1.
         11   -1    0    0    0    0 -0.00000000000E+00 -0.00000000000E+00 -0.45593999997E+02  0.45594000000E+02  0.51100000000E-03 0.  1.
    9900012    2    1    2    0    0 -0.62030082228E+01  0.12976734195E+02 -0.11991903911E+02  0.72461582809E+02  0.70000016303E+02 0.  0.
         12    1    1    2    0    0  0.62030082228E+01 -0.12976734195E+02  0.11991903911E+02  0.18726417191E+02  0.00000000000E+00 0. -1.
         11    1    3    3    0    0  0.19860185965E+02 -0.78697869170E+01  0.66754409384E+01  0.22381287824E+02  0.51100000000E-03 0. -1.
        -11    1    3    3    0    0 -0.30297409432E+01  0.19289205544E+01 -0.19926310594E+02  0.20247417584E+02  0.51100000000E-03 0.  1.
         12    1    3    3    0    0 -0.23033453245E+02  0.18917600558E+02  0.12589657445E+01  0.29832877400E+02  0.00000000000E+00 0. -1.
</event>
<event>
 7    1  0.1360399E-013  0.7246159E+02  0.7816164E-02  0.1226708E+00
        -11   -1    0    0    0    0  0.00000000000E+00  0.00000000000E+00  0.45593999997E+02  0.45594000000E+02  0.51100000000E-03 0. -1.
         11   -1    0    0    0    0 -0.00000000000E+00 -0.00000000000E+00 -0.45593999997E+02  0.45594000000E+02  0.51100000000E-03 0.  1.
    9900012    2    1    2    0    0 -0.68318391192E+00  0.98691894617E+01 -0.15900020477E+02  0.72461593723E+02  0.70000030520E+02 0.  0.
         12    1    1    2    0    0  0.68318391192E+00 -0.98691894617E+01  0.15900020477E+02  0.18726406277E+02  0.00000000000E+00 0. -1.
         11    1    3    3    0    0 -0.70446266907E+01  0.28627430303E+01  0.24740343339E+02  0.25882554968E+02  0.51100000000E-03 0. -1.
        -11    1    3    3    0    0 -0.68663734200E+01 -0.14672872642E+01 -0.13646023306E+02  0.15346464355E+02  0.51100000000E-03 0.  1.
         12    1    3    3    0    0  0.13227816199E+02  0.84737336956E+01 -0.26994340510E+02  0.31232574400E+02  0.00000000000E+00 0. -1.
</event>
<event>
 7    1  0.1360399E-013  0.7246156E+02  0.7816164E-02  0.1226708E+00
        -11   -1    0    0    0    0  0.00000000000E+00  0.00000000000E+00  0.45593999997E+02  0.45594000000E+02  0.51100000000E-03 0. -1.
         11   -1    0    0    0    0 -0.00000000000E+00 -0.00000000000E+00 -0.45593999997E+02  0.45594000000E+02  0.51100000000E-03 0.  1.
    9900012    2    1    2    0    0 -0.35772760739E+01 -0.69931497766E+01 -0.16999363019E+02  0.72461564382E+02  0.69999992299E+02 0.  0.
         12    1    1    2    0    0  0.35772760739E+01  0.69931497766E+01  0.16999363019E+02  0.18726435618E+02  0.00000000000E+00 0. -1.
         11    1    3    3    0    0  0.23565384038E+02  0.17161375213E+02 -0.90191640948E+01  0.30515331315E+02  0.51100000000E-03 0. -1.
        -11    1    3    3    0    0 -0.27018508415E+01  0.84618562226E+00  0.40763601875E+01  0.49631381924E+01  0.51100000000E-03 0.  1.
         12    1    3    3    0    0 -0.24440809270E+02 -0.25000710612E+02 -0.12056559111E+02  0.36983094875E+02  0.00000000000E+00 0. -1.
</event>
<event>
 7    1  0.1360399E-013  0.7246153E+02  0.7816164E-02  0.1226708E+00
        -11   -1    0    0    0    0  0.00000000000E+00  0.00000000000E+00  0.45593999997E+02  0.45594000000E+02  0.51100000000E-03 0. -1.
         11   -1    0    0    0    0 -0.00000000000E+00 -0.00000000000E+00 -0.45593999997E+02  0.45594000000E+02  0.51100000000E-03 0.  1.
    9900012    2    1    2    0    0 -0.41618159573E+00  0.53137695487E+01 -0.17951917033E+02  0.72461529989E+02  0.69999947494E+02 0.  0.
         12    1    1    2    0    0  0.41618159573E+00 -0.53137695487E+01  0.17951917033E+02  0.18726470011E+02  0.00000000000E+00 0. -1.
         11    1    3    3    0    0 -0.25171272584E+02  0.23202455719E+02 -0.21684535789E+02  0.40523647510E+02  0.51100000000E-03 0.  1.
        -11    1    3    3    0    0  0.15413121551E+02 -0.89106509061E+01  0.59936810763E+01  0.18785319497E+02  0.51100000000E-03 0. -1.
        -12    1    3    3    0    0  0.93419694369E+01 -0.89780352640E+01 -0.22610623198E+01  0.13152562981E+02  0.00000000000E+00 0.  1.
</event>
<event>
 7    1  0.1360399E-013  0.7246153E+02  0.7816164E-02  0.1226708E+00
        -11   -1    0    0    0    0  0.00000000000E+00  0.00000000000E+00  0.45593999997E+02  0.45594000000E+02  0.51100000000E-03 0. -1.
         11   -1    0    0    0    0 -0.00000000000E+00 -0.00000000000E+00 -0.45593999997E+02  0.45594000000E+02  0.51100000000E-03 0.  1.
    9900012    2    1    2    0    0 -0.76410285941E+01 -0.81002069935E+01 -0.15055959907E+02  0.72461532099E+02  0.69999950244E+02 0.  0.
         12    1    1    2    0    0  0.76410285941E+01  0.81002069935E+01  0.15055959907E+02  0.18726467901E+02  0.00000000000E+00 0. -1.
         11    1    3    3    0    0 -0.88261938527E+01  0.17976041858E+02 -0.43977020046E+01  0.20503159805E+02  0.51100000000E-03 0. -1.
        -11    1    3    3    0    0 -0.78628907662E+01 -0.32517914011E+02  0.38620134022E+01  0.33677216788E+02  0.51100000000E-03 0.  1.
        -12    1    3    3    0    0  0.90480560248E+01  0.64416651595E+01 -0.14520271305E+02  0.18281155506E+02  0.00000000000E+00 0.  1.
</event>
<event>
 7    1  0.1360399E-013  0.7246157E+02  0.7816164E-02  0.1226708E+00
        -11   -1    0    0    0    0  0.00000000000E+00  0.00000000000E+00  0.45593999997E+02  0.45594000000E+02  0.51100000000E-03 0. -1.
         11   -1    0    0    0    0 -0.00000000000E+00 -0.00000000000E+00 -0.45593999997E+02  0.45594000000E+02  0.51100000000E-03 0.  1.
    9900012    2    1    2    0    0 -0.32254245925E+01 -0.75689149086E+00 -0.18431028967E+02  0.72461572757E+02  0.70000003208E+02 0.  0.
         12    1    1    2    0    0  0.32254245925E+01  0.75689149086E+00  0.18431028967E+02  0.18726427243E+02  0.00000000000E+00 0. -1.
         11    1    3    3    0    0  0.23814846355E+02 -0.19598145731E+02 -0.17733933661E+02  0.35577051963E+02  0.51100000000E-03 0. -1.
        -11    1    3    3    0    0 -0.13988188961E+01  0.89897029217E+01  0.18967106635E+01  0.92934904382E+01  0.51100000000E-03 0.  1.
         12    1    3    3    0    0 -0.25641452051E+02  0.98515513182E+01 -0.25938059687E+01  0.27591030356E+02  0.00000000000E+00 0. -1.
</event>
<event>
 7    1  0.1360399E-013  0.7246169E+02  0.7816164E-02  0.1226708E+00
        -11   -1    0    0    0    0  0.00000000000E+00  0.00000000000E+00  0.45593999997E+02  0.45594000000E+02  0.51100000000E-03 0. -1.
         11   -1    0    0    0    0 -0.00000000000E+00 -0.00000000000E+00 -0.45593999997E+02  0.45594000000E+02  0.51100000000E-03 0.  1.
    9900012    2    1    2    0    0 -0.18920059310E+01 -0.15583870531E+02 -0.10209693404E+02  0.72461693729E+02  0.70000160796E+02 0.  0.
         12    1    1    2    0    0  0.18920059310E+01  0.15583870531E+02  0.10209693404E+02  0.18726306271E+02  0.00000000000E+00 0. -1.
         11    1    3    3    0    0 -0.21740109754E+02 -0.20032312119E+02  0.97376986183E+01  0.31124727719E+02  0.51100000000E-03 0. -1.
        -11    1    3    3    0    0  0.15225000866E+01 -0.34434932579E+00 -0.22206008731E+02  0.22260804276E+02  0.51100000000E-03 0.  1.
         12    1    3    3    0    0  0.18325603736E+02  0.47927909136E+01  0.22586167092E+01  0.19076161734E+02  0.00000000000E+00 0. -1.
</event>
<event>
 7    1  0.1360399E-013  0.7246158E+02  0.7816164E-02  0.1226708E+00
        -11   -1    0    0    0    0  0.00000000000E+00  0.00000000000E+00  0.45593999997E+02  0.45594000000E+02  0.51100000000E-03 0.  1.
         11   -1    0    0    0    0 -0.00000000000E+00 -0.00000000000E+00 -0.45593999997E+02  0.45594000000E+02  0.51100000000E-03 0. -1.
    9900012    2    1    2    0    0 -0.87588843155E+01 -0.16353522816E+02  0.25539988342E+01  0.72461583551E+02  0.70000017270E+02 0.  0.
         12    1    1    2    0    0  0.87588843155E+01  0.16353522816E+02 -0.25539988342E+01  0.18726416449E+02  0.00000000000E+00 0. -1.
         11    1    3    3    0    0 -0.22661752055E+02 -0.26934279179E+02 -0.66245398808E+01  0.35817522667E+02  0.51100000000E-03 0. -1.
        -11    1    3    3    0    0  0.14814797795E+02  0.20790775854E+01  0.18633817366E+02  0.23896023670E+02  0.51100000000E-03 0.  1.
         12    1    3    3    0    0 -0.91193005635E+00  0.85016787773E+01 -0.94552786512E+01  0.12748037215E+02  0.00000000000E+00 0. -1.
</event>
<event>
 7    1  0.1360399E-013  0.7246160E+02  0.7816164E-02  0.1226708E+00
        -11   -1    0    0    0    0  0.00000000000E+00  0.00000000000E+00  0.45593999997E+02  0.45594000000E+02  0.51100000000E-03 0.  1.
         11   -1    0    0    0    0 -0.00000000000E+00 -0.00000000000E+00 -0.45593999997E+02  0.45594000000E+02  0.51100000000E-03 0. -1.
    9900012    2    1    2    0    0 -0.17166586518E+02  0.73815299852E+01 -0.12244903579E+01  0.72461600072E+02  0.70000038791E+02 0.  0.
         12    1    1    2    0    0  0.17166586518E+02 -0.73815299852E+01  0.12244903579E+01  0.18726399928E+02  0.00000000000E+00 0. -1.
         11    1    3    3    0    0 -0.70034248864E+01  0.98215643909E+01  0.29478592526E+02  0.31851193146E+02  0.51100000000E-03 0. -1.
        -11    1    3    3    0    0 -0.34116866021E+01 -0.13333405897E+02 -0.16125184419E+02  0.21200021016E+02  0.51100000000E-03 0.  1.
         12    1    3    3    0    0 -0.67514750298E+01  0.10893371492E+02 -0.14577898465E+02  0.19410385910E+02  0.00000000000E+00 0. -1.
</event>
<event>
 7    1  0.1360399E-013  0.7246158E+02  0.7816164E-02  0.1226708E+00
        -11   -1    0    0    0    0  0.00000000000E+00  0.00000000000E+00  0.45593999997E+02  0.45594000000E+02  0.51100000000E-03 0. -1.
         11   -1    0    0    0    0 -0.00000000000E+00 -0.00000000000E+00 -0.45593999997E+02  0.45594000000E+02  0.51100000000E-03 0.  1.
    9900012    2    1    2    0    0  0.92630039011E+01 -0.10572015385E+02 -0.12373679851E+02  0.72461582733E+02  0.70000016204E+02 0.  0.
         12    1    1    2    0    0 -0.92630039011E+01  0.10572015385E+02  0.12373679851E+02  0.18726417267E+02  0.00000000000E+00 0. -1.
         11    1    3    3    0    0  0.14385127108E+02  0.15883238374E+02  0.28478387492E+01  0.21617569913E+02  0.51100000000E-03 0. -1.
        -11    1    3    3    0    0 -0.15702436324E+02 -0.12625893949E+02 -0.24006006124E+02  0.31341155607E+02  0.51100000000E-03 0.  1.
        -12    1    3    3    0    0  0.10580313117E+02 -0.13829359810E+02  0.87844875236E+01  0.19502857213E+02  0.00000000000E+00 0.  1.
</event>
<event>
 7    1  0.1360399E-013  0.7246208E+02  0.7816164E-02  0.1226707E+00
        -11   -1    0    0    0    0  0.00000000000E+00  0.00000000000E+00  0.45593999997E+02  0.45594000000E+02  0.51100000000E-03 0.  1.
         11   -1    0    0    0    0 -0.00000000000E+00 -0.00000000000E+00 -0.45593999997E+02  0.45594000000E+02  0.51100000000E-03 0. -1.
    9900012    2    1    2    0    0 -0.16092545832E+02 -0.94226279630E+01 -0.17041694014E+01  0.72462078328E+02  0.70000661806E+02 0.  0.
         12    1    1    2    0    0  0.16092545832E+02  0.94226279630E+01  0.17041694014E+01  0.18725921672E+02  0.00000000000E+00 0. -1.
         11    1    3    3    0    0 -0.10860484901E+02 -0.11481786632E+00  0.43960231786E+01  0.11717010518E+02  0.51100000000E-03 0. -1.
        -11    1    3    3    0    0  0.21214608219E+02 -0.22622729082E+01 -0.20699012042E+02  0.29725857100E+02  0.51100000000E-03 0.  1.
        -12    1    3    3    0    0 -0.26446669150E+02 -0.70455371885E+01  0.14598819462E+02  0.31019210710E+02  0.00000000000E+00 0.  1.
</event>
<event>
 7    1  0.1360399E-013  0.7246160E+02  0.7816164E-02  0.1226708E+00
        -11   -1    0    0    0    0  0.00000000000E+00  0.00000000000E+00  0.45593999997E+02  0.45594000000E+02  0.51100000000E-03 0. -1.
         11   -1    0    0    0    0 -0.00000000000E+00 -0.00000000000E+00 -0.45593999997E+02  0.45594000000E+02  0.51100000000E-03 0.  1.
    9900012    2    1    2    0    0 -0.13727920627E+02 -0.74071780634E+01  0.10361279807E+02  0.72461595891E+02  0.70000033345E+02 0.  0.
         12    1    1    2    0    0  0.13727920627E+02  0.74071780634E+01 -0.10361279807E+02  0.18726404109E+02  0.00000000000E+00 0. -1.
         11    1    3    3    0    0 -0.26348028635E+02  0.18007653981E+01  0.94351272426E+01  0.28044304151E+02  0.51100000000E-03 0. -1.
        -11    1    3    3    0    0  0.10354865951E+02 -0.46922573324E+01 -0.19937381682E+02  0.22950810799E+02  0.51100000000E-03 0.  1.
        -12    1    3    3    0    0  0.22652420570E+01 -0.45156861291E+01  0.20863534246E+02  0.21466480942E+02  0.00000000000E+00 0.  1.
</event>
<event>
 7    1  0.1360399E-013  0.7246162E+02  0.7816164E-02  0.1226708E+00
        -11   -1    0    0    0    0  0.00000000000E+00  0.00000000000E+00  0.45593999997E+02  0.45594000000E+02  0.51100000000E-03 0. -1.
         11   -1    0    0    0    0 -0.00000000000E+00 -0.00000000000E+00 -0.45593999997E+02  0.45594000000E+02  0.51100000000E-03 0.  1.
    9900012    2    1    2    0    0 -0.17261895529E+02  0.77348363237E+00 -0.72184466539E+01  0.72461620577E+02  0.70000065503E+02 0.  0.
         12    1    1    2    0    0  0.17261895529E+02 -0.77348363237E+00  0.72184466539E+01  0.18726379423E+02  0.00000000000E+00 0. -1.
         11    1    3    3    0    0 -0.10458334076E+02  0.11657206748E+02 -0.26741597859E+02  0.30990002857E+02  0.51100000000E-03 0.  1.
        -11    1    3    3    0    0  0.12461139707E+02 -0.11989363974E+02  0.92704552765E+01  0.19620555359E+02  0.51100000000E-03 0. -1.
         12    1    3    3    0    0 -0.19264701160E+02  0.11056408589E+01  0.10252695928E+02  0.21851062361E+02  0.00000000000E+00 0. -1.
</event>
<event>
 7    1  0.1360399E-013  0.7246151E+02  0.7816164E-02  0.1226708E+00
        -11   -1    0    0    0    0  0.00000000000E+00  0.00000000000E+00  0.45593999997E+02  0.45594000000E+02  0.51100000000E-03 0.  1.
         11   -1    0    0    0    0 -0.00000000000E+00 -0.00000000000E+00 -0.45593999997E+02  0.45594000000E+02  0.51100000000E-03 0. -1.
    9900012    2    1    2    0    0 -0.63193700669E+00  0.26467490624E+01  0.18527729711E+02  0.72461510921E+02  0.69999922656E+02 0.  0.
         12    1    1    2    0    0  0.63193700669E+00 -0.26467490624E+01 -0.18527729711E+02  0.18726489079E+02  0.00000000000E+00 0. -1.
         11    1    3    3    0    0 -0.90604383284E+01  0.59253011403E+01  0.42821436984E+02  0.44168724251E+02  0.51100000000E-03 0.  1.
        -11    1    3    3    0    0  0.85385883705E+01 -0.63386299477E+01 -0.22101907033E+02  0.24527128159E+02  0.51100000000E-03 0. -1.
        -12    1    3    3    0    0 -0.11008704879E+00  0.30600778698E+01 -0.21918002413E+01  0.37656585115E+01  0.00000000000E+00 0.  1.
</event>
<event>
 7    1  0.1360399E-013  0.7246158E+02  0.7816164E-02  0.1226708E+00
        -11   -1    0    0    0    0  0.00000000000E+00  0.00000000000E+00  0.45593999997E+02  0.45594000000E+02  0.51100000000E-03 0. -1.
         11   -1    0    0    0    0 -0.00000000000E+00 -0.00000000000E+00 -0.45593999997E+02  0.45594000000E+02  0.51100000000E-03 0.  1.
    9900012    2    1    2    0    0 -0.53726070157E+01 -0.16990532026E+02 -0.57563792735E+01  0.72461575167E+02  0.70000006348E+02 0.  0.
         12    1    1    2    0    0  0.53726070157E+01  0.16990532026E+02  0.57563792735E+01  0.18726424833E+02  0.00000000000E+00 0. -1.
         11    1    3    3    0    0  0.19850760826E+02 -0.12951425140E+02  0.27538689404E+01  0.23861599128E+02  0.51100000000E-03 0. -1.
        -11    1    3    3    0    0 -0.22803429974E+02  0.13167349392E+02  0.47313801179E+01  0.26753718745E+02  0.51100000000E-03 0.  1.
        -12    1    3    3    0    0 -0.24199378674E+01 -0.17206456278E+02 -0.13241628332E+02  0.21846257295E+02  0.00000000000E+00 0.  1.
</event>
<event>
 7    1  0.1360399E-013  0.7246154E+02  0.7816164E-02  0.1226708E+00
        -11   -1    0    0    0    0  0.00000000000E+00  0.00000000000E+00  0.45593999997E+02  0.45594000000E+02  0.51100000000E-03 0.  1.
         11   -1    0    0    0    0 -0.00000000000E+00 -0.00000000000E+00 -0.45593999997E+02  0.45594000000E+02  0.51100000000E-03 0. -1.
    9900012    2    1    2    0    0 -0.15310803286E+02  0.87627856892E+01 -0.62827833184E+01  0.72461535397E+02  0.69999954540E+02 0.  0.
         12    1    1    2    0    0  0.15310803286E+02 -0.87627856892E+01  0.62827833184E+01  0.18726464603E+02  0.00000000000E+00 0. -1.
         11    1    3    3    0    0  0.31480525765E+01 -0.18475802896E+02  0.21883512934E+02  0.28812387375E+02  0.51100000000E-03 0.  1.
        -11    1    3    3    0    0 -0.17619137723E+02  0.24581851885E+02 -0.23872177933E+02  0.38530278168E+02  0.51100000000E-03 0. -1.
        -12    1    3    3    0    0 -0.83971813936E+00  0.26567367005E+01 -0.42941183192E+01  0.51188698547E+01  0.00000000000E+00 0.  1.
</event>
<event>
 7    1  0.1360399E-013  0.7246158E+02  0.7816164E-02  0.1226708E+00
        -11   -1    0    0    0    0  0.00000000000E+00  0.00000000000E+00  0.45593999997E+02  0.45594000000E+02  0.51100000000E-03 0. -1.
         11   -1    0    0    0    0 -0.00000000000E+00 -0.00000000000E+00 -0.45593999997E+02  0.45594000000E+02  0.51100000000E-03 0.  1.
    9900012    2    1    2    0    0 -0.23741969075E+01  0.18575126250E+02  0.81093442941E-01  0.72461582769E+02  0.70000016251E+02 0.  0.
         12    1    1    2    0    0  0.23741969075E+01 -0.18575126250E+02 -0.81093442941E-01  0.18726417231E+02  0.00000000000E+00 0. -1.
         11    1    3    3    0    0  0.23410163756E+02 -0.99618394326E+01  0.14568664031E+02  0.29317571247E+02  0.51100000000E-03 0. -1.
        -11    1    3    3    0    0 -0.96589625226E-01  0.36970831343E+01  0.15077712435E+01  0.39938862829E+01  0.51100000000E-03 0.  1.
         12    1    3    3    0    0 -0.25687771038E+02  0.24839882548E+02 -0.15995341832E+02  0.39150125239E+02  0.00000000000E+00 0. -1.
</event>
<event>
 7    1  0.1360399E-013  0.7246154E+02  0.7816164E-02  0.1226708E+00
        -11   -1    0    0    0    0  0.00000000000E+00  0.00000000000E+00  0.45593999997E+02  0.45594000000E+02  0.51100000000E-03 0. -1.
         11   -1    0    0    0    0 -0.00000000000E+00 -0.00000000000E+00 -0.45593999997E+02  0.45594000000E+02  0.51100000000E-03 0.  1.
    9900012    2    1    2    0    0 -0.75230384637E+01 -0.37455914215E+00 -0.17144793061E+02  0.72461539272E+02  0.69999959588E+02 0.  0.
         12    1    1    2    0    0  0.75230384637E+01  0.37455914215E+00  0.17144793061E+02  0.18726460728E+02  0.00000000000E+00 0. -1.
         11    1    3    3    0    0  0.84355666826E+01 -0.24518361969E+01  0.24440935054E+02  0.25971707540E+02  0.51100000000E-03 0. -1.
        -11    1    3    3    0    0 -0.67965080615E+01  0.66490709276E+01 -0.12856182200E+02  0.15990124673E+02  0.51100000000E-03 0.  1.
         12    1    3    3    0    0 -0.91620970848E+01 -0.45717938729E+01 -0.28729545915E+02  0.30499707059E+02  0.00000000000E+00 0. -1.
</event>
<event>
 7    1  0.1360399E-013  0.7246155E+02  0.7816164E-02  0.1226708E+00
        -11   -1    0    0    0    0  0.00000000000E+00  0.00000000000E+00  0.45593999997E+02  0.45594000000E+02  0.51100000000E-03 0. -1.
         11   -1    0    0    0    0 -0.00000000000E+00 -0.00000000000E+00 -0.45593999997E+02  0.45594000000E+02  0.51100000000E-03 0.  1.
    9900012    2    1    2    0    0 -0.85126801679E+01 -0.10029356403E+02  0.13327650356E+02  0.72461548721E+02  0.69999971896E+02 0.  0.
         12    1    1    2    0    0  0.85126801679E+01  0.10029356403E+02 -0.13327650356E+02  0.18726451279E+02  0.00000000000E+00 0. -1.
         11    1    3    3    0    0  0.23087800137E+02 -0.52474169197E+01 -0.20960701724E+01  0.23769211386E+02  0.51100000000E-03 0. -1.
        -11    1    3    3    0    0 -0.14287531309E+02  0.10494397215E+02  0.18236034957E+02  0.25432634449E+02  0.51100000000E-03 0.  1.
         12    1    3    3    0    0 -0.17312948996E+02 -0.15276336698E+02 -0.28123144284E+01  0.23259702885E+02  0.00000000000E+00 0. -1.
</event>
<event>
 7    1  0.1360399E-013  0.7246159E+02  0.7816164E-02  0.1226708E+00
        -11   -1    0    0    0    0  0.00000000000E+00  0.00000000000E+00  0.45593999997E+02  0.45594000000E+02  0.51100000000E-03 0. -1.
         11   -1    0    0    0    0 -0.00000000000E+00 -0.00000000000E+00 -0.45593999997E+02  0.45594000000E+02  0.51100000000E-03 0.  1.
    9900012    2    1    2    0    0  0.90725206816E+01  0.38474214940E+01 -0.15923723633E+02  0.72461594632E+02  0.70000031704E+02 0.  0.
         12    1    1    2    0    0 -0.90725206816E+01 -0.38474214940E+01  0.15923723633E+02  0.18726405368E+02  0.00000000000E+00 0. -1.
         11    1    3    3    0    0  0.21136128222E+01 -0.11465814241E+02  0.41439786696E+01  0.12373553041E+02  0.51100000000E-03 0. -1.
        -11    1    3    3    0    0  0.15051594765E+02  0.13072848739E+02 -0.36525385922E+02  0.41611941749E+02  0.51100000000E-03 0.  1.
        -12    1    3    3    0    0 -0.80926869060E+01  0.22403869958E+01  0.16457683619E+02  0.18476099842E+02  0.00000000000E+00 0.  1.
</event>
<event>
 7    1  0.1360399E-013  0.7246157E+02  0.7816164E-02  0.1226708E+00
        -11   -1    0    0    0    0  0.00000000000E+00  0.00000000000E+00  0.45593999997E+02  0.45594000000E+02  0.51100000000E-03 0.  1.
         11   -1    0    0    0    0 -0.00000000000E+00 -0.00000000000E+00 -0.45593999997E+02  0.45594000000E+02  0.51100000000E-03 0. -1.
    9900012    2    1    2    0    0 -0.16122899484E+02 -0.71695891322E+00  0.94982711520E+01  0.72461572878E+02  0.70000003366E+02 0.  0.
         12    1    1    2    0    0  0.16122899484E+02  0.71695891322E+00 -0.94982711520E+01  0.18726427122E+02  0.00000000000E+00 0. -1.
         11    1    3    3    0    0 -0.49606862376E+01 -0.24080045723E+02 -0.16449722738E+02  0.29581250623E+02  0.51100000000E-03 0. -1.
        -11    1    3    3    0    0 -0.13184674353E+02  0.25093396639E+02  0.27748187442E+02  0.39667065675E+02  0.51100000000E-03 0.  1.
        -12    1    3    3    0    0  0.20224611057E+01 -0.17303098286E+01 -0.18001935521E+01  0.32132565805E+01  0.00000000000E+00 0.  1.
</event>
<event>
 7    1  0.1360399E-013  0.7246141E+02  0.7816164E-02  0.1226708E+00
        -11   -1    0    0    0    0  0.00000000000E+00  0.00000000000E+00  0.45593999997E+02  0.45594000000E+02  0.51100000000E-03 0.  1.
         11   -1    0    0    0    0 -0.00000000000E+00 -0.00000000000E+00 -0.45593999997E+02  0.45594000000E+02  0.51100000000E-03 0. -1.
    9900012    2    1    2    0    0  0.12700786683E+02  0.71216716868E+01  0.11775265045E+02  0.72461413101E+02  0.69999795227E+02 0.  0.
         12    1    1    2    0    0 -0.12700786683E+02 -0.71216716868E+01 -0.11775265045E+02  0.18726586899E+02  0.00000000000E+00 0. -1.
         11    1    3    3    0    0  0.69823244498E+01 -0.11663718744E+02 -0.15489209150E+02  0.20608512562E+02  0.51100000000E-03 0. -1.
        -11    1    3    3    0    0  0.60080646853E+01 -0.63229401567E+01  0.25190043391E+02  0.26657357329E+02  0.51100000000E-03 0.  1.
         12    1    3    3    0    0 -0.28960245166E+00  0.25108330588E+02  0.20744308043E+01  0.25195543210E+02  0.00000000000E+00 0. -1.
</event>
<event>
 7    1  0.1360399E-013  0.7246118E+02  0.7816164E-02  0.1226709E+00
        -11   -1    0    0    0    0  0.00000000000E+00  0.00000000000E+00  0.45593999997E+02  0.45594000000E+02  0.51100000000E-03 0. -1.
         11   -1    0    0    0    0 -0.00000000000E+00 -0.00000000000E+00 -0.45593999997E+02  0.45594000000E+02  0.51100000000E-03 0.  1.
    9900012    2    1    2    0    0 -0.13391612447E+02 -0.65772216998E+01 -0.11318073934E+02  0.72461176276E+02  0.69999486716E+02 0.  0.
         12    1    1    2    0    0  0.13391612447E+02  0.65772216998E+01  0.11318073934E+02  0.18726823724E+02  0.00000000000E+00 0. -1.
         11    1    3    3    0    0 -0.18027100452E+02 -0.18959562322E+02  0.20955715079E+02  0.33519894822E+02  0.51100000000E-03 0. -1.
        -11    1    3    3    0    0 -0.66277613823E+01  0.42547471088E+01 -0.10791216015E+02  0.13359657078E+02  0.51100000000E-03 0.  1.
         12    1    3    3    0    0  0.11263249387E+02  0.81275935131E+01 -0.21482572999E+02  0.25581624376E+02  0.00000000000E+00 0. -1.
</event>
<event>
 7    1  0.1360399E-013  0.7246159E+02  0.7816164E-02  0.1226708E+00
        -11   -1    0    0    0    0  0.00000000000E+00  0.00000000000E+00  0.45593999997E+02  0.45594000000E+02  0.51100000000E-03 0.  1.
         11   -1    0    0    0    0 -0.00000000000E+00 -0.00000000000E+00 -0.45593999997E+02  0.45594000000E+02  0.51100000000E-03 0. -1.
    9900012    2    1    2    0    0  0.14179148163E+02 -0.74173970242E+01  0.97268939496E+01  0.72461588514E+02  0.70000023734E+02 0.  0.
         12    1    1    2    0    0 -0.14179148163E+02  0.74173970242E+01 -0.97268939496E+01  0.18726411486E+02  0.00000000000E+00 0. -1.
         11    1    3    3    0    0  0.32615743282E+02 -0.99089306036E+01  0.16331404411E+02  0.37797994469E+02  0.51100000000E-03 0. -1.
        -11    1    3    3    0    0 -0.40008720738E+01  0.12201056687E+02  0.49691520987E+01  0.13768269117E+02  0.51100000000E-03 0.  1.
         12    1    3    3    0    0 -0.14435723045E+02 -0.97095231075E+01 -0.11573662561E+02  0.20895324929E+02  0.00000000000E+00 0. -1.
</event>
<event>
 7    1  0.1360399E-013  0.7246142E+02  0.7816164E-02  0.1226708E+00
        -11   -1    0    0    0    0  0.00000000000E+00  0.00000000000E+00  0.45593999997E+02  0.45594000000E+02  0.51100000000E-03 0.  1.
         11   -1    0    0    0    0 -0.00000000000E+00 -0.00000000000E+00 -0.45593999997E+02  0.45594000000E+02  0.51100000000E-03 0. -1.
    9900012    2    1    2    0    0  0.18378874820E+01  0.53423615670E+01  0.17854027531E+02  0.72461415779E+02  0.69999798714E+02 0.  0.
         12    1    1    2    0    0 -0.18378874820E+01 -0.53423615670E+01 -0.17854027531E+02  0.18726584221E+02  0.00000000000E+00 0. -1.
         11    1    3    3    0    0  0.27156126576E+01  0.68802288937E+01 -0.20689629961E+02  0.21972093436E+02  0.51100000000E-03 0. -1.
        -11    1    3    3    0    0 -0.15026953849E+02  0.63021699507E+01  0.16995759602E+02  0.23545329320E+02  0.51100000000E-03 0.  1.
         12    1    3    3    0    0  0.14149228673E+02 -0.78400372774E+01  0.21547897891E+02  0.26943993024E+02  0.00000000000E+00 0. -1.
</event>
<event>
 7    1  0.1360399E-013  0.7246229E+02  0.7816164E-02  0.1226706E+00
        -11   -1    0    0    0    0  0.00000000000E+00  0.00000000000E+00  0.45593999997E+02  0.45594000000E+02  0.51100000000E-03 0.  1.
         11   -1    0    0    0    0 -0.00000000000E+00 -0.00000000000E+00 -0.45593999997E+02  0.45594000000E+02  0.51100000000E-03 0. -1.
    9900012    2    1    2    0    0 -0.76218425011E+01  0.86210721865E+01  0.14772835840E+02  0.72462294472E+02  0.70000943370E+02 0.  0.
         12    1    1    2    0    0  0.76218425011E+01 -0.86210721865E+01 -0.14772835840E+02  0.18725705528E+02  0.00000000000E+00 0. -1.
         11    1    3    3    0    0  0.84994319035E+01  0.20370256187E+02 -0.14242992304E+02  0.26268812494E+02  0.51100000000E-03 0. -1.
        -11    1    3    3    0    0 -0.13243311979E+02 -0.10528362402E+02  0.35316566776E+02  0.39159821452E+02  0.51100000000E-03 0.  1.
        -12    1    3    3    0    0 -0.28779624259E+01 -0.12208215980E+01 -0.63007386318E+01  0.70336605267E+01  0.00000000000E+00 0.  1.
</event>
<event>
 7    1  0.1360399E-013  0.7246151E+02  0.7816164E-02  0.1226708E+00
        -11   -1    0    0    0    0  0.00000000000E+00  0.00000000000E+00  0.45593999997E+02  0.45594000000E+02  0.51100000000E-03 0.  1.
         11   -1    0    0    0    0 -0.00000000000E+00 -0.00000000000E+00 -0.45593999997E+02  0.45594000000E+02  0.51100000000E-03 0. -1.
    9900012    2    1    2    0    0  0.94109007226E+01 -0.34006189365E+01  0.15828834091E+02  0.72461514739E+02  0.69999927628E+02 0.  0.
         12    1    1    2    0    0 -0.94109007226E+01  0.34006189365E+01 -0.15828834091E+02  0.18726485261E+02  0.00000000000E+00 0. -1.
         11    1    3    3    0    0 -0.13403358171E+02 -0.19767082652E+02 -0.78605613301E+01  0.25143110220E+02  0.51100000000E-03 0. -1.
        -11    1    3    3    0    0  0.27430903670E+02  0.79533257799E+01  0.93271467183E+01  0.30045058383E+02  0.51100000000E-03 0.  1.
        -12    1    3    3    0    0 -0.46166447759E+01  0.84131379357E+01  0.14362248703E+02  0.17273346135E+02  0.00000000000E+00 0.  1.
</event>
<event>
 7    1  0.1360399E-013  0.7246156E+02  0.7816164E-02  0.1226708E+00
        -11   -1    0    0    0    0  0.00000000000E+00  0.00000000000E+00  0.45593999997E+02  0.45594000000E+02  0.51100000000E-03 0. -1.
         11   -1    0    0    0    0 -0.00000000000E+00 -0.00000000000E+00 -0.45593999997E+02  0.45594000000E+02  0.51100000000E-03 0.  1.
    9900012    2    1    2    0    0 -0.17236735856E+02 -0.13613925295E+01 -0.71917382513E+01  0.72461560091E+02  0.69999986709E+02 0.  0.
         12    1    1    2    0    0  0.17236735856E+02  0.13613925295E+01  0.71917382513E+01  0.18726439909E+02  0.00000000000E+00 0. -1.
         11    1    3    3    0    0  0.13124617088E+02 -0.91486240847E+01 -0.38523374246E+01  0.16455801416E+02  0.51100000000E-03 0. -1.
        -11    1    3    3    0    0 -0.11955756091E+02 -0.30825647778E+01 -0.23548720198E+02  0.26589180743E+02  0.51100000000E-03 0.  1.
        -12    1    3    3    0    0 -0.18405596852E+02  0.10869796333E+02  0.20209319371E+02  0.29416577933E+02  0.00000000000E+00 0.  1.
</event>
<event>
 7    1  0.1360399E-013  0.7246158E+02  0.7816164E-02  0.1226708E+00
        -11   -1    0    0    0    0  0.00000000000E+00  0.00000000000E+00  0.45593999997E+02  0.45594000000E+02  0.51100000000E-03 0. -1.
         11   -1    0    0    0    0 -0.00000000000E+00 -0.00000000000E+00 -0.45593999997E+02  0.45594000000E+02  0.51100000000E-03 0.  1.
    9900012    2    1    2    0    0 -0.55444927163E+01 -0.15352343244E+01 -0.17820786345E+02  0.72461580965E+02  0.70000013900E+02 0.  0.
         12    1    1    2    0    0  0.55444927163E+01  0.15352343244E+01  0.17820786345E+02  0.18726419035E+02  0.00000000000E+00 0. -1.
         11    1    3    3    0    0  0.95427487627E+01  0.30731597812E+01  0.11432224532E+02  0.15205397824E+02  0.51100000000E-03 0. -1.
        -11    1    3    3    0    0 -0.20809508593E+02 -0.21677552901E+02 -0.12112156418E+02  0.32398399359E+02  0.51100000000E-03 0.  1.
        -12    1    3    3    0    0  0.57222671143E+01  0.17069158796E+02 -0.17140854459E+02  0.24857783781E+02  0.00000000000E+00 0.  1.
</event>
<event>
 7    1  0.1360399E-013  0.7246157E+02  0.7816164E-02  0.1226708E+00
        -11   -1    0    0    0    0  0.00000000000E+00  0.00000000000E+00  0.45593999997E+02  0.45594000000E+02  0.51100000000E-03 0. -1.
         11   -1    0    0    0    0 -0.00000000000E+00 -0.00000000000E+00 -0.45593999997E+02  0.45594000000E+02  0.51100000000E-03 0.  1.
    9900012    2    1    2    0    0 -0.10079622020E+02  0.15340380912E+02 -0.37085201856E+01  0.72461569786E+02  0.69999999338E+02 0.  0.
         12    1    1    2    0    0  0.10079622020E+02 -0.15340380912E+02  0.37085201856E+01  0.18726430214E+02  0.00000000000E+00 0. -1.
         11    1    3    3    0    0 -0.13836851483E+02 -0.73180583950E+01 -0.11284304721E+02  0.19296320140E+02  0.51100000000E-03 0.  1.
        -11    1    3    3    0    0  0.16099748165E+01 -0.19058107446E+01  0.23617187324E+02  0.23748593029E+02  0.51100000000E-03 0. -1.
        -12    1    3    3    0    0  0.21472546459E+01  0.24564250051E+02 -0.16041402789E+02  0.29416656617E+02  0.00000000000E+00 0.  1.
</event>
<event>
 7    1  0.1360399E-013  0.7246164E+02  0.7816164E-02  0.1226708E+00
        -11   -1    0    0    0    0  0.00000000000E+00  0.00000000000E+00  0.45593999997E+02  0.45594000000E+02  0.51100000000E-03 0.  1.
         11   -1    0    0    0    0 -0.00000000000E+00 -0.00000000000E+00 -0.45593999997E+02  0.45594000000E+02  0.51100000000E-03 0. -1.
    9900012    2    1    2    0    0 -0.93603647874E+01 -0.16217965397E+02  0.19465984383E+00  0.72461635616E+02  0.70000085094E+02 0.  0.
         12    1    1    2    0    0  0.93603647874E+01  0.16217965397E+02 -0.19465984383E+00  0.18726364384E+02  0.00000000000E+00 0. -1.
         11    1    3    3    0    0  0.20889087469E+01 -0.36205773571E+02  0.12781446052E+02  0.38452398405E+02  0.51100000000E-03 0. -1.
        -11    1    3    3    0    0 -0.15367063569E+02  0.62881859062E+01 -0.30988759370E+01  0.16890558222E+02  0.51100000000E-03 0.  1.
         12    1    3    3    0    0  0.39177900348E+01  0.13699622268E+02 -0.94879102709E+01  0.17118678989E+02  0.00000000000E+00 0. -1.
</event>
<event>
 7    1  0.1360399E-013  0.7246158E+02  0.7816164E-02  0.1226708E+00
        -11   -1    0    0    0    0  0.00000000000E+00  0.00000000000E+00  0.45593999997E+02  0.45594000000E+02  0.51100000000E-03 0. -1.
         11   -1    0    0    0    0 -0.00000000000E+00 -0.00000000000E+00 -0.45593999997E+02  0.45594000000E+02  0.51100000000E-03 0.  1.
    9900012    2    1    2    0    0  0.18150603258E+02 -0.46062014352E+01  0.13196590340E+00  0.72461577349E+02  0.70000009190E+02 0.  0.
         12    1    1    2    0    0 -0.18150603258E+02  0.46062014352E+01 -0.13196590340E+00  0.18726422651E+02  0.00000000000E+00 0. -1.
         11    1    3    3    0    0 -0.14955892935E+02 -0.11088004223E+02  0.20133367273E+02  0.27422163465E+02  0.51100000000E-03 0. -1.
        -11    1    3    3    0    0  0.21580578135E+02 -0.61102563040E+01 -0.67301514929E+01  0.23416906801E+02  0.51100000000E-03 0.  1.
         12    1    3    3    0    0  0.11525918058E+02  0.12592059092E+02 -0.13271249877E+02  0.21622507082E+02  0.00000000000E+00 0. -1.
</event>
<event>
 7    1  0.1360399E-013  0.7246155E+02  0.7816164E-02  0.1226708E+00
        -11   -1    0    0    0    0  0.00000000000E+00  0.00000000000E+00  0.45593999997E+02  0.45594000000E+02  0.51100000000E-03 0. -1.
         11   -1    0    0    0    0 -0.00000000000E+00 -0.00000000000E+00 -0.45593999997E+02  0.45594000000E+02  0.51100000000E-03 0.  1.
    9900012    2    1    2    0    0 -0.27271998235E+01  0.17539069065E+02  0.59685161303E+01  0.72461554866E+02  0.69999979902E+02 0.  0.
         12    1    1    2    0    0  0.27271998235E+01 -0.17539069065E+02 -0.59685161303E+01  0.18726445134E+02  0.00000000000E+00 0. -1.
         11    1    3    3    0    0 -0.11080471858E+02 -0.12246109884E+02  0.17284419086E+02  0.23905965935E+02  0.51100000000E-03 0. -1.
        -11    1    3    3    0    0  0.22211892571E+02  0.20395622768E+02 -0.99734682925E+01  0.31761921694E+02  0.51100000000E-03 0.  1.
        -12    1    3    3    0    0 -0.13858620536E+02  0.93895561816E+01 -0.13424346628E+01  0.16793667237E+02  0.00000000000E+00 0.  1.
</event>
<event>
 7    1  0.1360399E-013  0.7246157E+02  0.7816164E-02  0.1226708E+00
        -11   -1    0    0    0    0  0.00000000000E+00  0.00000000000E+00  0.45593999997E+02  0.45594000000E+02  0.51100000000E-03 0. -1.
         11   -1    0    0    0    0 -0.00000000000E+00 -0.00000000000E+00 -0.45593999997E+02  0.45594000000E+02  0.51100000000E-03 0.  1.
    9900012    2    1    2    0    0  0.10941039171E+02 -0.15184399023E+02 -0.63775932429E+00  0.72461573518E+02  0.70000004200E+02 0.  0.
         12    1    1    2    0    0 -0.10941039171E+02  0.15184399023E+02  0.63775932429E+00  0.18726426482E+02  0.00000000000E+00 0. -1.
         11    1    3    3    0    0  0.20820953198E+02 -0.13871906254E+02 -0.22070194080E+02  0.33362184314E+02  0.51100000000E-03 0. -1.
        -11    1    3    3    0    0  0.55371030532E+01 -0.12478246175E+02  0.83771800936E+01  0.16016968640E+02  0.51100000000E-03 0.  1.
         12    1    3    3    0    0 -0.15417017080E+02  0.11165753406E+02  0.13055254662E+02  0.23082420564E+02  0.00000000000E+00 0. -1.
</event>
<event>
 7    1  0.1360399E-013  0.7246156E+02  0.7816164E-02  0.1226708E+00
        -11   -1    0    0    0    0  0.00000000000E+00  0.00000000000E+00  0.45593999997E+02  0.45594000000E+02  0.51100000000E-03 0.  1.
         11   -1    0    0    0    0 -0.00000000000E+00 -0.00000000000E+00 -0.45593999997E+02  0.45594000000E+02  0.51100000000E-03 0. -1.
    9900012    2    1    2    0    0 -0.66264987469E+01 -0.26094866243E+01  0.17319346645E+02  0.72461556817E+02  0.69999982443E+02 0.  0.
         12    1    1    2    0    0  0.66264987469E+01  0.26094866243E+01 -0.17319346645E+02  0.18726443183E+02  0.00000000000E+00 0. -1.
         11    1    3    3    0    0  0.65998716051E+01  0.29330774001E+02  0.56834510248E+01  0.30596637471E+02  0.51100000000E-03 0. -1.
        -11    1    3    3    0    0 -0.43008157791E+01 -0.16290827651E+02  0.16099767627E+02  0.23304304320E+02  0.51100000000E-03 0.  1.
         12    1    3    3    0    0 -0.89255545729E+01 -0.15649432974E+02 -0.44638720071E+01  0.18560615026E+02  0.00000000000E+00 0. -1.
</event>
<event>
 7    1  0.1360399E-013  0.7246156E+02  0.7816164E-02  0.1226708E+00
        -11   -1    0    0    0    0  0.00000000000E+00  0.00000000000E+00  0.45593999997E+02  0.45594000000E+02  0.51100000000E-03 0. -1.
         11   -1    0    0    0    0 -0.00000000000E+00 -0.00000000000E+00 -0.45593999997E+02  0.45594000000E+02  0.51100000000E-03 0.  1.
    9900012    2    1    2    0    0 -0.60958274752E+01 -0.11335338903E+02 -0.13602597671E+02  0.72461556556E+02  0.69999982104E+02 0.  0.
         12    1    1    2    0    0  0.60958274752E+01  0.11335338903E+02  0.13602597671E+02  0.18726443444E+02  0.00000000000E+00 0. -1.
         11    1    3    3    0    0 -0.25538410454E+02  0.34677007865E+01  0.12670023571E+02  0.28718719589E+02  0.51100000000E-03 0. -1.
        -11    1    3    3    0    0  0.11486360139E+02  0.36247506420E+00 -0.23813353587E+02  0.26441324981E+02  0.51100000000E-03 0.  1.
         12    1    3    3    0    0  0.79562228400E+01 -0.15165514753E+02 -0.24592676551E+01  0.17301511986E+02  0.00000000000E+00 0. -1.
</event>
<event>
 7    1  0.1360399E-013  0.7246157E+02  0.7816164E-02  0.1226708E+00
        -11   -1    0    0    0    0  0.00000000000E+00  0.00000000000E+00  0.45593999997E+02  0.45594000000E+02  0.51100000000E-03 0.  1.
         11   -1    0    0    0    0 -0.00000000000E+00 -0.00000000000E+00 -0.45593999997E+02  0.45594000000E+02  0.51100000000E-03 0. -1.
    9900012    2    1    2    0    0  0.80132553705E+00 -0.98523009754E+01  0.15905004508E+02  0.72461571469E+02  0.70000001530E+02 0.  0.
         12    1    1    2    0    0 -0.80132553705E+00  0.98523009754E+01 -0.15905004508E+02  0.18726428531E+02  0.00000000000E+00 0. -1.
         11    1    3    3    0    0  0.31368067065E+01 -0.28272486353E+02  0.11178002661E+02  0.30563389613E+02  0.51100000000E-03 0. -1.
        -11    1    3    3    0    0  0.94054216715E+01  0.23697356749E+02  0.10771087539E+02  0.27677481836E+02  0.51100000000E-03 0.  1.
         12    1    3    3    0    0 -0.11740902841E+02 -0.52771713714E+01 -0.60440856920E+01  0.14220700020E+02  0.00000000000E+00 0. -1.
</event>
<event>
 7    1  0.1360399E-013  0.7246157E+02  0.7816164E-02  0.1226708E+00
        -11   -1    0    0    0    0  0.00000000000E+00  0.00000000000E+00  0.45593999997E+02  0.45594000000E+02  0.51100000000E-03 0.  1.
         11   -1    0    0    0    0 -0.00000000000E+00 -0.00000000000E+00 -0.45593999997E+02  0.45594000000E+02  0.51100000000E-03 0. -1.
    9900012    2    1    2    0    0  0.32556604031E+01  0.17795520582E+02 -0.48372732008E+01  0.72461572432E+02  0.70000002785E+02 0.  0.
         12    1    1    2    0    0 -0.32556604031E+01 -0.17795520582E+02  0.48372732008E+01  0.18726427568E+02  0.00000000000E+00 0. -1.
         11    1    3    3    0    0 -0.18662089092E+02  0.27152409173E+02  0.12906783425E+01  0.32972605964E+02  0.51100000000E-03 0. -1.
        -11    1    3    3    0    0  0.20784790725E+02  0.58367991099E+01  0.28945714123E+01  0.21781971748E+02  0.51100000000E-03 0.  1.
         12    1    3    3    0    0  0.11329587708E+01 -0.15193687701E+02 -0.90225229555E+01  0.17706994720E+02  0.00000000000E+00 0. -1.
</event>
<event>
 7    1  0.1360399E-013  0.7246132E+02  0.7816164E-02  0.1226709E+00
        -11   -1    0    0    0    0  0.00000000000E+00  0.00000000000E+00  0.45593999997E+02  0.45594000000E+02  0.51100000000E-03 0.  1.
         11   -1    0    0    0    0 -0.00000000000E+00 -0.00000000000E+00 -0.45593999997E+02  0.45594000000E+02  0.51100000000E-03 0. -1.
    9900012    2    1    2    0    0  0.71941281642E-01 -0.17676172332E+02  0.61835630037E+01  0.72461315956E+02  0.69999668676E+02 0.  0.
         12    1    1    2    0    0 -0.71941281642E-01  0.17676172332E+02 -0.61835630037E+01  0.18726684044E+02  0.00000000000E+00 0. -1.
         11    1    3    3    0    0  0.12068381910E+01  0.16287972417E+02 -0.19350081761E+02  0.25321535662E+02  0.51100000000E-03 0. -1.
        -11    1    3    3    0    0 -0.77942349783E+01 -0.16831602209E+02  0.42722628587E+01  0.19034315381E+02  0.51100000000E-03 0.  1.
         12    1    3    3    0    0  0.66593380689E+01 -0.17132542540E+02  0.21261381906E+02  0.28105464913E+02  0.00000000000E+00 0. -1.
</event>
<event>
 7    1  0.1360399E-013  0.7246165E+02  0.7816164E-02  0.1226708E+00
        -11   -1    0    0    0    0  0.00000000000E+00  0.00000000000E+00  0.45593999997E+02  0.45594000000E+02  0.51100000000E-03 0. -1.
         11   -1    0    0    0    0 -0.00000000000E+00 -0.00000000000E+00 -0.45593999997E+02  0.45594000000E+02  0.51100000000E-03 0.  1.
    9900012    2    1    2    0    0 -0.18296436506E+02  0.40654245272E+00 -0.39687903521E+01  0.72461650584E+02  0.70000104593E+02 0.  0.
         12    1    1    2    0    0  0.18296436506E+02 -0.40654245272E+00  0.39687903521E+01  0.18726349416E+02  0.00000000000E+00 0. -1.
         11    1    3    3    0    0  0.53405100648E+01  0.24389376261E+02  0.80873477011E+01  0.26244388262E+02  0.51100000000E-03 0. -1.
        -11    1    3    3    0    0 -0.15215862197E+01 -0.19192122701E+02 -0.13545439712E+02  0.23540002881E+02  0.51100000000E-03 0.  1.
        -12    1    3    3    0    0 -0.22115360351E+02 -0.47907111076E+01  0.14893016586E+01  0.22677259442E+02  0.00000000000E+00 0.  1.
</event>
<event>
 7    1  0.1360399E-013  0.7246157E+02  0.7816164E-02  0.1226708E+00
        -11   -1    0    0    0    0  0.00000000000E+00  0.00000000000E+00  0.45593999997E+02  0.45594000000E+02  0.51100000000E-03 0.  1.
         11   -1    0    0    0    0 -0.00000000000E+00 -0.00000000000E+00 -0.45593999997E+02  0.45594000000E+02  0.51100000000E-03 0. -1.
    9900012    2    1    2    0    0 -0.94053893715E+01  0.29648968004E+01  0.15919398566E+02  0.72461569135E+02  0.69999998489E+02 0.  0.
         12    1    1    2    0    0  0.94053893715E+01 -0.29648968004E+01 -0.15919398566E+02  0.18726430865E+02  0.00000000000E+00 0. -1.
         11    1    3    3    0    0  0.19236660750E+02  0.64999536093E+01  0.99965258847E+01  0.22632477632E+02  0.51100000000E-03 0. -1.
        -11    1    3    3    0    0 -0.14609428182E+02 -0.20107898940E+02  0.11533210443E+02  0.27400327279E+02  0.51100000000E-03 0.  1.
         12    1    3    3    0    0 -0.14032621940E+02  0.16572842131E+02 -0.56103377621E+01  0.22428764224E+02  0.00000000000E+00 0. -1.
</event>
<event>
 7    1  0.1360399E-013  0.7246156E+02  0.7816164E-02  0.1226708E+00
        -11   -1    0    0    0    0  0.00000000000E+00  0.00000000000E+00  0.45593999997E+02  0.45594000000E+02  0.51100000000E-03 0.  1.
         11   -1    0    0    0    0 -0.00000000000E+00 -0.00000000000E+00 -0.45593999997E+02  0.45594000000E+02  0.51100000000E-03 0. -1.
    9900012    2    1    2    0    0 -0.11684687268E+02 -0.14514230496E+02  0.18667700672E+01  0.72461557895E+02  0.69999983847E+02 0.  0.
         12    1    1    2    0    0  0.11684687268E+02  0.14514230496E+02 -0.18667700672E+01  0.18726442105E+02  0.00000000000E+00 0. -1.
         11    1    3    3    0    0 -0.16333915548E+02  0.97248491521E+01  0.12019902703E+02  0.22491054876E+02  0.51100000000E-03 0. -1.
        -11    1    3    3    0    0 -0.12202876827E+02 -0.26020840137E+02 -0.14899024761E+02  0.32372446051E+02  0.51100000000E-03 0.  1.
         12    1    3    3    0    0  0.16852105107E+02  0.17817604881E+01  0.47458921249E+01  0.17598056968E+02  0.00000000000E+00 0. -1.
</event>
<event>
 7    1  0.1360399E-013  0.7246159E+02  0.7816164E-02  0.1226708E+00
        -11   -1    0    0    0    0  0.00000000000E+00  0.00000000000E+00  0.45593999997E+02  0.45594000000E+02  0.51100000000E-03 0. -1.
         11   -1    0    0    0    0 -0.00000000000E+00 -0.00000000000E+00 -0.45593999997E+02  0.45594000000E+02  0.51100000000E-03 0.  1.
    9900012    2    1    2    0    0  0.61848655263E+01 -0.11788843106E+02  0.13170011639E+02  0.72461585770E+02  0.70000020159E+02 0.  0.
         12    1    1    2    0    0 -0.61848655263E+01  0.11788843106E+02 -0.13170011639E+02  0.18726414230E+02  0.00000000000E+00 0. -1.
         11    1    3    3    0    0  0.27243102165E+02  0.21358761875E+01  0.52283496469E+01  0.27822369111E+02  0.51100000000E-03 0. -1.
        -11    1    3    3    0    0 -0.18698144968E+02  0.52873306714E+01 -0.64992355210E+01  0.20489425407E+02  0.51100000000E-03 0.  1.
        -12    1    3    3    0    0 -0.23600916702E+01 -0.19212049965E+02  0.14440897513E+02  0.24149791252E+02  0.00000000000E+00 0.  1.
</event>
<event>
 7    1  0.1360399E-013  0.7246159E+02  0.7816164E-02  0.1226708E+00
        -11   -1    0    0    0    0  0.00000000000E+00  0.00000000000E+00  0.45593999997E+02  0.45594000000E+02  0.51100000000E-03 0.  1.
         11   -1    0    0    0    0 -0.00000000000E+00 -0.00000000000E+00 -0.45593999997E+02  0.45594000000E+02  0.51100000000E-03 0. -1.
    9900012    2    1    2    0    0  0.69788496250E+01 -0.66577082409E+01  0.16051452597E+02  0.72461586794E+02  0.70000021493E+02 0.  0.
         12    1    1    2    0    0 -0.69788496250E+01  0.66577082409E+01 -0.16051452597E+02  0.18726413206E+02  0.00000000000E+00 0. -1.
         11    1    3    3    0    0 -0.60467214683E+01 -0.12564246164E+02  0.25652201645E+02  0.29196893186E+02  0.51100000000E-03 0.  1.
        -11    1    3    3    0    0  0.20617968427E+02  0.49947950373E+01  0.90826875219E+01  0.23076910807E+02  0.51100000000E-03 0. -1.
         12    1    3    3    0    0 -0.75923973334E+01  0.91174288621E+00 -0.18683436570E+02  0.20187782801E+02  0.00000000000E+00 0. -1.
</event>
<event>
 7    1  0.1360399E-013  0.7246155E+02  0.7816164E-02  0.1226708E+00
        -11   -1    0    0    0    0  0.00000000000E+00  0.00000000000E+00  0.45593999997E+02  0.45594000000E+02  0.51100000000E-03 0.  1.
         11   -1    0    0    0    0 -0.00000000000E+00 -0.00000000000E+00 -0.45593999997E+02  0.45594000000E+02  0.51100000000E-03 0. -1.
    9900012    2    1    2    0    0 -0.94450844812E+01 -0.15254919750E+02  0.53626159098E+01  0.72461552210E+02  0.69999976442E+02 0.  0.
         12    1    1    2    0    0  0.94450844812E+01  0.15254919750E+02 -0.53626159098E+01  0.18726447790E+02  0.00000000000E+00 0. -1.
         11    1    3    3    0    0 -0.11182828457E+02  0.10578556660E+02  0.94493241918E+01  0.18062426228E+02  0.51100000000E-03 0. -1.
        -11    1    3    3    0    0  0.22557573277E+02 -0.20739958141E+01 -0.19308061640E+01  0.22734853936E+02  0.51100000000E-03 0.  1.
         12    1    3    3    0    0 -0.20819829301E+02 -0.23759480595E+02 -0.21559021180E+01  0.31664272046E+02  0.00000000000E+00 0. -1.
</event>
<event>
 7    1  0.1360399E-013  0.7246156E+02  0.7816164E-02  0.1226708E+00
        -11   -1    0    0    0    0  0.00000000000E+00  0.00000000000E+00  0.45593999997E+02  0.45594000000E+02  0.51100000000E-03 0.  1.
         11   -1    0    0    0    0 -0.00000000000E+00 -0.00000000000E+00 -0.45593999997E+02  0.45594000000E+02  0.51100000000E-03 0. -1.
    9900012    2    1    2    0    0 -0.13687759165E+02  0.11635031011E+02  0.52868505020E+01  0.72461561849E+02  0.69999988998E+02 0.  0.
         12    1    1    2    0    0  0.13687759165E+02 -0.11635031011E+02 -0.52868505020E+01  0.18726438151E+02  0.00000000000E+00 0. -1.
         11    1    3    3    0    0 -0.90435476552E+01 -0.11006289834E+01  0.27270355000E+02  0.28751859078E+02  0.51100000000E-03 0. -1.
        -11    1    3    3    0    0  0.12721804805E+02  0.15428559571E+02 -0.94050177668E+01  0.22098396489E+02  0.51100000000E-03 0.  1.
         12    1    3    3    0    0 -0.17366016315E+02 -0.26928995768E+01 -0.12578486731E+02  0.21611306282E+02  0.00000000000E+00 0. -1.
</event>
<event>
 7    1  0.1360399E-013  0.7246153E+02  0.7816164E-02  0.1226708E+00
        -11   -1    0    0    0    0  0.00000000000E+00  0.00000000000E+00  0.45593999997E+02  0.45594000000E+02  0.51100000000E-03 0. -1.
         11   -1    0    0    0    0 -0.00000000000E+00 -0.00000000000E+00 -0.45593999997E+02  0.45594000000E+02  0.51100000000E-03 0.  1.
    9900012    2    1    2    0    0 -0.13228873708E+02  0.12593618605E+02 -0.41325989470E+01  0.72461529345E+02  0.69999946656E+02 0.  0.
         12    1    1    2    0    0  0.13228873708E+02 -0.12593618605E+02  0.41325989470E+01  0.18726470655E+02  0.00000000000E+00 0. -1.
         11    1    3    3    0    0  0.34586231086E+01 -0.90274725303E+00  0.66876451759E+01  0.75829825709E+01  0.51100000000E-03 0. -1.
        -11    1    3    3    0    0  0.46244376902E+01  0.86630429706E+01 -0.32587046766E+02  0.34034531797E+02  0.51100000000E-03 0.  1.
        -12    1    3    3    0    0 -0.21311934507E+02  0.48333228872E+01  0.21766802643E+02  0.30844014976E+02  0.00000000000E+00 0.  1.
</event>
<event>
 7    1  0.1360399E-013  0.7246158E+02  0.7816164E-02  0.1226708E+00
        -11   -1    0    0    0    0  0.00000000000E+00  0.00000000000E+00  0.45593999997E+02  0.45594000000E+02  0.51100000000E-03 0.  1.
         11   -1    0    0    0    0 -0.00000000000E+00 -0.00000000000E+00 -0.45593999997E+02  0.45594000000E+02  0.51100000000E-03 0. -1.
    9900012    2    1    2    0    0 -0.39763882737E+01 -0.18250326443E+02  0.13388933839E+01  0.72461582445E+02  0.70000015828E+02 0.  0.
         12    1    1    2    0    0  0.39763882737E+01  0.18250326443E+02 -0.13388933839E+01  0.18726417555E+02  0.00000000000E+00 0. -1.
         11    1    3    3    0    0  0.15955263676E+02  0.18874340912E+02 -0.12988336144E+02  0.27919671558E+02  0.51100000000E-03 0. -1.
        -11    1    3    3    0    0 -0.41179972521E+01 -0.90852057015E+01  0.37712924504E+01  0.10664028836E+02  0.51100000000E-03 0.  1.
         12    1    3    3    0    0 -0.15813654698E+02 -0.28039461653E+02  0.10555937077E+02  0.33877882051E+02  0.00000000000E+00 0. -1.
</event>
<event>
 7    1  0.1360399E-013  0.7246171E+02  0.7816164E-02  0.1226708E+00
        -11   -1    0    0    0    0  0.00000000000E+00  0.00000000000E+00  0.45593999997E+02  0.45594000000E+02  0.51100000000E-03 0.  1.
         11   -1    0    0    0    0 -0.00000000000E+00 -0.00000000000E+00 -0.45593999997E+02  0.45594000000E+02  0.51100000000E-03 0. -1.
    9900012    2    1    2    0    0  0.16494433642E+02 -0.59770556799E+01  0.65484567478E+01  0.72461713087E+02  0.70000186013E+02 0.  0.
         12    1    1    2    0    0 -0.16494433642E+02  0.59770556799E+01 -0.65484567478E+01  0.18726286913E+02  0.00000000000E+00 0. -1.
         11    1    3    3    0    0  0.30789621225E+02  0.65891274560E+01  0.18202334936E+02  0.36369525336E+02  0.51100000000E-03 0. -1.
        -11    1    3    3    0    0 -0.70616325101E+01 -0.14050105103E+02  0.60979111743E+01  0.16865842050E+02  0.51100000000E-03 0.  1.
         12    1    3    3    0    0 -0.72335550725E+01  0.14839219675E+01 -0.17751789363E+02  0.19226345700E+02  0.00000000000E+00 0. -1.
</event>
<event>
 7    1  0.1360399E-013  0.7246158E+02  0.7816164E-02  0.1226708E+00
        -11   -1    0    0    0    0  0.00000000000E+00  0.00000000000E+00  0.45593999997E+02  0.45594000000E+02  0.51100000000E-03 0.  1.
         11   -1    0    0    0    0 -0.00000000000E+00 -0.00000000000E+00 -0.45593999997E+02  0.45594000000E+02  0.51100000000E-03 0. -1.
    9900012    2    1    2    0    0 -0.24252497553E+01  0.13648527123E+02  0.12590263294E+02  0.72461578590E+02  0.70000010806E+02 0.  0.
         12    1    1    2    0    0  0.24252497553E+01 -0.13648527123E+02 -0.12590263294E+02  0.18726421410E+02  0.00000000000E+00 0. -1.
         11    1    3    3    0    0 -0.58966109328E+01  0.18310013610E+02 -0.88334491382E+01  0.21167343783E+02  0.51100000000E-03 0. -1.
        -11    1    3    3    0    0  0.14735102676E+02 -0.29148973788E+01  0.32248373563E+02  0.35574955731E+02  0.51100000000E-03 0.  1.
        -12    1    3    3    0    0 -0.11263741499E+02 -0.17465891079E+01 -0.10824661130E+02  0.15719279075E+02  0.00000000000E+00 0.  1.
</event>
<event>
 7    1  0.1360399E-013  0.7246159E+02  0.7816164E-02  0.1226708E+00
        -11   -1    0    0    0    0  0.00000000000E+00  0.00000000000E+00  0.45593999997E+02  0.45594000000E+02  0.51100000000E-03 0. -1.
         11   -1    0    0    0    0 -0.00000000000E+00 -0.00000000000E+00 -0.45593999997E+02  0.45594000000E+02  0.51100000000E-03 0.  1.
    9900012    2    1    2    0    0  0.70472727210E+01 -0.10739367085E+02 -0.13626463756E+02  0.72461586230E+02  0.70000020759E+02 0.  0.
         12    1    1    2    0    0 -0.70472727210E+01  0.10739367085E+02  0.13626463756E+02  0.18726413770E+02  0.00000000000E+00 0. -1.
         11    1    3    3    0    0  0.13174856954E+02 -0.34786584102E+02  0.47732241916E+01  0.37502892671E+02  0.51100000000E-03 0. -1.
        -11    1    3    3    0    0 -0.91656193991E+01  0.75757120441E+01 -0.12366084832E+02  0.17155758400E+02  0.51100000000E-03 0.  1.
         12    1    3    3    0    0  0.30380351660E+01  0.16471504972E+02 -0.60336031158E+01  0.17802935159E+02  0.00000000000E+00 0. -1.
</event>
<event>
 7    1  0.1360399E-013  0.7246157E+02  0.7816164E-02  0.1226708E+00
        -11   -1    0    0    0    0  0.00000000000E+00  0.00000000000E+00  0.45593999997E+02  0.45594000000E+02  0.51100000000E-03 0.  1.
         11   -1    0    0    0    0 -0.00000000000E+00 -0.00000000000E+00 -0.45593999997E+02  0.45594000000E+02  0.51100000000E-03 0. -1.
    9900012    2    1    2    0    0 -0.11573616192E+02 -0.12997219607E+02  0.69139521668E+01  0.72461573650E+02  0.70000004372E+02 0.  0.
         12    1    1    2    0    0  0.11573616192E+02  0.12997219607E+02 -0.69139521668E+01  0.18726426350E+02  0.00000000000E+00 0. -1.
         11    1    3    3    0    0 -0.29506430105E+01  0.12752511478E+02  0.19649506080E+01  0.13236082287E+02  0.51100000000E-03 0. -1.
        -11    1    3    3    0    0  0.53606429315E+01 -0.34726748497E+02 -0.10357794279E+02  0.36632873985E+02  0.51100000000E-03 0.  1.
        -12    1    3    3    0    0 -0.13983616113E+02  0.89770174117E+01  0.15306795838E+02  0.22592617378E+02  0.00000000000E+00 0.  1.
</event>
<event>
 7    1  0.1360399E-013  0.7246160E+02  0.7816164E-02  0.1226708E+00
        -11   -1    0    0    0    0  0.00000000000E+00  0.00000000000E+00  0.45593999997E+02  0.45594000000E+02  0.51100000000E-03 0.  1.
         11   -1    0    0    0    0 -0.00000000000E+00 -0.00000000000E+00 -0.45593999997E+02  0.45594000000E+02  0.51100000000E-03 0. -1.
    9900012    2    1    2    0    0  0.42715250251E+01  0.50671874899E+01  0.17514441260E+02  0.72461602382E+02  0.70000041800E+02 0.  0.
         12    1    1    2    0    0 -0.42715250251E+01 -0.50671874899E+01 -0.17514441260E+02  0.18726397618E+02  0.00000000000E+00 0. -1.
         11    1    3    3    0    0  0.18915119786E+01 -0.39954377682E+01 -0.26652903066E+01  0.51618904681E+01  0.51100000000E-03 0. -1.
        -11    1    3    3    0    0  0.16705200989E+02  0.29107902349E+02  0.25431754200E+02  0.42108287084E+02  0.51100000000E-03 0.  1.
        -12    1    3    3    0    0 -0.14325187942E+02 -0.20045277091E+02 -0.52520226336E+01  0.25191424830E+02  0.00000000000E+00 0.  1.
</event>
<event>
 7    1  0.1360399E-013  0.7246157E+02  0.7816164E-02  0.1226708E+00
        -11   -1    0    0    0    0  0.00000000000E+00  0.00000000000E+00  0.45593999997E+02  0.45594000000E+02  0.51100000000E-03 0.  1.
         11   -1    0    0    0    0 -0.00000000000E+00 -0.00000000000E+00 -0.45593999997E+02  0.45594000000E+02  0.51100000000E-03 0. -1.
    9900012    2    1    2    0    0 -0.77449971456E+01  0.14186084383E+02  0.94577568900E+01  0.72461571182E+02  0.70000001156E+02 0.  0.
         12    1    1    2    0    0  0.77449971456E+01 -0.14186084383E+02 -0.94577568900E+01  0.18726428818E+02  0.00000000000E+00 0. -1.
         11    1    3    3    0    0 -0.97235383126E+01  0.16660478695E+02 -0.76151826617E+01  0.20739087610E+02  0.51100000000E-03 0. -1.
        -11    1    3    3    0    0  0.22711333784E+02  0.31823586606E+00  0.20411859438E+02  0.30537681024E+02  0.51100000000E-03 0.  1.
        -12    1    3    3    0    0 -0.20732792617E+02 -0.27926301781E+01 -0.33389198864E+01  0.21184802548E+02  0.00000000000E+00 0.  1.
</event>
<event>
 7    1  0.1360399E-013  0.7246160E+02  0.7816164E-02  0.1226708E+00
        -11   -1    0    0    0    0  0.00000000000E+00  0.00000000000E+00  0.45593999997E+02  0.45594000000E+02  0.51100000000E-03 0. -1.
         11   -1    0    0    0    0 -0.00000000000E+00 -0.00000000000E+00 -0.45593999997E+02  0.45594000000E+02  0.51100000000E-03 0.  1.
    9900012    2    1    2    0    0  0.56750538907E+00 -0.14856744470E+02 -0.11385653845E+02  0.72461600664E+02  0.70000039562E+02 0.  0.
         12    1    1    2    0    0 -0.56750538907E+00  0.14856744470E+02  0.11385653845E+02  0.18726399336E+02  0.00000000000E+00 0. -1.
         11    1    3    3    0    0  0.58563289215E+01 -0.14174586287E+02  0.19885475519E+02  0.25112698416E+02  0.51100000000E-03 0. -1.
        -11    1    3    3    0    0  0.12874825920E+02 -0.34451072111E+01 -0.24267879794E+02  0.27686818093E+02  0.51100000000E-03 0.  1.
         12    1    3    3    0    0 -0.18163649453E+02  0.27629490286E+01 -0.70032495703E+01  0.19662084155E+02  0.00000000000E+00 0. -1.
</event>
<event>
 8    1  0.1360399E-013  0.7246158E+02  0.7816164E-02  0.1226708E+00
        -11   -1    0    0    0    0  0.00000000000E+00  0.00000000000E+00  0.45593999997E+02  0.45594000000E+02  0.51100000000E-03 0.  1.
         11   -1    0    0    0    0 -0.00000000000E+00 -0.00000000000E+00 -0.45593999997E+02  0.45594000000E+02  0.51100000000E-03 0. -1.
    9900012    2    1    2    0    0 -0.50443917428E+01  0.12557269146E+02  0.12944026734E+02  0.72461582175E+02  0.70000015477E+02 0.  0.
        -24    2    3    3    0    0  0.10122843881E+02  0.17073846851E+02  0.15351644792E+01  0.52952439477E+02  0.49067462764E+02 0.  0.
         12    1    1    2    0    0  0.50443917428E+01 -0.12557269146E+02 -0.12944026734E+02  0.18726417825E+02  0.00000000000E+00 0. -1.
         11    1    4    4    0    0  0.22422398960E+02  0.21740471843E+02  0.14543523594E+02  0.34451794871E+02  0.51100000000E-03 0. -1.
        -11    1    3    3    0    0 -0.15167235623E+02 -0.45165777049E+01  0.11408862255E+02  0.19509142699E+02  0.51100000000E-03 0.  1.
        -12    1    4    4    0    0 -0.12299555079E+02 -0.46666249929E+01 -0.13008359114E+02  0.18500644605E+02  0.00000000000E+00 0.  1.
</event>
<event>
 7    1  0.1360399E-013  0.7246163E+02  0.7816164E-02  0.1226708E+00
        -11   -1    0    0    0    0  0.00000000000E+00  0.00000000000E+00  0.45593999997E+02  0.45594000000E+02  0.51100000000E-03 0.  1.
         11   -1    0    0    0    0 -0.00000000000E+00 -0.00000000000E+00 -0.45593999997E+02  0.45594000000E+02  0.51100000000E-03 0. -1.
    9900012    2    1    2    0    0  0.16397391319E+02 -0.85412806202E+01  0.29747609395E+01  0.72461625034E+02  0.70000071309E+02 0.  0.
         12    1    1    2    0    0 -0.16397391319E+02  0.85412806202E+01 -0.29747609395E+01  0.18726374966E+02  0.00000000000E+00 0. -1.
         11    1    3    3    0    0 -0.45898016750E+01 -0.14603557610E+02 -0.16663676444E+02  0.22627600120E+02  0.51100000000E-03 0. -1.
        -11    1    3    3    0    0  0.16413665086E+02  0.22031699096E+02  0.54965393850E+01  0.28018138984E+02  0.51100000000E-03 0.  1.
        -12    1    3    3    0    0  0.45735279079E+01 -0.15969422106E+02  0.14141897999E+02  0.21815885931E+02  0.00000000000E+00 0.  1.
</event>
<event>
 7    1  0.1360399E-013  0.7246157E+02  0.7816164E-02  0.1226708E+00
        -11   -1    0    0    0    0  0.00000000000E+00  0.00000000000E+00  0.45593999997E+02  0.45594000000E+02  0.51100000000E-03 0. -1.
         11   -1    0    0    0    0 -0.00000000000E+00 -0.00000000000E+00 -0.45593999997E+02  0.45594000000E+02  0.51100000000E-03 0.  1.
    9900012    2    1    2    0    0  0.14312728184E+02 -0.29128113029E+01  0.11719232464E+02  0.72461573023E+02  0.70000003555E+02 0.  0.
         12    1    1    2    0    0 -0.14312728184E+02  0.29128113029E+01 -0.11719232464E+02  0.18726426977E+02  0.00000000000E+00 0. -1.
         11    1    3    3    0    0  0.15115433690E+02 -0.20793531746E+01  0.40210327459E+01  0.15778743609E+02  0.51100000000E-03 0. -1.
        -11    1    3    3    0    0 -0.20448273406E+00 -0.28490011412E+02  0.35729131068E+01  0.28713903806E+02  0.51100000000E-03 0.  1.
        -12    1    3    3    0    0 -0.59822277212E+00  0.27656553284E+02  0.41252866115E+01  0.27968925608E+02  0.00000000000E+00 0.  1.
</event>
<event>
 7    1  0.1360399E-013  0.7246140E+02  0.7816164E-02  0.1226708E+00
        -11   -1    0    0    0    0  0.00000000000E+00  0.00000000000E+00  0.45593999997E+02  0.45594000000E+02  0.51100000000E-03 0. -1.
         11   -1    0    0    0    0 -0.00000000000E+00 -0.00000000000E+00 -0.45593999997E+02  0.45594000000E+02  0.51100000000E-03 0.  1.
    9900012    2    1    2    0    0  0.38658628960E+01 -0.12798285993E+02 -0.13112755295E+02  0.72461404695E+02  0.69999784275E+02 0.  0.
         12    1    1    2    0    0 -0.38658628960E+01  0.12798285993E+02  0.13112755295E+02  0.18726595305E+02  0.00000000000E+00 0. -1.
         11    1    3    3    0    0  0.12553245140E+02  0.38436748173E+00 -0.22902000778E+02  0.26119596892E+02  0.51100000000E-03 0. -1.
        -11    1    3    3    0    0 -0.20291213023E+02 -0.21200041566E+02  0.30862123985E+00  0.29347407648E+02  0.51100000000E-03 0.  1.
         12    1    3    3    0    0  0.11603830779E+02  0.80173880910E+01  0.94806242431E+01  0.16994400154E+02  0.00000000000E+00 0. -1.
</event>
<event>
 7    1  0.1360399E-013  0.7246158E+02  0.7816164E-02  0.1226708E+00
        -11   -1    0    0    0    0  0.00000000000E+00  0.00000000000E+00  0.45593999997E+02  0.45594000000E+02  0.51100000000E-03 0. -1.
         11   -1    0    0    0    0 -0.00000000000E+00 -0.00000000000E+00 -0.45593999997E+02  0.45594000000E+02  0.51100000000E-03 0.  1.
    9900012    2    1    2    0    0 -0.52940434478E+01  0.79493573487E+01 -0.16107753845E+02  0.72461577165E+02  0.70000008950E+02 0.  0.
         12    1    1    2    0    0  0.52940434478E+01 -0.79493573487E+01  0.16107753845E+02  0.18726422835E+02  0.00000000000E+00 0. -1.
         11    1    3    3    0    0  0.18932584970E+02 -0.95087384786E+01 -0.17506492022E+02  0.27483379419E+02  0.51100000000E-03 0. -1.
        -11    1    3    3    0    0 -0.19597957174E+02 -0.61730259533E+01 -0.20629930122E+01  0.20650474940E+02  0.51100000000E-03 0.  1.
         12    1    3    3    0    0 -0.46286712436E+01  0.23631121781E+02  0.34617311901E+01  0.24327722806E+02  0.00000000000E+00 0. -1.
</event>
<event>
 7    1  0.1360399E-013  0.7246077E+02  0.7816164E-02  0.1226710E+00
        -11   -1    0    0    0    0  0.00000000000E+00  0.00000000000E+00  0.45593999997E+02  0.45594000000E+02  0.51100000000E-03 0. -1.
         11   -1    0    0    0    0 -0.00000000000E+00 -0.00000000000E+00 -0.45593999997E+02  0.45594000000E+02  0.51100000000E-03 0.  1.
    9900012    2    1    2    0    0 -0.89427636799E+01  0.27051106229E+01 -0.16230171191E+02  0.72460771091E+02  0.69998958882E+02 0.  0.
         12    1    1    2    0    0  0.89427636799E+01 -0.27051106229E+01  0.16230171191E+02  0.18727228909E+02  0.00000000000E+00 0. -1.
         11    1    3    3    0    0  0.93928987238E+00 -0.12405791306E+02 -0.91405060484E+01  0.15438094911E+02  0.51100000000E-03 0. -1.
        -11    1    3    3    0    0 -0.55874360978E+01  0.32113829529E+02 -0.17121348041E+02  0.36819261918E+02  0.51100000000E-03 0.  1.
        -12    1    3    3    0    0 -0.42946174544E+01 -0.17002927601E+02  0.10031682899E+02  0.20203414262E+02  0.00000000000E+00 0.  1.
</event>
<event>
 7    1  0.1360399E-013  0.7246150E+02  0.7816164E-02  0.1226708E+00
        -11   -1    0    0    0    0  0.00000000000E+00  0.00000000000E+00  0.45593999997E+02  0.45594000000E+02  0.51100000000E-03 0. -1.
         11   -1    0    0    0    0 -0.00000000000E+00 -0.00000000000E+00 -0.45593999997E+02  0.45594000000E+02  0.51100000000E-03 0.  1.
    9900012    2    1    2    0    0 -0.50743757087E+01 -0.14254014739E+02 -0.11034294458E+02  0.72461497946E+02  0.69999905752E+02 0.  0.
         12    1    1    2    0    0  0.50743757087E+01  0.14254014739E+02  0.11034294458E+02  0.18726502054E+02  0.00000000000E+00 0. -1.
         11    1    3    3    0    0  0.96685171360E+01  0.35471177389E+01  0.10351645914E+02  0.14602014972E+02  0.51100000000E-03 0. -1.
        -11    1    3    3    0    0 -0.29286809780E+02 -0.24069110378E+02 -0.15738915425E+02  0.41045739858E+02  0.51100000000E-03 0.  1.
        -12    1    3    3    0    0  0.14543916935E+02  0.62679779009E+01 -0.56470249475E+01  0.16813743115E+02  0.00000000000E+00 0.  1.
</event>
<event>
 7    1  0.1360399E-013  0.7246158E+02  0.7816164E-02  0.1226708E+00
        -11   -1    0    0    0    0  0.00000000000E+00  0.00000000000E+00  0.45593999997E+02  0.45594000000E+02  0.51100000000E-03 0.  1.
         11   -1    0    0    0    0 -0.00000000000E+00 -0.00000000000E+00 -0.45593999997E+02  0.45594000000E+02  0.51100000000E-03 0. -1.
    9900012    2    1    2    0    0 -0.82078564437E+01  0.16230690329E+02  0.44580924534E+01  0.72461580047E+02  0.70000012704E+02 0.  0.
         12    1    1    2    0    0  0.82078564437E+01 -0.16230690329E+02 -0.44580924534E+01  0.18726419953E+02  0.00000000000E+00 0. -1.
         11    1    3    3    0    0 -0.13149991249E+02  0.11871650655E+02 -0.37845629417E+01  0.18115774232E+02  0.51100000000E-03 0. -1.
        -11    1    3    3    0    0  0.25625591553E+02  0.10818301053E+02  0.15059034194E+02  0.31630382408E+02  0.51100000000E-03 0.  1.
        -12    1    3    3    0    0 -0.20683456748E+02 -0.64592613789E+01 -0.68163787991E+01  0.22715423407E+02  0.00000000000E+00 0.  1.
</event>
<event>
 7    1  0.1360399E-013  0.7246164E+02  0.7816164E-02  0.1226708E+00
        -11   -1    0    0    0    0  0.00000000000E+00  0.00000000000E+00  0.45593999997E+02  0.45594000000E+02  0.51100000000E-03 0.  1.
         11   -1    0    0    0    0 -0.00000000000E+00 -0.00000000000E+00 -0.45593999997E+02  0.45594000000E+02  0.51100000000E-03 0. -1.
    9900012    2    1    2    0    0 -0.10512612111E+02 -0.73125146545E+01  0.13663403259E+02  0.72461642303E+02  0.70000093805E+02 0.  0.
         12    1    1    2    0    0  0.10512612111E+02  0.73125146545E+01 -0.13663403259E+02  0.18726357697E+02  0.00000000000E+00 0. -1.
         11    1    3    3    0    0 -0.10133234178E+02  0.71859103064E+00 -0.14066701545E+02  0.17351394774E+02  0.51100000000E-03 0. -1.
        -11    1    3    3    0    0 -0.12416537928E+02 -0.59836661157E+01  0.37191563059E+02  0.39663421906E+02  0.51100000000E-03 0.  1.
        -12    1    3    3    0    0  0.12037159995E+02 -0.20474395695E+01 -0.94614582546E+01  0.15446825624E+02  0.00000000000E+00 0.  1.
</event>
<event>
 7    1  0.1360399E-013  0.7246147E+02  0.7816164E-02  0.1226708E+00
        -11   -1    0    0    0    0  0.00000000000E+00  0.00000000000E+00  0.45593999997E+02  0.45594000000E+02  0.51100000000E-03 0.  1.
         11   -1    0    0    0    0 -0.00000000000E+00 -0.00000000000E+00 -0.45593999997E+02  0.45594000000E+02  0.51100000000E-03 0. -1.
    9900012    2    1    2    0    0  0.52606037827E+01 -0.17563620256E+02  0.38115655768E+01  0.72461474941E+02  0.69999875784E+02 0.  0.
         12    1    1    2    0    0 -0.52606037827E+01  0.17563620256E+02 -0.38115655768E+01  0.18726525059E+02  0.00000000000E+00 0. -1.
         11    1    3    3    0    0 -0.41604605405E+00 -0.13557585164E+02 -0.27260310593E+02  0.30448411185E+02  0.51100000000E-03 0. -1.
        -11    1    3    3    0    0 -0.97489755996E+01 -0.10863605445E+01  0.21483721862E+02  0.23617218502E+02  0.51100000000E-03 0.  1.
         12    1    3    3    0    0  0.15425625436E+02 -0.29196745471E+01  0.95881543079E+01  0.18395845254E+02  0.00000000000E+00 0. -1.
</event>
<event>
 7    1  0.1360399E-013  0.7246159E+02  0.7816164E-02  0.1226708E+00
        -11   -1    0    0    0    0  0.00000000000E+00  0.00000000000E+00  0.45593999997E+02  0.45594000000E+02  0.51100000000E-03 0. -1.
         11   -1    0    0    0    0 -0.00000000000E+00 -0.00000000000E+00 -0.45593999997E+02  0.45594000000E+02  0.51100000000E-03 0.  1.
    9900012    2    1    2    0    0 -0.13557843772E+02  0.45595027197E+01  0.12086112949E+02  0.72461593003E+02  0.70000029582E+02 0.  0.
         12    1    1    2    0    0  0.13557843772E+02 -0.45595027197E+01 -0.12086112949E+02  0.18726406997E+02  0.00000000000E+00 0. -1.
         11    1    3    3    0    0  0.14856739094E+02  0.78098674967E+01  0.18218231212E+00  0.16785407874E+02  0.51100000000E-03 0. -1.
        -11    1    3    3    0    0 -0.31936950104E+02  0.10522517445E+02  0.20189923652E+02  0.39221488660E+02  0.51100000000E-03 0.  1.
        -12    1    3    3    0    0  0.35223672382E+01 -0.13772882222E+02 -0.82859930147E+01  0.16454696470E+02  0.00000000000E+00 0.  1.
</event>
<event>
 8    1  0.1360399E-013  0.7246155E+02  0.7816164E-02  0.1226708E+00
        -11   -1    0    0    0    0  0.00000000000E+00  0.00000000000E+00  0.45593999997E+02  0.45594000000E+02  0.51100000000E-03 0.  1.
         11   -1    0    0    0    0 -0.00000000000E+00 -0.00000000000E+00 -0.45593999997E+02  0.45594000000E+02  0.51100000000E-03 0. -1.
    9900012    2    1    2    0    0  0.13098932914E+02 -0.73436776807E+01  0.11187870931E+02  0.72461545414E+02  0.69999967589E+02 0.  0.
        -24    2    3    3    0    0  0.12375434994E+02 -0.22213249597E+02  0.70056378897E+01  0.56998082293E+02  0.50528433322E+02 0.  0.
         12    1    1    2    0    0 -0.13098932914E+02  0.73436776807E+01 -0.11187870931E+02  0.18726454586E+02  0.00000000000E+00 0. -1.
         11    1    4    4    0    0 -0.10461910421E+02 -0.29013447095E+02 -0.33368989106E+01  0.31022033728E+02  0.51100000000E-03 0. -1.
        -11    1    3    3    0    0  0.72349792033E+00  0.14869571916E+02  0.41822330416E+01  0.15463463121E+02  0.51100000000E-03 0.  1.
        -12    1    4    4    0    0  0.22837345415E+02  0.68001974977E+01  0.10342536800E+02  0.25976048566E+02  0.00000000000E+00 0.  1.
</event>
<event>
 7    1  0.1360399E-013  0.7246167E+02  0.7816164E-02  0.1226708E+00
        -11   -1    0    0    0    0  0.00000000000E+00  0.00000000000E+00  0.45593999997E+02  0.45594000000E+02  0.51100000000E-03 0.  1.
         11   -1    0    0    0    0 -0.00000000000E+00 -0.00000000000E+00 -0.45593999997E+02  0.45594000000E+02  0.51100000000E-03 0. -1.
    9900012    2    1    2    0    0  0.13086419508E+02  0.84111808306E+01  0.10424641601E+02  0.72461668511E+02  0.70000127946E+02 0.  0.
         12    1    1    2    0    0 -0.13086419508E+02 -0.84111808306E+01 -0.10424641601E+02  0.18726331489E+02  0.00000000000E+00 0. -1.
         11    1    3    3    0    0  0.13867203508E+02 -0.11953048361E+02 -0.14692891139E+02  0.23474576642E+02  0.51100000000E-03 0. -1.
        -11    1    3    3    0    0 -0.12479552571E+02  0.25985782226E+02  0.14786605311E+02  0.32398206851E+02  0.51100000000E-03 0.  1.
        -12    1    3    3    0    0  0.11698768571E+02 -0.56215530346E+01  0.10330927429E+02  0.16588885018E+02  0.00000000000E+00 0.  1.
</event>
<event>
 7    1  0.1360399E-013  0.7246156E+02  0.7816164E-02  0.1226708E+00
        -11   -1    0    0    0    0  0.00000000000E+00  0.00000000000E+00  0.45593999997E+02  0.45594000000E+02  0.51100000000E-03 0.  1.
         11   -1    0    0    0    0 -0.00000000000E+00 -0.00000000000E+00 -0.45593999997E+02  0.45594000000E+02  0.51100000000E-03 0. -1.
    9900012    2    1    2    0    0 -0.69753184880E+01 -0.13875740332E+02  0.10463675199E+02  0.72461555157E+02  0.69999980281E+02 0.  0.
         12    1    1    2    0    0  0.69753184880E+01  0.13875740332E+02 -0.10463675199E+02  0.18726444843E+02  0.00000000000E+00 0. -1.
         11    1    3    3    0    0 -0.82970222571E+01  0.90800762615E+01 -0.14491518397E+02  0.19007694993E+02  0.51100000000E-03 0. -1.
        -11    1    3    3    0    0 -0.13674791961E+02 -0.36429320778E+01  0.25312192629E+02  0.28999620433E+02  0.51100000000E-03 0.  1.
        -12    1    3    3    0    0  0.14996495730E+02 -0.19312884516E+02 -0.35699903378E+00  0.24454239731E+02  0.00000000000E+00 0.  1.
</event>
<event>
 7    1  0.1360399E-013  0.7246155E+02  0.7816164E-02  0.1226708E+00
        -11   -1    0    0    0    0  0.00000000000E+00  0.00000000000E+00  0.45593999997E+02  0.45594000000E+02  0.51100000000E-03 0.  1.
         11   -1    0    0    0    0 -0.00000000000E+00 -0.00000000000E+00 -0.45593999997E+02  0.45594000000E+02  0.51100000000E-03 0. -1.
    9900012    2    1    2    0    0  0.80692628646E+01  0.61042593173E+01  0.15757695288E+02  0.72461549568E+02  0.69999973000E+02 0.  0.
         12    1    1    2    0    0 -0.80692628646E+01 -0.61042593173E+01 -0.15757695288E+02  0.18726450432E+02  0.00000000000E+00 0. -1.
         11    1    3    3    0    0  0.12332890349E+02 -0.12008131033E+02  0.23868808665E+02  0.29428139979E+02  0.51100000000E-03 0. -1.
        -11    1    3    3    0    0  0.14399777081E+02  0.18670463449E+02 -0.40177203939E+01  0.23918232852E+02  0.51100000000E-03 0.  1.
         12    1    3    3    0    0 -0.18663404566E+02 -0.55807309784E+00 -0.40933929826E+01  0.19115176737E+02  0.00000000000E+00 0. -1.
</event>
<event>
 7    1  0.1360399E-013  0.7246234E+02  0.7816164E-02  0.1226706E+00
        -11   -1    0    0    0    0  0.00000000000E+00  0.00000000000E+00  0.45593999997E+02  0.45594000000E+02  0.51100000000E-03 0.  1.
         11   -1    0    0    0    0 -0.00000000000E+00 -0.00000000000E+00 -0.45593999997E+02  0.45594000000E+02  0.51100000000E-03 0. -1.
    9900012    2    1    2    0    0  0.15778477639E+02 -0.62821771583E+01 -0.78882355319E+01  0.72462339364E+02  0.70001001849E+02 0.  0.
         12    1    1    2    0    0 -0.15778477639E+02  0.62821771583E+01  0.78882355319E+01  0.18725660636E+02  0.00000000000E+00 0. -1.
         11    1    3    3    0    0  0.63628219369E+01 -0.85642984265E+01 -0.20213599834E+02  0.22856559869E+02  0.51100000000E-03 0. -1.
        -11    1    3    3    0    0  0.52148529013E+01  0.23540348237E+02  0.13984431334E+02  0.27873051607E+02  0.51100000000E-03 0.  1.
        -12    1    3    3    0    0  0.42008028004E+01 -0.21258226969E+02 -0.16590670316E+01  0.21732727888E+02  0.00000000000E+00 0.  1.
</event>
<event>
 7    1  0.1360399E-013  0.7246159E+02  0.7816164E-02  0.1226708E+00
        -11   -1    0    0    0    0  0.00000000000E+00  0.00000000000E+00  0.45593999997E+02  0.45594000000E+02  0.51100000000E-03 0.  1.
         11   -1    0    0    0    0 -0.00000000000E+00 -0.00000000000E+00 -0.45593999997E+02  0.45594000000E+02  0.51100000000E-03 0. -1.
    9900012    2    1    2    0    0 -0.59918211702E+01  0.13627407489E+02  0.11360908047E+02  0.72461591175E+02  0.70000027201E+02 0.  0.
         12    1    1    2    0    0  0.59918211702E+01 -0.13627407489E+02 -0.11360908047E+02  0.18726408825E+02  0.00000000000E+00 0. -1.
         11    1    3    3    0    0 -0.28531146273E+02  0.22015854682E+02  0.23789451103E+02  0.43181733975E+02  0.51100000000E-03 0. -1.
        -11    1    3    3    0    0  0.17858478285E+02 -0.12028134167E+01 -0.76781644543E+01  0.19476298838E+02  0.51100000000E-03 0.  1.
        -12    1    3    3    0    0  0.46808468183E+01 -0.71856337766E+01 -0.47503786016E+01  0.98035583624E+01  0.00000000000E+00 0.  1.
</event>
<event>
 7    1  0.1360399E-013  0.7246156E+02  0.7816164E-02  0.1226708E+00
        -11   -1    0    0    0    0  0.00000000000E+00  0.00000000000E+00  0.45593999997E+02  0.45594000000E+02  0.51100000000E-03 0. -1.
         11   -1    0    0    0    0 -0.00000000000E+00 -0.00000000000E+00 -0.45593999997E+02  0.45594000000E+02  0.51100000000E-03 0.  1.
    9900012    2    1    2    0    0  0.63558173369E+01 -0.15469366661E+02  0.84250697086E+01  0.72461560976E+02  0.69999987862E+02 0.  0.
         12    1    1    2    0    0 -0.63558173369E+01  0.15469366661E+02 -0.84250697086E+01  0.18726439024E+02  0.00000000000E+00 0. -1.
         11    1    3    3    0    0 -0.15192787658E+02  0.46258799113E+01  0.11685768622E+02  0.19717422508E+02  0.51100000000E-03 0. -1.
        -11    1    3    3    0    0  0.33490604277E+02 -0.11531825687E+02 -0.96633032908E+01  0.36714888115E+02  0.51100000000E-03 0.  1.
        -12    1    3    3    0    0 -0.11941999282E+02 -0.85634208855E+01  0.64026043771E+01  0.16029250354E+02  0.00000000000E+00 0.  1.
</event>
<event>
 7    1  0.1360399E-013  0.7246154E+02  0.7816164E-02  0.1226708E+00
        -11   -1    0    0    0    0  0.00000000000E+00  0.00000000000E+00  0.45593999997E+02  0.45594000000E+02  0.51100000000E-03 0. -1.
         11   -1    0    0    0    0 -0.00000000000E+00 -0.00000000000E+00 -0.45593999997E+02  0.45594000000E+02  0.51100000000E-03 0.  1.
    9900012    2    1    2    0    0 -0.27046003752E+01 -0.14236792778E+02 -0.11860817929E+02  0.72461544550E+02  0.69999966463E+02 0.  0.
         12    1    1    2    0    0  0.27046003752E+01  0.14236792778E+02  0.11860817929E+02  0.18726455450E+02  0.00000000000E+00 0. -1.
         11    1    3    3    0    0 -0.94410397907E+01  0.19155474351E+02  0.14753534189E+02  0.25956351848E+02  0.51100000000E-03 0. -1.
        -11    1    3    3    0    0 -0.93818624364E+00 -0.25136655490E+02 -0.24347578954E+02  0.35007659788E+02  0.51100000000E-03 0.  1.
        -12    1    3    3    0    0  0.76746256592E+01 -0.82556116386E+01 -0.22667731641E+01  0.11497532914E+02  0.00000000000E+00 0.  1.
</event>
<event>
 7    1  0.1360399E-013  0.7246157E+02  0.7816164E-02  0.1226708E+00
        -11   -1    0    0    0    0  0.00000000000E+00  0.00000000000E+00  0.45593999997E+02  0.45594000000E+02  0.51100000000E-03 0.  1.
         11   -1    0    0    0    0 -0.00000000000E+00 -0.00000000000E+00 -0.45593999997E+02  0.45594000000E+02  0.51100000000E-03 0. -1.
    9900012    2    1    2    0    0  0.85373716374E+00 -0.18234690684E+02  0.41768826505E+01  0.72461570544E+02  0.70000000326E+02 0.  0.
         12    1    1    2    0    0 -0.85373716374E+00  0.18234690684E+02 -0.41768826505E+01  0.18726429456E+02  0.00000000000E+00 0. -1.
         11    1    3    3    0    0  0.18473107536E+02 -0.96308487040E+01  0.18259469054E+02  0.27702295197E+02  0.51100000000E-03 0. -1.
        -11    1    3    3    0    0 -0.96274344523E+01  0.82743008102E+01  0.86336911220E+01  0.15352269236E+02  0.51100000000E-03 0.  1.
         12    1    3    3    0    0 -0.79919359202E+01 -0.16878142790E+02 -0.22716277526E+02  0.29407006111E+02  0.00000000000E+00 0. -1.
</event>
<event>
 7    1  0.1360399E-013  0.7246147E+02  0.7816164E-02  0.1226708E+00
        -11   -1    0    0    0    0  0.00000000000E+00  0.00000000000E+00  0.45593999997E+02  0.45594000000E+02  0.51100000000E-03 0.  1.
         11   -1    0    0    0    0 -0.00000000000E+00 -0.00000000000E+00 -0.45593999997E+02  0.45594000000E+02  0.51100000000E-03 0. -1.
    9900012    2    1    2    0    0 -0.16098610646E+02 -0.81321202459E+00  0.95318634997E+01  0.72461468012E+02  0.69999866758E+02 0.  0.
         12    1    1    2    0    0  0.16098610646E+02  0.81321202459E+00 -0.95318634997E+01  0.18726531988E+02  0.00000000000E+00 0. -1.
         11    1    3    3    0    0 -0.24206725309E+02 -0.93375921872E+01 -0.63288859792E+01  0.26706010111E+02  0.51100000000E-03 0. -1.
        -11    1    3    3    0    0  0.27698694550E+01  0.10927439311E+02  0.29139197298E+02  0.31243782200E+02  0.51100000000E-03 0.  1.
         12    1    3    3    0    0  0.53382452085E+01 -0.24030591487E+01 -0.13278447819E+02  0.14511675702E+02  0.00000000000E+00 0. -1.
</event>
<event>
 7    1  0.1360399E-013  0.7246155E+02  0.7816164E-02  0.1226708E+00
        -11   -1    0    0    0    0  0.00000000000E+00  0.00000000000E+00  0.45593999997E+02  0.45594000000E+02  0.51100000000E-03 0. -1.
         11   -1    0    0    0    0 -0.00000000000E+00 -0.00000000000E+00 -0.45593999997E+02  0.45594000000E+02  0.51100000000E-03 0.  1.
    9900012    2    1    2    0    0  0.11486989011E+02  0.88936603168E+01 -0.11816584825E+02  0.72461553799E+02  0.69999978512E+02 0.  0.
         12    1    1    2    0    0 -0.11486989011E+02 -0.88936603168E+01  0.11816584825E+02  0.18726446201E+02  0.00000000000E+00 0. -1.
         11    1    3    3    0    0 -0.12774619810E+02 -0.16465724883E+02 -0.24934503392E+02  0.32496776254E+02  0.51100000000E-03 0. -1.
        -11    1    3    3    0    0  0.10662782592E+02  0.10246022123E+02 -0.15881654419E+01  0.14872732488E+02  0.51100000000E-03 0.  1.
         12    1    3    3    0    0  0.13598826229E+02  0.15113363077E+02  0.14706084009E+02  0.25092045057E+02  0.00000000000E+00 0. -1.
</event>
<event>
 7    1  0.1360399E-013  0.7246121E+02  0.7816164E-02  0.1226709E+00
        -11   -1    0    0    0    0  0.00000000000E+00  0.00000000000E+00  0.45593999997E+02  0.45594000000E+02  0.51100000000E-03 0.  1.
         11   -1    0    0    0    0 -0.00000000000E+00 -0.00000000000E+00 -0.45593999997E+02  0.45594000000E+02  0.51100000000E-03 0. -1.
    9900012    2    1    2    0    0  0.57767081932E+01 -0.17639847681E+02  0.24815835472E+01  0.72461205275E+02  0.69999524493E+02 0.  0.
         12    1    1    2    0    0 -0.57767081932E+01  0.17639847681E+02 -0.24815835472E+01  0.18726794725E+02  0.00000000000E+00 0. -1.
         11    1    3    3    0    0  0.18225168308E+02  0.72258325493E+01 -0.10004553008E+02  0.22010463354E+02  0.51100000000E-03 0. -1.
        -11    1    3    3    0    0  0.82844834188E+01 -0.15227873027E+02  0.19921939037E+02  0.26408416039E+02  0.51100000000E-03 0.  1.
         12    1    3    3    0    0 -0.20732943534E+02 -0.96378072030E+01 -0.74358024818E+01  0.24042325882E+02  0.00000000000E+00 0. -1.
</event>
<event>
 7    1  0.1360399E-013  0.7246172E+02  0.7816164E-02  0.1226708E+00
        -11   -1    0    0    0    0  0.00000000000E+00  0.00000000000E+00  0.45593999997E+02  0.45594000000E+02  0.51100000000E-03 0.  1.
         11   -1    0    0    0    0 -0.00000000000E+00 -0.00000000000E+00 -0.45593999997E+02  0.45594000000E+02  0.51100000000E-03 0. -1.
    9900012    2    1    2    0    0  0.11381051190E+01  0.15742663939E+02  0.10077040066E+02  0.72461722002E+02  0.70000197628E+02 0.  0.
         12    1    1    2    0    0 -0.11381051190E+01 -0.15742663939E+02 -0.10077040066E+02  0.18726277998E+02  0.00000000000E+00 0. -1.
         11    1    3    3    0    0 -0.19415682375E+02  0.71381818859E+01  0.22210014160E+02  0.30351393575E+02  0.51100000000E-03 0. -1.
        -11    1    3    3    0    0  0.13100526104E+02 -0.56749753457E+01 -0.19687430955E+02  0.24319211896E+02  0.51100000000E-03 0.  1.
        -12    1    3    3    0    0  0.74532613902E+01  0.14279457399E+02  0.75544568607E+01  0.17791116531E+02  0.00000000000E+00 0.  1.
</event>
<event>
 7    1  0.1360399E-013  0.7246158E+02  0.7816164E-02  0.1226708E+00
        -11   -1    0    0    0    0  0.00000000000E+00  0.00000000000E+00  0.45593999997E+02  0.45594000000E+02  0.51100000000E-03 0.  1.
         11   -1    0    0    0    0 -0.00000000000E+00 -0.00000000000E+00 -0.45593999997E+02  0.45594000000E+02  0.51100000000E-03 0. -1.
    9900012    2    1    2    0    0  0.86045161809E+01  0.52403637597E+01  0.15785430787E+02  0.72461576525E+02  0.70000008117E+02 0.  0.
         12    1    1    2    0    0 -0.86045161809E+01 -0.52403637597E+01 -0.15785430787E+02  0.18726423475E+02  0.00000000000E+00 0. -1.
         11    1    3    3    0    0  0.28651711082E+02 -0.54854306335E+01 -0.11875841347E+02  0.31496763408E+02  0.51100000000E-03 0. -1.
        -11    1    3    3    0    0 -0.19339771782E+02  0.17313893071E-01  0.15838891965E+02  0.24997951342E+02  0.51100000000E-03 0.  1.
         12    1    3    3    0    0 -0.70742311912E+00  0.10708480500E+02  0.11822380169E+02  0.15966861775E+02  0.00000000000E+00 0. -1.
</event>
<event>
 7    1  0.1360399E-013  0.7246152E+02  0.7816164E-02  0.1226708E+00
        -11   -1    0    0    0    0  0.00000000000E+00  0.00000000000E+00  0.45593999997E+02  0.45594000000E+02  0.51100000000E-03 0. -1.
         11   -1    0    0    0    0 -0.00000000000E+00 -0.00000000000E+00 -0.45593999997E+02  0.45594000000E+02  0.51100000000E-03 0.  1.
    9900012    2    1    2    0    0  0.12823520954E+02  0.13644444059E+02  0.25979440321E+00  0.72461520446E+02  0.69999935064E+02 0.  0.
         12    1    1    2    0    0 -0.12823520954E+02 -0.13644444059E+02 -0.25979440321E+00  0.18726479554E+02  0.00000000000E+00 0. -1.
         11    1    3    3    0    0  0.36555319606E+01 -0.88418453081E+01 -0.15741905473E+02  0.18421420427E+02  0.51100000000E-03 0. -1.
        -11    1    3    3    0    0 -0.18103989546E+02  0.41631133412E+01  0.79883517511E+01  0.20221268855E+02  0.51100000000E-03 0.  1.
        -12    1    3    3    0    0  0.27271978539E+02  0.18323176026E+02  0.80133481255E+01  0.33818831164E+02  0.00000000000E+00 0.  1.
</event>
<event>
 7    1  0.1360399E-013  0.7246157E+02  0.7816164E-02  0.1226708E+00
        -11   -1    0    0    0    0  0.00000000000E+00  0.00000000000E+00  0.45593999997E+02  0.45594000000E+02  0.51100000000E-03 0. -1.
         11   -1    0    0    0    0 -0.00000000000E+00 -0.00000000000E+00 -0.45593999997E+02  0.45594000000E+02  0.51100000000E-03 0.  1.
    9900012    2    1    2    0    0  0.16472302321E+02 -0.34638415293E-01 -0.89073659504E+01  0.72461571837E+02  0.70000002010E+02 0.  0.
         12    1    1    2    0    0 -0.16472302321E+02  0.34638415293E-01  0.89073659504E+01  0.18726428163E+02  0.00000000000E+00 0. -1.
         11    1    3    3    0    0 -0.10778610900E+02 -0.41575144238E+01 -0.12080162046E+02  0.16715073869E+02  0.51100000000E-03 0. -1.
        -11    1    3    3    0    0  0.18877622295E+02  0.25636994680E+02  0.62841070364E+01  0.32451658220E+02  0.51100000000E-03 0.  1.
        -12    1    3    3    0    0  0.83732909258E+01 -0.21514118671E+02 -0.31113109407E+01  0.23294839748E+02  0.00000000000E+00 0.  1.
</event>
<event>
 7    1  0.1360399E-013  0.7246158E+02  0.7816164E-02  0.1226708E+00
        -11   -1    0    0    0    0  0.00000000000E+00  0.00000000000E+00  0.45593999997E+02  0.45594000000E+02  0.51100000000E-03 0. -1.
         11   -1    0    0    0    0 -0.00000000000E+00 -0.00000000000E+00 -0.45593999997E+02  0.45594000000E+02  0.51100000000E-03 0.  1.
    9900012    2    1    2    0    0  0.11490979802E+02  0.68925019022E+01 -0.13081657397E+02  0.72461575901E+02  0.70000007304E+02 0.  0.
         12    1    1    2    0    0 -0.11490979802E+02 -0.68925019022E+01  0.13081657397E+02  0.18726424099E+02  0.00000000000E+00 0. -1.
         11    1    3    3    0    0  0.55920922936E+01  0.14468916640E+02 -0.20749325734E+02  0.25906670254E+02  0.51100000000E-03 0.  1.
        -11    1    3    3    0    0  0.11557328311E+02 -0.24628588371E+02  0.49620720402E+00  0.27210024342E+02  0.51100000000E-03 0. -1.
         12    1    3    3    0    0 -0.56584408030E+01  0.17052173633E+02  0.71714611332E+01  0.19344881305E+02  0.00000000000E+00 0. -1.
</event>
<event>
 7    1  0.1360399E-013  0.7246167E+02  0.7816164E-02  0.1226708E+00
        -11   -1    0    0    0    0  0.00000000000E+00  0.00000000000E+00  0.45593999997E+02  0.45594000000E+02  0.51100000000E-03 0.  1.
         11   -1    0    0    0    0 -0.00000000000E+00 -0.00000000000E+00 -0.45593999997E+02  0.45594000000E+02  0.51100000000E-03 0. -1.
    9900012    2    1    2    0    0  0.12555347917E+02  0.12054986267E+02 -0.69076885243E+01  0.72461665175E+02  0.70000123600E+02 0.  0.
         12    1    1    2    0    0 -0.12555347917E+02 -0.12054986267E+02  0.69076885243E+01  0.18726334825E+02  0.00000000000E+00 0. -1.
         11    1    3    3    0    0 -0.17420579692E+02 -0.18646538023E+01 -0.70399884152E+01  0.18881603951E+02  0.51100000000E-03 0. -1.
        -11    1    3    3    0    0  0.37394486667E+02  0.21435534137E+01  0.69286240033E+01  0.38091315089E+02  0.51100000000E-03 0.  1.
        -12    1    3    3    0    0 -0.74185590579E+01  0.11776086655E+02 -0.67963241124E+01  0.15488746136E+02  0.00000000000E+00 0.  1.
</event>
<event>
 7    1  0.1360399E-013  0.7246146E+02  0.7816164E-02  0.1226708E+00
        -11   -1    0    0    0    0  0.00000000000E+00  0.00000000000E+00  0.45593999997E+02  0.45594000000E+02  0.51100000000E-03 0. -1.
         11   -1    0    0    0    0 -0.00000000000E+00 -0.00000000000E+00 -0.45593999997E+02  0.45594000000E+02  0.51100000000E-03 0.  1.
    9900012    2    1    2    0    0 -0.20005784934E+01 -0.22324557104E+01 -0.18485048141E+02  0.72461463279E+02  0.69999860592E+02 0.  0.
         12    1    1    2    0    0  0.20005784934E+01  0.22324557104E+01  0.18485048141E+02  0.18726536721E+02  0.00000000000E+00 0. -1.
         11    1    3    3    0    0  0.14224724745E+02  0.17015821493E+02  0.10048953252E+02  0.24348766640E+02  0.51100000000E-03 0.  1.
        -11    1    3    3    0    0 -0.10703644910E+02 -0.19184469364E+02 -0.33911125408E+02  0.40405151971E+02  0.51100000000E-03 0. -1.
         12    1    3    3    0    0 -0.55216583279E+01 -0.63807839788E-01  0.53771240150E+01  0.77075446676E+01  0.00000000000E+00 0. -1.
</event>
<event>
 7    1  0.1360399E-013  0.7246155E+02  0.7816164E-02  0.1226708E+00
        -11   -1    0    0    0    0  0.00000000000E+00  0.00000000000E+00  0.45593999997E+02  0.45594000000E+02  0.51100000000E-03 0.  1.
         11   -1    0    0    0    0 -0.00000000000E+00 -0.00000000000E+00 -0.45593999997E+02  0.45594000000E+02  0.51100000000E-03 0. -1.
    9900012    2    1    2    0    0 -0.16835578204E+02 -0.39422687753E+01 -0.71903861471E+01  0.72461552673E+02  0.69999977044E+02 0.  0.
         12    1    1    2    0    0  0.16835578204E+02  0.39422687753E+01  0.71903861471E+01  0.18726447327E+02  0.00000000000E+00 0. -1.
         11    1    3    3    0    0 -0.11516715674E+01 -0.10683797679E+02 -0.28004218677E+02  0.29995102004E+02  0.51100000000E-03 0. -1.
        -11    1    3    3    0    0  0.50294766484E+01  0.31440004578E+01  0.20605254284E+02  0.21441942044E+02  0.51100000000E-03 0.  1.
        -12    1    3    3    0    0 -0.20713383285E+02  0.35975284458E+01  0.20857824592E+00  0.21024508625E+02  0.00000000000E+00 0.  1.
</event>
<event>
 7    1  0.1360399E-013  0.7246157E+02  0.7816164E-02  0.1226708E+00
        -11   -1    0    0    0    0  0.00000000000E+00  0.00000000000E+00  0.45593999997E+02  0.45594000000E+02  0.51100000000E-03 0. -1.
         11   -1    0    0    0    0 -0.00000000000E+00 -0.00000000000E+00 -0.45593999997E+02  0.45594000000E+02  0.51100000000E-03 0.  1.
    9900012    2    1    2    0    0  0.47163800120E+01  0.35072850687E+01  0.17780153112E+02  0.72461571252E+02  0.70000001247E+02 0.  0.
         12    1    1    2    0    0 -0.47163800120E+01 -0.35072850687E+01 -0.17780153112E+02  0.18726428748E+02  0.00000000000E+00 0. -1.
         11    1    3    3    0    0  0.25221153823E+01 -0.15407526457E+02  0.89393795108E+01  0.17990704373E+02  0.51100000000E-03 0. -1.
        -11    1    3    3    0    0 -0.23901320468E+02  0.84214783342E+01  0.14161253000E+01  0.25381091950E+02  0.51100000000E-03 0.  1.
        -12    1    3    3    0    0  0.26095585097E+02  0.10493333191E+02  0.74246483016E+01  0.29089774929E+02  0.00000000000E+00 0.  1.
</event>
<event>
 7    1  0.1360399E-013  0.7246160E+02  0.7816164E-02  0.1226708E+00
        -11   -1    0    0    0    0  0.00000000000E+00  0.00000000000E+00  0.45593999997E+02  0.45594000000E+02  0.51100000000E-03 0.  1.
         11   -1    0    0    0    0 -0.00000000000E+00 -0.00000000000E+00 -0.45593999997E+02  0.45594000000E+02  0.51100000000E-03 0. -1.
    9900012    2    1    2    0    0  0.81464498246E+00  0.14619420872E+02  0.11674199391E+02  0.72461600332E+02  0.70000039130E+02 0.  0.
         12    1    1    2    0    0 -0.81464498246E+00 -0.14619420872E+02 -0.11674199391E+02  0.18726399668E+02  0.00000000000E+00 0. -1.
         11    1    3    3    0    0  0.33464565819E+01 -0.12544747149E+01 -0.22782159762E+02  0.23060773667E+02  0.51100000000E-03 0. -1.
        -11    1    3    3    0    0  0.38721339021E+01 -0.31097099426E+00  0.31508680042E+02  0.31747236764E+02  0.51100000000E-03 0.  1.
        -12    1    3    3    0    0 -0.64039455015E+01  0.16184866582E+02  0.29476791107E+01  0.17653589901E+02  0.00000000000E+00 0.  1.
</event>
<event>
 7    1  0.1360399E-013  0.7246161E+02  0.7816164E-02  0.1226708E+00
        -11   -1    0    0    0    0  0.00000000000E+00  0.00000000000E+00  0.45593999997E+02  0.45594000000E+02  0.51100000000E-03 0. -1.
         11   -1    0    0    0    0 -0.00000000000E+00 -0.00000000000E+00 -0.45593999997E+02  0.45594000000E+02  0.51100000000E-03 0.  1.
    9900012    2    1    2    0    0 -0.36018744560E+01  0.11045926332E+02 -0.14686440643E+02  0.72461614153E+02  0.70000057134E+02 0.  0.
         12    1    1    2    0    0  0.36018744560E+01 -0.11045926332E+02  0.14686440643E+02  0.18726385847E+02  0.00000000000E+00 0. -1.
         11    1    3    3    0    0  0.11578993462E+02  0.12851901374E+02  0.24082292274E+01  0.17465509634E+02  0.51100000000E-03 0. -1.
        -11    1    3    3    0    0 -0.28388829312E+02  0.91384638406E+01 -0.22109376700E+02  0.37124946995E+02  0.51100000000E-03 0.  1.
        -12    1    3    3    0    0  0.13207961394E+02 -0.10944438882E+02  0.50147068299E+01  0.17871157524E+02  0.00000000000E+00 0.  1.
</event>
<event>
 7    1  0.1360399E-013  0.7246165E+02  0.7816164E-02  0.1226708E+00
        -11   -1    0    0    0    0  0.00000000000E+00  0.00000000000E+00  0.45593999997E+02  0.45594000000E+02  0.51100000000E-03 0.  1.
         11   -1    0    0    0    0 -0.00000000000E+00 -0.00000000000E+00 -0.45593999997E+02  0.45594000000E+02  0.51100000000E-03 0. -1.
    9900012    2    1    2    0    0 -0.14457368631E+02  0.61690135033E+01  0.10178601491E+02  0.72461650552E+02  0.70000104551E+02 0.  0.
         12    1    1    2    0    0  0.14457368631E+02 -0.61690135033E+01 -0.10178601491E+02  0.18726349448E+02  0.00000000000E+00 0. -1.
         11    1    3    3    0    0 -0.11859925652E+01 -0.57826777442E+01  0.15092865624E+02  0.16206188116E+02  0.51100000000E-03 0. -1.
        -11    1    3    3    0    0 -0.30296615184E+02 -0.22575623967E+01 -0.12452387590E+02  0.32833571790E+02  0.51100000000E-03 0.  1.
        -12    1    3    3    0    0  0.17025239118E+02  0.14209253644E+02  0.75381234575E+01  0.23421890646E+02  0.00000000000E+00 0.  1.
</event>
<event>
 7    1  0.1360399E-013  0.7246177E+02  0.7816164E-02  0.1226707E+00
        -11   -1    0    0    0    0  0.00000000000E+00  0.00000000000E+00  0.45593999997E+02  0.45594000000E+02  0.51100000000E-03 0.  1.
         11   -1    0    0    0    0 -0.00000000000E+00 -0.00000000000E+00 -0.45593999997E+02  0.45594000000E+02  0.51100000000E-03 0. -1.
    9900012    2    1    2    0    0  0.15146448464E+02  0.10839496836E+02 -0.19396583187E+01  0.72461765271E+02  0.70000253992E+02 0.  0.
         12    1    1    2    0    0 -0.15146448464E+02 -0.10839496836E+02  0.19396583187E+01  0.18726234729E+02  0.00000000000E+00 0. -1.
         11    1    3    3    0    0  0.19712939209E+02  0.29212727595E+02  0.81310846109E+01  0.36167636957E+02  0.51100000000E-03 0. -1.
        -11    1    3    3    0    0  0.39218377029E+01 -0.24010619891E+02 -0.47110320465E+01  0.24780728434E+02  0.51100000000E-03 0.  1.
        -12    1    3    3    0    0 -0.84883284475E+01  0.56373891316E+01 -0.53597108832E+01  0.11513399880E+02  0.00000000000E+00 0.  1.
</event>
<event>
 7    1  0.1360399E-013  0.7246163E+02  0.7816164E-02  0.1226708E+00
        -11   -1    0    0    0    0  0.00000000000E+00  0.00000000000E+00  0.45593999997E+02  0.45594000000E+02  0.51100000000E-03 0.  1.
         11   -1    0    0    0    0 -0.00000000000E+00 -0.00000000000E+00 -0.45593999997E+02  0.45594000000E+02  0.51100000000E-03 0. -1.
    9900012    2    1    2    0    0  0.11886031019E+02  0.13867423509E+02 -0.41344776984E+01  0.72461626245E+02  0.70000072887E+02 0.  0.
         12    1    1    2    0    0 -0.11886031019E+02 -0.13867423509E+02  0.41344776984E+01  0.18726373755E+02  0.00000000000E+00 0. -1.
         11    1    3    3    0    0  0.26561879370E+02 -0.81525815967E+01 -0.23713769966E+02  0.36528631355E+02  0.51100000000E-03 0. -1.
        -11    1    3    3    0    0 -0.88483098130E+01  0.11215288656E+02  0.18827846109E+02  0.23633939061E+02  0.51100000000E-03 0.  1.
         12    1    3    3    0    0 -0.58275385383E+01  0.10804716449E+02  0.75144615836E+00  0.12299055829E+02  0.00000000000E+00 0. -1.
</event>
<event>
 7    1  0.1360399E-013  0.7246157E+02  0.7816164E-02  0.1226708E+00
        -11   -1    0    0    0    0  0.00000000000E+00  0.00000000000E+00  0.45593999997E+02  0.45594000000E+02  0.51100000000E-03 0. -1.
         11   -1    0    0    0    0 -0.00000000000E+00 -0.00000000000E+00 -0.45593999997E+02  0.45594000000E+02  0.51100000000E-03 0.  1.
    9900012    2    1    2    0    0  0.11548167958E+02  0.18125249255E+01 -0.14629887413E+02  0.72461573872E+02  0.70000004661E+02 0.  0.
         12    1    1    2    0    0 -0.11548167958E+02 -0.18125249255E+01  0.14629887413E+02  0.18726426128E+02  0.00000000000E+00 0. -1.
         11    1    3    3    0    0 -0.26477945288E+02 -0.67658632750E+01 -0.17783576972E+02  0.32605430571E+02  0.51100000000E-03 0. -1.
        -11    1    3    3    0    0  0.68144271464E+01 -0.10537927941E+01  0.19666895878E+01  0.71704089689E+01  0.51100000000E-03 0.  1.
         12    1    3    3    0    0  0.31211686100E+02  0.96321809945E+01  0.11869999705E+01  0.32685734332E+02  0.00000000000E+00 0. -1.
</event>
<event>
 7    1  0.1360399E-013  0.7246157E+02  0.7816164E-02  0.1226708E+00
        -11   -1    0    0    0    0  0.00000000000E+00  0.00000000000E+00  0.45593999997E+02  0.45594000000E+02  0.51100000000E-03 0.  1.
         11   -1    0    0    0    0 -0.00000000000E+00 -0.00000000000E+00 -0.45593999997E+02  0.45594000000E+02  0.51100000000E-03 0. -1.
    9900012    2    1    2    0    0  0.14373044718E+02 -0.11526477295E+02 -0.33518525535E+01  0.72461574585E+02  0.70000005590E+02 0.  0.
         12    1    1    2    0    0 -0.14373044718E+02  0.11526477295E+02  0.33518525535E+01  0.18726425415E+02  0.00000000000E+00 0. -1.
         11    1    3    3    0    0  0.17191918893E+02  0.52544825029E+01  0.23241948254E+02  0.29382985221E+02  0.51100000000E-03 0. -1.
        -11    1    3    3    0    0  0.10021576568E+02  0.23292947866E+01 -0.12055993427E+02  0.15849434971E+02  0.51100000000E-03 0.  1.
         12    1    3    3    0    0 -0.12840450743E+02 -0.19110254584E+02 -0.14537807380E+02  0.27229154393E+02  0.00000000000E+00 0. -1.
</event>
<event>
 7    1  0.1360399E-013  0.7246157E+02  0.7816164E-02  0.1226708E+00
        -11   -1    0    0    0    0  0.00000000000E+00  0.00000000000E+00  0.45593999997E+02  0.45594000000E+02  0.51100000000E-03 0. -1.
         11   -1    0    0    0    0 -0.00000000000E+00 -0.00000000000E+00 -0.45593999997E+02  0.45594000000E+02  0.51100000000E-03 0.  1.
    9900012    2    1    2    0    0  0.55840830875E+01 -0.19927540700E+01 -0.17763054067E+02  0.72461571016E+02  0.70000000940E+02 0.  0.
         12    1    1    2    0    0 -0.55840830875E+01  0.19927540700E+01  0.17763054067E+02  0.18726428984E+02  0.00000000000E+00 0. -1.
         11    1    3    3    0    0  0.27051873141E+02 -0.11587865225E+02 -0.59721794992E+01  0.30029142331E+02  0.51100000000E-03 0. -1.
        -11    1    3    3    0    0 -0.70897618620E+01 -0.10510895623E+02 -0.12362189106E+02  0.17707833572E+02  0.51100000000E-03 0.  1.
         12    1    3    3    0    0 -0.14378028191E+02  0.20106006777E+02  0.57131453822E+00  0.24724595113E+02  0.00000000000E+00 0. -1.
</event>
<event>
 7    1  0.1360399E-013  0.7246154E+02  0.7816164E-02  0.1226708E+00
        -11   -1    0    0    0    0  0.00000000000E+00  0.00000000000E+00  0.45593999997E+02  0.45594000000E+02  0.51100000000E-03 0.  1.
         11   -1    0    0    0    0 -0.00000000000E+00 -0.00000000000E+00 -0.45593999997E+02  0.45594000000E+02  0.51100000000E-03 0. -1.
    9900012    2    1    2    0    0 -0.94110998910E+01 -0.14849551291E+02  0.64499752406E+01  0.72461543974E+02  0.69999965712E+02 0.  0.
         12    1    1    2    0    0  0.94110998910E+01  0.14849551291E+02 -0.64499752406E+01  0.18726456026E+02  0.00000000000E+00 0. -1.
         11    1    3    3    0    0 -0.11408456288E+02 -0.20915457561E+01 -0.22987529009E+02  0.25747891734E+02  0.51100000000E-03 0. -1.
        -11    1    3    3    0    0  0.14572928982E+02 -0.77060303981E+01  0.26548377124E+01  0.16697344914E+02  0.51100000000E-03 0.  1.
         12    1    3    3    0    0 -0.12575572585E+02 -0.50519751369E+01  0.26782666538E+02  0.30016307326E+02  0.00000000000E+00 0. -1.
</event>
<event>
 7    1  0.1360399E-013  0.7246147E+02  0.7816164E-02  0.1226708E+00
        -11   -1    0    0    0    0  0.00000000000E+00  0.00000000000E+00  0.45593999997E+02  0.45594000000E+02  0.51100000000E-03 0.  1.
         11   -1    0    0    0    0 -0.00000000000E+00 -0.00000000000E+00 -0.45593999997E+02  0.45594000000E+02  0.51100000000E-03 0. -1.
    9900012    2    1    2    0    0  0.11285999402E+01 -0.64487517380E+01  0.17544881080E+02  0.72461468316E+02  0.69999867154E+02 0.  0.
         12    1    1    2    0    0 -0.11285999402E+01  0.64487517380E+01 -0.17544881080E+02  0.18726531684E+02  0.00000000000E+00 0. -1.
         11    1    3    3    0    0 -0.20011083168E+02  0.26834195473E+01 -0.37272665602E+01  0.20531359095E+02  0.51100000000E-03 0. -1.
        -11    1    3    3    0    0  0.25134987599E+02  0.10314728149E+02  0.91488322569E+01  0.28668141731E+02  0.51100000000E-03 0.  1.
        -12    1    3    3    0    0 -0.39953044907E+01 -0.19446899435E+02  0.12123315383E+02  0.23261967489E+02  0.00000000000E+00 0.  1.
</event>
<event>
 7    1  0.1360399E-013  0.7246156E+02  0.7816164E-02  0.1226708E+00
        -11   -1    0    0    0    0  0.00000000000E+00  0.00000000000E+00  0.45593999997E+02  0.45594000000E+02  0.51100000000E-03 0.  1.
         11   -1    0    0    0    0 -0.00000000000E+00 -0.00000000000E+00 -0.45593999997E+02  0.45594000000E+02  0.51100000000E-03 0. -1.
    9900012    2    1    2    0    0 -0.98562669240E+01 -0.15561669845E+02  0.33716667397E+01  0.72461556059E+02  0.69999981456E+02 0.  0.
         12    1    1    2    0    0  0.98562669240E+01  0.15561669845E+02 -0.33716667397E+01  0.18726443941E+02  0.00000000000E+00 0. -1.
         11    1    3    3    0    0 -0.14234043896E+02  0.13756315777E+02 -0.18382145733E+02  0.27013839257E+02  0.51100000000E-03 0. -1.
        -11    1    3    3    0    0  0.10054206630E+00  0.20225452247E+01  0.12255017078E+02  0.12421201300E+02  0.51100000000E-03 0.  1.
         12    1    3    3    0    0  0.42772349058E+01 -0.31340530848E+02  0.94987953941E+01  0.33026515502E+02  0.00000000000E+00 0. -1.
</event>
<event>
 7    1  0.1360399E-013  0.7246156E+02  0.7816164E-02  0.1226708E+00
        -11   -1    0    0    0    0  0.00000000000E+00  0.00000000000E+00  0.45593999997E+02  0.45594000000E+02  0.51100000000E-03 0.  1.
         11   -1    0    0    0    0 -0.00000000000E+00 -0.00000000000E+00 -0.45593999997E+02  0.45594000000E+02  0.51100000000E-03 0. -1.
    9900012    2    1    2    0    0 -0.36969456316E+01  0.11298860806E+02  0.14468859773E+02  0.72461559718E+02  0.69999986222E+02 0.  0.
         12    1    1    2    0    0  0.36969456316E+01 -0.11298860806E+02 -0.14468859773E+02  0.18726440282E+02  0.00000000000E+00 0. -1.
         11    1    3    3    0    0  0.16432015066E+02  0.17469344614E+02 -0.16613506670E+02  0.29175293049E+02  0.51100000000E-03 0. -1.
        -11    1    3    3    0    0 -0.27735952412E+01 -0.11185911808E+02  0.82593816145E+01  0.14178675483E+02  0.51100000000E-03 0.  1.
         12    1    3    3    0    0 -0.17355365456E+02  0.50154280001E+01  0.22822984828E+02  0.29107591185E+02  0.00000000000E+00 0. -1.
</event>
<event>
 7    1  0.1360399E-013  0.7246157E+02  0.7816164E-02  0.1226708E+00
        -11   -1    0    0    0    0  0.00000000000E+00  0.00000000000E+00  0.45593999997E+02  0.45594000000E+02  0.51100000000E-03 0.  1.
         11   -1    0    0    0    0 -0.00000000000E+00 -0.00000000000E+00 -0.45593999997E+02  0.45594000000E+02  0.51100000000E-03 0. -1.
    9900012    2    1    2    0    0  0.15886274939E+02 -0.48584340996E+01  0.86429848745E+01  0.72461566787E+02  0.69999995432E+02 0.  0.
         12    1    1    2    0    0 -0.15886274939E+02  0.48584340996E+01 -0.86429848745E+01  0.18726433213E+02  0.00000000000E+00 0. -1.
         11    1    3    3    0    0  0.27503186256E+02  0.42113915976E+01  0.20106362247E+02  0.34328222740E+02  0.51100000000E-03 0. -1.
        -11    1    3    3    0    0  0.34026395016E+01 -0.17900372467E+02 -0.96433299693E+01  0.20615409363E+02  0.51100000000E-03 0.  1.
         12    1    3    3    0    0 -0.15019550819E+02  0.88305467700E+01 -0.18200474027E+01  0.17517934685E+02  0.00000000000E+00 0. -1.
</event>
<event>
 7    1  0.1360399E-013  0.7246157E+02  0.7816164E-02  0.1226708E+00
        -11   -1    0    0    0    0  0.00000000000E+00  0.00000000000E+00  0.45593999997E+02  0.45594000000E+02  0.51100000000E-03 0.  1.
         11   -1    0    0    0    0 -0.00000000000E+00 -0.00000000000E+00 -0.45593999997E+02  0.45594000000E+02  0.51100000000E-03 0. -1.
    9900012    2    1    2    0    0  0.83437419061E+01 -0.66231778745E+01  0.15401128836E+02  0.72461567249E+02  0.69999996033E+02 0.  0.
         12    1    1    2    0    0 -0.83437419061E+01  0.66231778745E+01 -0.15401128836E+02  0.18726432751E+02  0.00000000000E+00 0. -1.
         11    1    3    3    0    0  0.95045493707E+01 -0.26797091488E+02 -0.13257815740E+02  0.31371806601E+02  0.51100000000E-03 0. -1.
        -11    1    3    3    0    0 -0.34884502032E+01  0.43706467338E+01  0.23719422422E+02  0.24369711488E+02  0.51100000000E-03 0.  1.
         12    1    3    3    0    0  0.23276427386E+01  0.15803266880E+02  0.49395221541E+01  0.16720049160E+02  0.00000000000E+00 0. -1.
</event>
<event>
 7    1  0.1360399E-013  0.7246152E+02  0.7816164E-02  0.1226708E+00
        -11   -1    0    0    0    0  0.00000000000E+00  0.00000000000E+00  0.45593999997E+02  0.45594000000E+02  0.51100000000E-03 0. -1.
         11   -1    0    0    0    0 -0.00000000000E+00 -0.00000000000E+00 -0.45593999997E+02  0.45594000000E+02  0.51100000000E-03 0.  1.
    9900012    2    1    2    0    0 -0.89749676824E+01 -0.12430450681E+02 -0.10752441332E+02  0.72461517585E+02  0.69999931336E+02 0.  0.
         12    1    1    2    0    0  0.89749676824E+01  0.12430450681E+02  0.10752441332E+02  0.18726482415E+02  0.00000000000E+00 0. -1.
         11    1    3    3    0    0  0.17334050894E+01 -0.94659274960E+01  0.15674385163E+02  0.18392792802E+02  0.51100000000E-03 0. -1.
        -11    1    3    3    0    0 -0.15248429807E+01  0.36338980474E+01 -0.37815024942E+02  0.38019816843E+02  0.51100000000E-03 0.  1.
        -12    1    3    3    0    0 -0.91835297910E+01 -0.65984212329E+01  0.11388198447E+02  0.16048907940E+02  0.00000000000E+00 0.  1.
</event>
<event>
 7    1  0.1360399E-013  0.7246158E+02  0.7816164E-02  0.1226708E+00
        -11   -1    0    0    0    0  0.00000000000E+00  0.00000000000E+00  0.45593999997E+02  0.45594000000E+02  0.51100000000E-03 0. -1.
         11   -1    0    0    0    0 -0.00000000000E+00 -0.00000000000E+00 -0.45593999997E+02  0.45594000000E+02  0.51100000000E-03 0.  1.
    9900012    2    1    2    0    0 -0.11782085576E+02  0.14281751227E+02 -0.28094452059E+01  0.72461576396E+02  0.70000007949E+02 0.  0.
         12    1    1    2    0    0  0.11782085576E+02 -0.14281751227E+02  0.28094452059E+01  0.18726423604E+02  0.00000000000E+00 0. -1.
         11    1    3    3    0    0 -0.23180766556E+02  0.14281633079E+02  0.21047741601E+02  0.34413956592E+02  0.51100000000E-03 0. -1.
        -11    1    3    3    0    0 -0.50634455180E+01  0.45131872272E+01 -0.19187135518E+02  0.20350761881E+02  0.51100000000E-03 0.  1.
        -12    1    3    3    0    0  0.16462126498E+02 -0.45130690791E+01 -0.46700512889E+01  0.17696857924E+02  0.00000000000E+00 0.  1.
</event>
<event>
 7    1  0.1360399E-013  0.7246160E+02  0.7816164E-02  0.1226708E+00
        -11   -1    0    0    0    0  0.00000000000E+00  0.00000000000E+00  0.45593999997E+02  0.45594000000E+02  0.51100000000E-03 0.  1.
         11   -1    0    0    0    0 -0.00000000000E+00 -0.00000000000E+00 -0.45593999997E+02  0.45594000000E+02  0.51100000000E-03 0. -1.
    9900012    2    1    2    0    0  0.63170836565E+01 -0.14122529762E+01  0.17572084580E+02  0.72461597225E+02  0.70000035082E+02 0.  0.
         12    1    1    2    0    0 -0.63170836565E+01  0.14122529762E+01 -0.17572084580E+02  0.18726402775E+02  0.00000000000E+00 0. -1.
         11    1    3    3    0    0  0.52333419639E+01  0.50694249433E+01 -0.15738875010E+02  0.17343561462E+02  0.51100000000E-03 0. -1.
        -11    1    3    3    0    0 -0.25444701980E+01 -0.20211483335E+02  0.35321978151E+02  0.40775244057E+02  0.51100000000E-03 0.  1.
        -12    1    3    3    0    0  0.36282118907E+01  0.13729805415E+02 -0.20110185606E+01  0.14342791706E+02  0.00000000000E+00 0.  1.
</event>
<event>
 7    1  0.1360399E-013  0.7246151E+02  0.7816164E-02  0.1226708E+00
        -11   -1    0    0    0    0  0.00000000000E+00  0.00000000000E+00  0.45593999997E+02  0.45594000000E+02  0.51100000000E-03 0. -1.
         11   -1    0    0    0    0 -0.00000000000E+00 -0.00000000000E+00 -0.45593999997E+02  0.45594000000E+02  0.51100000000E-03 0.  1.
    9900012    2    1    2    0    0 -0.95300086271E+01 -0.52193597435E+01 -0.15251842952E+02  0.72461508230E+02  0.69999919150E+02 0.  0.
         12    1    1    2    0    0  0.95300086271E+01  0.52193597435E+01  0.15251842952E+02  0.18726491770E+02  0.00000000000E+00 0. -1.
         11    1    3    3    0    0  0.68260859532E+01 -0.66825308673E+01 -0.32264825255E+02  0.33649229073E+02  0.51100000000E-03 0.  1.
        -11    1    3    3    0    0 -0.19594834588E+02  0.12271615889E+02  0.14374768181E+02  0.27224695767E+02  0.51100000000E-03 0. -1.
         12    1    3    3    0    0  0.32387400076E+01 -0.10808444765E+02  0.26382141211E+01  0.11587583390E+02  0.00000000000E+00 0. -1.
</event>
<event>
 7    1  0.1360399E-013  0.7246138E+02  0.7816164E-02  0.1226709E+00
        -11   -1    0    0    0    0  0.00000000000E+00  0.00000000000E+00  0.45593999997E+02  0.45594000000E+02  0.51100000000E-03 0.  1.
         11   -1    0    0    0    0 -0.00000000000E+00 -0.00000000000E+00 -0.45593999997E+02  0.45594000000E+02  0.51100000000E-03 0. -1.
    9900012    2    1    2    0    0  0.14301054433E+02  0.21344254234E+01  0.11900011304E+02  0.72461382612E+02  0.69999755508E+02 0.  0.
         12    1    1    2    0    0 -0.14301054433E+02 -0.21344254234E+01 -0.11900011304E+02  0.18726617388E+02  0.00000000000E+00 0. -1.
         11    1    3    3    0    0  0.67295903655E+01  0.20432439413E+02  0.54873549978E+01  0.22200969168E+02  0.51100000000E-03 0. -1.
        -11    1    3    3    0    0  0.12183828787E+02 -0.77315755845E+01  0.24721030398E+02  0.28624330370E+02  0.51100000000E-03 0.  1.
         12    1    3    3    0    0 -0.46123647199E+01 -0.10566438405E+02 -0.18308374092E+02  0.21636083074E+02  0.00000000000E+00 0. -1.
</event>
<event>
 7    1  0.1360399E-013  0.7246159E+02  0.7816164E-02  0.1226708E+00
        -11   -1    0    0    0    0  0.00000000000E+00  0.00000000000E+00  0.45593999997E+02  0.45594000000E+02  0.51100000000E-03 0. -1.
         11   -1    0    0    0    0 -0.00000000000E+00 -0.00000000000E+00 -0.45593999997E+02  0.45594000000E+02  0.51100000000E-03 0.  1.
    9900012    2    1    2    0    0 -0.80339093846E+01  0.99288335757E+01  0.13695002366E+02  0.72461587477E+02  0.70000022384E+02 0.  0.
         12    1    1    2    0    0  0.80339093846E+01 -0.99288335757E+01 -0.13695002366E+02  0.18726412523E+02  0.00000000000E+00 0. -1.
         11    1    3    3    0    0 -0.68254398296E+00 -0.12799234114E+02  0.29728649109E+02  0.32374045751E+02  0.51100000000E-03 0. -1.
        -11    1    3    3    0    0 -0.10249477280E+02  0.12824405616E+02 -0.22542741761E+02  0.27887136286E+02  0.51100000000E-03 0.  1.
         12    1    3    3    0    0  0.28981118781E+01  0.99036620743E+01  0.65090950175E+01  0.12200405439E+02  0.00000000000E+00 0. -1.
</event>
<event>
 7    1  0.1360399E-013  0.7246152E+02  0.7816164E-02  0.1226708E+00
        -11   -1    0    0    0    0  0.00000000000E+00  0.00000000000E+00  0.45593999997E+02  0.45594000000E+02  0.51100000000E-03 0. -1.
         11   -1    0    0    0    0 -0.00000000000E+00 -0.00000000000E+00 -0.45593999997E+02  0.45594000000E+02  0.51100000000E-03 0.  1.
    9900012    2    1    2    0    0  0.64876594434E+01  0.14553597807E+02  0.98378959118E+01  0.72461517945E+02  0.69999931806E+02 0.  0.
         12    1    1    2    0    0 -0.64876594434E+01 -0.14553597807E+02 -0.98378959118E+01  0.18726482055E+02  0.00000000000E+00 0. -1.
         11    1    3    3    0    0  0.76340868568E+01  0.27618367592E+01 -0.23518197762E+02  0.24879964844E+02  0.51100000000E-03 0. -1.
        -11    1    3    3    0    0  0.66737546744E+01  0.20857962678E+02  0.20203594276E+02  0.29795617638E+02  0.51100000000E-03 0.  1.
         12    1    3    3    0    0 -0.78201820878E+01 -0.90662016305E+01  0.13152499397E+02  0.17785935463E+02  0.00000000000E+00 0. -1.
</event>
<event>
 7    1  0.1360399E-013  0.7246155E+02  0.7816164E-02  0.1226708E+00
        -11   -1    0    0    0    0  0.00000000000E+00  0.00000000000E+00  0.45593999997E+02  0.45594000000E+02  0.51100000000E-03 0.  1.
         11   -1    0    0    0    0 -0.00000000000E+00 -0.00000000000E+00 -0.45593999997E+02  0.45594000000E+02  0.51100000000E-03 0. -1.
    9900012    2    1    2    0    0  0.18194740521E+02  0.91663187912E-02  0.44307301048E+01  0.72461547161E+02  0.69999969865E+02 0.  0.
         12    1    1    2    0    0 -0.18194740521E+02 -0.91663187912E-02 -0.44307301048E+01  0.18726452839E+02  0.00000000000E+00 0. -1.
         11    1    3    3    0    0  0.21835527453E+01  0.90947581235E+01 -0.30199691050E+01  0.98286693694E+01  0.51100000000E-03 0. -1.
        -11    1    3    3    0    0  0.68702081189E+01 -0.11818798842E+02  0.32806845354E+02  0.35541143313E+02  0.51100000000E-03 0.  1.
        -12    1    3    3    0    0  0.91409796570E+01  0.27332070376E+01 -0.25356146144E+02  0.27091734479E+02  0.00000000000E+00 0.  1.
</event>
<event>
 7    1  0.1360399E-013  0.7246134E+02  0.7816164E-02  0.1226709E+00
        -11   -1    0    0    0    0  0.00000000000E+00  0.00000000000E+00  0.45593999997E+02  0.45594000000E+02  0.51100000000E-03 0.  1.
         11   -1    0    0    0    0 -0.00000000000E+00 -0.00000000000E+00 -0.45593999997E+02  0.45594000000E+02  0.51100000000E-03 0. -1.
    9900012    2    1    2    0    0 -0.90286350209E+01 -0.10717556245E+02  0.12421980574E+02  0.72461338162E+02  0.69999697604E+02 0.  0.
         12    1    1    2    0    0  0.90286350209E+01  0.10717556245E+02 -0.12421980574E+02  0.18726661838E+02  0.00000000000E+00 0. -1.
         11    1    3    3    0    0  0.15187129573E+02 -0.48381411695E+00  0.63161328652E+01  0.16455288372E+02  0.51100000000E-03 0. -1.
        -11    1    3    3    0    0 -0.37205330565E+02  0.12334872367E+01 -0.10960274509E+01  0.37241903680E+02  0.51100000000E-03 0.  1.
        -12    1    3    3    0    0  0.12989565972E+02 -0.11467229365E+02  0.72018751598E+01  0.18764146111E+02  0.00000000000E+00 0.  1.
</event>
<event>
 7    1  0.1360399E-013  0.7246164E+02  0.7816164E-02  0.1226708E+00
        -11   -1    0    0    0    0  0.00000000000E+00  0.00000000000E+00  0.45593999997E+02  0.45594000000E+02  0.51100000000E-03 0. -1.
         11   -1    0    0    0    0 -0.00000000000E+00 -0.00000000000E+00 -0.45593999997E+02  0.45594000000E+02  0.51100000000E-03 0.  1.
    9900012    2    1    2    0    0  0.45271304212E+01 -0.25318183678E+01 -0.17993651274E+02  0.72461641564E+02  0.70000092841E+02 0.  0.
         12    1    1    2    0    0 -0.45271304212E+01  0.25318183678E+01  0.17993651274E+02  0.18726358436E+02  0.00000000000E+00 0. -1.
         11    1    3    3    0    0 -0.15993572100E+00  0.37605502445E+01  0.81622130145E+01  0.89882723107E+01  0.51100000000E-03 0. -1.
        -11    1    3    3    0    0  0.12356983453E+02 -0.28850190434E+02 -0.24077147392E+02  0.39556763707E+02  0.51100000000E-03 0.  1.
        -12    1    3    3    0    0 -0.76699173113E+01  0.22557821822E+02 -0.20787168968E+01  0.23916605546E+02  0.00000000000E+00 0.  1.
</event>
<event>
 7    1  0.1360399E-013  0.7246155E+02  0.7816164E-02  0.1226708E+00
        -11   -1    0    0    0    0  0.00000000000E+00  0.00000000000E+00  0.45593999997E+02  0.45594000000E+02  0.51100000000E-03 0.  1.
         11   -1    0    0    0    0 -0.00000000000E+00 -0.00000000000E+00 -0.45593999997E+02  0.45594000000E+02  0.51100000000E-03 0. -1.
    9900012    2    1    2    0    0 -0.10050721404E+02 -0.11393055195E+02  0.10948107452E+02  0.72461554416E+02  0.69999979316E+02 0.  0.
         12    1    1    2    0    0  0.10050721404E+02  0.11393055195E+02 -0.10948107452E+02  0.18726445584E+02  0.00000000000E+00 0. -1.
         11    1    3    3    0    0  0.19244280946E+02 -0.12027097492E+02 -0.69782758644E+01  0.23742151493E+02  0.51100000000E-03 0. -1.
        -11    1    3    3    0    0 -0.14905005162E+02 -0.16165081413E+02  0.33823473990E+01  0.22246557265E+02  0.51100000000E-03 0.  1.
         12    1    3    3    0    0 -0.14389997187E+02  0.16799123710E+02  0.14544035918E+02  0.26472845658E+02  0.00000000000E+00 0. -1.
</event>
<event>
 7    1  0.1360399E-013  0.7246158E+02  0.7816164E-02  0.1226708E+00
        -11   -1    0    0    0    0  0.00000000000E+00  0.00000000000E+00  0.45593999997E+02  0.45594000000E+02  0.51100000000E-03 0. -1.
         11   -1    0    0    0    0 -0.00000000000E+00 -0.00000000000E+00 -0.45593999997E+02  0.45594000000E+02  0.51100000000E-03 0.  1.
    9900012    2    1    2    0    0 -0.40155887448E+01  0.12558605631E+02 -0.13297938775E+02  0.72461582723E+02  0.70000016191E+02 0.  0.
         12    1    1    2    0    0  0.40155887448E+01 -0.12558605631E+02  0.13297938775E+02  0.18726417277E+02  0.00000000000E+00 0. -1.
         11    1    3    3    0    0 -0.98807614048E+01  0.82102827275E+01  0.85954972138E+01  0.15457061849E+02  0.51100000000E-03 0. -1.
        -11    1    3    3    0    0 -0.11361162927E+02  0.13533985868E+02 -0.30829213372E+02  0.35534281953E+02  0.51100000000E-03 0.  1.
        -12    1    3    3    0    0  0.17226335587E+02 -0.91856629643E+01  0.89357773829E+01  0.21470238920E+02  0.00000000000E+00 0.  1.
</event>
<event>
 7    1  0.1360399E-013  0.7246159E+02  0.7816164E-02  0.1226708E+00
        -11   -1    0    0    0    0  0.00000000000E+00  0.00000000000E+00  0.45593999997E+02  0.45594000000E+02  0.51100000000E-03 0. -1.
         11   -1    0    0    0    0 -0.00000000000E+00 -0.00000000000E+00 -0.45593999997E+02  0.45594000000E+02  0.51100000000E-03 0.  1.
    9900012    2    1    2    0    0 -0.36828683796E+01  0.42516352608E+01 -0.17861650264E+02  0.72461588918E+02  0.70000024260E+02 0.  0.
         12    1    1    2    0    0  0.36828683796E+01 -0.42516352608E+01  0.17861650264E+02  0.18726411082E+02  0.00000000000E+00 0. -1.
         11    1    3    3    0    0  0.27021302209E+02  0.41254130106E+00 -0.12867627757E+02  0.29931535339E+02  0.51100000000E-03 0. -1.
        -11    1    3    3    0    0 -0.27327166495E+02  0.75909675742E+00 -0.15248683084E+02  0.31302916679E+02  0.51100000000E-03 0.  1.
        -12    1    3    3    0    0 -0.33770040930E+01  0.30799972023E+01  0.10254660577E+02  0.11227136900E+02  0.00000000000E+00 0.  1.
</event>
<event>
 7    1  0.1360399E-013  0.7246162E+02  0.7816164E-02  0.1226708E+00
        -11   -1    0    0    0    0  0.00000000000E+00  0.00000000000E+00  0.45593999997E+02  0.45594000000E+02  0.51100000000E-03 0.  1.
         11   -1    0    0    0    0 -0.00000000000E+00 -0.00000000000E+00 -0.45593999997E+02  0.45594000000E+02  0.51100000000E-03 0. -1.
    9900012    2    1    2    0    0 -0.93631910039E+01 -0.48670376857E+01  0.15469972738E+02  0.72461615989E+02  0.70000059526E+02 0.  0.
         12    1    1    2    0    0  0.93631910039E+01  0.48670376857E+01 -0.15469972738E+02  0.18726384011E+02  0.00000000000E+00 0. -1.
         11    1    3    3    0    0 -0.22141371204E+02  0.23853422852E+02  0.62947423687E+01  0.33148904693E+02  0.51100000000E-03 0. -1.
        -11    1    3    3    0    0  0.41866375911E+01 -0.12442964354E+02 -0.69392384628E+01  0.14849522785E+02  0.51100000000E-03 0.  1.
         12    1    3    3    0    0  0.85915426091E+01 -0.16277496184E+02  0.16114468832E+02  0.24463188512E+02  0.00000000000E+00 0. -1.
</event>
<event>
 7    1  0.1360399E-013  0.7246149E+02  0.7816164E-02  0.1226708E+00
        -11   -1    0    0    0    0  0.00000000000E+00  0.00000000000E+00  0.45593999997E+02  0.45594000000E+02  0.51100000000E-03 0.  1.
         11   -1    0    0    0    0 -0.00000000000E+00 -0.00000000000E+00 -0.45593999997E+02  0.45594000000E+02  0.51100000000E-03 0. -1.
    9900012    2    1    2    0    0 -0.18539323887E+02 -0.88370604384E-02 -0.26411098030E+01  0.72461492870E+02  0.69999899141E+02 0.  0.
         12    1    1    2    0    0  0.18539323887E+02  0.88370604384E-02  0.26411098030E+01  0.18726507130E+02  0.00000000000E+00 0. -1.
         11    1    3    3    0    0 -0.24289590245E+02 -0.20174593662E+01 -0.11498804897E+02  0.26949524131E+02  0.51100000000E-03 0. -1.
        -11    1    3    3    0    0 -0.31532223396E+01 -0.20308691817E+02  0.28904272950E+01  0.20754284971E+02  0.51100000000E-03 0.  1.
        -12    1    3    3    0    0  0.89034886971E+01  0.22317314123E+02  0.59672677992E+01  0.24757683769E+02  0.00000000000E+00 0.  1.
</event>
<event>
 7    1  0.1360399E-013  0.7246157E+02  0.7816164E-02  0.1226708E+00
        -11   -1    0    0    0    0  0.00000000000E+00  0.00000000000E+00  0.45593999997E+02  0.45594000000E+02  0.51100000000E-03 0.  1.
         11   -1    0    0    0    0 -0.00000000000E+00 -0.00000000000E+00 -0.45593999997E+02  0.45594000000E+02  0.51100000000E-03 0. -1.
    9900012    2    1    2    0    0  0.12383680189E+02 -0.14034303302E+02  0.60156543408E+00  0.72461572546E+02  0.70000002934E+02 0.  0.
         12    1    1    2    0    0 -0.12383680189E+02  0.14034303302E+02 -0.60156543408E+00  0.18726427454E+02  0.00000000000E+00 0. -1.
         11    1    3    3    0    0 -0.12701586580E+02  0.72713723988E+01 -0.13510584199E+02  0.19918309262E+02  0.51100000000E-03 0. -1.
        -11    1    3    3    0    0  0.12811564760E+02  0.77673546697E+01  0.14687019239E+02  0.20980384280E+02  0.51100000000E-03 0.  1.
         12    1    3    3    0    0  0.12273702009E+02 -0.29073030371E+02 -0.57486960513E+00  0.31562879004E+02  0.00000000000E+00 0. -1.
</event>
<event>
 7    1  0.1360399E-013  0.7246158E+02  0.7816164E-02  0.1226708E+00
        -11   -1    0    0    0    0  0.00000000000E+00  0.00000000000E+00  0.45593999997E+02  0.45594000000E+02  0.51100000000E-03 0. -1.
         11   -1    0    0    0    0 -0.00000000000E+00 -0.00000000000E+00 -0.45593999997E+02  0.45594000000E+02  0.51100000000E-03 0.  1.
    9900012    2    1    2    0    0  0.11976254511E+01 -0.13053725416E+02 -0.13373291928E+02  0.72461575062E+02  0.70000006211E+02 0.  0.
         12    1    1    2    0    0 -0.11976254511E+01  0.13053725416E+02  0.13373291928E+02  0.18726424938E+02  0.00000000000E+00 0. -1.
         11    1    3    3    0    0  0.29131396421E+01 -0.29495995818E+00  0.26774125136E+02  0.26933755049E+02  0.51100000000E-03 0. -1.
        -11    1    3    3    0    0 -0.36909298073E+01  0.23730883227E+01 -0.28579618792E+01  0.52366456242E+01  0.51100000000E-03 0.  1.
         12    1    3    3    0    0  0.19754156162E+01 -0.15131853781E+02 -0.37289455185E+02  0.40291174389E+02  0.00000000000E+00 0. -1.
</event>
<event>
 7    1  0.1360399E-013  0.7246156E+02  0.7816164E-02  0.1226708E+00
        -11   -1    0    0    0    0  0.00000000000E+00  0.00000000000E+00  0.45593999997E+02  0.45594000000E+02  0.51100000000E-03 0.  1.
         11   -1    0    0    0    0 -0.00000000000E+00 -0.00000000000E+00 -0.45593999997E+02  0.45594000000E+02  0.51100000000E-03 0. -1.
    9900012    2    1    2    0    0  0.13872898187E+02  0.11213449912E+02  0.56991946827E+01  0.72461559252E+02  0.69999985616E+02 0.  0.
         12    1    1    2    0    0 -0.13872898187E+02 -0.11213449912E+02 -0.56991946827E+01  0.18726440748E+02  0.00000000000E+00 0. -1.
         11    1    3    3    0    0  0.34736908342E+01  0.80666787673E+00 -0.18860621197E+02  0.19194798079E+02  0.51100000000E-03 0. -1.
        -11    1    3    3    0    0  0.18230408777E+02  0.23174197424E+02  0.24425538325E+02  0.38288355320E+02  0.51100000000E-03 0.  1.
         12    1    3    3    0    0 -0.78312014236E+01 -0.12767415389E+02  0.13427755474E+00  0.14978405853E+02  0.00000000000E+00 0. -1.
</event>
<event>
 7    1  0.1360399E-013  0.7246161E+02  0.7816164E-02  0.1226708E+00
        -11   -1    0    0    0    0  0.00000000000E+00  0.00000000000E+00  0.45593999997E+02  0.45594000000E+02  0.51100000000E-03 0.  1.
         11   -1    0    0    0    0 -0.00000000000E+00 -0.00000000000E+00 -0.45593999997E+02  0.45594000000E+02  0.51100000000E-03 0. -1.
    9900012    2    1    2    0    0  0.15510401030E+02  0.16988595968E+00  0.10491729301E+02  0.72461607259E+02  0.70000048154E+02 0.  0.
         12    1    1    2    0    0 -0.15510401030E+02 -0.16988595968E+00 -0.10491729301E+02  0.18726392741E+02  0.00000000000E+00 0. -1.
         11    1    3    3    0    0 -0.21188133176E+02  0.12992601881E+02  0.77809911816E+01  0.26043972722E+02  0.51100000000E-03 0. -1.
        -11    1    3    3    0    0  0.15850781798E+02 -0.19227556768E+01  0.13145436271E+02  0.20682039745E+02  0.51100000000E-03 0.  1.
         12    1    3    3    0    0  0.20847752408E+02 -0.10899960245E+02 -0.10434698151E+02  0.25735594792E+02  0.00000000000E+00 0. -1.
</event>
<event>
 7    1  0.1360399E-013  0.7246169E+02  0.7816164E-02  0.1226708E+00
        -11   -1    0    0    0    0  0.00000000000E+00  0.00000000000E+00  0.45593999997E+02  0.45594000000E+02  0.51100000000E-03 0. -1.
         11   -1    0    0    0    0 -0.00000000000E+00 -0.00000000000E+00 -0.45593999997E+02  0.45594000000E+02  0.51100000000E-03 0.  1.
    9900012    2    1    2    0    0 -0.56608729982E-02 -0.69978243452E+01 -0.17369664124E+02  0.72461686711E+02  0.70000151654E+02 0.  0.
         12    1    1    2    0    0  0.56608729982E-02  0.69978243452E+01  0.17369664124E+02  0.18726313289E+02  0.00000000000E+00 0. -1.
         11    1    3    3    0    0 -0.95902705184E+01 -0.28234746388E+02  0.13421634030E+01  0.29849214313E+02  0.51100000000E-03 0. -1.
        -11    1    3    3    0    0 -0.72473637089E+01  0.16965123749E+02 -0.20767455448E+01  0.18564820949E+02  0.51100000000E-03 0.  1.
        -12    1    3    3    0    0  0.16831973354E+02  0.42717982945E+01 -0.16635081982E+02  0.24047651449E+02  0.00000000000E+00 0.  1.
</event>
<event>
 7    1  0.1360399E-013  0.7246156E+02  0.7816164E-02  0.1226708E+00
        -11   -1    0    0    0    0  0.00000000000E+00  0.00000000000E+00  0.45593999997E+02  0.45594000000E+02  0.51100000000E-03 0. -1.
         11   -1    0    0    0    0 -0.00000000000E+00 -0.00000000000E+00 -0.45593999997E+02  0.45594000000E+02  0.51100000000E-03 0.  1.
    9900012    2    1    2    0    0  0.17500555202E+02 -0.51631616712E+01 -0.42133020432E+01  0.72461559203E+02  0.69999985551E+02 0.  0.
         12    1    1    2    0    0 -0.17500555202E+02  0.51631616712E+01  0.42133020432E+01  0.18726440797E+02  0.00000000000E+00 0. -1.
         11    1    3    3    0    0 -0.14046752146E+02 -0.10949757645E+02  0.61090586882E+01  0.18828941464E+02  0.51100000000E-03 0. -1.
        -11    1    3    3    0    0  0.31172882196E+02  0.33942911117E+01 -0.24159796112E+02  0.39584915625E+02  0.51100000000E-03 0.  1.
        -12    1    3    3    0    0  0.37442515268E+00  0.23923048625E+01  0.13837435381E+02  0.14047702113E+02  0.00000000000E+00 0.  1.
</event>
<event>
 7    1  0.1360399E-013  0.7246157E+02  0.7816164E-02  0.1226708E+00
        -11   -1    0    0    0    0  0.00000000000E+00  0.00000000000E+00  0.45593999997E+02  0.45594000000E+02  0.51100000000E-03 0.  1.
         11   -1    0    0    0    0 -0.00000000000E+00 -0.00000000000E+00 -0.45593999997E+02  0.45594000000E+02  0.51100000000E-03 0. -1.
    9900012    2    1    2    0    0  0.68462741792E+01  0.13473627694E+02  0.11057533976E+02  0.72461570254E+02  0.69999999948E+02 0.  0.
         12    1    1    2    0    0 -0.68462741792E+01 -0.13473627694E+02 -0.11057533976E+02  0.18726429746E+02  0.00000000000E+00 0. -1.
         11    1    3    3    0    0 -0.48803961109E+01  0.86532033934E+01 -0.14765628402E+02  0.17796628263E+02  0.51100000000E-03 0. -1.
        -11    1    3    3    0    0 -0.84716980481E+01 -0.11183382851E+02  0.25252962008E+02  0.28888575774E+02  0.51100000000E-03 0.  1.
         12    1    3    3    0    0  0.20198368338E+02  0.16003807152E+02  0.57020036978E+00  0.25776366217E+02  0.00000000000E+00 0. -1.
</event>
<event>
 7    1  0.1360399E-013  0.7246156E+02  0.7816164E-02  0.1226708E+00
        -11   -1    0    0    0    0  0.00000000000E+00  0.00000000000E+00  0.45593999997E+02  0.45594000000E+02  0.51100000000E-03 0. -1.
         11   -1    0    0    0    0 -0.00000000000E+00 -0.00000000000E+00 -0.45593999997E+02  0.45594000000E+02  0.51100000000E-03 0.  1.
    9900012    2    1    2    0    0 -0.10577875847E+02  0.15358209335E+02 -0.17068680680E+01  0.72461562805E+02  0.69999990243E+02 0.  0.
         12    1    1    2    0    0  0.10577875847E+02 -0.15358209335E+02  0.17068680680E+01  0.18726437195E+02  0.00000000000E+00 0. -1.
         11    1    3    3    0    0 -0.22072958636E+01  0.40469683010E+02  0.56878862347E+01  0.40927001455E+02  0.51100000000E-03 0. -1.
        -11    1    3    3    0    0 -0.10699694718E+01 -0.94953054923E+01 -0.10303634917E+02  0.14052421636E+02  0.51100000000E-03 0.  1.
         12    1    3    3    0    0 -0.73006105120E+01 -0.15616168183E+02  0.29088806146E+01  0.17482139714E+02  0.00000000000E+00 0. -1.
</event>
<event>
 7    1  0.1360399E-013  0.7246158E+02  0.7816164E-02  0.1226708E+00
        -11   -1    0    0    0    0  0.00000000000E+00  0.00000000000E+00  0.45593999997E+02  0.45594000000E+02  0.51100000000E-03 0.  1.
         11   -1    0    0    0    0 -0.00000000000E+00 -0.00000000000E+00 -0.45593999997E+02  0.45594000000E+02  0.51100000000E-03 0. -1.
    9900012    2    1    2    0    0  0.15287835879E+01 -0.13761275692E+02 -0.12608280567E+02  0.72461584785E+02  0.70000018877E+02 0.  0.
         12    1    1    2    0    0 -0.15287835879E+01  0.13761275692E+02  0.12608280567E+02  0.18726415215E+02  0.00000000000E+00 0. -1.
         11    1    3    3    0    0 -0.14790234278E+02  0.27119025305E+01  0.15074249626E+02  0.21291745991E+02  0.51100000000E-03 0. -1.
        -11    1    3    3    0    0  0.19454422115E+02 -0.30993942164E+01  0.62050482171E+00  0.19709536038E+02  0.51100000000E-03 0.  1.
        -12    1    3    3    0    0 -0.31354042495E+01 -0.13373784006E+02 -0.28303035014E+02  0.31460302756E+02  0.00000000000E+00 0.  1.
</event>
<event>
 7    1  0.1360399E-013  0.7246153E+02  0.7816164E-02  0.1226708E+00
        -11   -1    0    0    0    0  0.00000000000E+00  0.00000000000E+00  0.45593999997E+02  0.45594000000E+02  0.51100000000E-03 0. -1.
         11   -1    0    0    0    0 -0.00000000000E+00 -0.00000000000E+00 -0.45593999997E+02  0.45594000000E+02  0.51100000000E-03 0.  1.
    9900012    2    1    2    0    0 -0.29399952800E+01  0.18069312047E+02 -0.39417069857E+01  0.72461530390E+02  0.69999948017E+02 0.  0.
         12    1    1    2    0    0  0.29399952800E+01 -0.18069312047E+02  0.39417069857E+01  0.18726469610E+02  0.00000000000E+00 0. -1.
         11    1    3    3    0    0  0.15937225540E+02  0.37386240459E+02 -0.12205800169E+01  0.40659758354E+02  0.51100000000E-03 0. -1.
        -11    1    3    3    0    0 -0.11240032395E+02 -0.13518774697E+02 -0.95711388238E+01  0.20017549705E+02  0.51100000000E-03 0.  1.
         12    1    3    3    0    0 -0.76371884247E+01 -0.57981537144E+01  0.68500118550E+01  0.11784222331E+02  0.00000000000E+00 0. -1.
</event>
<event>
 7    1  0.1360399E-013  0.7246161E+02  0.7816164E-02  0.1226708E+00
        -11   -1    0    0    0    0  0.00000000000E+00  0.00000000000E+00  0.45593999997E+02  0.45594000000E+02  0.51100000000E-03 0.  1.
         11   -1    0    0    0    0 -0.00000000000E+00 -0.00000000000E+00 -0.45593999997E+02  0.45594000000E+02  0.51100000000E-03 0. -1.
    9900012    2    1    2    0    0  0.17978194948E+02  0.52164797828E+01  0.50038693250E+00  0.72461613750E+02  0.70000056609E+02 0.  0.
         12    1    1    2    0    0 -0.17978194948E+02 -0.52164797828E+01 -0.50038693250E+00  0.18726386250E+02  0.00000000000E+00 0. -1.
         11    1    3    3    0    0 -0.40943898124E+01  0.26299720166E+02  0.74179319453E+01  0.27630870840E+02  0.51100000000E-03 0. -1.
        -11    1    3    3    0    0  0.15254843289E+02 -0.15091934070E+02  0.11465125176E+02  0.24329525546E+02  0.51100000000E-03 0.  1.
        -12    1    3    3    0    0  0.68177414713E+01 -0.59913063135E+01 -0.18382670189E+02  0.20501217364E+02  0.00000000000E+00 0.  1.
</event>
<event>
 7    1  0.1360399E-013  0.7246223E+02  0.7816164E-02  0.1226706E+00
        -11   -1    0    0    0    0  0.00000000000E+00  0.00000000000E+00  0.45593999997E+02  0.45594000000E+02  0.51100000000E-03 0. -1.
         11   -1    0    0    0    0 -0.00000000000E+00 -0.00000000000E+00 -0.45593999997E+02  0.45594000000E+02  0.51100000000E-03 0.  1.
    9900012    2    1    2    0    0  0.14115377889E+02  0.12303403993E+02  0.19203295154E+00  0.72462228469E+02  0.70000857389E+02 0.  0.
         12    1    1    2    0    0 -0.14115377889E+02 -0.12303403993E+02 -0.19203295154E+00  0.18725771531E+02  0.00000000000E+00 0. -1.
         11    1    3    3    0    0 -0.10102685007E+01  0.18754543728E+02  0.29905505208E+01  0.19018331829E+02  0.51100000000E-03 0. -1.
        -11    1    3    3    0    0  0.32509469647E+02 -0.62464332130E+01 -0.10066424983E+02  0.34600815841E+02  0.51100000000E-03 0.  1.
        -12    1    3    3    0    0 -0.17383823257E+02 -0.20470652215E+00  0.72679074142E+01  0.18843080799E+02  0.00000000000E+00 0.  1.
</event>
<event>
 7    1  0.1360399E-013  0.7246170E+02  0.7816164E-02  0.1226708E+00
        -11   -1    0    0    0    0  0.00000000000E+00  0.00000000000E+00  0.45593999997E+02  0.45594000000E+02  0.51100000000E-03 0.  1.
         11   -1    0    0    0    0 -0.00000000000E+00 -0.00000000000E+00 -0.45593999997E+02  0.45594000000E+02  0.51100000000E-03 0. -1.
    9900012    2    1    2    0    0 -0.16962230261E+02 -0.61117630614E+01 -0.50599938239E+01  0.72461696557E+02  0.70000164480E+02 0.  0.
         12    1    1    2    0    0  0.16962230261E+02  0.61117630614E+01  0.50599938239E+01  0.18726303443E+02  0.00000000000E+00 0. -1.
         11    1    3    3    0    0 -0.28918570127E+02  0.34610903659E+01  0.80310413948E+01  0.30211925971E+02  0.51100000000E-03 0. -1.
        -11    1    3    3    0    0  0.12983087693E+02 -0.19570615093E+02 -0.19332571975E+02  0.30419038127E+02  0.51100000000E-03 0.  1.
         12    1    3    3    0    0 -0.10267478270E+01  0.99977616652E+01  0.62415367567E+01  0.11830732458E+02  0.00000000000E+00 0. -1.
</event>
<event>
 7    1  0.1360399E-013  0.7246116E+02  0.7816164E-02  0.1226709E+00
        -11   -1    0    0    0    0  0.00000000000E+00  0.00000000000E+00  0.45593999997E+02  0.45594000000E+02  0.51100000000E-03 0.  1.
         11   -1    0    0    0    0 -0.00000000000E+00 -0.00000000000E+00 -0.45593999997E+02  0.45594000000E+02  0.51100000000E-03 0. -1.
    9900012    2    1    2    0    0  0.65076993947E+01 -0.15100357988E+02  0.89623396043E+01  0.72461161133E+02  0.69999466989E+02 0.  0.
         12    1    1    2    0    0 -0.65076993947E+01  0.15100357988E+02 -0.89623396043E+01  0.18726838867E+02  0.00000000000E+00 0. -1.
         11    1    3    3    0    0 -0.12071607149E+02  0.25732822718E+01 -0.34846313996E+01  0.12825292865E+02  0.51100000000E-03 0. -1.
        -11    1    3    3    0    0  0.86747226387E+01 -0.32644218506E+02  0.20977877841E+02  0.39761377915E+02  0.51100000000E-03 0.  1.
        -12    1    3    3    0    0  0.99045839050E+01  0.14970578246E+02 -0.85309068368E+01  0.19874490354E+02  0.00000000000E+00 0.  1.
</event>
<event>
 7    1  0.1360399E-013  0.7246155E+02  0.7816164E-02  0.1226708E+00
        -11   -1    0    0    0    0  0.00000000000E+00  0.00000000000E+00  0.45593999997E+02  0.45594000000E+02  0.51100000000E-03 0.  1.
         11   -1    0    0    0    0 -0.00000000000E+00 -0.00000000000E+00 -0.45593999997E+02  0.45594000000E+02  0.51100000000E-03 0. -1.
    9900012    2    1    2    0    0  0.13029970764E+01 -0.17110051445E+02 -0.74985509123E+01  0.72461550053E+02  0.69999973631E+02 0.  0.
         12    1    1    2    0    0 -0.13029970764E+01  0.17110051445E+02  0.74985509123E+01  0.18726449947E+02  0.00000000000E+00 0. -1.
         11    1    3    3    0    0  0.11535457651E+02 -0.15414817516E+02 -0.17534690629E+02  0.26041289484E+02  0.51100000000E-03 0. -1.
        -11    1    3    3    0    0  0.12818206478E+02  0.88457689724E+01  0.13784309688E+02  0.20798106641E+02  0.51100000000E-03 0.  1.
        -12    1    3    3    0    0 -0.23050667053E+02 -0.10541002902E+02 -0.37481699712E+01  0.25622153928E+02  0.00000000000E+00 0.  1.
</event>
<event>
 7    1  0.1360399E-013  0.7246161E+02  0.7816164E-02  0.1226708E+00
        -11   -1    0    0    0    0  0.00000000000E+00  0.00000000000E+00  0.45593999997E+02  0.45594000000E+02  0.51100000000E-03 0.  1.
         11   -1    0    0    0    0 -0.00000000000E+00 -0.00000000000E+00 -0.45593999997E+02  0.45594000000E+02  0.51100000000E-03 0. -1.
    9900012    2    1    2    0    0  0.13324542054E+02 -0.12924749884E+02  0.24667685526E+01  0.72461614134E+02  0.70000057109E+02 0.  0.
         12    1    1    2    0    0 -0.13324542054E+02  0.12924749884E+02 -0.24667685526E+01  0.18726385866E+02  0.00000000000E+00 0. -1.
         11    1    3    3    0    0  0.15251732346E+01 -0.18536801302E+02 -0.21584153683E+02  0.28492364703E+02  0.51100000000E-03 0. -1.
        -11    1    3    3    0    0  0.13483963403E+02 -0.78272382495E+01  0.25968853134E+02  0.30289672514E+02  0.51100000000E-03 0.  1.
         12    1    3    3    0    0 -0.16845945837E+01  0.13439289667E+02 -0.19179308986E+01  0.13679576916E+02  0.00000000000E+00 0. -1.
</event>
<event>
 7    1  0.1360399E-013  0.7246157E+02  0.7816164E-02  0.1226708E+00
        -11   -1    0    0    0    0  0.00000000000E+00  0.00000000000E+00  0.45593999997E+02  0.45594000000E+02  0.51100000000E-03 0. -1.
         11   -1    0    0    0    0 -0.00000000000E+00 -0.00000000000E+00 -0.45593999997E+02  0.45594000000E+02  0.51100000000E-03 0.  1.
    9900012    2    1    2    0    0 -0.11021214858E+01  0.47512975998E+01 -0.18080085605E+02  0.72461574924E+02  0.70000006030E+02 0.  0.
         12    1    1    2    0    0  0.11021214858E+01 -0.47512975998E+01  0.18080085605E+02  0.18726425076E+02  0.00000000000E+00 0. -1.
         11    1    3    3    0    0  0.38532630616E+01 -0.51440737165E+01  0.16404148065E+02  0.17618320142E+02  0.51100000000E-03 0. -1.
        -11    1    3    3    0    0 -0.14665316705E+02 -0.39132813981E+01 -0.34792927767E+02  0.37959624711E+02  0.51100000000E-03 0.  1.
        -12    1    3    3    0    0  0.97099321577E+01  0.13808652714E+02  0.30869409625E+00  0.16883630070E+02  0.00000000000E+00 0.  1.
</event>
<event>
 7    1  0.1360399E-013  0.7246160E+02  0.7816164E-02  0.1226708E+00
        -11   -1    0    0    0    0  0.00000000000E+00  0.00000000000E+00  0.45593999997E+02  0.45594000000E+02  0.51100000000E-03 0.  1.
         11   -1    0    0    0    0 -0.00000000000E+00 -0.00000000000E+00 -0.45593999997E+02  0.45594000000E+02  0.51100000000E-03 0. -1.
    9900012    2    1    2    0    0  0.92483038312E+01  0.15781073883E+02  0.40130720862E+01  0.72461597136E+02  0.70000034966E+02 0.  0.
         12    1    1    2    0    0 -0.92483038312E+01 -0.15781073883E+02 -0.40130720862E+01  0.18726402864E+02  0.00000000000E+00 0. -1.
         11    1    3    3    0    0  0.12729036882E+02  0.34287112047E+01 -0.44323149072E+01  0.13907906247E+02  0.51100000000E-03 0. -1.
        -11    1    3    3    0    0  0.99833161518E+01 -0.10626924075E+02  0.23726035644E+02  0.27848211511E+02  0.51100000000E-03 0.  1.
        -12    1    3    3    0    0 -0.13464049203E+02  0.22979286754E+02 -0.15280648651E+02  0.30705479378E+02  0.00000000000E+00 0.  1.
</event>
<event>
 7    1  0.1360399E-013  0.7246161E+02  0.7816164E-02  0.1226708E+00
        -11   -1    0    0    0    0  0.00000000000E+00  0.00000000000E+00  0.45593999997E+02  0.45594000000E+02  0.51100000000E-03 0.  1.
         11   -1    0    0    0    0 -0.00000000000E+00 -0.00000000000E+00 -0.45593999997E+02  0.45594000000E+02  0.51100000000E-03 0. -1.
    9900012    2    1    2    0    0  0.15752913807E+02  0.95208720287E+01  0.34462237253E+01  0.72461608048E+02  0.70000049181E+02 0.  0.
         12    1    1    2    0    0 -0.15752913807E+02 -0.95208720287E+01 -0.34462237253E+01  0.18726391952E+02  0.00000000000E+00 0. -1.
         11    1    3    3    0    0 -0.87028819236E+01 -0.19635930500E+02  0.26521205384E+01  0.21641249132E+02  0.51100000000E-03 0. -1.
        -11    1    3    3    0    0  0.21301138845E+01  0.18550493669E+02 -0.12774448539E+02  0.22623985862E+02  0.51100000000E-03 0.  1.
         12    1    3    3    0    0  0.22325681846E+02  0.10606308859E+02  0.13568551726E+02  0.28196373054E+02  0.00000000000E+00 0. -1.
</event>
