<event>
 7    1  0.3434711E-013  0.7246126E+02  0.7816164E-02  0.1226709E+00
        -11   -1    0    0    0    0  0.00000000000E+00  0.00000000000E+00  0.45593999997E+02  0.45594000000E+02  0.51100000000E-03 0. -1.
         11   -1    0    0    0    0 -0.00000000000E+00 -0.00000000000E+00 -0.45593999997E+02  0.45594000000E+02  0.51100000000E-03 0.  1.
    9900012    2    1    2    0    0 -0.37150583442E+01 -0.18264880567E+02 -0.18119398098E+01  0.72461263859E+02  0.69999600810E+02 0.  0.
         12    1    1    2    0    0  0.37150583442E+01  0.18264880567E+02  0.18119398098E+01  0.18726736141E+02  0.00000000000E+00 0. -1.
         11    1    3    3    0    0 -0.19748417199E+01 -0.62420143498E+01 -0.51571109475E+01  0.83341788166E+01  0.51100000000E-03 0. -1.
        -11    1    3    3    0    0  0.22513341082E+02 -0.27041467472E+02  0.50601774860E+01  0.35548514542E+02  0.51100000000E-03 0.  1.
         12    1    3    3    0    0 -0.24253557706E+02  0.15018601255E+02 -0.17150063483E+01  0.28578570500E+02  0.00000000000E+00 0. -1.
</event>
<event>
 7    1  0.3434711E-013  0.7246156E+02  0.7816164E-02  0.1226708E+00
        -11   -1    0    0    0    0  0.00000000000E+00  0.00000000000E+00  0.45593999997E+02  0.45594000000E+02  0.51100000000E-03 0. -1.
         11   -1    0    0    0    0 -0.00000000000E+00 -0.00000000000E+00 -0.45593999997E+02  0.45594000000E+02  0.51100000000E-03 0.  1.
    9900012    2    1    2    0    0 -0.58687476094E+00  0.18086354293E+02  0.48185993800E+01  0.72461560573E+02  0.69999987337E+02 0.  0.
         12    1    1    2    0    0  0.58687476094E+00 -0.18086354293E+02 -0.48185993800E+01  0.18726439427E+02  0.00000000000E+00 0. -1.
         11    1    3    3    0    0 -0.72772196810E+01 -0.16772903362E+01  0.11955550410E+02  0.14096326295E+02  0.51100000000E-03 0. -1.
        -11    1    3    3    0    0 -0.13639903773E+02  0.15592340457E+02 -0.23942192390E+02  0.31660648013E+02  0.51100000000E-03 0.  1.
        -12    1    3    3    0    0  0.20330248693E+02  0.41713041722E+01  0.16805241360E+02  0.26704586265E+02  0.00000000000E+00 0.  1.
</event>
<event>
 7    1  0.3434711E-013  0.7246157E+02  0.7816164E-02  0.1226708E+00
        -11   -1    0    0    0    0  0.00000000000E+00  0.00000000000E+00  0.45593999997E+02  0.45594000000E+02  0.51100000000E-03 0. -1.
         11   -1    0    0    0    0 -0.00000000000E+00 -0.00000000000E+00 -0.45593999997E+02  0.45594000000E+02  0.51100000000E-03 0.  1.
    9900012    2    1    2    0    0 -0.16109421189E+02 -0.66830915117E+01 -0.68192514985E+01  0.72461565363E+02  0.69999993576E+02 0.  0.
         12    1    1    2    0    0  0.16109421189E+02  0.66830915117E+01  0.68192514985E+01  0.18726434637E+02  0.00000000000E+00 0. -1.
         11    1    3    3    0    0 -0.11199286943E+02  0.25982152582E+01  0.61138769357E+01  0.13021299551E+02  0.51100000000E-03 0. -1.
        -11    1    3    3    0    0  0.11717667890E+02  0.16842490074E+02  0.80431816314E+01  0.22037830739E+02  0.51100000000E-03 0.  1.
        -12    1    3    3    0    0 -0.16627802136E+02 -0.26123796844E+02 -0.20976310066E+02  0.37402435073E+02  0.00000000000E+00 0.  1.
</event>
<event>
 7    1  0.3434711E-013  0.7246155E+02  0.7816164E-02  0.1226708E+00
        -11   -1    0    0    0    0  0.00000000000E+00  0.00000000000E+00  0.45593999997E+02  0.45594000000E+02  0.51100000000E-03 0. -1.
         11   -1    0    0    0    0 -0.00000000000E+00 -0.00000000000E+00 -0.45593999997E+02  0.45594000000E+02  0.51100000000E-03 0.  1.
    9900012    2    1    2    0    0 -0.12984266023E+02  0.12466455700E+02 -0.51649140734E+01  0.72461547607E+02  0.69999970445E+02 0.  0.
         12    1    1    2    0    0  0.12984266023E+02 -0.12466455700E+02  0.51649140734E+01  0.18726452393E+02  0.00000000000E+00 0. -1.
         11    1    3    3    0    0  0.15038357743E+02  0.23294113374E+02  0.39059695301E+01  0.28000437849E+02  0.51100000000E-03 0. -1.
        -11    1    3    3    0    0  0.58719845595E+01  0.20845376596E+01  0.19903758504E+01  0.65411846181E+01  0.51100000000E-03 0.  1.
        -12    1    3    3    0    0 -0.33894608325E+02 -0.12912195334E+02 -0.11061259454E+02  0.37919925140E+02  0.00000000000E+00 0.  1.
</event>
<event>
 7    1  0.3434711E-013  0.7246178E+02  0.7816164E-02  0.1226707E+00
        -11   -1    0    0    0    0  0.00000000000E+00  0.00000000000E+00  0.45593999997E+02  0.45594000000E+02  0.51100000000E-03 0.  1.
         11   -1    0    0    0    0 -0.00000000000E+00 -0.00000000000E+00 -0.45593999997E+02  0.45594000000E+02  0.51100000000E-03 0. -1.
    9900012    2    1    2    0    0  0.78652677032E+00  0.14375154836E+01  0.18654390396E+02  0.72461778914E+02  0.70000271765E+02 0.  0.
         12    1    1    2    0    0 -0.78652677032E+00 -0.14375154836E+01 -0.18654390396E+02  0.18726221086E+02  0.00000000000E+00 0. -1.
         11    1    3    3    0    0  0.16193642425E+02  0.62260598742E+01  0.18738734327E+02  0.25536993578E+02  0.51100000000E-03 0. -1.
        -11    1    3    3    0    0 -0.30247419082E+02  0.19498093555E+01  0.25397906799E+01  0.30416420805E+02  0.51100000000E-03 0.  1.
         12    1    3    3    0    0  0.14840303427E+02 -0.67383537460E+01 -0.26241346109E+01  0.16508364531E+02  0.00000000000E+00 0. -1.
</event>
<event>
 7    1  0.3434711E-013  0.7246159E+02  0.7816164E-02  0.1226708E+00
        -11   -1    0    0    0    0  0.00000000000E+00  0.00000000000E+00  0.45593999997E+02  0.45594000000E+02  0.51100000000E-03 0. -1.
         11   -1    0    0    0    0 -0.00000000000E+00 -0.00000000000E+00 -0.45593999997E+02  0.45594000000E+02  0.51100000000E-03 0.  1.
    9900012    2    1    2    0    0  0.12562852567E+02 -0.28454084437E+01 -0.13592528788E+02  0.72461589434E+02  0.70000024933E+02 0.  0.
         12    1    1    2    0    0 -0.12562852567E+02  0.28454084437E+01  0.13592528788E+02  0.18726410566E+02  0.00000000000E+00 0. -1.
         11    1    3    3    0    0  0.51768856628E+01  0.11536389293E+02  0.39000891456E+01  0.13232502360E+02  0.51100000000E-03 0. -1.
        -11    1    3    3    0    0 -0.83468076879E+01  0.16727161401E+02 -0.15546560786E+02  0.24313837205E+02  0.51100000000E-03 0.  1.
         12    1    3    3    0    0  0.15732774592E+02 -0.31108959138E+02 -0.19460571482E+01  0.34915249869E+02  0.00000000000E+00 0. -1.
</event>
<event>
 7    1  0.3434711E-013  0.7246162E+02  0.7816164E-02  0.1226708E+00
        -11   -1    0    0    0    0  0.00000000000E+00  0.00000000000E+00  0.45593999997E+02  0.45594000000E+02  0.51100000000E-03 0.  1.
         11   -1    0    0    0    0 -0.00000000000E+00 -0.00000000000E+00 -0.45593999997E+02  0.45594000000E+02  0.51100000000E-03 0. -1.
    9900012    2    1    2    0    0 -0.77918424052E+01  0.13126269701E+02  0.10847366876E+02  0.72461624684E+02  0.70000070853E+02 0.  0.
         12    1    1    2    0    0  0.77918424052E+01 -0.13126269701E+02 -0.10847366876E+02  0.18726375316E+02  0.00000000000E+00 0. -1.
         11    1    3    3    0    0  0.21462050924E+02  0.96703192053E+01  0.13670962832E+02  0.27221864896E+02  0.51100000000E-03 0. -1.
        -11    1    3    3    0    0  0.53397809014E+01  0.58471396134E+01  0.54217164432E+01  0.95967344021E+01  0.51100000000E-03 0.  1.
        -12    1    3    3    0    0 -0.34593674230E+02 -0.23911891182E+01 -0.82453123984E+01  0.35643025387E+02  0.00000000000E+00 0.  1.
</event>
<event>
 7    1  0.3434711E-013  0.7246158E+02  0.7816164E-02  0.1226708E+00
        -11   -1    0    0    0    0  0.00000000000E+00  0.00000000000E+00  0.45593999997E+02  0.45594000000E+02  0.51100000000E-03 0.  1.
         11   -1    0    0    0    0 -0.00000000000E+00 -0.00000000000E+00 -0.45593999997E+02  0.45594000000E+02  0.51100000000E-03 0. -1.
    9900012    2    1    2    0    0 -0.13127288383E+02 -0.10221994296E+02  0.85944023996E+01  0.72461584959E+02  0.70000019104E+02 0.  0.
         12    1    1    2    0    0  0.13127288383E+02  0.10221994296E+02 -0.85944023996E+01  0.18726415041E+02  0.00000000000E+00 0. -1.
         11    1    3    3    0    0  0.90170678768E+01  0.91361602848E+01 -0.10793850602E+02  0.16771527924E+02  0.51100000000E-03 0. -1.
        -11    1    3    3    0    0 -0.19098411983E+02  0.16685634293E+01 -0.82149143427E+01  0.20857091410E+02  0.51100000000E-03 0.  1.
        -12    1    3    3    0    0 -0.30459442771E+01 -0.21026718010E+02  0.27603167344E+02  0.34832965625E+02  0.00000000000E+00 0.  1.
</event>
<event>
 7    1  0.3434711E-013  0.7246159E+02  0.7816164E-02  0.1226708E+00
        -11   -1    0    0    0    0  0.00000000000E+00  0.00000000000E+00  0.45593999997E+02  0.45594000000E+02  0.51100000000E-03 0. -1.
         11   -1    0    0    0    0 -0.00000000000E+00 -0.00000000000E+00 -0.45593999997E+02  0.45594000000E+02  0.51100000000E-03 0.  1.
    9900012    2    1    2    0    0 -0.23024578952E+01 -0.18156305435E+02 -0.39655417141E+01  0.72461594566E+02  0.70000031618E+02 0.  0.
         12    1    1    2    0    0  0.23024578952E+01  0.18156305435E+02  0.39655417141E+01  0.18726405434E+02  0.00000000000E+00 0. -1.
         11    1    3    3    0    0 -0.11065675114E+01  0.48644900713E+01  0.22261809266E+02  0.22813941075E+02  0.51100000000E-03 0. -1.
        -11    1    3    3    0    0  0.77100479074E+01 -0.27786229495E+02 -0.99757265244E+01  0.30512858080E+02  0.51100000000E-03 0.  1.
        -12    1    3    3    0    0 -0.89059382911E+01  0.47654339886E+01 -0.16251624456E+02  0.19134795410E+02  0.00000000000E+00 0.  1.
</event>
<event>
 7    1  0.3434711E-013  0.7246158E+02  0.7816164E-02  0.1226708E+00
        -11   -1    0    0    0    0  0.00000000000E+00  0.00000000000E+00  0.45593999997E+02  0.45594000000E+02  0.51100000000E-03 0.  1.
         11   -1    0    0    0    0 -0.00000000000E+00 -0.00000000000E+00 -0.45593999997E+02  0.45594000000E+02  0.51100000000E-03 0. -1.
    9900012    2    1    2    0    0  0.17777363781E+01  0.14958072910E+02  0.11125392322E+02  0.72461584269E+02  0.70000018204E+02 0.  0.
         12    1    1    2    0    0 -0.17777363781E+01 -0.14958072910E+02 -0.11125392322E+02  0.18726415731E+02  0.00000000000E+00 0. -1.
         11    1    3    3    0    0  0.13264609252E+02  0.14552077722E+01 -0.24336193278E+02  0.27754599471E+02  0.51100000000E-03 0. -1.
        -11    1    3    3    0    0 -0.19222910455E+01  0.10787958212E+02  0.39239673550E+01  0.11639276838E+02  0.51100000000E-03 0.  1.
        -12    1    3    3    0    0 -0.95645818282E+01  0.27149069261E+01  0.31537618245E+02  0.33067707960E+02  0.00000000000E+00 0.  1.
</event>
<event>
 7    1  0.3685183E-013  0.7246156E+02  0.7816164E-02  0.1226708E+00
        -11   -1    0    0    0    0  0.00000000000E+00  0.00000000000E+00  0.45593999997E+02  0.45594000000E+02  0.51100000000E-03 0. -1.
         11   -1    0    0    0    0 -0.00000000000E+00 -0.00000000000E+00 -0.45593999997E+02  0.45594000000E+02  0.51100000000E-03 0.  1.
    9900012    2    1    2    0    0 -0.12948033903E+02 -0.71833136772E+01 -0.11464196548E+02  0.72461564679E+02  0.69999992685E+02 0.  0.
         12    1    1    2    0    0  0.12948033903E+02  0.71833136772E+01  0.11464196548E+02  0.18726435321E+02  0.00000000000E+00 0. -1.
         11    1    3    3    0    0  0.44656534693E+01  0.90603504462E+01  0.42623209796E+01  0.10963548308E+02  0.51100000000E-03 0. -1.
        -11    1    3    3    0    0 -0.11054755454E+02 -0.26243481541E+01 -0.35148445911E+02  0.36939248390E+02  0.51100000000E-03 0.  1.
         12    1    3    3    0    0 -0.63589319176E+01 -0.13619315969E+02  0.19421928383E+02  0.24558767981E+02  0.00000000000E+00 0. -1.
</event>
<event>
 7    1  0.3434711E-013  0.7246159E+02  0.7816164E-02  0.1226708E+00
        -11   -1    0    0    0    0  0.00000000000E+00  0.00000000000E+00  0.45593999997E+02  0.45594000000E+02  0.51100000000E-03 0. -1.
         11   -1    0    0    0    0 -0.00000000000E+00 -0.00000000000E+00 -0.45593999997E+02  0.45594000000E+02  0.51100000000E-03 0.  1.
    9900012    2    1    2    0    0 -0.44008687323E+01  0.16711266437E+02 -0.72141733022E+01  0.72461591696E+02  0.70000027880E+02 0.  0.
         12    1    1    2    0    0  0.44008687323E+01 -0.16711266437E+02  0.72141733022E+01  0.18726408304E+02  0.00000000000E+00 0. -1.
         11    1    3    3    0    0  0.20403727018E+02  0.92337994670E+01  0.92956271517E+01  0.24248377538E+02  0.51100000000E-03 0. -1.
        -11    1    3    3    0    0 -0.54911386725E+01  0.12563385430E+02  0.85576325748E+01  0.16162435860E+02  0.51100000000E-03 0.  1.
        -12    1    3    3    0    0 -0.19313457078E+02 -0.50859184597E+01 -0.25067433029E+02  0.32050778298E+02  0.00000000000E+00 0.  1.
</event>
<event>
 7    1  0.3434711E-013  0.7246157E+02  0.7816164E-02  0.1226708E+00
        -11   -1    0    0    0    0  0.00000000000E+00  0.00000000000E+00  0.45593999997E+02  0.45594000000E+02  0.51100000000E-03 0.  1.
         11   -1    0    0    0    0 -0.00000000000E+00 -0.00000000000E+00 -0.45593999997E+02  0.45594000000E+02  0.51100000000E-03 0. -1.
    9900012    2    1    2    0    0  0.14648099245E+02 -0.32192537826E+01  0.11213770614E+02  0.72461573277E+02  0.70000003886E+02 0.  0.
         12    1    1    2    0    0 -0.14648099245E+02  0.32192537826E+01 -0.11213770614E+02  0.18726426723E+02  0.00000000000E+00 0. -1.
         11    1    3    3    0    0  0.13891123397E+02 -0.17961259066E+02  0.60435617030E+01  0.23496697103E+02  0.51100000000E-03 0. -1.
        -11    1    3    3    0    0  0.70370227534E+01  0.38232613928E+01  0.24565722478E+02  0.25838183722E+02  0.51100000000E-03 0.  1.
         12    1    3    3    0    0 -0.62800469051E+01  0.10918743890E+02 -0.19395513567E+02  0.23126692452E+02  0.00000000000E+00 0. -1.
</event>
<event>
 7    1  0.3434711E-013  0.7246158E+02  0.7816164E-02  0.1226708E+00
        -11   -1    0    0    0    0  0.00000000000E+00  0.00000000000E+00  0.45593999997E+02  0.45594000000E+02  0.51100000000E-03 0.  1.
         11   -1    0    0    0    0 -0.00000000000E+00 -0.00000000000E+00 -0.45593999997E+02  0.45594000000E+02  0.51100000000E-03 0. -1.
    9900012    2    1    2    0    0 -0.10234323980E+02  0.77705177544E+01  0.13621910933E+02  0.72461580402E+02  0.70000013167E+02 0.  0.
         12    1    1    2    0    0  0.10234323980E+02 -0.77705177544E+01 -0.13621910933E+02  0.18726419598E+02  0.00000000000E+00 0. -1.
         11    1    3    3    0    0 -0.14354770574E+02  0.20025541867E+02 -0.55148328758E+01  0.25248666246E+02  0.51100000000E-03 0. -1.
        -11    1    3    3    0    0 -0.58951574753E+01  0.29773899259E+01  0.26678883980E+02  0.27484187875E+02  0.51100000000E-03 0.  1.
        -12    1    3    3    0    0  0.10015604069E+02 -0.15232414039E+02 -0.75421401718E+01  0.19728726281E+02  0.00000000000E+00 0.  1.
</event>
<event>
 7    1  0.3434711E-013  0.7246155E+02  0.7816164E-02  0.1226708E+00
        -11   -1    0    0    0    0  0.00000000000E+00  0.00000000000E+00  0.45593999997E+02  0.45594000000E+02  0.51100000000E-03 0.  1.
         11   -1    0    0    0    0 -0.00000000000E+00 -0.00000000000E+00 -0.45593999997E+02  0.45594000000E+02  0.51100000000E-03 0. -1.
    9900012    2    1    2    0    0 -0.11109482009E+02 -0.15072549191E+02  0.27829208146E+00  0.72461554098E+02  0.69999978902E+02 0.  0.
         12    1    1    2    0    0  0.11109482009E+02  0.15072549191E+02 -0.27829208146E+00  0.18726445902E+02  0.00000000000E+00 0. -1.
         11    1    3    3    0    0  0.66991369854E+01  0.58875390191E+01  0.21190315666E+01  0.91668886266E+01  0.51100000000E-03 0. -1.
        -11    1    3    3    0    0  0.19832496227E+02 -0.14067123728E+02 -0.52529339313E+01  0.24875795298E+02  0.51100000000E-03 0.  1.
        -12    1    3    3    0    0 -0.37641115221E+02 -0.68929644823E+01  0.34121944462E+01  0.38418870173E+02  0.00000000000E+00 0.  1.
</event>
<event>
 7    1  0.3434711E-013  0.7246163E+02  0.7816164E-02  0.1226708E+00
        -11   -1    0    0    0    0  0.00000000000E+00  0.00000000000E+00  0.45593999997E+02  0.45594000000E+02  0.51100000000E-03 0.  1.
         11   -1    0    0    0    0 -0.00000000000E+00 -0.00000000000E+00 -0.45593999997E+02  0.45594000000E+02  0.51100000000E-03 0. -1.
    9900012    2    1    2    0    0 -0.12508311706E+02  0.76520239701E+00  0.13915230932E+02  0.72461626931E+02  0.70000073779E+02 0.  0.
         12    1    1    2    0    0  0.12508311706E+02 -0.76520239701E+00 -0.13915230932E+02  0.18726373069E+02  0.00000000000E+00 0. -1.
         11    1    3    3    0    0 -0.72686904265E+01  0.20683682900E+02  0.20657928671E+02  0.30123057880E+02  0.51100000000E-03 0. -1.
        -11    1    3    3    0    0  0.39800053224E+01  0.81927110575E+01 -0.88231450202E+01  0.12681042747E+02  0.51100000000E-03 0.  1.
        -12    1    3    3    0    0 -0.92196266019E+01 -0.28111191560E+02  0.20804472813E+01  0.29657526304E+02  0.00000000000E+00 0.  1.
</event>
<event>
 7    1  0.3434711E-013  0.7246170E+02  0.7816164E-02  0.1226708E+00
        -11   -1    0    0    0    0  0.00000000000E+00  0.00000000000E+00  0.45593999997E+02  0.45594000000E+02  0.51100000000E-03 0. -1.
         11   -1    0    0    0    0 -0.00000000000E+00 -0.00000000000E+00 -0.45593999997E+02  0.45594000000E+02  0.51100000000E-03 0.  1.
    9900012    2    1    2    0    0 -0.16759905529E+02  0.56828525978E+01 -0.61225085210E+01  0.72461698774E+02  0.70000167369E+02 0.  0.
         12    1    1    2    0    0  0.16759905529E+02 -0.56828525978E+01  0.61225085210E+01  0.18726301226E+02  0.00000000000E+00 0. -1.
         11    1    3    3    0    0 -0.25543481702E+01  0.12553928075E+02 -0.35027817616E+02  0.37297101923E+02  0.51100000000E-03 0.  1.
        -11    1    3    3    0    0 -0.44022339790E+01  0.35755777509E+01  0.90578770389E+01  0.10686887151E+02  0.51100000000E-03 0. -1.
        -12    1    3    3    0    0 -0.98033233802E+01 -0.10446653228E+02  0.19847432056E+02  0.24477709700E+02  0.00000000000E+00 0.  1.
</event>
<event>
 7    1  0.3434711E-013  0.7246157E+02  0.7816164E-02  0.1226708E+00
        -11   -1    0    0    0    0  0.00000000000E+00  0.00000000000E+00  0.45593999997E+02  0.45594000000E+02  0.51100000000E-03 0.  1.
         11   -1    0    0    0    0 -0.00000000000E+00 -0.00000000000E+00 -0.45593999997E+02  0.45594000000E+02  0.51100000000E-03 0. -1.
    9900012    2    1    2    0    0  0.13980010570E+02  0.81691358662E+01  0.94076366390E+01  0.72461572058E+02  0.70000002297E+02 0.  0.
         12    1    1    2    0    0 -0.13980010570E+02 -0.81691358662E+01 -0.94076366390E+01  0.18726427942E+02  0.00000000000E+00 0. -1.
         11    1    3    3    0    0  0.62689849527E+01  0.39444706623E+01 -0.96849214353E+01  0.12192486400E+02  0.51100000000E-03 0. -1.
        -11    1    3    3    0    0 -0.20830170204E+02 -0.12280108273E+02  0.74038398140E+01  0.25288611947E+02  0.51100000000E-03 0.  1.
         12    1    3    3    0    0  0.28541195822E+02  0.16504773477E+02  0.11688718260E+02  0.34980473711E+02  0.00000000000E+00 0. -1.
</event>
<event>
 7    1  0.3434711E-013  0.7246156E+02  0.7816164E-02  0.1226708E+00
        -11   -1    0    0    0    0  0.00000000000E+00  0.00000000000E+00  0.45593999997E+02  0.45594000000E+02  0.51100000000E-03 0.  1.
         11   -1    0    0    0    0 -0.00000000000E+00 -0.00000000000E+00 -0.45593999997E+02  0.45594000000E+02  0.51100000000E-03 0. -1.
    9900012    2    1    2    0    0  0.18456532363E+02 -0.72449918779E-01  0.31671408335E+01  0.72461558349E+02  0.69999984438E+02 0.  0.
         12    1    1    2    0    0 -0.18456532363E+02  0.72449918779E-01 -0.31671408335E+01  0.18726441651E+02  0.00000000000E+00 0. -1.
         11    1    3    3    0    0  0.15048592936E+02 -0.18588397799E+02 -0.22107485475E+02  0.32568843952E+02  0.51100000000E-03 0. -1.
        -11    1    3    3    0    0  0.10623161684E+02  0.97631197450E+01  0.27709360307E+01  0.14691771781E+02  0.51100000000E-03 0.  1.
        -12    1    3    3    0    0 -0.72152222561E+01  0.87528281353E+01  0.22503690278E+02  0.25200942615E+02  0.00000000000E+00 0.  1.
</event>
<event>
 7    1  0.3434711E-013  0.7246156E+02  0.7816164E-02  0.1226708E+00
        -11   -1    0    0    0    0  0.00000000000E+00  0.00000000000E+00  0.45593999997E+02  0.45594000000E+02  0.51100000000E-03 0.  1.
         11   -1    0    0    0    0 -0.00000000000E+00 -0.00000000000E+00 -0.45593999997E+02  0.45594000000E+02  0.51100000000E-03 0. -1.
    9900012    2    1    2    0    0 -0.84546167502E+01  0.15875589679E+02 -0.52119861340E+01  0.72461556357E+02  0.69999981845E+02 0.  0.
         12    1    1    2    0    0  0.84546167502E+01 -0.15875589679E+02  0.52119861340E+01  0.18726443643E+02  0.00000000000E+00 0. -1.
         11    1    3    3    0    0  0.68552423817E+01  0.70340942949E+01  0.39247007489E+01  0.10577150225E+02  0.51100000000E-03 0. -1.
        -11    1    3    3    0    0  0.20081450422E+02  0.13514833732E+02  0.25065136211E+01  0.24335118505E+02  0.51100000000E-03 0.  1.
         12    1    3    3    0    0 -0.35391309554E+02 -0.46733383484E+01 -0.11643200504E+02  0.37549287627E+02  0.00000000000E+00 0. -1.
</event>
<event>
 7    1  0.3633166E-013  0.7246159E+02  0.7816164E-02  0.1226708E+00
        -11   -1    0    0    0    0  0.00000000000E+00  0.00000000000E+00  0.45593999997E+02  0.45594000000E+02  0.51100000000E-03 0. -1.
         11   -1    0    0    0    0 -0.00000000000E+00 -0.00000000000E+00 -0.45593999997E+02  0.45594000000E+02  0.51100000000E-03 0.  1.
    9900012    2    1    2    0    0  0.86844486646E+01 -0.65513446923E+01 -0.15242659430E+02  0.72461589976E+02  0.70000025639E+02 0.  0.
         12    1    1    2    0    0 -0.86844486646E+01  0.65513446923E+01  0.15242659430E+02  0.18726410024E+02  0.00000000000E+00 0. -1.
         11    1    3    3    0    0 -0.11216061145E+02 -0.54108288673E+00  0.14090675943E+02  0.18017767539E+02  0.51100000000E-03 0. -1.
        -11    1    3    3    0    0 -0.29750348195E+01  0.11984391739E+02  0.10212522682E+01  0.12390295961E+02  0.51100000000E-03 0.  1.
        -12    1    3    3    0    0  0.22875544629E+02 -0.17994653545E+02 -0.30354587641E+02  0.42053526477E+02  0.00000000000E+00 0.  1.
</event>
<event>
 7    1  0.3434711E-013  0.7246149E+02  0.7816164E-02  0.1226708E+00
        -11   -1    0    0    0    0  0.00000000000E+00  0.00000000000E+00  0.45593999997E+02  0.45594000000E+02  0.51100000000E-03 0.  1.
         11   -1    0    0    0    0 -0.00000000000E+00 -0.00000000000E+00 -0.45593999997E+02  0.45594000000E+02  0.51100000000E-03 0. -1.
    9900012    2    1    2    0    0 -0.36542691588E+01 -0.18364265597E+02 -0.28653064479E+00  0.72461493817E+02  0.69999900374E+02 0.  0.
         12    1    1    2    0    0  0.36542691588E+01  0.18364265597E+02  0.28653064479E+00  0.18726506183E+02  0.00000000000E+00 0. -1.
         11    1    3    3    0    0  0.41375160112E+01 -0.99355702006E+01 -0.99444916859E+01  0.14653583490E+02  0.51100000000E-03 0. -1.
        -11    1    3    3    0    0 -0.57307123965E+01 -0.32157131798E+02  0.17460878028E+01  0.32710411384E+02  0.51100000000E-03 0.  1.
         12    1    3    3    0    0 -0.20610727735E+01  0.23728436401E+02  0.79118732382E+01  0.25097498943E+02  0.00000000000E+00 0. -1.
</event>
<event>
 7    1  0.3434711E-013  0.7246157E+02  0.7816164E-02  0.1226708E+00
        -11   -1    0    0    0    0  0.00000000000E+00  0.00000000000E+00  0.45593999997E+02  0.45594000000E+02  0.51100000000E-03 0.  1.
         11   -1    0    0    0    0 -0.00000000000E+00 -0.00000000000E+00 -0.45593999997E+02  0.45594000000E+02  0.51100000000E-03 0. -1.
    9900012    2    1    2    0    0  0.48547153461E+01  0.10605870462E+02  0.14650134094E+02  0.72461570060E+02  0.69999999694E+02 0.  0.
         12    1    1    2    0    0 -0.48547153461E+01 -0.10605870462E+02 -0.14650134094E+02  0.18726429940E+02  0.00000000000E+00 0. -1.
         11    1    3    3    0    0 -0.84968809394E+01 -0.49892371091E+01 -0.22176800606E+02  0.24267261032E+02  0.51100000000E-03 0. -1.
        -11    1    3    3    0    0 -0.33957284273E+00  0.31015477445E+01 -0.29607615247E+01  0.43012808783E+01  0.51100000000E-03 0.  1.
        -12    1    3    3    0    0  0.13691169128E+02  0.12493559827E+02  0.39787696224E+02  0.43893028149E+02  0.00000000000E+00 0.  1.
</event>
<event>
 7    1  0.3434711E-013  0.7246157E+02  0.7816164E-02  0.1226708E+00
        -11   -1    0    0    0    0  0.00000000000E+00  0.00000000000E+00  0.45593999997E+02  0.45594000000E+02  0.51100000000E-03 0.  1.
         11   -1    0    0    0    0 -0.00000000000E+00 -0.00000000000E+00 -0.45593999997E+02  0.45594000000E+02  0.51100000000E-03 0. -1.
    9900012    2    1    2    0    0 -0.12790101880E+01  0.17677776134E+02  0.60447801138E+01  0.72461574747E+02  0.70000005801E+02 0.  0.
         12    1    1    2    0    0  0.12790101880E+01 -0.17677776134E+02 -0.60447801138E+01  0.18726425253E+02  0.00000000000E+00 0. -1.
         11    1    3    3    0    0  0.29463593012E+01  0.38215656759E+01  0.87935477542E+01  0.10030547329E+02  0.51100000000E-03 0. -1.
        -11    1    3    3    0    0  0.13023122679E+02  0.88737750913E+01  0.24898017850E+02  0.29466199310E+02  0.51100000000E-03 0.  1.
         12    1    3    3    0    0 -0.17248492168E+02  0.49824353670E+01 -0.27646785491E+02  0.32964828108E+02  0.00000000000E+00 0. -1.
</event>
<event>
 7    1  0.3434711E-013  0.7246155E+02  0.7816164E-02  0.1226708E+00
        -11   -1    0    0    0    0  0.00000000000E+00  0.00000000000E+00  0.45593999997E+02  0.45594000000E+02  0.51100000000E-03 0.  1.
         11   -1    0    0    0    0 -0.00000000000E+00 -0.00000000000E+00 -0.45593999997E+02  0.45594000000E+02  0.51100000000E-03 0. -1.
    9900012    2    1    2    0    0  0.12545531558E+02  0.12017964813E+02  0.69898499418E+01  0.72461552325E+02  0.69999976591E+02 0.  0.
         12    1    1    2    0    0 -0.12545531558E+02 -0.12017964813E+02 -0.69898499418E+01  0.18726447675E+02  0.00000000000E+00 0. -1.
         11    1    3    3    0    0 -0.11080246381E+02  0.51071539042E+01 -0.22517429099E+01  0.12406660601E+02  0.51100000000E-03 0. -1.
        -11    1    3    3    0    0  0.67880366162E+01 -0.21678755250E+01 -0.22164391338E+02  0.23281696009E+02  0.51100000000E-03 0.  1.
        -12    1    3    3    0    0  0.16837741323E+02  0.90786864337E+01  0.31405984190E+02  0.36773195716E+02  0.00000000000E+00 0.  1.
</event>
<event>
 7    1  0.3434711E-013  0.7246160E+02  0.7816164E-02  0.1226708E+00
        -11   -1    0    0    0    0  0.00000000000E+00  0.00000000000E+00  0.45593999997E+02  0.45594000000E+02  0.51100000000E-03 0.  1.
         11   -1    0    0    0    0 -0.00000000000E+00 -0.00000000000E+00 -0.45593999997E+02  0.45594000000E+02  0.51100000000E-03 0. -1.
    9900012    2    1    2    0    0 -0.14317678907E+02 -0.63857818968E+01  0.10242261848E+02  0.72461599719E+02  0.70000038331E+02 0.  0.
         12    1    1    2    0    0  0.14317678907E+02  0.63857818968E+01 -0.10242261848E+02  0.18726400281E+02  0.00000000000E+00 0. -1.
         11    1    3    3    0    0 -0.83711538948E+01  0.10065593308E+02  0.38878581436E+01  0.13656786862E+02  0.51100000000E-03 0. -1.
        -11    1    3    3    0    0 -0.21749564691E+01 -0.13358977753E+02  0.30923749992E+02  0.33756051844E+02  0.51100000000E-03 0.  1.
         12    1    3    3    0    0 -0.37715685432E+01 -0.30923974522E+01 -0.24569346288E+02  0.25048761013E+02  0.00000000000E+00 0. -1.
</event>
<event>
 7    1  0.3434711E-013  0.7246164E+02  0.7816164E-02  0.1226708E+00
        -11   -1    0    0    0    0  0.00000000000E+00  0.00000000000E+00  0.45593999997E+02  0.45594000000E+02  0.51100000000E-03 0.  1.
         11   -1    0    0    0    0 -0.00000000000E+00 -0.00000000000E+00 -0.45593999997E+02  0.45594000000E+02  0.51100000000E-03 0. -1.
    9900012    2    1    2    0    0  0.11873704994E+02  0.67564764054E+01  0.12807875779E+02  0.72461640886E+02  0.70000091959E+02 0.  0.
         12    1    1    2    0    0 -0.11873704994E+02 -0.67564764054E+01 -0.12807875779E+02  0.18726359114E+02  0.00000000000E+00 0. -1.
         11    1    3    3    0    0 -0.10735681257E+02  0.54568348155E+01  0.15394136669E+02  0.19545110445E+02  0.51100000000E-03 0. -1.
        -11    1    3    3    0    0  0.10569666089E+02  0.64760454469E+01  0.21887989190E+02  0.25154345090E+02  0.51100000000E-03 0.  1.
        -12    1    3    3    0    0  0.12039720162E+02 -0.51764038570E+01 -0.24474250081E+02  0.27762185351E+02  0.00000000000E+00 0.  1.
</event>
<event>
 7    1  0.3434711E-013  0.7246158E+02  0.7816164E-02  0.1226708E+00
        -11   -1    0    0    0    0  0.00000000000E+00  0.00000000000E+00  0.45593999997E+02  0.45594000000E+02  0.51100000000E-03 0.  1.
         11   -1    0    0    0    0 -0.00000000000E+00 -0.00000000000E+00 -0.45593999997E+02  0.45594000000E+02  0.51100000000E-03 0. -1.
    9900012    2    1    2    0    0 -0.94334204985E+01  0.18269024071E+01  0.16073323139E+02  0.72461582525E+02  0.70000015933E+02 0.  0.
         12    1    1    2    0    0  0.94334204985E+01 -0.18269024071E+01 -0.16073323139E+02  0.18726417475E+02  0.00000000000E+00 0. -1.
         11    1    3    3    0    0 -0.13646269386E+02  0.11185636716E+02 -0.12414101377E+02  0.21574268242E+02  0.51100000000E-03 0. -1.
        -11    1    3    3    0    0  0.77264778977E+01 -0.27033010315E+01 -0.92817192906E+01  0.12375645859E+02  0.51100000000E-03 0.  1.
        -12    1    3    3    0    0 -0.35136290102E+01 -0.66554332776E+01  0.37769143807E+02  0.38511668425E+02  0.00000000000E+00 0.  1.
</event>
<event>
 7    1  0.3434711E-013  0.7246161E+02  0.7816164E-02  0.1226708E+00
        -11   -1    0    0    0    0  0.00000000000E+00  0.00000000000E+00  0.45593999997E+02  0.45594000000E+02  0.51100000000E-03 0. -1.
         11   -1    0    0    0    0 -0.00000000000E+00 -0.00000000000E+00 -0.45593999997E+02  0.45594000000E+02  0.51100000000E-03 0.  1.
    9900012    2    1    2    0    0  0.36400287970E+01  0.17782935594E+02  0.46038036286E+01  0.72461611779E+02  0.70000054041E+02 0.  0.
         12    1    1    2    0    0 -0.36400287970E+01 -0.17782935594E+02 -0.46038036286E+01  0.18726388221E+02  0.00000000000E+00 0. -1.
         11    1    3    3    0    0 -0.17680424042E-01 -0.11365725839E+02  0.39120384283E+01  0.12020153134E+02  0.51100000000E-03 0. -1.
        -11    1    3    3    0    0  0.28472700273E+01 -0.22841451032E+01 -0.21594696564E+02  0.21901031606E+02  0.51100000000E-03 0.  1.
         12    1    3    3    0    0  0.81043919370E+00  0.31432806535E+02  0.22286461764E+02  0.38540427039E+02  0.00000000000E+00 0. -1.
</event>
<event>
 7    1  0.3434711E-013  0.7246158E+02  0.7816164E-02  0.1226708E+00
        -11   -1    0    0    0    0  0.00000000000E+00  0.00000000000E+00  0.45593999997E+02  0.45594000000E+02  0.51100000000E-03 0.  1.
         11   -1    0    0    0    0 -0.00000000000E+00 -0.00000000000E+00 -0.45593999997E+02  0.45594000000E+02  0.51100000000E-03 0. -1.
    9900012    2    1    2    0    0  0.49640253631E+01 -0.99278319835E+01  0.15082289795E+02  0.72461578528E+02  0.70000010726E+02 0.  0.
         12    1    1    2    0    0 -0.49640253631E+01  0.99278319835E+01 -0.15082289795E+02  0.18726421472E+02  0.00000000000E+00 0. -1.
         11    1    3    3    0    0  0.70718978708E+01  0.21582054970E+01 -0.77570753939E+01  0.10716427081E+02  0.51100000000E-03 0. -1.
        -11    1    3    3    0    0  0.63152120819E+01  0.10098667487E+02 -0.13714286784E+02  0.18164433680E+02  0.51100000000E-03 0.  1.
        -12    1    3    3    0    0 -0.84230845897E+01 -0.22184704968E+02  0.36553651973E+02  0.43580717767E+02  0.00000000000E+00 0.  1.
</event>
<event>
 7    1  0.3434711E-013  0.7246147E+02  0.7816164E-02  0.1226708E+00
        -11   -1    0    0    0    0  0.00000000000E+00  0.00000000000E+00  0.45593999997E+02  0.45594000000E+02  0.51100000000E-03 0.  1.
         11   -1    0    0    0    0 -0.00000000000E+00 -0.00000000000E+00 -0.45593999997E+02  0.45594000000E+02  0.51100000000E-03 0. -1.
    9900012    2    1    2    0    0  0.15304999256E+02 -0.10127143284E+02 -0.37257165583E+01  0.72461468095E+02  0.69999866866E+02 0.  0.
         12    1    1    2    0    0 -0.15304999256E+02  0.10127143284E+02  0.37257165583E+01  0.18726531905E+02  0.00000000000E+00 0. -1.
         11    1    3    3    0    0  0.10801307358E+02 -0.93297029222E+01 -0.25803872291E+02  0.29488157331E+02  0.51100000000E-03 0. -1.
        -11    1    3    3    0    0  0.18088801762E+02 -0.41128150318E+00  0.12933877171E+01  0.18139645909E+02  0.51100000000E-03 0.  1.
         12    1    3    3    0    0 -0.13585109864E+02 -0.38615885872E+00  0.20784768016E+02  0.24833664856E+02  0.00000000000E+00 0. -1.
</event>
<event>
 7    1  0.3434711E-013  0.7246110E+02  0.7816164E-02  0.1226709E+00
        -11   -1    0    0    0    0  0.00000000000E+00  0.00000000000E+00  0.45593999997E+02  0.45594000000E+02  0.51100000000E-03 0.  1.
         11   -1    0    0    0    0 -0.00000000000E+00 -0.00000000000E+00 -0.45593999997E+02  0.45594000000E+02  0.51100000000E-03 0. -1.
    9900012    2    1    2    0    0 -0.10461675819E+02  0.15260552796E+02  0.28923555369E+01  0.72461098144E+02  0.69999384933E+02 0.  0.
         12    1    1    2    0    0  0.10461675819E+02 -0.15260552796E+02 -0.28923555369E+01  0.18726901856E+02  0.00000000000E+00 0. -1.
         11    1    3    3    0    0 -0.49952689125E+01 -0.65028112749E+01 -0.19119406854E+02  0.20803629123E+02  0.51100000000E-03 0. -1.
        -11    1    3    3    0    0 -0.17753612593E+02  0.14047939683E+02 -0.29044909169E+01  0.22824798733E+02  0.51100000000E-03 0.  1.
        -12    1    3    3    0    0  0.12287205686E+02  0.77154243875E+01  0.24916253307E+02  0.28832670288E+02  0.00000000000E+00 0.  1.
</event>
<event>
 7    1  0.3434711E-013  0.7246135E+02  0.7816164E-02  0.1226709E+00
        -11   -1    0    0    0    0  0.00000000000E+00  0.00000000000E+00  0.45593999997E+02  0.45594000000E+02  0.51100000000E-03 0.  1.
         11   -1    0    0    0    0 -0.00000000000E+00 -0.00000000000E+00 -0.45593999997E+02  0.45594000000E+02  0.51100000000E-03 0. -1.
    9900012    2    1    2    0    0 -0.15639707676E+02 -0.66566530144E+01  0.78597640022E+01  0.72461351189E+02  0.69999714573E+02 0.  0.
         12    1    1    2    0    0  0.15639707676E+02  0.66566530144E+01 -0.78597640022E+01  0.18726648811E+02  0.00000000000E+00 0. -1.
         11    1    3    3    0    0  0.15208827488E+01 -0.30271267857E+01 -0.97006866541E+01  0.10275208160E+02  0.51100000000E-03 0. -1.
        -11    1    3    3    0    0 -0.24816190059E+02  0.11950905829E+02 -0.10260886808E+02  0.29393081457E+02  0.51100000000E-03 0.  1.
        -12    1    3    3    0    0  0.76555996349E+01 -0.15580432058E+02  0.27821337465E+02  0.32793061571E+02  0.00000000000E+00 0.  1.
</event>
<event>
 7    1  0.3434711E-013  0.7246154E+02  0.7816164E-02  0.1226708E+00
        -11   -1    0    0    0    0  0.00000000000E+00  0.00000000000E+00  0.45593999997E+02  0.45594000000E+02  0.51100000000E-03 0. -1.
         11   -1    0    0    0    0 -0.00000000000E+00 -0.00000000000E+00 -0.45593999997E+02  0.45594000000E+02  0.51100000000E-03 0.  1.
    9900012    2    1    2    0    0 -0.97141517194E+01 -0.15956383479E+02 -0.13073717183E+01  0.72461544431E+02  0.69999966308E+02 0.  0.
         12    1    1    2    0    0  0.97141517194E+01  0.15956383479E+02  0.13073717183E+01  0.18726455569E+02  0.00000000000E+00 0. -1.
         11    1    3    3    0    0 -0.27089856018E+02 -0.27177805139E+02 -0.92421441786E+00  0.38384209824E+02  0.51100000000E-03 0. -1.
        -11    1    3    3    0    0  0.12909851448E+02 -0.66133787686E+01 -0.45950373556E+01  0.15215630506E+02  0.51100000000E-03 0.  1.
        -12    1    3    3    0    0  0.44658528506E+01  0.17834800428E+02  0.42118800552E+01  0.18861704101E+02  0.00000000000E+00 0.  1.
</event>
<event>
 7    1  0.3434711E-013  0.7246161E+02  0.7816164E-02  0.1226708E+00
        -11   -1    0    0    0    0  0.00000000000E+00  0.00000000000E+00  0.45593999997E+02  0.45594000000E+02  0.51100000000E-03 0.  1.
         11   -1    0    0    0    0 -0.00000000000E+00 -0.00000000000E+00 -0.45593999997E+02  0.45594000000E+02  0.51100000000E-03 0. -1.
    9900012    2    1    2    0    0 -0.54919415110E+01  0.15975919269E+02  0.80799977597E+01  0.72461607346E+02  0.70000048266E+02 0.  0.
         12    1    1    2    0    0  0.54919415110E+01 -0.15975919269E+02 -0.80799977597E+01  0.18726392654E+02  0.00000000000E+00 0. -1.
         11    1    3    3    0    0  0.49967144920E+01 -0.17665426459E+02 -0.18387661840E+00  0.18359418797E+02  0.51100000000E-03 0. -1.
        -11    1    3    3    0    0  0.73751943445E+01  0.38639687322E+01  0.16439718000E+02  0.18427915621E+02  0.51100000000E-03 0.  1.
        -12    1    3    3    0    0 -0.17863850348E+02  0.29777376996E+02 -0.81758436216E+01  0.35674272927E+02  0.00000000000E+00 0.  1.
</event>
<event>
 7    1  0.3434711E-013  0.7246158E+02  0.7816164E-02  0.1226708E+00
        -11   -1    0    0    0    0  0.00000000000E+00  0.00000000000E+00  0.45593999997E+02  0.45594000000E+02  0.51100000000E-03 0.  1.
         11   -1    0    0    0    0 -0.00000000000E+00 -0.00000000000E+00 -0.45593999997E+02  0.45594000000E+02  0.51100000000E-03 0. -1.
    9900012    2    1    2    0    0 -0.10055130473E+02  0.12790256081E+02  0.92726728906E+01  0.72461581175E+02  0.70000014175E+02 0.  0.
         12    1    1    2    0    0  0.10055130473E+02 -0.12790256081E+02 -0.92726728906E+01  0.18726418825E+02  0.00000000000E+00 0. -1.
         11    1    3    3    0    0 -0.22100539003E+02  0.85472108709E-01 -0.88024294035E+01  0.23789154953E+02  0.51100000000E-03 0. -1.
        -11    1    3    3    0    0 -0.87179157838E+01  0.15625446536E+02  0.20902493125E+02  0.27514920573E+02  0.51100000000E-03 0.  1.
         12    1    3    3    0    0  0.20763324314E+02 -0.29206625632E+01 -0.28273908308E+01  0.21157505649E+02  0.00000000000E+00 0. -1.
</event>
<event>
 7    1  0.3434711E-013  0.7246158E+02  0.7816164E-02  0.1226708E+00
        -11   -1    0    0    0    0  0.00000000000E+00  0.00000000000E+00  0.45593999997E+02  0.45594000000E+02  0.51100000000E-03 0. -1.
         11   -1    0    0    0    0 -0.00000000000E+00 -0.00000000000E+00 -0.45593999997E+02  0.45594000000E+02  0.51100000000E-03 0.  1.
    9900012    2    1    2    0    0 -0.35860925349E+01 -0.12170378752E+02 -0.13773188362E+02  0.72461577589E+02  0.70000009503E+02 0.  0.
         12    1    1    2    0    0  0.35860925349E+01  0.12170378752E+02  0.13773188362E+02  0.18726422411E+02  0.00000000000E+00 0. -1.
         11    1    3    3    0    0  0.13379900277E+02  0.12602520707E+02 -0.10319480533E+02  0.21079301181E+02  0.51100000000E-03 0. -1.
        -11    1    3    3    0    0 -0.20223885880E+02 -0.17195441219E+01 -0.15149529925E+02  0.25327270862E+02  0.51100000000E-03 0.  1.
         12    1    3    3    0    0  0.32578930689E+01 -0.23053355336E+02  0.11695822096E+02  0.26055005546E+02  0.00000000000E+00 0. -1.
</event>
<event>
 7    1  0.3434711E-013  0.7246154E+02  0.7816164E-02  0.1226708E+00
        -11   -1    0    0    0    0  0.00000000000E+00  0.00000000000E+00  0.45593999997E+02  0.45594000000E+02  0.51100000000E-03 0. -1.
         11   -1    0    0    0    0 -0.00000000000E+00 -0.00000000000E+00 -0.45593999997E+02  0.45594000000E+02  0.51100000000E-03 0.  1.
    9900012    2    1    2    0    0 -0.14430514982E+02  0.48384127349E+01 -0.10910093275E+02  0.72461544497E+02  0.69999966394E+02 0.  0.
         12    1    1    2    0    0  0.14430514982E+02 -0.48384127349E+01  0.10910093275E+02  0.18726455503E+02  0.00000000000E+00 0. -1.
         11    1    3    3    0    0  0.13844868967E+02  0.11030258339E+02 -0.18447218501E+02  0.25566518465E+02  0.51100000000E-03 0. -1.
        -11    1    3    3    0    0 -0.69314675075E+01 -0.18421362256E+02 -0.34002903131E+01  0.19973827967E+02  0.51100000000E-03 0.  1.
         12    1    3    3    0    0 -0.21343916442E+02  0.12229516652E+02  0.10937415539E+02  0.26921198066E+02  0.00000000000E+00 0. -1.
</event>
<event>
 7    1  0.3434711E-013  0.7246156E+02  0.7816164E-02  0.1226708E+00
        -11   -1    0    0    0    0  0.00000000000E+00  0.00000000000E+00  0.45593999997E+02  0.45594000000E+02  0.51100000000E-03 0.  1.
         11   -1    0    0    0    0 -0.00000000000E+00 -0.00000000000E+00 -0.45593999997E+02  0.45594000000E+02  0.51100000000E-03 0. -1.
    9900012    2    1    2    0    0  0.72954319916E+00  0.18572686761E+02  0.22809431003E+01  0.72461558047E+02  0.69999984045E+02 0.  0.
         12    1    1    2    0    0 -0.72954319916E+00 -0.18572686761E+02 -0.22809431003E+01  0.18726441953E+02  0.00000000000E+00 0. -1.
         11    1    3    3    0    0 -0.25737180643E+02 -0.35205902951E+01  0.77101168929E+00  0.25988295111E+02  0.51100000000E-03 0. -1.
        -11    1    3    3    0    0  0.13526299893E+02 -0.50440823610E+01  0.67817416486E+01  0.15949782936E+02  0.51100000000E-03 0.  1.
        -12    1    3    3    0    0  0.12940423950E+02  0.27137359417E+02 -0.52718102376E+01  0.30523480000E+02  0.00000000000E+00 0.  1.
</event>
<event>
 7    1  0.3434711E-013  0.7246157E+02  0.7816164E-02  0.1226708E+00
        -11   -1    0    0    0    0  0.00000000000E+00  0.00000000000E+00  0.45593999997E+02  0.45594000000E+02  0.51100000000E-03 0.  1.
         11   -1    0    0    0    0 -0.00000000000E+00 -0.00000000000E+00 -0.45593999997E+02  0.45594000000E+02  0.51100000000E-03 0. -1.
    9900012    2    1    2    0    0 -0.16761988494E+02  0.82707210397E+01  0.11446010813E+01  0.72461569576E+02  0.69999999064E+02 0.  0.
         12    1    1    2    0    0  0.16761988494E+02 -0.82707210397E+01 -0.11446010813E+01  0.18726430424E+02  0.00000000000E+00 0. -1.
         11    1    3    3    0    0 -0.26766287315E+02  0.90789867738E+01 -0.15175983233E+02  0.32080720142E+02  0.51100000000E-03 0. -1.
        -11    1    3    3    0    0 -0.11362264012E+02 -0.96440114701E+00 -0.27621643790E+01  0.11732888194E+02  0.51100000000E-03 0.  1.
        -12    1    3    3    0    0  0.21366562833E+02  0.15613541293E+00  0.19082748693E+02  0.28647961240E+02  0.00000000000E+00 0.  1.
</event>
<event>
 7    1  0.3434711E-013  0.7246173E+02  0.7816164E-02  0.1226708E+00
        -11   -1    0    0    0    0  0.00000000000E+00  0.00000000000E+00  0.45593999997E+02  0.45594000000E+02  0.51100000000E-03 0.  1.
         11   -1    0    0    0    0 -0.00000000000E+00 -0.00000000000E+00 -0.45593999997E+02  0.45594000000E+02  0.51100000000E-03 0. -1.
    9900012    2    1    2    0    0  0.16131199672E+02 -0.86778623321E+01 -0.38925860265E+01  0.72461731725E+02  0.70000210293E+02 0.  0.
         12    1    1    2    0    0 -0.16131199672E+02  0.86778623321E+01  0.38925860265E+01  0.18726268275E+02  0.00000000000E+00 0. -1.
         11    1    3    3    0    0  0.10799229056E+02  0.13149426133E+02 -0.98468121651E+01  0.19659360771E+02  0.51100000000E-03 0. -1.
        -11    1    3    3    0    0  0.13126292479E+02  0.67844864986E+01  0.15726788860E+02  0.21579172816E+02  0.51100000000E-03 0.  1.
         12    1    3    3    0    0 -0.77943218630E+01 -0.28611774963E+02 -0.97725627218E+01  0.31223198139E+02  0.00000000000E+00 0. -1.
</event>
<event>
 7    1  0.3434711E-013  0.7246156E+02  0.7816164E-02  0.1226708E+00
        -11   -1    0    0    0    0  0.00000000000E+00  0.00000000000E+00  0.45593999997E+02  0.45594000000E+02  0.51100000000E-03 0.  1.
         11   -1    0    0    0    0 -0.00000000000E+00 -0.00000000000E+00 -0.45593999997E+02  0.45594000000E+02  0.51100000000E-03 0. -1.
    9900012    2    1    2    0    0 -0.34275498470E+01  0.95691480742E+01  0.15727768533E+02  0.72461564251E+02  0.69999992127E+02 0.  0.
         12    1    1    2    0    0  0.34275498470E+01 -0.95691480742E+01 -0.15727768533E+02  0.18726435749E+02  0.00000000000E+00 0. -1.
         11    1    3    3    0    0 -0.87562104148E+00 -0.20839749404E+02 -0.62258590168E+01  0.21767480060E+02  0.51100000000E-03 0. -1.
        -11    1    3    3    0    0 -0.15484870286E+02  0.27015061819E+02  0.98512377422E+01  0.32659480372E+02  0.51100000000E-03 0.  1.
        -12    1    3    3    0    0  0.12932941481E+02  0.33938356590E+01  0.12102389808E+02  0.18034603819E+02  0.00000000000E+00 0.  1.
</event>
<event>
 7    1  0.3434711E-013  0.7246157E+02  0.7816164E-02  0.1226708E+00
        -11   -1    0    0    0    0  0.00000000000E+00  0.00000000000E+00  0.45593999997E+02  0.45594000000E+02  0.51100000000E-03 0. -1.
         11   -1    0    0    0    0 -0.00000000000E+00 -0.00000000000E+00 -0.45593999997E+02  0.45594000000E+02  0.51100000000E-03 0.  1.
    9900012    2    1    2    0    0  0.79483031374E+01  0.39011693936E+01 -0.16501045617E+02  0.72461570766E+02  0.70000000615E+02 0.  0.
         12    1    1    2    0    0 -0.79483031374E+01 -0.39011693936E+01  0.16501045617E+02  0.18726429234E+02  0.00000000000E+00 0. -1.
         11    1    3    3    0    0 -0.10852481321E+02 -0.14234633827E+02 -0.46164037692E+01  0.18485462803E+02  0.51100000000E-03 0. -1.
        -11    1    3    3    0    0 -0.10463443616E+02  0.87143124817E+01 -0.18060303170E+02  0.22618519960E+02  0.51100000000E-03 0.  1.
         12    1    3    3    0    0  0.29264228075E+02  0.94214907390E+01  0.61756613227E+01  0.31357588003E+02  0.00000000000E+00 0. -1.
</event>
<event>
 7    1  0.3434711E-013  0.7246156E+02  0.7816164E-02  0.1226708E+00
        -11   -1    0    0    0    0  0.00000000000E+00  0.00000000000E+00  0.45593999997E+02  0.45594000000E+02  0.51100000000E-03 0.  1.
         11   -1    0    0    0    0 -0.00000000000E+00 -0.00000000000E+00 -0.45593999997E+02  0.45594000000E+02  0.51100000000E-03 0. -1.
    9900012    2    1    2    0    0  0.76095005115E+01 -0.79142362148E+01  0.15170362670E+02  0.72461560497E+02  0.69999987237E+02 0.  0.
         12    1    1    2    0    0 -0.76095005115E+01  0.79142362148E+01 -0.15170362670E+02  0.18726439503E+02  0.00000000000E+00 0. -1.
         11    1    3    3    0    0  0.17140081705E+02  0.54637484551E+01  0.12764096285E+02  0.22058039402E+02  0.51100000000E-03 0. -1.
        -11    1    3    3    0    0 -0.27215285414E+01 -0.30231231017E+02 -0.50244925679E+01  0.30766533315E+02  0.51100000000E-03 0.  1.
         12    1    3    3    0    0 -0.68090526519E+01  0.16853246347E+02  0.74307589534E+01  0.19636987780E+02  0.00000000000E+00 0. -1.
</event>
<event>
 7    1  0.3434711E-013  0.7246157E+02  0.7816164E-02  0.1226708E+00
        -11   -1    0    0    0    0  0.00000000000E+00  0.00000000000E+00  0.45593999997E+02  0.45594000000E+02  0.51100000000E-03 0.  1.
         11   -1    0    0    0    0 -0.00000000000E+00 -0.00000000000E+00 -0.45593999997E+02  0.45594000000E+02  0.51100000000E-03 0. -1.
    9900012    2    1    2    0    0  0.40377075857E+01  0.18278139002E+02  0.53448977640E+00  0.72461571423E+02  0.70000001471E+02 0.  0.
         12    1    1    2    0    0 -0.40377075857E+01 -0.18278139002E+02 -0.53448977640E+00  0.18726428577E+02  0.00000000000E+00 0. -1.
         11    1    3    3    0    0 -0.99253972443E+01  0.12191213992E+02 -0.10990458623E+02  0.19181485606E+02  0.51100000000E-03 0. -1.
        -11    1    3    3    0    0  0.17346213461E+02  0.19210823589E+02  0.23675349706E+02  0.35078042254E+02  0.51100000000E-03 0.  1.
         12    1    3    3    0    0 -0.33831086313E+01 -0.13123898579E+02 -0.12150401307E+02  0.18202043563E+02  0.00000000000E+00 0. -1.
</event>
<event>
 7    1  0.3434711E-013  0.7246160E+02  0.7816164E-02  0.1226708E+00
        -11   -1    0    0    0    0  0.00000000000E+00  0.00000000000E+00  0.45593999997E+02  0.45594000000E+02  0.51100000000E-03 0.  1.
         11   -1    0    0    0    0 -0.00000000000E+00 -0.00000000000E+00 -0.45593999997E+02  0.45594000000E+02  0.51100000000E-03 0. -1.
    9900012    2    1    2    0    0 -0.36593888543E+01 -0.11378218693E+02  0.14416071327E+02  0.72461598853E+02  0.70000037203E+02 0.  0.
         12    1    1    2    0    0  0.36593888543E+01  0.11378218693E+02 -0.14416071327E+02  0.18726401147E+02  0.00000000000E+00 0. -1.
         11    1    3    3    0    0  0.12767010841E+02  0.10506668145E+02 -0.52919445853E+00  0.16542874247E+02  0.51100000000E-03 0. -1.
        -11    1    3    3    0    0  0.10925668342E+02  0.57811130522E+01  0.11464550000E+02  0.16859045163E+02  0.51100000000E-03 0.  1.
        -12    1    3    3    0    0 -0.27352068037E+02 -0.27665999890E+02  0.34807157855E+01  0.39059679443E+02  0.00000000000E+00 0.  1.
</event>
<event>
 7    1  0.3434711E-013  0.7246170E+02  0.7816164E-02  0.1226708E+00
        -11   -1    0    0    0    0  0.00000000000E+00  0.00000000000E+00  0.45593999997E+02  0.45594000000E+02  0.51100000000E-03 0.  1.
         11   -1    0    0    0    0 -0.00000000000E+00 -0.00000000000E+00 -0.45593999997E+02  0.45594000000E+02  0.51100000000E-03 0. -1.
    9900012    2    1    2    0    0 -0.17987855057E+01 -0.89296895643E+01  0.16361519637E+02  0.72461700050E+02  0.70000169030E+02 0.  0.
         12    1    1    2    0    0  0.17987855057E+01  0.89296895643E+01 -0.16361519637E+02  0.18726299950E+02  0.00000000000E+00 0. -1.
         11    1    3    3    0    0  0.24996878723E+02  0.78768966545E+01  0.14815455650E+02  0.30106264683E+02  0.51100000000E-03 0. -1.
        -11    1    3    3    0    0  0.26551449368E+01  0.30350670564E+01 -0.48133960324E+01  0.62793477605E+01  0.51100000000E-03 0.  1.
        -12    1    3    3    0    0 -0.29450809166E+02 -0.19841653275E+02  0.63594600191E+01  0.36076087606E+02  0.00000000000E+00 0.  1.
</event>
<event>
 7    1  0.3434711E-013  0.7246146E+02  0.7816164E-02  0.1226708E+00
        -11   -1    0    0    0    0  0.00000000000E+00  0.00000000000E+00  0.45593999997E+02  0.45594000000E+02  0.51100000000E-03 0. -1.
         11   -1    0    0    0    0 -0.00000000000E+00 -0.00000000000E+00 -0.45593999997E+02  0.45594000000E+02  0.51100000000E-03 0.  1.
    9900012    2    1    2    0    0 -0.17184027566E+02 -0.34945329968E+01  0.65712133865E+01  0.72461457083E+02  0.69999852521E+02 0.  0.
         12    1    1    2    0    0  0.17184027566E+02  0.34945329968E+01 -0.65712133865E+01  0.18726542917E+02  0.00000000000E+00 0. -1.
         11    1    3    3    0    0 -0.22364600922E+01  0.98728281786E+01  0.11598202666E+02  0.15394570320E+02  0.51100000000E-03 0. -1.
        -11    1    3    3    0    0  0.59397952343E+01  0.16064330145E+02 -0.11183648950E+02  0.20455265203E+02  0.51100000000E-03 0.  1.
         12    1    3    3    0    0 -0.20887362708E+02 -0.29431691321E+02  0.61566596703E+01  0.36611621559E+02  0.00000000000E+00 0. -1.
</event>
<event>
 7    1  0.3434711E-013  0.7246128E+02  0.7816164E-02  0.1226709E+00
        -11   -1    0    0    0    0  0.00000000000E+00  0.00000000000E+00  0.45593999997E+02  0.45594000000E+02  0.51100000000E-03 0.  1.
         11   -1    0    0    0    0 -0.00000000000E+00 -0.00000000000E+00 -0.45593999997E+02  0.45594000000E+02  0.51100000000E-03 0. -1.
    9900012    2    1    2    0    0  0.78827398375E+01 -0.13016952370E+02  0.10913813426E+02  0.72461282192E+02  0.69999624692E+02 0.  0.
         12    1    1    2    0    0 -0.78827398375E+01  0.13016952370E+02 -0.10913813426E+02  0.18726717808E+02  0.00000000000E+00 0. -1.
         11    1    3    3    0    0 -0.44253967056E+01 -0.27036049807E+02 -0.20846535015E+01  0.27475041504E+02  0.51100000000E-03 0. -1.
        -11    1    3    3    0    0 -0.12492814498E+02  0.13032962995E+02  0.33799600184E+01  0.18367162777E+02  0.51100000000E-03 0.  1.
        -12    1    3    3    0    0  0.24800951041E+02  0.98613444198E+00  0.96185069091E+01  0.26619077911E+02  0.00000000000E+00 0.  1.
</event>
<event>
 7    1  0.3434711E-013  0.7246158E+02  0.7816164E-02  0.1226708E+00
        -11   -1    0    0    0    0  0.00000000000E+00  0.00000000000E+00  0.45593999997E+02  0.45594000000E+02  0.51100000000E-03 0.  1.
         11   -1    0    0    0    0 -0.00000000000E+00 -0.00000000000E+00 -0.45593999997E+02  0.45594000000E+02  0.51100000000E-03 0. -1.
    9900012    2    1    2    0    0 -0.17858893704E+02  0.13732011777E+01  0.54638084086E+01  0.72461575672E+02  0.70000007005E+02 0.  0.
         12    1    1    2    0    0  0.17858893704E+02 -0.13732011777E+01 -0.54638084086E+01  0.18726424328E+02  0.00000000000E+00 0. -1.
         11    1    3    3    0    0 -0.25792327891E+02 -0.11521665430E+02 -0.33422305124E+01  0.28445798589E+02  0.51100000000E-03 0. -1.
        -11    1    3    3    0    0  0.49968332058E+01 -0.72903504295E+01  0.19189637073E+02  0.21127227048E+02  0.51100000000E-03 0.  1.
         12    1    3    3    0    0  0.29366009811E+01  0.20185217037E+02 -0.10383598152E+02  0.22888550035E+02  0.00000000000E+00 0. -1.
</event>
<event>
 7    1  0.3434711E-013  0.7246154E+02  0.7816164E-02  0.1226708E+00
        -11   -1    0    0    0    0  0.00000000000E+00  0.00000000000E+00  0.45593999997E+02  0.45594000000E+02  0.51100000000E-03 0.  1.
         11   -1    0    0    0    0 -0.00000000000E+00 -0.00000000000E+00 -0.45593999997E+02  0.45594000000E+02  0.51100000000E-03 0. -1.
    9900012    2    1    2    0    0 -0.13151642909E+02 -0.13192454305E+02 -0.19167035980E+01  0.72461539723E+02  0.69999960175E+02 0.  0.
         12    1    1    2    0    0  0.13151642909E+02  0.13192454305E+02  0.19167035980E+01  0.18726460277E+02  0.00000000000E+00 0. -1.
         11    1    3    3    0    0  0.35761603784E+01  0.27047536358E+01  0.27388257093E+01  0.52541204601E+01  0.51100000000E-03 0. -1.
        -11    1    3    3    0    0  0.21264353822E+02  0.67533586772E+01  0.23109913539E+01  0.22430365093E+02  0.51100000000E-03 0.  1.
        -12    1    3    3    0    0 -0.37992157110E+02 -0.22650566618E+02 -0.69665206612E+01  0.44777054170E+02  0.00000000000E+00 0.  1.
</event>
<event>
 7    1  0.3434711E-013  0.7246156E+02  0.7816164E-02  0.1226708E+00
        -11   -1    0    0    0    0  0.00000000000E+00  0.00000000000E+00  0.45593999997E+02  0.45594000000E+02  0.51100000000E-03 0.  1.
         11   -1    0    0    0    0 -0.00000000000E+00 -0.00000000000E+00 -0.45593999997E+02  0.45594000000E+02  0.51100000000E-03 0. -1.
    9900012    2    1    2    0    0 -0.14053737337E+02  0.12375673309E+02  0.12065629531E+00  0.72461564650E+02  0.69999992647E+02 0.  0.
         12    1    1    2    0    0  0.14053737337E+02 -0.12375673309E+02 -0.12065629531E+00  0.18726435350E+02  0.00000000000E+00 0. -1.
         11    1    3    3    0    0  0.81101842358E+01  0.23669167284E+02  0.15915890749E+02  0.29653332811E+02  0.51100000000E-03 0. -1.
        -11    1    3    3    0    0  0.51659538512E+00  0.71947573280E+01  0.32324616567E+01  0.79044425751E+01  0.51100000000E-03 0.  1.
        -12    1    3    3    0    0 -0.22680516957E+02 -0.18488251302E+02 -0.19027696110E+02  0.34903789263E+02  0.00000000000E+00 0.  1.
</event>
<event>
 7    1  0.3434711E-013  0.7246175E+02  0.7816164E-02  0.1226708E+00
        -11   -1    0    0    0    0  0.00000000000E+00  0.00000000000E+00  0.45593999997E+02  0.45594000000E+02  0.51100000000E-03 0.  1.
         11   -1    0    0    0    0 -0.00000000000E+00 -0.00000000000E+00 -0.45593999997E+02  0.45594000000E+02  0.51100000000E-03 0. -1.
    9900012    2    1    2    0    0  0.57949869559E+01 -0.14190341323E+02  0.10757537718E+02  0.72461754289E+02  0.70000239687E+02 0.  0.
         12    1    1    2    0    0 -0.57949869559E+01  0.14190341323E+02 -0.10757537718E+02  0.18726245711E+02  0.00000000000E+00 0. -1.
         11    1    3    3    0    0 -0.36244875353E+01 -0.80881382162E+01 -0.10773999065E+02  0.13951127044E+02  0.51100000000E-03 0. -1.
        -11    1    3    3    0    0  0.25038113816E+02 -0.21213559904E+01 -0.66967285037E+01  0.26004873920E+02  0.51100000000E-03 0.  1.
        -12    1    3    3    0    0 -0.15618639325E+02 -0.39808471167E+01  0.28228265286E+02  0.32505753324E+02  0.00000000000E+00 0.  1.
</event>
<event>
 7    1  0.3434711E-013  0.7246158E+02  0.7816164E-02  0.1226708E+00
        -11   -1    0    0    0    0  0.00000000000E+00  0.00000000000E+00  0.45593999997E+02  0.45594000000E+02  0.51100000000E-03 0.  1.
         11   -1    0    0    0    0 -0.00000000000E+00 -0.00000000000E+00 -0.45593999997E+02  0.45594000000E+02  0.51100000000E-03 0. -1.
    9900012    2    1    2    0    0  0.84908889291E+01 -0.15391485868E+02  0.64564387494E+01  0.72461584610E+02  0.70000018649E+02 0.  0.
         12    1    1    2    0    0 -0.84908889291E+01  0.15391485868E+02 -0.64564387494E+01  0.18726415390E+02  0.00000000000E+00 0. -1.
         11    1    3    3    0    0 -0.11912379497E+02 -0.12310054708E+02 -0.29450256722E+01  0.17381467391E+02  0.51100000000E-03 0. -1.
        -11    1    3    3    0    0 -0.14116198877E+02 -0.77857927392E+01 -0.57141590114E+01  0.17103720437E+02  0.51100000000E-03 0.  1.
        -12    1    3    3    0    0  0.34519467303E+02  0.47043615797E+01  0.15115623433E+02  0.37976396782E+02  0.00000000000E+00 0.  1.
</event>
<event>
 7    1  0.3434711E-013  0.7246167E+02  0.7816164E-02  0.1226708E+00
        -11   -1    0    0    0    0  0.00000000000E+00  0.00000000000E+00  0.45593999997E+02  0.45594000000E+02  0.51100000000E-03 0. -1.
         11   -1    0    0    0    0 -0.00000000000E+00 -0.00000000000E+00 -0.45593999997E+02  0.45594000000E+02  0.51100000000E-03 0.  1.
    9900012    2    1    2    0    0  0.15930700979E+02 -0.98405724862E+01 -0.22632533781E+00  0.72461672979E+02  0.70000133766E+02 0.  0.
         12    1    1    2    0    0 -0.15930700979E+02  0.98405724862E+01  0.22632533781E+00  0.18726327021E+02  0.00000000000E+00 0. -1.
         11    1    3    3    0    0 -0.11783930582E+02  0.83743931950E+01 -0.14549907696E+02  0.20510760483E+02  0.51100000000E-03 0. -1.
        -11    1    3    3    0    0  0.65388594453E+01 -0.40427206281E+01 -0.12676753382E+02  0.14825665229E+02  0.51100000000E-03 0.  1.
         12    1    3    3    0    0  0.21175772116E+02 -0.14172245053E+02  0.27000335740E+02  0.37125247267E+02  0.00000000000E+00 0. -1.
</event>
<event>
 7    1  0.3434711E-013  0.7246158E+02  0.7816164E-02  0.1226708E+00
        -11   -1    0    0    0    0  0.00000000000E+00  0.00000000000E+00  0.45593999997E+02  0.45594000000E+02  0.51100000000E-03 0. -1.
         11   -1    0    0    0    0 -0.00000000000E+00 -0.00000000000E+00 -0.45593999997E+02  0.45594000000E+02  0.51100000000E-03 0.  1.
    9900012    2    1    2    0    0  0.13664522852E+02  0.29099201258E+01  0.12469646925E+02  0.72461577108E+02  0.70000008876E+02 0.  0.
         12    1    1    2    0    0 -0.13664522852E+02 -0.29099201258E+01 -0.12469646925E+02  0.18726422892E+02  0.00000000000E+00 0. -1.
         11    1    3    3    0    0 -0.12759561886E+02 -0.15392146549E+02 -0.14468048884E+01  0.20045394473E+02  0.51100000000E-03 0. -1.
        -11    1    3    3    0    0  0.12749891967E+02  0.74405204225E+00 -0.12502878829E+02  0.17872754066E+02  0.51100000000E-03 0.  1.
        -12    1    3    3    0    0  0.13674192770E+02  0.17558014633E+02  0.26419330642E+02  0.34543428570E+02  0.00000000000E+00 0.  1.
</event>
<event>
 7    1  0.3434711E-013  0.7246157E+02  0.7816164E-02  0.1226708E+00
        -11   -1    0    0    0    0  0.00000000000E+00  0.00000000000E+00  0.45593999997E+02  0.45594000000E+02  0.51100000000E-03 0.  1.
         11   -1    0    0    0    0 -0.00000000000E+00 -0.00000000000E+00 -0.45593999997E+02  0.45594000000E+02  0.51100000000E-03 0. -1.
    9900012    2    1    2    0    0 -0.51724242535E+01  0.16832654517E+02 -0.63707782520E+01  0.72461573584E+02  0.70000004286E+02 0.  0.
         12    1    1    2    0    0  0.51724242535E+01 -0.16832654517E+02  0.63707782520E+01  0.18726426416E+02  0.00000000000E+00 0. -1.
         11    1    3    3    0    0  0.14874674915E+02  0.22986520257E+01 -0.18601338217E+02  0.23928007412E+02  0.51100000000E-03 0. -1.
        -11    1    3    3    0    0 -0.98659797386E+01 -0.79671671614E+01 -0.93344352777E+01  0.15746269113E+02  0.51100000000E-03 0.  1.
        -12    1    3    3    0    0 -0.10181119430E+02  0.22501169653E+02  0.21564995243E+02  0.32787297059E+02  0.00000000000E+00 0.  1.
</event>
<event>
 7    1  0.3434711E-013  0.7246159E+02  0.7816164E-02  0.1226708E+00
        -11   -1    0    0    0    0  0.00000000000E+00  0.00000000000E+00  0.45593999997E+02  0.45594000000E+02  0.51100000000E-03 0. -1.
         11   -1    0    0    0    0 -0.00000000000E+00 -0.00000000000E+00 -0.45593999997E+02  0.45594000000E+02  0.51100000000E-03 0.  1.
    9900012    2    1    2    0    0 -0.33456781471E+01 -0.12504978780E+02  0.13531830100E+02  0.72461588641E+02  0.70000023899E+02 0.  0.
         12    1    1    2    0    0  0.33456781471E+01  0.12504978780E+02 -0.13531830100E+02  0.18726411359E+02  0.00000000000E+00 0. -1.
         11    1    3    3    0    0 -0.11220465761E+02  0.16498499412E+02  0.97332211498E+00  0.19976153057E+02  0.51100000000E-03 0. -1.
        -11    1    3    3    0    0 -0.10688137642E+02  0.45966981130E+01 -0.12248445907E+01  0.11698981337E+02  0.51100000000E-03 0.  1.
         12    1    3    3    0    0  0.18562925256E+02 -0.33600176305E+02  0.13783352575E+02  0.40786454247E+02  0.00000000000E+00 0. -1.
</event>
<event>
 7    1  0.3434711E-013  0.7246160E+02  0.7816164E-02  0.1226708E+00
        -11   -1    0    0    0    0  0.00000000000E+00  0.00000000000E+00  0.45593999997E+02  0.45594000000E+02  0.51100000000E-03 0.  1.
         11   -1    0    0    0    0 -0.00000000000E+00 -0.00000000000E+00 -0.45593999997E+02  0.45594000000E+02  0.51100000000E-03 0. -1.
    9900012    2    1    2    0    0 -0.52767505616E+01 -0.10183847306E+02  0.14802815002E+02  0.72461596864E+02  0.70000034612E+02 0.  0.
         12    1    1    2    0    0  0.52767505616E+01  0.10183847306E+02 -0.14802815002E+02  0.18726403136E+02  0.00000000000E+00 0. -1.
         11    1    3    3    0    0 -0.13197611978E+01  0.15479902771E+01  0.16074085180E+01  0.25926445807E+01  0.51100000000E-03 0. -1.
        -11    1    3    3    0    0 -0.19770585236E+02 -0.79209514844E+01  0.36017348830E+02  0.41843361839E+02  0.51100000000E-03 0.  1.
         12    1    3    3    0    0  0.15813595872E+02 -0.38108860985E+01 -0.22821942347E+02  0.28025590444E+02  0.00000000000E+00 0. -1.
</event>
<event>
 7    1  0.3434711E-013  0.7246155E+02  0.7816164E-02  0.1226708E+00
        -11   -1    0    0    0    0  0.00000000000E+00  0.00000000000E+00  0.45593999997E+02  0.45594000000E+02  0.51100000000E-03 0.  1.
         11   -1    0    0    0    0 -0.00000000000E+00 -0.00000000000E+00 -0.45593999997E+02  0.45594000000E+02  0.51100000000E-03 0. -1.
    9900012    2    1    2    0    0 -0.12439394510E+02  0.44048138168E+01  0.13286794473E+02  0.72461552715E+02  0.69999977100E+02 0.  0.
         12    1    1    2    0    0  0.12439394510E+02 -0.44048138168E+01 -0.13286794473E+02  0.18726447285E+02  0.00000000000E+00 0. -1.
         11    1    3    3    0    0  0.42510660045E+01 -0.11092926990E+02 -0.56252454912E+01  0.13144123344E+02  0.51100000000E-03 0. -1.
        -11    1    3    3    0    0  0.60949446288E+01 -0.13294323829E+02 -0.50508424592E+01  0.15472504836E+02  0.51100000000E-03 0.  1.
        -12    1    3    3    0    0 -0.22785405143E+02  0.28792064635E+02  0.23962882424E+02  0.43844924536E+02  0.00000000000E+00 0.  1.
</event>
<event>
 7    1  0.3434711E-013  0.7246156E+02  0.7816164E-02  0.1226708E+00
        -11   -1    0    0    0    0  0.00000000000E+00  0.00000000000E+00  0.45593999997E+02  0.45594000000E+02  0.51100000000E-03 0.  1.
         11   -1    0    0    0    0 -0.00000000000E+00 -0.00000000000E+00 -0.45593999997E+02  0.45594000000E+02  0.51100000000E-03 0. -1.
    9900012    2    1    2    0    0  0.17229681379E+02  0.31839273285E+01  0.66091123435E+01  0.72461556674E+02  0.69999982257E+02 0.  0.
         12    1    1    2    0    0 -0.17229681379E+02 -0.31839273285E+01 -0.66091123435E+01  0.18726443326E+02  0.00000000000E+00 0. -1.
         11    1    3    3    0    0  0.47343137825E+01  0.11128278517E+00  0.67390286821E+01  0.82365416705E+01  0.51100000000E-03 0. -1.
        -11    1    3    3    0    0  0.14028112443E+02 -0.13427675916E+02  0.26504054272E+02  0.32856587046E+02  0.51100000000E-03 0.  1.
         12    1    3    3    0    0 -0.15327448462E+01  0.16500320459E+02 -0.26633970611E+02  0.31368427957E+02  0.00000000000E+00 0. -1.
</event>
<event>
 7    1  0.3434711E-013  0.7246156E+02  0.7816164E-02  0.1226708E+00
        -11   -1    0    0    0    0  0.00000000000E+00  0.00000000000E+00  0.45593999997E+02  0.45594000000E+02  0.51100000000E-03 0. -1.
         11   -1    0    0    0    0 -0.00000000000E+00 -0.00000000000E+00 -0.45593999997E+02  0.45594000000E+02  0.51100000000E-03 0.  1.
    9900012    2    1    2    0    0 -0.10058722483E+02 -0.12163330808E+02 -0.10077445751E+02  0.72461563414E+02  0.69999991037E+02 0.  0.
         12    1    1    2    0    0  0.10058722483E+02  0.12163330808E+02  0.10077445751E+02  0.18726436586E+02  0.00000000000E+00 0. -1.
         11    1    3    3    0    0 -0.93354166904E+00  0.17149342838E+02  0.44916184126E+01  0.17752354662E+02  0.51100000000E-03 0. -1.
        -11    1    3    3    0    0 -0.10144841538E+02  0.52932965653E+01 -0.16448533753E+02  0.20037241858E+02  0.51100000000E-03 0.  1.
         12    1    3    3    0    0  0.10196607242E+01 -0.34605970212E+02  0.18794695895E+01  0.34671966893E+02  0.00000000000E+00 0. -1.
</event>
<event>
 7    1  0.3434711E-013  0.7246156E+02  0.7816164E-02  0.1226708E+00
        -11   -1    0    0    0    0  0.00000000000E+00  0.00000000000E+00  0.45593999997E+02  0.45594000000E+02  0.51100000000E-03 0. -1.
         11   -1    0    0    0    0 -0.00000000000E+00 -0.00000000000E+00 -0.45593999997E+02  0.45594000000E+02  0.51100000000E-03 0.  1.
    9900012    2    1    2    0    0 -0.31301680590E+01  0.18419905901E+02 -0.12604524732E+01  0.72461558109E+02  0.69999984126E+02 0.  0.
         12    1    1    2    0    0  0.31301680590E+01 -0.18419905901E+02  0.12604524732E+01  0.18726441891E+02  0.00000000000E+00 0. -1.
         11    1    3    3    0    0  0.85228781959E+01  0.32152405847E+02  0.20749619970E+02  0.39204124574E+02  0.51100000000E-03 0. -1.
        -11    1    3    3    0    0  0.23877418616E+01 -0.98931687622E+01 -0.11150197916E+02  0.15096456975E+02  0.51100000000E-03 0.  1.
        -12    1    3    3    0    0 -0.14040788117E+02 -0.38393311834E+01 -0.10859874527E+02  0.18160976560E+02  0.00000000000E+00 0.  1.
</event>
<event>
 7    1  0.3434711E-013  0.7246158E+02  0.7816164E-02  0.1226708E+00
        -11   -1    0    0    0    0  0.00000000000E+00  0.00000000000E+00  0.45593999997E+02  0.45594000000E+02  0.51100000000E-03 0.  1.
         11   -1    0    0    0    0 -0.00000000000E+00 -0.00000000000E+00 -0.45593999997E+02  0.45594000000E+02  0.51100000000E-03 0. -1.
    9900012    2    1    2    0    0 -0.16270882185E+02 -0.90751121175E+01  0.18919300501E+01  0.72461583730E+02  0.70000017502E+02 0.  0.
         12    1    1    2    0    0  0.16270882185E+02  0.90751121175E+01 -0.18919300501E+01  0.18726416270E+02  0.00000000000E+00 0. -1.
         11    1    3    3    0    0  0.81063842556E+01  0.91848204819E+00  0.61463007622E+01  0.10214405920E+02  0.51100000000E-03 0. -1.
        -11    1    3    3    0    0 -0.34824500484E+02 -0.53666111803E+01  0.16228310238E+02  0.38793097363E+02  0.51100000000E-03 0.  1.
         12    1    3    3    0    0  0.10447234044E+02 -0.46269829854E+01 -0.20482680950E+02  0.23454080447E+02  0.00000000000E+00 0. -1.
</event>
<event>
 7    1  0.3434711E-013  0.7246166E+02  0.7816164E-02  0.1226708E+00
        -11   -1    0    0    0    0  0.00000000000E+00  0.00000000000E+00  0.45593999997E+02  0.45594000000E+02  0.51100000000E-03 0. -1.
         11   -1    0    0    0    0 -0.00000000000E+00 -0.00000000000E+00 -0.45593999997E+02  0.45594000000E+02  0.51100000000E-03 0.  1.
    9900012    2    1    2    0    0  0.15027453285E+02 -0.85237612999E+01 -0.72247481204E+01  0.72461659078E+02  0.70000115657E+02 0.  0.
         12    1    1    2    0    0 -0.15027453285E+02  0.85237612999E+01  0.72247481204E+01  0.18726340922E+02  0.00000000000E+00 0. -1.
         11    1    3    3    0    0 -0.49832307276E+00 -0.21573534240E+02  0.94590582954E+01  0.23561398295E+02  0.51100000000E-03 0. -1.
        -11    1    3    3    0    0  0.57364872603E+01 -0.15043495622E+02 -0.75287901694E+01  0.17773483853E+02  0.51100000000E-03 0.  1.
         12    1    3    3    0    0  0.97892890977E+01  0.28093268562E+02 -0.91550162463E+01  0.31126776930E+02  0.00000000000E+00 0. -1.
</event>
<event>
 7    1  0.3434711E-013  0.7246167E+02  0.7816164E-02  0.1226708E+00
        -11   -1    0    0    0    0  0.00000000000E+00  0.00000000000E+00  0.45593999997E+02  0.45594000000E+02  0.51100000000E-03 0.  1.
         11   -1    0    0    0    0 -0.00000000000E+00 -0.00000000000E+00 -0.45593999997E+02  0.45594000000E+02  0.51100000000E-03 0. -1.
    9900012    2    1    2    0    0  0.75736267540E+01  0.64324970145E+01  0.15872573700E+02  0.72461669983E+02  0.70000129863E+02 0.  0.
         12    1    1    2    0    0 -0.75736267540E+01 -0.64324970145E+01 -0.15872573700E+02  0.18726330017E+02  0.00000000000E+00 0. -1.
         11    1    3    3    0    0 -0.17985386763E+01  0.10422419543E+02 -0.36122470407E+01  0.11176309742E+02  0.51100000000E-03 0. -1.
        -11    1    3    3    0    0  0.14526320547E+02  0.23483559813E+02  0.18647636396E+02  0.33320052724E+02  0.51100000000E-03 0.  1.
         12    1    3    3    0    0 -0.51541551168E+01 -0.27473482341E+02  0.83718434482E+00  0.27965307517E+02  0.00000000000E+00 0. -1.
</event>
<event>
 7    1  0.3434711E-013  0.7246167E+02  0.7816164E-02  0.1226708E+00
        -11   -1    0    0    0    0  0.00000000000E+00  0.00000000000E+00  0.45593999997E+02  0.45594000000E+02  0.51100000000E-03 0. -1.
         11   -1    0    0    0    0 -0.00000000000E+00 -0.00000000000E+00 -0.45593999997E+02  0.45594000000E+02  0.51100000000E-03 0.  1.
    9900012    2    1    2    0    0 -0.10528288275E+02  0.27532278451E+01 -0.15239763512E+02  0.72461668019E+02  0.70000127304E+02 0.  0.
         12    1    1    2    0    0  0.10528288275E+02 -0.27532278451E+01  0.15239763512E+02  0.18726331981E+02  0.00000000000E+00 0. -1.
         11    1    3    3    0    0  0.24891966333E+02  0.50817836926E+01 -0.13053580775E+02  0.28562746449E+02  0.51100000000E-03 0. -1.
        -11    1    3    3    0    0 -0.69615125153E+01 -0.11807010963E+02  0.95200670982E+00  0.13739522605E+02  0.51100000000E-03 0.  1.
        -12    1    3    3    0    0 -0.28458742093E+02  0.94784551155E+01 -0.31381894472E+01  0.30159398964E+02  0.00000000000E+00 0.  1.
</event>
<event>
 7    1  0.3434711E-013  0.7246158E+02  0.7816164E-02  0.1226708E+00
        -11   -1    0    0    0    0  0.00000000000E+00  0.00000000000E+00  0.45593999997E+02  0.45594000000E+02  0.51100000000E-03 0.  1.
         11   -1    0    0    0    0 -0.00000000000E+00 -0.00000000000E+00 -0.45593999997E+02  0.45594000000E+02  0.51100000000E-03 0. -1.
    9900012    2    1    2    0    0  0.13433091980E+02  0.26149639716E+01  0.12782520856E+02  0.72461579196E+02  0.70000011595E+02 0.  0.
         12    1    1    2    0    0 -0.13433091980E+02 -0.26149639716E+01 -0.12782520856E+02  0.18726420804E+02  0.00000000000E+00 0. -1.
         11    1    3    3    0    0  0.19514159353E+02  0.80436513891E+01 -0.17629706261E+02  0.27501077907E+02  0.51100000000E-03 0. -1.
        -11    1    3    3    0    0  0.13248445223E+02 -0.31788788912E+01  0.11593304929E+02  0.17889418416E+02  0.51100000000E-03 0.  1.
        -12    1    3    3    0    0 -0.19329512596E+02 -0.22498085263E+01  0.18818922188E+02  0.27071082873E+02  0.00000000000E+00 0.  1.
</event>
<event>
 7    1  0.3434711E-013  0.7246157E+02  0.7816164E-02  0.1226708E+00
        -11   -1    0    0    0    0  0.00000000000E+00  0.00000000000E+00  0.45593999997E+02  0.45594000000E+02  0.51100000000E-03 0.  1.
         11   -1    0    0    0    0 -0.00000000000E+00 -0.00000000000E+00 -0.45593999997E+02  0.45594000000E+02  0.51100000000E-03 0. -1.
    9900012    2    1    2    0    0  0.34608114401E+01  0.14886328650E+02  0.10821242957E+02  0.72461566927E+02  0.69999995614E+02 0.  0.
         12    1    1    2    0    0 -0.34608114401E+01 -0.14886328650E+02 -0.10821242957E+02  0.18726433073E+02  0.00000000000E+00 0. -1.
         11    1    3    3    0    0 -0.31542428560E+01 -0.12234603787E+02 -0.17409177568E+02  0.21510793609E+02  0.51100000000E-03 0. -1.
        -11    1    3    3    0    0 -0.10336854267E+02  0.55411291589E+00  0.36237725168E+01  0.10967649008E+02  0.51100000000E-03 0.  1.
        -12    1    3    3    0    0  0.16951908563E+02  0.26566819521E+02  0.24606648008E+02  0.39983124310E+02  0.00000000000E+00 0.  1.
</event>
<event>
 7    1  0.3434711E-013  0.7246157E+02  0.7816164E-02  0.1226708E+00
        -11   -1    0    0    0    0  0.00000000000E+00  0.00000000000E+00  0.45593999997E+02  0.45594000000E+02  0.51100000000E-03 0. -1.
         11   -1    0    0    0    0 -0.00000000000E+00 -0.00000000000E+00 -0.45593999997E+02  0.45594000000E+02  0.51100000000E-03 0.  1.
    9900012    2    1    2    0    0  0.87373988027E+01  0.12614588064E+02 -0.10733556872E+02  0.72461569134E+02  0.69999998488E+02 0.  0.
         12    1    1    2    0    0 -0.87373988027E+01 -0.12614588064E+02  0.10733556872E+02  0.18726430866E+02  0.00000000000E+00 0. -1.
         11    1    3    3    0    0 -0.15668608341E+02  0.59456380935E+01  0.21703838478E+01  0.16898711962E+02  0.51100000000E-03 0. -1.
        -11    1    3    3    0    0 -0.92155479469E+01  0.13428735237E+02 -0.13665002260E+02  0.21260045651E+02  0.51100000000E-03 0.  1.
         12    1    3    3    0    0  0.33621555090E+02 -0.67597852667E+01  0.76106154022E+00  0.34302811521E+02  0.00000000000E+00 0. -1.
</event>
<event>
 7    1  0.3434711E-013  0.7246159E+02  0.7816164E-02  0.1226708E+00
        -11   -1    0    0    0    0  0.00000000000E+00  0.00000000000E+00  0.45593999997E+02  0.45594000000E+02  0.51100000000E-03 0. -1.
         11   -1    0    0    0    0 -0.00000000000E+00 -0.00000000000E+00 -0.45593999997E+02  0.45594000000E+02  0.51100000000E-03 0.  1.
    9900012    2    1    2    0    0 -0.36333873668E+01  0.18313007504E+02 -0.14527718189E+01  0.72461593683E+02  0.70000030467E+02 0.  0.
         12    1    1    2    0    0  0.36333873668E+01 -0.18313007504E+02  0.14527718189E+01  0.18726406317E+02  0.00000000000E+00 0. -1.
         11    1    3    3    0    0  0.44225087008E+00  0.21892783220E+00 -0.12107494260E+01  0.13074515905E+01  0.51100000000E-03 0. -1.
        -11    1    3    3    0    0  0.12843260635E+02  0.25822780077E+02 -0.26371914663E+02  0.39079959031E+02  0.51100000000E-03 0.  1.
         12    1    3    3    0    0 -0.16918898871E+02 -0.77287004046E+01  0.26129892270E+02  0.32074183061E+02  0.00000000000E+00 0. -1.
</event>
<event>
 7    1  0.3461836E-013  0.7246155E+02  0.7816164E-02  0.1226708E+00
        -11   -1    0    0    0    0  0.00000000000E+00  0.00000000000E+00  0.45593999997E+02  0.45594000000E+02  0.51100000000E-03 0. -1.
         11   -1    0    0    0    0 -0.00000000000E+00 -0.00000000000E+00 -0.45593999997E+02  0.45594000000E+02  0.51100000000E-03 0.  1.
    9900012    2    1    2    0    0  0.95921024956E+01  0.37748984088E+01 -0.15633992188E+02  0.72461548120E+02  0.69999971114E+02 0.  0.
         12    1    1    2    0    0 -0.95921024956E+01 -0.37748984088E+01  0.15633992188E+02  0.18726451880E+02  0.00000000000E+00 0. -1.
         11    1    3    3    0    0  0.24225260661E+01 -0.53733522952E+01 -0.38432680900E+01  0.70364946743E+01  0.51100000000E-03 0. -1.
        -11    1    3    3    0    0  0.30794393580E+02  0.15245208501E+01 -0.22722178614E+02  0.38300342570E+02  0.51100000000E-03 0.  1.
         12    1    3    3    0    0 -0.23624817150E+02  0.76237298539E+01  0.10931454516E+02  0.27124710876E+02  0.00000000000E+00 0. -1.
</event>
<event>
 7    1  0.3434711E-013  0.7246154E+02  0.7816164E-02  0.1226708E+00
        -11   -1    0    0    0    0  0.00000000000E+00  0.00000000000E+00  0.45593999997E+02  0.45594000000E+02  0.51100000000E-03 0.  1.
         11   -1    0    0    0    0 -0.00000000000E+00 -0.00000000000E+00 -0.45593999997E+02  0.45594000000E+02  0.51100000000E-03 0. -1.
    9900012    2    1    2    0    0 -0.37767179125E+01  0.32713846611E+01  0.18047567536E+02  0.72461541452E+02  0.69999962427E+02 0.  0.
         12    1    1    2    0    0  0.37767179125E+01 -0.32713846611E+01 -0.18047567536E+02  0.18726458548E+02  0.00000000000E+00 0. -1.
         11    1    3    3    0    0 -0.52451616253E+01  0.16137470664E+02 -0.10975877139E+02  0.20208898019E+02  0.51100000000E-03 0. -1.
        -11    1    3    3    0    0 -0.17940157714E+02 -0.15559345586E+02  0.17734687841E+02  0.29638853671E+02  0.51100000000E-03 0.  1.
        -12    1    3    3    0    0  0.19408601427E+02  0.26932595826E+01  0.11288756834E+02  0.22613789761E+02  0.00000000000E+00 0.  1.
</event>
<event>
 7    1  0.3434711E-013  0.7246159E+02  0.7816164E-02  0.1226708E+00
        -11   -1    0    0    0    0  0.00000000000E+00  0.00000000000E+00  0.45593999997E+02  0.45594000000E+02  0.51100000000E-03 0. -1.
         11   -1    0    0    0    0 -0.00000000000E+00 -0.00000000000E+00 -0.45593999997E+02  0.45594000000E+02  0.51100000000E-03 0.  1.
    9900012    2    1    2    0    0  0.85563063574E+00  0.12184506257E+02  0.14194505257E+02  0.72461594151E+02  0.70000031078E+02 0.  0.
         12    1    1    2    0    0 -0.85563063574E+00 -0.12184506257E+02 -0.14194505257E+02  0.18726405849E+02  0.00000000000E+00 0. -1.
         11    1    3    3    0    0  0.11735476971E+02  0.72080567765E+01  0.10728460939E+02  0.17457874345E+02  0.51100000000E-03 0. -1.
        -11    1    3    3    0    0  0.16506202588E+02  0.30587858996E+00  0.17347258114E+02  0.23947351626E+02  0.51100000000E-03 0.  1.
        -12    1    3    3    0    0 -0.27386048924E+02  0.46705708907E+01 -0.13881213796E+02  0.31056368181E+02  0.00000000000E+00 0.  1.
</event>
<event>
 7    1  0.3434711E-013  0.7246156E+02  0.7816164E-02  0.1226708E+00
        -11   -1    0    0    0    0  0.00000000000E+00  0.00000000000E+00  0.45593999997E+02  0.45594000000E+02  0.51100000000E-03 0.  1.
         11   -1    0    0    0    0 -0.00000000000E+00 -0.00000000000E+00 -0.45593999997E+02  0.45594000000E+02  0.51100000000E-03 0. -1.
    9900012    2    1    2    0    0  0.10298236415E+02  0.11481395483E+02  0.10620891825E+02  0.72461562574E+02  0.69999989943E+02 0.  0.
         12    1    1    2    0    0 -0.10298236415E+02 -0.11481395483E+02 -0.10620891825E+02  0.18726437426E+02  0.00000000000E+00 0. -1.
         11    1    3    3    0    0 -0.22097048940E+01  0.63797596423E+01 -0.65549122234E+01  0.94101542671E+01  0.51100000000E-03 0. -1.
        -11    1    3    3    0    0  0.33982947796E+01  0.26203001484E+02 -0.92814159389E+01  0.28005184811E+02  0.51100000000E-03 0.  1.
        -12    1    3    3    0    0  0.91096465295E+01 -0.21101365643E+02  0.26457219987E+02  0.35046223496E+02  0.00000000000E+00 0.  1.
</event>
<event>
 7    1  0.3434711E-013  0.7246158E+02  0.7816164E-02  0.1226708E+00
        -11   -1    0    0    0    0  0.00000000000E+00  0.00000000000E+00  0.45593999997E+02  0.45594000000E+02  0.51100000000E-03 0. -1.
         11   -1    0    0    0    0 -0.00000000000E+00 -0.00000000000E+00 -0.45593999997E+02  0.45594000000E+02  0.51100000000E-03 0.  1.
    9900012    2    1    2    0    0 -0.51664143342E+01 -0.85432092544E+01 -0.15842996672E+02  0.72461580027E+02  0.70000012679E+02 0.  0.
         12    1    1    2    0    0  0.51664143342E+01  0.85432092544E+01  0.15842996672E+02  0.18726419973E+02  0.00000000000E+00 0. -1.
         11    1    3    3    0    0  0.21400398789E+01 -0.16643264379E+02 -0.73969687363E+01  0.18338297812E+02  0.51100000000E-03 0. -1.
        -11    1    3    3    0    0  0.19701331840E+02 -0.40248714301E+01 -0.13320451070E+02  0.24120043185E+02  0.51100000000E-03 0.  1.
         12    1    3    3    0    0 -0.27007786053E+02  0.12124926555E+02  0.48744231338E+01  0.30003239030E+02  0.00000000000E+00 0. -1.
</event>
<event>
 7    1  0.3434711E-013  0.7246155E+02  0.7816164E-02  0.1226708E+00
        -11   -1    0    0    0    0  0.00000000000E+00  0.00000000000E+00  0.45593999997E+02  0.45594000000E+02  0.51100000000E-03 0. -1.
         11   -1    0    0    0    0 -0.00000000000E+00 -0.00000000000E+00 -0.45593999997E+02  0.45594000000E+02  0.51100000000E-03 0.  1.
    9900012    2    1    2    0    0 -0.10091383024E+02  0.59915133574E+01 -0.14592658468E+02  0.72461550128E+02  0.69999973730E+02 0.  0.
         12    1    1    2    0    0  0.10091383024E+02 -0.59915133574E+01  0.14592658468E+02  0.18726449872E+02  0.00000000000E+00 0. -1.
         11    1    3    3    0    0  0.70398674131E+01  0.17783595799E+01 -0.44585406060E+01  0.85206150356E+01  0.51100000000E-03 0. -1.
        -11    1    3    3    0    0 -0.86777989605E+01  0.32328178843E+02 -0.85110414073E+01  0.34537706469E+02  0.51100000000E-03 0.  1.
         12    1    3    3    0    0 -0.84534514767E+01 -0.28115025065E+02 -0.16230764545E+01  0.29403228623E+02  0.00000000000E+00 0. -1.
</event>
<event>
 7    1  0.3434711E-013  0.7246149E+02  0.7816164E-02  0.1226708E+00
        -11   -1    0    0    0    0  0.00000000000E+00  0.00000000000E+00  0.45593999997E+02  0.45594000000E+02  0.51100000000E-03 0. -1.
         11   -1    0    0    0    0 -0.00000000000E+00 -0.00000000000E+00 -0.45593999997E+02  0.45594000000E+02  0.51100000000E-03 0.  1.
    9900012    2    1    2    0    0  0.13668639297E+02  0.93001556050E+01 -0.87953142302E+01  0.72461490797E+02  0.69999896440E+02 0.  0.
         12    1    1    2    0    0 -0.13668639297E+02 -0.93001556050E+01  0.87953142302E+01  0.18726509203E+02  0.00000000000E+00 0. -1.
         11    1    3    3    0    0 -0.10038615739E+01  0.18760014187E+01 -0.56284703285E+01  0.60172084793E+01  0.51100000000E-03 0. -1.
        -11    1    3    3    0    0 -0.11815295576E+02  0.13661616097E+02 -0.25494504814E+02  0.31244371331E+02  0.51100000000E-03 0.  1.
         12    1    3    3    0    0  0.26487796446E+02 -0.62374619109E+01  0.22327660912E+02  0.35199910987E+02  0.00000000000E+00 0. -1.
</event>
<event>
 7    1  0.3434711E-013  0.7246158E+02  0.7816164E-02  0.1226708E+00
        -11   -1    0    0    0    0  0.00000000000E+00  0.00000000000E+00  0.45593999997E+02  0.45594000000E+02  0.51100000000E-03 0.  1.
         11   -1    0    0    0    0 -0.00000000000E+00 -0.00000000000E+00 -0.45593999997E+02  0.45594000000E+02  0.51100000000E-03 0. -1.
    9900012    2    1    2    0    0  0.10791639081E+01  0.10315427924E+02  0.15591866642E+02  0.72461576066E+02  0.70000007518E+02 0.  0.
         12    1    1    2    0    0 -0.10791639081E+01 -0.10315427924E+02 -0.15591866642E+02  0.18726423934E+02  0.00000000000E+00 0. -1.
         11    1    3    3    0    0  0.21191855231E+01  0.82064036381E+01 -0.23262079455E+00  0.84788041992E+01  0.51100000000E-03 0. -1.
        -11    1    3    3    0    0  0.13461168879E+02  0.28648230534E+02  0.62830931912E+01  0.32270752092E+02  0.51100000000E-03 0.  1.
         12    1    3    3    0    0 -0.14501190494E+02 -0.26539206248E+02  0.95413942451E+01  0.31712019774E+02  0.00000000000E+00 0. -1.
</event>
<event>
 7    1  0.3434711E-013  0.7246149E+02  0.7816164E-02  0.1226708E+00
        -11   -1    0    0    0    0  0.00000000000E+00  0.00000000000E+00  0.45593999997E+02  0.45594000000E+02  0.51100000000E-03 0.  1.
         11   -1    0    0    0    0 -0.00000000000E+00 -0.00000000000E+00 -0.45593999997E+02  0.45594000000E+02  0.51100000000E-03 0. -1.
    9900012    2    1    2    0    0 -0.20567253079E+01 -0.18393686390E+02  0.28503292909E+01  0.72461489511E+02  0.69999894765E+02 0.  0.
         12    1    1    2    0    0  0.20567253079E+01  0.18393686390E+02 -0.28503292909E+01  0.18726510489E+02  0.00000000000E+00 0. -1.
         11    1    3    3    0    0  0.12297877984E+02 -0.15347355938E+02  0.29571244447E+01  0.19887778218E+02  0.51100000000E-03 0. -1.
        -11    1    3    3    0    0  0.14402057162E+02 -0.15269182854E+02 -0.29593038503E+01  0.21197279897E+02  0.51100000000E-03 0.  1.
        -12    1    3    3    0    0 -0.28756660454E+02  0.12222852401E+02  0.28525086965E+01  0.31376431396E+02  0.00000000000E+00 0.  1.
</event>
<event>
 7    1  0.3434711E-013  0.7246162E+02  0.7816164E-02  0.1226708E+00
        -11   -1    0    0    0    0  0.00000000000E+00  0.00000000000E+00  0.45593999997E+02  0.45594000000E+02  0.51100000000E-03 0. -1.
         11   -1    0    0    0    0 -0.00000000000E+00 -0.00000000000E+00 -0.45593999997E+02  0.45594000000E+02  0.51100000000E-03 0.  1.
    9900012    2    1    2    0    0 -0.59725056599E+01  0.11895206994E+02 -0.13172338308E+02  0.72461621018E+02  0.70000066076E+02 0.  0.
         12    1    1    2    0    0  0.59725056599E+01 -0.11895206994E+02  0.13172338308E+02  0.18726378982E+02  0.00000000000E+00 0. -1.
         11    1    3    3    0    0 -0.28793324636E+01 -0.16430751543E+02  0.22972522329E+01  0.16838572379E+02  0.51100000000E-03 0. -1.
        -11    1    3    3    0    0 -0.19487410556E+02  0.55135565886E+01  0.50044650913E+01  0.20861523135E+02  0.51100000000E-03 0.  1.
        -12    1    3    3    0    0  0.16394237359E+02  0.22812401949E+02 -0.20474055632E+02  0.34761525503E+02  0.00000000000E+00 0.  1.
</event>
<event>
 7    1  0.3434711E-013  0.7246158E+02  0.7816164E-02  0.1226708E+00
        -11   -1    0    0    0    0  0.00000000000E+00  0.00000000000E+00  0.45593999997E+02  0.45594000000E+02  0.51100000000E-03 0. -1.
         11   -1    0    0    0    0 -0.00000000000E+00 -0.00000000000E+00 -0.45593999997E+02  0.45594000000E+02  0.51100000000E-03 0.  1.
    9900012    2    1    2    0    0 -0.45284996632E+01 -0.18098838664E+02  0.16135749800E+01  0.72461577641E+02  0.70000009570E+02 0.  0.
         12    1    1    2    0    0  0.45284996632E+01  0.18098838664E+02 -0.16135749800E+01  0.18726422359E+02  0.00000000000E+00 0. -1.
         11    1    3    3    0    0 -0.11034145967E+02 -0.30412628087E+02 -0.14371506550E+02  0.35400854864E+02  0.51100000000E-03 0. -1.
        -11    1    3    3    0    0  0.11868966312E+02  0.66898287552E+01 -0.51320624947E+01  0.14558991579E+02  0.51100000000E-03 0.  1.
         12    1    3    3    0    0 -0.53633200087E+01  0.56239606679E+01  0.21117144024E+02  0.22501731197E+02  0.00000000000E+00 0. -1.
</event>
<event>
 7    1  0.3434711E-013  0.7246156E+02  0.7816164E-02  0.1226708E+00
        -11   -1    0    0    0    0  0.00000000000E+00  0.00000000000E+00  0.45593999997E+02  0.45594000000E+02  0.51100000000E-03 0.  1.
         11   -1    0    0    0    0 -0.00000000000E+00 -0.00000000000E+00 -0.45593999997E+02  0.45594000000E+02  0.51100000000E-03 0. -1.
    9900012    2    1    2    0    0  0.15029766769E+02 -0.28585361539E+00  0.11167090881E+02  0.72461560932E+02  0.69999987804E+02 0.  0.
         12    1    1    2    0    0 -0.15029766769E+02  0.28585361539E+00 -0.11167090881E+02  0.18726439068E+02  0.00000000000E+00 0. -1.
         11    1    3    3    0    0  0.70510247220E+01  0.46882287085E+01 -0.11846554274E+02  0.14561500145E+02  0.51100000000E-03 0. -1.
        -11    1    3    3    0    0  0.29313303753E+02  0.42368177762E+00  0.20450398619E+02  0.35744483310E+02  0.51100000000E-03 0.  1.
        -12    1    3    3    0    0 -0.21334561706E+02 -0.53977641015E+01  0.25632465364E+01  0.22155577476E+02  0.00000000000E+00 0.  1.
</event>
<event>
 7    1  0.3434711E-013  0.7246154E+02  0.7816164E-02  0.1226708E+00
        -11   -1    0    0    0    0  0.00000000000E+00  0.00000000000E+00  0.45593999997E+02  0.45594000000E+02  0.51100000000E-03 0.  1.
         11   -1    0    0    0    0 -0.00000000000E+00 -0.00000000000E+00 -0.45593999997E+02  0.45594000000E+02  0.51100000000E-03 0. -1.
    9900012    2    1    2    0    0 -0.16023462546E+02  0.45752151356E+01  0.85437859213E+01  0.72461542156E+02  0.69999963345E+02 0.  0.
         12    1    1    2    0    0  0.16023462546E+02 -0.45752151356E+01 -0.85437859213E+01  0.18726457844E+02  0.00000000000E+00 0. -1.
         11    1    3    3    0    0 -0.86532290710E+01 -0.32610569601E+01  0.20230315698E+02  0.22243617947E+02  0.51100000000E-03 0. -1.
        -11    1    3    3    0    0 -0.26393521219E+02  0.57813914597E+01  0.13695091932E+01  0.27053983167E+02  0.51100000000E-03 0.  1.
         12    1    3    3    0    0  0.19023287744E+02  0.20548806360E+01 -0.13056038970E+02  0.23163941042E+02  0.00000000000E+00 0. -1.
</event>
<event>
 7    1  0.3434711E-013  0.7246153E+02  0.7816164E-02  0.1226708E+00
        -11   -1    0    0    0    0  0.00000000000E+00  0.00000000000E+00  0.45593999997E+02  0.45594000000E+02  0.51100000000E-03 0. -1.
         11   -1    0    0    0    0 -0.00000000000E+00 -0.00000000000E+00 -0.45593999997E+02  0.45594000000E+02  0.51100000000E-03 0.  1.
    9900012    2    1    2    0    0 -0.92939414738E+01  0.36408005266E+01 -0.15844496191E+02  0.72461525795E+02  0.69999942032E+02 0.  0.
         12    1    1    2    0    0  0.92939414738E+01 -0.36408005266E+01  0.15844496191E+02  0.18726474205E+02  0.00000000000E+00 0. -1.
         11    1    3    3    0    0 -0.17856323790E+01  0.35603104450E+01 -0.52240449210E+01  0.65692418935E+01  0.51100000000E-03 0. -1.
        -11    1    3    3    0    0  0.24969114243E+02 -0.15091639950E+02 -0.42323257021E+01  0.29480957304E+02  0.51100000000E-03 0.  1.
         12    1    3    3    0    0 -0.32477423338E+02  0.15172130031E+02 -0.63881255678E+01  0.36411326598E+02  0.00000000000E+00 0. -1.
</event>
<event>
 7    1  0.3434711E-013  0.7246157E+02  0.7816164E-02  0.1226708E+00
        -11   -1    0    0    0    0  0.00000000000E+00  0.00000000000E+00  0.45593999997E+02  0.45594000000E+02  0.51100000000E-03 0. -1.
         11   -1    0    0    0    0 -0.00000000000E+00 -0.00000000000E+00 -0.45593999997E+02  0.45594000000E+02  0.51100000000E-03 0.  1.
    9900012    2    1    2    0    0  0.10924958957E+02 -0.15139205188E+02 -0.14591379741E+01  0.72461565594E+02  0.69999993877E+02 0.  0.
         12    1    1    2    0    0 -0.10924958957E+02  0.15139205188E+02  0.14591379741E+01  0.18726434406E+02  0.00000000000E+00 0. -1.
         11    1    3    3    0    0 -0.18601464644E+02  0.26172837621E+01 -0.60081732498E+01  0.19722140027E+02  0.51100000000E-03 0. -1.
        -11    1    3    3    0    0 -0.74203325919E+01  0.49250728059E+01  0.28568209758E+01  0.93530264763E+01  0.51100000000E-03 0.  1.
        -12    1    3    3    0    0  0.36946756192E+02 -0.22681561756E+02  0.16922142999E+01  0.43386399091E+02  0.00000000000E+00 0.  1.
</event>
<event>
 7    1  0.3434711E-013  0.7246159E+02  0.7816164E-02  0.1226708E+00
        -11   -1    0    0    0    0  0.00000000000E+00  0.00000000000E+00  0.45593999997E+02  0.45594000000E+02  0.51100000000E-03 0.  1.
         11   -1    0    0    0    0 -0.00000000000E+00 -0.00000000000E+00 -0.45593999997E+02  0.45594000000E+02  0.51100000000E-03 0. -1.
    9900012    2    1    2    0    0 -0.13151194472E+01 -0.16679795682E+02  0.84103005434E+01  0.72461594088E+02  0.70000030996E+02 0.  0.
         12    1    1    2    0    0  0.13151194472E+01  0.16679795682E+02 -0.84103005434E+01  0.18726405912E+02  0.00000000000E+00 0. -1.
         11    1    3    3    0    0 -0.13248599449E+02 -0.10814968989E+02  0.22347195904E+02  0.28140470974E+02  0.51100000000E-03 0.  1.
        -11    1    3    3    0    0 -0.12029421790E+02  0.76324433454E+01 -0.21856867583E+01  0.14413133139E+02  0.51100000000E-03 0. -1.
         12    1    3    3    0    0  0.23962901791E+02 -0.13497270038E+02 -0.11751208603E+02  0.29907989975E+02  0.00000000000E+00 0. -1.
</event>
<event>
 7    1  0.3434711E-013  0.7246166E+02  0.7816164E-02  0.1226708E+00
        -11   -1    0    0    0    0  0.00000000000E+00  0.00000000000E+00  0.45593999997E+02  0.45594000000E+02  0.51100000000E-03 0. -1.
         11   -1    0    0    0    0 -0.00000000000E+00 -0.00000000000E+00 -0.45593999997E+02  0.45594000000E+02  0.51100000000E-03 0.  1.
    9900012    2    1    2    0    0  0.11727400236E+02  0.10223115124E+02 -0.10422665628E+02  0.72461656045E+02  0.70000111706E+02 0.  0.
         12    1    1    2    0    0 -0.11727400236E+02 -0.10223115124E+02  0.10422665628E+02  0.18726343955E+02  0.00000000000E+00 0. -1.
         11    1    3    3    0    0  0.64517330616E+01  0.22887093135E+02  0.16206419794E+02  0.28776586567E+02  0.51100000000E-03 0. -1.
        -11    1    3    3    0    0  0.63839282462E+01  0.97979068241E+01 -0.12542322701E+02  0.17148276211E+02  0.51100000000E-03 0.  1.
        -12    1    3    3    0    0 -0.11082610720E+01 -0.22461884835E+02 -0.14086762720E+02  0.26536793267E+02  0.00000000000E+00 0.  1.
</event>
<event>
 7    1  0.3434711E-013  0.7246159E+02  0.7816164E-02  0.1226708E+00
        -11   -1    0    0    0    0  0.00000000000E+00  0.00000000000E+00  0.45593999997E+02  0.45594000000E+02  0.51100000000E-03 0.  1.
         11   -1    0    0    0    0 -0.00000000000E+00 -0.00000000000E+00 -0.45593999997E+02  0.45594000000E+02  0.51100000000E-03 0. -1.
    9900012    2    1    2    0    0 -0.11970784934E+02 -0.13988274416E+02 -0.34215466190E+01  0.72461588322E+02  0.70000023484E+02 0.  0.
         12    1    1    2    0    0  0.11970784934E+02  0.13988274416E+02  0.34215466190E+01  0.18726411678E+02  0.00000000000E+00 0. -1.
         11    1    3    3    0    0 -0.49586294777E+01 -0.17931704893E+02  0.14098386826E+02  0.23343062310E+02  0.51100000000E-03 0. -1.
        -11    1    3    3    0    0 -0.11725945850E+02 -0.11842761434E+02  0.82004731476E+01  0.18574083142E+02  0.51100000000E-03 0.  1.
         12    1    3    3    0    0  0.47137903938E+01  0.15786191910E+02 -0.25720406593E+02  0.30544442869E+02  0.00000000000E+00 0. -1.
</event>
<event>
 7    1  0.3434711E-013  0.7246160E+02  0.7816164E-02  0.1226708E+00
        -11   -1    0    0    0    0  0.00000000000E+00  0.00000000000E+00  0.45593999997E+02  0.45594000000E+02  0.51100000000E-03 0.  1.
         11   -1    0    0    0    0 -0.00000000000E+00 -0.00000000000E+00 -0.45593999997E+02  0.45594000000E+02  0.51100000000E-03 0. -1.
    9900012    2    1    2    0    0  0.16856593456E+02 -0.43940264622E+01  0.68721156726E+01  0.72461596573E+02  0.70000034233E+02 0.  0.
         12    1    1    2    0    0 -0.16856593456E+02  0.43940264622E+01 -0.68721156726E+01  0.18726403427E+02  0.00000000000E+00 0. -1.
         11    1    3    3    0    0  0.10267136760E+02  0.23260152678E+01  0.61561005025E+01  0.12195163711E+02  0.51100000000E-03 0. -1.
        -11    1    3    3    0    0 -0.13207511944E+02 -0.70636083502E+01  0.24871419549E+02  0.29033092246E+02  0.51100000000E-03 0.  1.
         12    1    3    3    0    0  0.19796968640E+02  0.34356662018E+00 -0.24155404379E+02  0.31233340616E+02  0.00000000000E+00 0. -1.
</event>
<event>
 7    1  0.3434711E-013  0.7246156E+02  0.7816164E-02  0.1226708E+00
        -11   -1    0    0    0    0  0.00000000000E+00  0.00000000000E+00  0.45593999997E+02  0.45594000000E+02  0.51100000000E-03 0.  1.
         11   -1    0    0    0    0 -0.00000000000E+00 -0.00000000000E+00 -0.45593999997E+02  0.45594000000E+02  0.51100000000E-03 0. -1.
    9900012    2    1    2    0    0  0.18491317264E+02 -0.17606802229E+01  0.23770989461E+01  0.72461563917E+02  0.69999991692E+02 0.  0.
         12    1    1    2    0    0 -0.18491317264E+02  0.17606802229E+01 -0.23770989461E+01  0.18726436083E+02  0.00000000000E+00 0. -1.
         11    1    3    3    0    0  0.72942161368E+01  0.20941478430E+02  0.54436813134E+01  0.22833851502E+02  0.51100000000E-03 0. -1.
        -11    1    3    3    0    0 -0.87757912094E+01  0.59754999156E+01 -0.93173411318E+01  0.14125648892E+02  0.51100000000E-03 0.  1.
        -12    1    3    3    0    0  0.19972892336E+02 -0.28677658569E+02  0.62507587645E+01  0.35502063523E+02  0.00000000000E+00 0.  1.
</event>
<event>
 7    1  0.3434711E-013  0.7246146E+02  0.7816164E-02  0.1226708E+00
        -11   -1    0    0    0    0  0.00000000000E+00  0.00000000000E+00  0.45593999997E+02  0.45594000000E+02  0.51100000000E-03 0.  1.
         11   -1    0    0    0    0 -0.00000000000E+00 -0.00000000000E+00 -0.45593999997E+02  0.45594000000E+02  0.51100000000E-03 0. -1.
    9900012    2    1    2    0    0  0.13437464134E+02 -0.59907128666E+01  0.11585738204E+02  0.72461457000E+02  0.69999852413E+02 0.  0.
         12    1    1    2    0    0 -0.13437464134E+02  0.59907128666E+01 -0.11585738204E+02  0.18726543000E+02  0.00000000000E+00 0. -1.
         11    1    3    3    0    0  0.15634255005E+02  0.15798904720E+02 -0.18738616768E+01  0.22305754364E+02  0.51100000000E-03 0. -1.
        -11    1    3    3    0    0 -0.18641317860E+02  0.21916558998E+01  0.19047489861E+01  0.18866111314E+02  0.51100000000E-03 0.  1.
         12    1    3    3    0    0  0.16444526989E+02 -0.23981273486E+02  0.11554850894E+02  0.31289591322E+02  0.00000000000E+00 0. -1.
</event>
<event>
 7    1  0.3434711E-013  0.7246154E+02  0.7816164E-02  0.1226708E+00
        -11   -1    0    0    0    0  0.00000000000E+00  0.00000000000E+00  0.45593999997E+02  0.45594000000E+02  0.51100000000E-03 0.  1.
         11   -1    0    0    0    0 -0.00000000000E+00 -0.00000000000E+00 -0.45593999997E+02  0.45594000000E+02  0.51100000000E-03 0. -1.
    9900012    2    1    2    0    0 -0.15861610240E+02 -0.63226238879E+01 -0.76885731701E+01  0.72461537183E+02  0.69999956867E+02 0.  0.
         12    1    1    2    0    0  0.15861610240E+02  0.63226238879E+01  0.76885731701E+01  0.18726462817E+02  0.00000000000E+00 0. -1.
         11    1    3    3    0    0  0.11670928903E+02 -0.98983441258E+01 -0.15488868082E+02  0.21773672924E+02  0.51100000000E-03 0. -1.
        -11    1    3    3    0    0 -0.19232224369E+02  0.10955931052E+01 -0.16201375945E+02  0.25170684559E+02  0.51100000000E-03 0.  1.
        -12    1    3    3    0    0 -0.83003147737E+01  0.24801271327E+01  0.24001670857E+02  0.25517179700E+02  0.00000000000E+00 0.  1.
</event>
<event>
 7    1  0.3434711E-013  0.7246155E+02  0.7816164E-02  0.1226708E+00
        -11   -1    0    0    0    0  0.00000000000E+00  0.00000000000E+00  0.45593999997E+02  0.45594000000E+02  0.51100000000E-03 0. -1.
         11   -1    0    0    0    0 -0.00000000000E+00 -0.00000000000E+00 -0.45593999997E+02  0.45594000000E+02  0.51100000000E-03 0.  1.
    9900012    2    1    2    0    0  0.31140369794E+01  0.10382818213E+02 -0.15270224050E+02  0.72461551247E+02  0.69999975187E+02 0.  0.
         12    1    1    2    0    0 -0.31140369794E+01 -0.10382818213E+02  0.15270224050E+02  0.18726448753E+02  0.00000000000E+00 0. -1.
         11    1    3    3    0    0  0.40776966202E+01 -0.73437414072E+01 -0.26708898869E+00  0.84041349567E+01  0.51100000000E-03 0. -1.
        -11    1    3    3    0    0 -0.25131722080E+02  0.24330056848E+02 -0.24569012278E+00  0.34980215620E+02  0.51100000000E-03 0.  1.
         12    1    3    3    0    0  0.24168062439E+02 -0.66034972279E+01 -0.14757444939E+02  0.29077200670E+02  0.00000000000E+00 0. -1.
</event>
<event>
 7    1  0.3434711E-013  0.7246113E+02  0.7816164E-02  0.1226709E+00
        -11   -1    0    0    0    0  0.00000000000E+00  0.00000000000E+00  0.45593999997E+02  0.45594000000E+02  0.51100000000E-03 0.  1.
         11   -1    0    0    0    0 -0.00000000000E+00 -0.00000000000E+00 -0.45593999997E+02  0.45594000000E+02  0.51100000000E-03 0. -1.
    9900012    2    1    2    0    0 -0.10994587527E+02 -0.11327871195E+01  0.15117259276E+02  0.72461129211E+02  0.69999425405E+02 0.  0.
         12    1    1    2    0    0  0.10994587527E+02  0.11327871195E+01 -0.15117259276E+02  0.18726870789E+02  0.00000000000E+00 0. -1.
         11    1    3    3    0    0 -0.66541596261E+01 -0.96831712136E+01 -0.17464164227E+02  0.21048483972E+02  0.51100000000E-03 0. -1.
        -11    1    3    3    0    0 -0.12998911756E+01  0.11253728222E+02 -0.58614316267E+01  0.12755096900E+02  0.51100000000E-03 0.  1.
        -12    1    3    3    0    0 -0.30405367251E+01 -0.27033441280E+01  0.38442855130E+02  0.38657548339E+02  0.00000000000E+00 0.  1.
</event>
<event>
 7    1  0.3434711E-013  0.7246161E+02  0.7816164E-02  0.1226708E+00
        -11   -1    0    0    0    0  0.00000000000E+00  0.00000000000E+00  0.45593999997E+02  0.45594000000E+02  0.51100000000E-03 0. -1.
         11   -1    0    0    0    0 -0.00000000000E+00 -0.00000000000E+00 -0.45593999997E+02  0.45594000000E+02  0.51100000000E-03 0.  1.
    9900012    2    1    2    0    0  0.90950701323E+01  0.12207249608E+02 -0.10905973627E+02  0.72461614752E+02  0.70000057915E+02 0.  0.
         12    1    1    2    0    0 -0.90950701323E+01 -0.12207249608E+02  0.10905973627E+02  0.18726385248E+02  0.00000000000E+00 0. -1.
         11    1    3    3    0    0  0.21235703894E+02  0.12600224866E+02  0.27690539371E+01  0.24847302601E+02  0.51100000000E-03 0. -1.
        -11    1    3    3    0    0  0.35719911813E+01  0.19313126580E+02 -0.17102974070E+01  0.19714996748E+02  0.51100000000E-03 0.  1.
        -12    1    3    3    0    0 -0.15712624943E+02 -0.19706101838E+02 -0.11964730157E+02  0.27899315404E+02  0.00000000000E+00 0.  1.
</event>
<event>
 7    1  0.3434711E-013  0.7246148E+02  0.7816164E-02  0.1226708E+00
        -11   -1    0    0    0    0  0.00000000000E+00  0.00000000000E+00  0.45593999997E+02  0.45594000000E+02  0.51100000000E-03 0.  1.
         11   -1    0    0    0    0 -0.00000000000E+00 -0.00000000000E+00 -0.45593999997E+02  0.45594000000E+02  0.51100000000E-03 0. -1.
    9900012    2    1    2    0    0  0.17089576855E+01 -0.11886886702E+02  0.14368847141E+02  0.72461484574E+02  0.69999888333E+02 0.  0.
         12    1    1    2    0    0 -0.17089576855E+01  0.11886886702E+02 -0.14368847141E+02  0.18726515426E+02  0.00000000000E+00 0. -1.
         11    1    3    3    0    0 -0.73895681076E+00 -0.53985367730E+01  0.12808016880E+02  0.13918891950E+02  0.51100000000E-03 0.  1.
        -11    1    3    3    0    0 -0.21998201329E+02  0.34181174797E+01  0.16971610064E+02  0.27993569569E+02  0.51100000000E-03 0. -1.
         12    1    3    3    0    0  0.24446115825E+02 -0.99064674092E+01 -0.15410779802E+02  0.30549023054E+02  0.00000000000E+00 0. -1.
</event>
<event>
 7    1  0.3434711E-013  0.7246155E+02  0.7816164E-02  0.1226708E+00
        -11   -1    0    0    0    0  0.00000000000E+00  0.00000000000E+00  0.45593999997E+02  0.45594000000E+02  0.51100000000E-03 0.  1.
         11   -1    0    0    0    0 -0.00000000000E+00 -0.00000000000E+00 -0.45593999997E+02  0.45594000000E+02  0.51100000000E-03 0. -1.
    9900012    2    1    2    0    0 -0.57432477722E+01  0.17291835074E+02  0.43229171060E+01  0.72461546318E+02  0.69999968766E+02 0.  0.
         12    1    1    2    0    0  0.57432477722E+01 -0.17291835074E+02 -0.43229171060E+01  0.18726453682E+02  0.00000000000E+00 0. -1.
         11    1    3    3    0    0 -0.49362727817E+01 -0.34320362487E+01 -0.23314564407E+02  0.24077262625E+02  0.51100000000E-03 0. -1.
        -11    1    3    3    0    0 -0.16801817047E+01 -0.87511808874E+01  0.16152900127E+01  0.90562320847E+01  0.51100000000E-03 0.  1.
        -12    1    3    3    0    0  0.87320671422E+00  0.29475052210E+02  0.26022191500E+02  0.39328051608E+02  0.00000000000E+00 0.  1.
</event>
<event>
 7    1  0.3434711E-013  0.7246159E+02  0.7816164E-02  0.1226708E+00
        -11   -1    0    0    0    0  0.00000000000E+00  0.00000000000E+00  0.45593999997E+02  0.45594000000E+02  0.51100000000E-03 0. -1.
         11   -1    0    0    0    0 -0.00000000000E+00 -0.00000000000E+00 -0.45593999997E+02  0.45594000000E+02  0.51100000000E-03 0.  1.
    9900012    2    1    2    0    0 -0.12174636244E+02  0.12606994653E+02  0.65969914581E+01  0.72461591424E+02  0.70000027526E+02 0.  0.
         12    1    1    2    0    0  0.12174636244E+02 -0.12606994653E+02 -0.65969914581E+01  0.18726408576E+02  0.00000000000E+00 0. -1.
         11    1    3    3    0    0 -0.32309494374E+01  0.44546866024E+01 -0.77013264409E+01  0.94653946671E+01  0.51100000000E-03 0. -1.
        -11    1    3    3    0    0 -0.10417812250E+02  0.38415609540E+01 -0.22936993878E+02  0.25483211945E+02  0.51100000000E-03 0.  1.
         12    1    3    3    0    0  0.14741254435E+01  0.43107470966E+01  0.37235311777E+02  0.37512984812E+02  0.00000000000E+00 0. -1.
</event>
<event>
 7    1  0.3434711E-013  0.7246159E+02  0.7816164E-02  0.1226708E+00
        -11   -1    0    0    0    0  0.00000000000E+00  0.00000000000E+00  0.45593999997E+02  0.45594000000E+02  0.51100000000E-03 0. -1.
         11   -1    0    0    0    0 -0.00000000000E+00 -0.00000000000E+00 -0.45593999997E+02  0.45594000000E+02  0.51100000000E-03 0.  1.
    9900012    2    1    2    0    0 -0.11780558697E+01  0.17889423153E+02  0.54091580745E+01  0.72461594380E+02  0.70000031375E+02 0.  0.
         12    1    1    2    0    0  0.11780558697E+01 -0.17889423153E+02 -0.54091580745E+01  0.18726405620E+02  0.00000000000E+00 0. -1.
         11    1    3    3    0    0  0.10957229919E+02  0.12778983354E+02  0.25467741958E+02  0.30528170331E+02  0.51100000000E-03 0. -1.
        -11    1    3    3    0    0  0.10924846195E+02 -0.10613613713E+00  0.42554978445E-02  0.10925362586E+02  0.51100000000E-03 0.  1.
        -12    1    3    3    0    0 -0.23060131984E+02  0.52165759363E+01 -0.20062839381E+02  0.31008061462E+02  0.00000000000E+00 0.  1.
</event>
<event>
 7    1  0.3434711E-013  0.7246153E+02  0.7816164E-02  0.1226708E+00
        -11   -1    0    0    0    0  0.00000000000E+00  0.00000000000E+00  0.45593999997E+02  0.45594000000E+02  0.51100000000E-03 0. -1.
         11   -1    0    0    0    0 -0.00000000000E+00 -0.00000000000E+00 -0.45593999997E+02  0.45594000000E+02  0.51100000000E-03 0.  1.
    9900012    2    1    2    0    0 -0.55764028605E+01 -0.13188594312E+02 -0.12068357261E+02  0.72461533815E+02  0.69999952479E+02 0.  0.
         12    1    1    2    0    0  0.55764028605E+01  0.13188594312E+02  0.12068357261E+02  0.18726466185E+02  0.00000000000E+00 0. -1.
         11    1    3    3    0    0  0.86682111021E+01 -0.43544410359E+01  0.16192374475E+02  0.18875699506E+02  0.51100000000E-03 0. -1.
        -11    1    3    3    0    0  0.55556407312E+01 -0.10974997470E+01  0.90315175547E+01  0.10660110658E+02  0.51100000000E-03 0.  1.
        -12    1    3    3    0    0 -0.19800254694E+02 -0.77366535295E+01 -0.37292249291E+02  0.42925723651E+02  0.00000000000E+00 0.  1.
</event>
<event>
 7    1  0.3434711E-013  0.7246170E+02  0.7816164E-02  0.1226708E+00
        -11   -1    0    0    0    0  0.00000000000E+00  0.00000000000E+00  0.45593999997E+02  0.45594000000E+02  0.51100000000E-03 0.  1.
         11   -1    0    0    0    0 -0.00000000000E+00 -0.00000000000E+00 -0.45593999997E+02  0.45594000000E+02  0.51100000000E-03 0. -1.
    9900012    2    1    2    0    0 -0.10498610496E+02  0.15462888336E+02 -0.11629457404E+01  0.72461703494E+02  0.70000173517E+02 0.  0.
         12    1    1    2    0    0  0.10498610496E+02 -0.15462888336E+02  0.11629457404E+01  0.18726296506E+02  0.00000000000E+00 0. -1.
         11    1    3    3    0    0  0.11315856424E+01 -0.11199168443E+02 -0.13564046732E+02  0.17626265171E+02  0.51100000000E-03 0. -1.
        -11    1    3    3    0    0  0.30795927822E+01  0.91591000742E+01  0.26341099028E+02  0.28057556988E+02  0.51100000000E-03 0.  1.
         12    1    3    3    0    0 -0.14709788921E+02  0.17502956705E+02 -0.13939998037E+02  0.26777881335E+02  0.00000000000E+00 0. -1.
</event>
<event>
 7    1  0.3434711E-013  0.7246124E+02  0.7816164E-02  0.1226709E+00
        -11   -1    0    0    0    0  0.00000000000E+00  0.00000000000E+00  0.45593999997E+02  0.45594000000E+02  0.51100000000E-03 0. -1.
         11   -1    0    0    0    0 -0.00000000000E+00 -0.00000000000E+00 -0.45593999997E+02  0.45594000000E+02  0.51100000000E-03 0.  1.
    9900012    2    1    2    0    0 -0.18049398153E+02  0.49291729009E+01 -0.78369627180E+00  0.72461235757E+02  0.69999564201E+02 0.  0.
         12    1    1    2    0    0  0.18049398153E+02 -0.49291729009E+01  0.78369627180E+00  0.18726764243E+02  0.00000000000E+00 0. -1.
         11    1    3    3    0    0 -0.17339777149E+02 -0.28383084863E+01  0.21077832557E+02  0.27440825283E+02  0.51100000000E-03 0. -1.
        -11    1    3    3    0    0 -0.15454541075E+02  0.91809935712E+01  0.74720263221E+00  0.17991436708E+02  0.51100000000E-03 0.  1.
        -12    1    3    3    0    0  0.14744920070E+02 -0.14135121839E+01 -0.22608731461E+02  0.27028973766E+02  0.00000000000E+00 0.  1.
</event>
<event>
 7    1  0.3434711E-013  0.7246162E+02  0.7816164E-02  0.1226708E+00
        -11   -1    0    0    0    0  0.00000000000E+00  0.00000000000E+00  0.45593999997E+02  0.45594000000E+02  0.51100000000E-03 0.  1.
         11   -1    0    0    0    0 -0.00000000000E+00 -0.00000000000E+00 -0.45593999997E+02  0.45594000000E+02  0.51100000000E-03 0. -1.
    9900012    2    1    2    0    0  0.13150100147E+02  0.65168952984E+01  0.11631095739E+02  0.72461616305E+02  0.70000059937E+02 0.  0.
         12    1    1    2    0    0 -0.13150100147E+02 -0.65168952984E+01 -0.11631095739E+02  0.18726383695E+02  0.00000000000E+00 0. -1.
         11    1    3    3    0    0  0.69073729348E+00  0.27122618457E+01  0.24522402364E+01  0.37211510002E+01  0.51100000000E-03 0. -1.
        -11    1    3    3    0    0  0.17003277221E+02  0.28199423870E+02  0.23160442928E+02  0.40258229714E+02  0.51100000000E-03 0.  1.
         12    1    3    3    0    0 -0.45439143668E+01 -0.24394790418E+02 -0.13981587425E+02  0.28482235590E+02  0.00000000000E+00 0. -1.
</event>
<event>
 7    1  0.3434711E-013  0.7246166E+02  0.7816164E-02  0.1226708E+00
        -11   -1    0    0    0    0  0.00000000000E+00  0.00000000000E+00  0.45593999997E+02  0.45594000000E+02  0.51100000000E-03 0.  1.
         11   -1    0    0    0    0 -0.00000000000E+00 -0.00000000000E+00 -0.45593999997E+02  0.45594000000E+02  0.51100000000E-03 0. -1.
    9900012    2    1    2    0    0  0.88693779518E+01  0.16388752168E+02  0.18489777518E+01  0.72461660753E+02  0.70000117839E+02 0.  0.
         12    1    1    2    0    0 -0.88693779518E+01 -0.16388752168E+02 -0.18489777518E+01  0.18726339247E+02  0.00000000000E+00 0. -1.
         11    1    3    3    0    0  0.84546676728E+01  0.96279453960E+01 -0.41639127508E+01  0.13472821073E+02  0.51100000000E-03 0. -1.
        -11    1    3    3    0    0  0.21929341755E+02  0.22867329389E+02  0.51543333415E+01  0.32099500551E+02  0.51100000000E-03 0.  1.
         12    1    3    3    0    0 -0.21514631476E+02 -0.16106522617E+02  0.85855716110E+00  0.26889339128E+02  0.00000000000E+00 0. -1.
</event>
<event>
 7    1  0.3434711E-013  0.7246156E+02  0.7816164E-02  0.1226708E+00
        -11   -1    0    0    0    0  0.00000000000E+00  0.00000000000E+00  0.45593999997E+02  0.45594000000E+02  0.51100000000E-03 0.  1.
         11   -1    0    0    0    0 -0.00000000000E+00 -0.00000000000E+00 -0.45593999997E+02  0.45594000000E+02  0.51100000000E-03 0. -1.
    9900012    2    1    2    0    0  0.73412855427E+01 -0.85189990715E+01  0.14973699651E+02  0.72461561475E+02  0.69999988511E+02 0.  0.
         12    1    1    2    0    0 -0.73412855427E+01  0.85189990715E+01 -0.14973699651E+02  0.18726438525E+02  0.00000000000E+00 0. -1.
         11    1    3    3    0    0 -0.14817963040E+02 -0.99210796194E+01  0.20845900312E+02  0.27432670478E+02  0.51100000000E-03 0. -1.
        -11    1    3    3    0    0  0.21530488784E+02 -0.15520196371E+02  0.14474326152E+01  0.26580697961E+02  0.51100000000E-03 0.  1.
        -12    1    3    3    0    0  0.62875979846E+00  0.16922276918E+02 -0.73196332762E+01  0.18448193036E+02  0.00000000000E+00 0.  1.
</event>
<event>
 7    1  0.3434711E-013  0.7246130E+02  0.7816164E-02  0.1226709E+00
        -11   -1    0    0    0    0  0.00000000000E+00  0.00000000000E+00  0.45593999997E+02  0.45594000000E+02  0.51100000000E-03 0.  1.
         11   -1    0    0    0    0 -0.00000000000E+00 -0.00000000000E+00 -0.45593999997E+02  0.45594000000E+02  0.51100000000E-03 0. -1.
    9900012    2    1    2    0    0  0.15732236144E+02  0.20259149631E+01  0.99539751148E+01  0.72461302317E+02  0.69999650909E+02 0.  0.
         12    1    1    2    0    0 -0.15732236144E+02 -0.20259149631E+01 -0.99539751148E+01  0.18726697683E+02  0.00000000000E+00 0. -1.
         11    1    3    3    0    0 -0.20787334885E+02  0.98237671426E+01  0.50704786158E+00  0.22997321372E+02  0.51100000000E-03 0. -1.
        -11    1    3    3    0    0  0.11229761929E+02 -0.11579608745E+02 -0.84907895997E+01  0.18228779442E+02  0.51100000000E-03 0.  1.
         12    1    3    3    0    0  0.25289809100E+02  0.37817565658E+01  0.17937716853E+02  0.31235201503E+02  0.00000000000E+00 0. -1.
</event>
<event>
 7    1  0.3434711E-013  0.7246157E+02  0.7816164E-02  0.1226708E+00
        -11   -1    0    0    0    0  0.00000000000E+00  0.00000000000E+00  0.45593999997E+02  0.45594000000E+02  0.51100000000E-03 0. -1.
         11   -1    0    0    0    0 -0.00000000000E+00 -0.00000000000E+00 -0.45593999997E+02  0.45594000000E+02  0.51100000000E-03 0.  1.
    9900012    2    1    2    0    0  0.15885310016E+02 -0.59127965155E+01  0.79608496182E+01  0.72461565113E+02  0.69999993250E+02 0.  0.
         12    1    1    2    0    0 -0.15885310016E+02  0.59127965155E+01 -0.79608496182E+01  0.18726434887E+02  0.00000000000E+00 0. -1.
         11    1    3    3    0    0  0.45307864268E+01 -0.12055272055E+01 -0.97537644437E+01  0.10822072009E+02  0.51100000000E-03 0. -1.
        -11    1    3    3    0    0  0.24880621366E+01 -0.13821185871E+02 -0.18517883055E+02  0.23240645972E+02  0.51100000000E-03 0.  1.
         12    1    3    3    0    0  0.88664614524E+01  0.91139165613E+01  0.36232497117E+02  0.38398847132E+02  0.00000000000E+00 0. -1.
</event>
<event>
 7    1  0.3434711E-013  0.7246151E+02  0.7816164E-02  0.1226708E+00
        -11   -1    0    0    0    0  0.00000000000E+00  0.00000000000E+00  0.45593999997E+02  0.45594000000E+02  0.51100000000E-03 0.  1.
         11   -1    0    0    0    0 -0.00000000000E+00 -0.00000000000E+00 -0.45593999997E+02  0.45594000000E+02  0.51100000000E-03 0. -1.
    9900012    2    1    2    0    0 -0.71431428176E+01  0.13758720150E+02 -0.10504969541E+02  0.72461514625E+02  0.69999927480E+02 0.  0.
         12    1    1    2    0    0  0.71431428176E+01 -0.13758720150E+02  0.10504969541E+02  0.18726485375E+02  0.00000000000E+00 0. -1.
         11    1    3    3    0    0  0.56629226272E-01  0.21272373267E+02 -0.21601068262E+02  0.30317045067E+02  0.51100000000E-03 0. -1.
        -11    1    3    3    0    0 -0.25787097788E+00  0.16000763984E+02  0.60798958618E+01  0.17118880789E+02  0.51100000000E-03 0.  1.
        -12    1    3    3    0    0 -0.69419010659E+01 -0.23514417102E+02  0.50162028593E+01  0.25025588768E+02  0.00000000000E+00 0.  1.
</event>
<event>
 7    1  0.3434711E-013  0.7246159E+02  0.7816164E-02  0.1226708E+00
        -11   -1    0    0    0    0  0.00000000000E+00  0.00000000000E+00  0.45593999997E+02  0.45594000000E+02  0.51100000000E-03 0. -1.
         11   -1    0    0    0    0 -0.00000000000E+00 -0.00000000000E+00 -0.45593999997E+02  0.45594000000E+02  0.51100000000E-03 0.  1.
    9900012    2    1    2    0    0 -0.33498646726E+00 -0.52490749521E+01 -0.17972573012E+02  0.72461591256E+02  0.70000027306E+02 0.  0.
         12    1    1    2    0    0  0.33498646726E+00  0.52490749521E+01  0.17972573012E+02  0.18726408744E+02  0.00000000000E+00 0. -1.
         11    1    3    3    0    0  0.12160410875E+00 -0.16741072466E+02  0.17177093316E+02  0.23986054906E+02  0.51100000000E-03 0. -1.
        -11    1    3    3    0    0  0.13490107208E+02 -0.43909993674E+00 -0.79558275231E+01  0.15667513941E+02  0.51100000000E-03 0.  1.
        -12    1    3    3    0    0 -0.13946697784E+02  0.11931097451E+02 -0.27193838805E+02  0.32808022409E+02  0.00000000000E+00 0.  1.
</event>
<event>
 7    1  0.3434711E-013  0.7246157E+02  0.7816164E-02  0.1226708E+00
        -11   -1    0    0    0    0  0.00000000000E+00  0.00000000000E+00  0.45593999997E+02  0.45594000000E+02  0.51100000000E-03 0.  1.
         11   -1    0    0    0    0 -0.00000000000E+00 -0.00000000000E+00 -0.45593999997E+02  0.45594000000E+02  0.51100000000E-03 0. -1.
    9900012    2    1    2    0    0 -0.18077388359E+02  0.21549846949E+00  0.48827200048E+01  0.72461565098E+02  0.69999993231E+02 0.  0.
         12    1    1    2    0    0  0.18077388359E+02 -0.21549846949E+00 -0.48827200048E+01  0.18726434902E+02  0.00000000000E+00 0. -1.
         11    1    3    3    0    0 -0.40005801855E+01 -0.16710534476E+02 -0.10497547200E+02  0.20135667403E+02  0.51100000000E-03 0. -1.
        -11    1    3    3    0    0 -0.11548555371E+02 -0.11443712097E+02 -0.53306586571E+01  0.17109751596E+02  0.51100000000E-03 0.  1.
        -12    1    3    3    0    0 -0.25282528027E+01  0.28369745042E+02  0.20710925862E+02  0.35216146099E+02  0.00000000000E+00 0.  1.
</event>
<event>
 7    1  0.3434711E-013  0.7246158E+02  0.7816164E-02  0.1226708E+00
        -11   -1    0    0    0    0  0.00000000000E+00  0.00000000000E+00  0.45593999997E+02  0.45594000000E+02  0.51100000000E-03 0.  1.
         11   -1    0    0    0    0 -0.00000000000E+00 -0.00000000000E+00 -0.45593999997E+02  0.45594000000E+02  0.51100000000E-03 0. -1.
    9900012    2    1    2    0    0 -0.17289260779E+02  0.65078112008E+01  0.30673560825E+01  0.72461579674E+02  0.70000012218E+02 0.  0.
         12    1    1    2    0    0  0.17289260779E+02 -0.65078112008E+01 -0.30673560825E+01  0.18726420326E+02  0.00000000000E+00 0. -1.
         11    1    3    3    0    0  0.43588977444E+01  0.67257316931E-02 -0.36328906354E+01  0.56743219341E+01  0.51100000000E-03 0. -1.
        -11    1    3    3    0    0 -0.34058253580E+02  0.19519170322E+02 -0.11795066038E+02  0.40988854950E+02  0.51100000000E-03 0.  1.
         12    1    3    3    0    0  0.12410095057E+02 -0.13018084853E+02  0.18495312756E+02  0.25798402790E+02  0.00000000000E+00 0. -1.
</event>
<event>
 7    1  0.3434711E-013  0.7246153E+02  0.7816164E-02  0.1226708E+00
        -11   -1    0    0    0    0  0.00000000000E+00  0.00000000000E+00  0.45593999997E+02  0.45594000000E+02  0.51100000000E-03 0.  1.
         11   -1    0    0    0    0 -0.00000000000E+00 -0.00000000000E+00 -0.45593999997E+02  0.45594000000E+02  0.51100000000E-03 0. -1.
    9900012    2    1    2    0    0 -0.12324545906E+02  0.17546258631E+01  0.13989548714E+02  0.72461531649E+02  0.69999949657E+02 0.  0.
         12    1    1    2    0    0  0.12324545906E+02 -0.17546258631E+01 -0.13989548714E+02  0.18726468351E+02  0.00000000000E+00 0. -1.
         11    1    3    3    0    0  0.15605108950E+02  0.12138563361E+02 -0.34977505007E+01  0.20077310693E+02  0.51100000000E-03 0. -1.
        -11    1    3    3    0    0 -0.59498992151E+01  0.14158988882E+02  0.10774776749E+02  0.18760972285E+02  0.51100000000E-03 0.  1.
        -12    1    3    3    0    0 -0.21979755641E+02 -0.24542926380E+02  0.67125224658E+01  0.33623248671E+02  0.00000000000E+00 0.  1.
</event>
<event>
 7    1  0.3434711E-013  0.7246154E+02  0.7816164E-02  0.1226708E+00
        -11   -1    0    0    0    0  0.00000000000E+00  0.00000000000E+00  0.45593999997E+02  0.45594000000E+02  0.51100000000E-03 0. -1.
         11   -1    0    0    0    0 -0.00000000000E+00 -0.00000000000E+00 -0.45593999997E+02  0.45594000000E+02  0.51100000000E-03 0.  1.
    9900012    2    1    2    0    0 -0.15650528081E+02  0.68133685196E+00 -0.10260467869E+02  0.72461536105E+02  0.69999955462E+02 0.  0.
         12    1    1    2    0    0  0.15650528081E+02 -0.68133685196E+00  0.10260467869E+02  0.18726463895E+02  0.00000000000E+00 0. -1.
         11    1    3    3    0    0  0.61216360620E+01  0.37125830846E+01 -0.11365797902E+01  0.72491044355E+01  0.51100000000E-03 0. -1.
        -11    1    3    3    0    0  0.71778762412E+01 -0.11624501973E+02 -0.26899956650E+02  0.30170492563E+02  0.51100000000E-03 0.  1.
         12    1    3    3    0    0 -0.28950040384E+02  0.85932557402E+01  0.17776068572E+02  0.35041939106E+02  0.00000000000E+00 0. -1.
</event>
<event>
 7    1  0.3434711E-013  0.7246156E+02  0.7816164E-02  0.1226708E+00
        -11   -1    0    0    0    0  0.00000000000E+00  0.00000000000E+00  0.45593999997E+02  0.45594000000E+02  0.51100000000E-03 0. -1.
         11   -1    0    0    0    0 -0.00000000000E+00 -0.00000000000E+00 -0.45593999997E+02  0.45594000000E+02  0.51100000000E-03 0.  1.
    9900012    2    1    2    0    0  0.70293574213E+01 -0.15176756501E+02 -0.84222171419E+01  0.72461560263E+02  0.69999986932E+02 0.  0.
         12    1    1    2    0    0 -0.70293574213E+01  0.15176756501E+02  0.84222171419E+01  0.18726439737E+02  0.00000000000E+00 0. -1.
         11    1    3    3    0    0 -0.57886261683E+01  0.39815368425E+01  0.80353578553E+01  0.10673696860E+02  0.51100000000E-03 0. -1.
        -11    1    3    3    0    0  0.58663590119E+01 -0.31176646447E+02 -0.29071383342E+02  0.43029557068E+02  0.51100000000E-03 0.  1.
         12    1    3    3    0    0  0.69516245777E+01  0.12018353104E+02  0.12613808345E+02  0.18758306335E+02  0.00000000000E+00 0. -1.
</event>
<event>
 7    1  0.3434711E-013  0.7246158E+02  0.7816164E-02  0.1226708E+00
        -11   -1    0    0    0    0  0.00000000000E+00  0.00000000000E+00  0.45593999997E+02  0.45594000000E+02  0.51100000000E-03 0.  1.
         11   -1    0    0    0    0 -0.00000000000E+00 -0.00000000000E+00 -0.45593999997E+02  0.45594000000E+02  0.51100000000E-03 0. -1.
    9900012    2    1    2    0    0  0.43159647785E+01  0.17431163237E+02  0.53109049353E+01  0.72461582430E+02  0.70000015809E+02 0.  0.
         12    1    1    2    0    0 -0.43159647785E+01 -0.17431163237E+02 -0.53109049353E+01  0.18726417570E+02  0.00000000000E+00 0. -1.
         11    1    3    3    0    0  0.12269560492E+02 -0.79353772579E+01 -0.17180291516E+02  0.22553818828E+02  0.51100000000E-03 0. -1.
        -11    1    3    3    0    0 -0.13570108502E+02  0.32208287049E+00 -0.28160640074E+01  0.13862965011E+02  0.51100000000E-03 0.  1.
        -12    1    3    3    0    0  0.56165127888E+01  0.25044457624E+02  0.25307260458E+02  0.36044798592E+02  0.00000000000E+00 0.  1.
</event>
<event>
 7    1  0.3434711E-013  0.7246158E+02  0.7816164E-02  0.1226708E+00
        -11   -1    0    0    0    0  0.00000000000E+00  0.00000000000E+00  0.45593999997E+02  0.45594000000E+02  0.51100000000E-03 0.  1.
         11   -1    0    0    0    0 -0.00000000000E+00 -0.00000000000E+00 -0.45593999997E+02  0.45594000000E+02  0.51100000000E-03 0. -1.
    9900012    2    1    2    0    0  0.17040471764E+02 -0.54364591776E+01  0.55449101717E+01  0.72461580290E+02  0.70000013021E+02 0.  0.
         12    1    1    2    0    0 -0.17040471764E+02  0.54364591776E+01 -0.55449101717E+01  0.18726419710E+02  0.00000000000E+00 0. -1.
         11    1    3    3    0    0 -0.97655551516E+01  0.22566216328E+02  0.11860915698E+02  0.27299844473E+02  0.51100000000E-03 0. -1.
        -11    1    3    3    0    0  0.12300921567E+02 -0.12577626360E+02 -0.14158131253E+02  0.22582339052E+02  0.51100000000E-03 0.  1.
        -12    1    3    3    0    0  0.14505105349E+02 -0.15425049146E+02  0.78421257263E+01  0.22579396764E+02  0.00000000000E+00 0.  1.
</event>
<event>
 7    1  0.3434711E-013  0.7246156E+02  0.7816164E-02  0.1226708E+00
        -11   -1    0    0    0    0  0.00000000000E+00  0.00000000000E+00  0.45593999997E+02  0.45594000000E+02  0.51100000000E-03 0.  1.
         11   -1    0    0    0    0 -0.00000000000E+00 -0.00000000000E+00 -0.45593999997E+02  0.45594000000E+02  0.51100000000E-03 0. -1.
    9900012    2    1    2    0    0 -0.14031512393E+02 -0.12280703695E+02 -0.17264362874E+01  0.72461558653E+02  0.69999984835E+02 0.  0.
         12    1    1    2    0    0  0.14031512393E+02  0.12280703695E+02  0.17264362874E+01  0.18726441347E+02  0.00000000000E+00 0. -1.
         11    1    3    3    0    0  0.12086995535E+02 -0.23103431646E+02 -0.46824517714E+01  0.26491307438E+02  0.51100000000E-03 0. -1.
        -11    1    3    3    0    0  0.54115126358E+01 -0.75382060694E+01 -0.67203265444E+00  0.93037974990E+01  0.51100000000E-03 0.  1.
        -12    1    3    3    0    0 -0.31530020564E+02  0.18360934021E+02  0.36280481385E+01  0.36666453717E+02  0.00000000000E+00 0.  1.
</event>
<event>
 7    1  0.3434711E-013  0.7246161E+02  0.7816164E-02  0.1226708E+00
        -11   -1    0    0    0    0  0.00000000000E+00  0.00000000000E+00  0.45593999997E+02  0.45594000000E+02  0.51100000000E-03 0.  1.
         11   -1    0    0    0    0 -0.00000000000E+00 -0.00000000000E+00 -0.45593999997E+02  0.45594000000E+02  0.51100000000E-03 0. -1.
    9900012    2    1    2    0    0  0.16240673381E+02 -0.69366775969E+01 -0.62290244415E+01  0.72461609172E+02  0.70000050646E+02 0.  0.
         12    1    1    2    0    0 -0.16240673381E+02  0.69366775969E+01  0.62290244415E+01  0.18726390828E+02  0.00000000000E+00 0. -1.
         11    1    3    3    0    0 -0.25348698029E+01  0.35566890881E+00 -0.17285005278E+02  0.17473507747E+02  0.51100000000E-03 0. -1.
        -11    1    3    3    0    0 -0.10517465926E+02 -0.79013591710E+01  0.20366105058E+02  0.24245139756E+02  0.51100000000E-03 0.  1.
         12    1    3    3    0    0  0.29293009110E+02  0.60901266532E+00 -0.93101242224E+01  0.30742961669E+02  0.00000000000E+00 0. -1.
</event>
<event>
 7    1  0.3434711E-013  0.7246156E+02  0.7816164E-02  0.1226708E+00
        -11   -1    0    0    0    0  0.00000000000E+00  0.00000000000E+00  0.45593999997E+02  0.45594000000E+02  0.51100000000E-03 0.  1.
         11   -1    0    0    0    0 -0.00000000000E+00 -0.00000000000E+00 -0.45593999997E+02  0.45594000000E+02  0.51100000000E-03 0. -1.
    9900012    2    1    2    0    0 -0.13627033362E+02  0.86069182518E+01 -0.95343850132E+01  0.72461559398E+02  0.69999985805E+02 0.  0.
         12    1    1    2    0    0  0.13627033362E+02 -0.86069182518E+01  0.95343850132E+01  0.18726440602E+02  0.00000000000E+00 0. -1.
         11    1    3    3    0    0 -0.13309569646E+02 -0.32497670942E+01 -0.19576086695E+02  0.23894116449E+02  0.51100000000E-03 0. -1.
        -11    1    3    3    0    0 -0.21302905839E+02  0.14963754302E+02  0.29526313952E+01  0.26200110160E+02  0.51100000000E-03 0.  1.
        -12    1    3    3    0    0  0.20985442122E+02 -0.31070689555E+01  0.70890702867E+01  0.22367332789E+02  0.00000000000E+00 0.  1.
</event>
<event>
 7    1  0.3434711E-013  0.7246144E+02  0.7816164E-02  0.1226708E+00
        -11   -1    0    0    0    0  0.00000000000E+00  0.00000000000E+00  0.45593999997E+02  0.45594000000E+02  0.51100000000E-03 0.  1.
         11   -1    0    0    0    0 -0.00000000000E+00 -0.00000000000E+00 -0.45593999997E+02  0.45594000000E+02  0.51100000000E-03 0. -1.
    9900012    2    1    2    0    0  0.83666267710E+01  0.16242534820E+02 -0.41065241966E+01  0.72461443405E+02  0.69999834703E+02 0.  0.
         12    1    1    2    0    0 -0.83666267710E+01 -0.16242534820E+02  0.41065241966E+01  0.18726556595E+02  0.00000000000E+00 0. -1.
         11    1    3    3    0    0 -0.19573763374E+02  0.14896897180E+02  0.17189727744E+02  0.30008940308E+02  0.51100000000E-03 0. -1.
        -11    1    3    3    0    0  0.10469118269E+02  0.35513420444E+01  0.38908479298E+01  0.11719776684E+02  0.51100000000E-03 0.  1.
        -12    1    3    3    0    0  0.17471271876E+02 -0.22057044042E+01 -0.25187099871E+02  0.30732726413E+02  0.00000000000E+00 0.  1.
</event>
<event>
 7    1  0.3434711E-013  0.7246157E+02  0.7816164E-02  0.1226708E+00
        -11   -1    0    0    0    0  0.00000000000E+00  0.00000000000E+00  0.45593999997E+02  0.45594000000E+02  0.51100000000E-03 0. -1.
         11   -1    0    0    0    0 -0.00000000000E+00 -0.00000000000E+00 -0.45593999997E+02  0.45594000000E+02  0.51100000000E-03 0.  1.
    9900012    2    1    2    0    0 -0.11993329907E+02  0.14315128379E+02  0.13843615379E+01  0.72461566287E+02  0.69999994779E+02 0.  0.
         12    1    1    2    0    0  0.11993329907E+02 -0.14315128379E+02 -0.13843615379E+01  0.18726433713E+02  0.00000000000E+00 0. -1.
         11    1    3    3    0    0  0.46053276988E+01  0.11983313007E+02  0.10641930532E+02  0.16675116777E+02  0.51100000000E-03 0. -1.
        -11    1    3    3    0    0  0.55402218091E+01  0.21689696857E+02  0.52511958894E+01  0.22993739713E+02  0.51100000000E-03 0.  1.
        -12    1    3    3    0    0 -0.22138879415E+02 -0.19357881486E+02 -0.14508764883E+02  0.32792709796E+02  0.00000000000E+00 0.  1.
</event>
<event>
 7    1  0.3434711E-013  0.7246160E+02  0.7816164E-02  0.1226708E+00
        -11   -1    0    0    0    0  0.00000000000E+00  0.00000000000E+00  0.45593999997E+02  0.45594000000E+02  0.51100000000E-03 0.  1.
         11   -1    0    0    0    0 -0.00000000000E+00 -0.00000000000E+00 -0.45593999997E+02  0.45594000000E+02  0.51100000000E-03 0. -1.
    9900012    2    1    2    0    0 -0.50701637947E+01  0.84825360713E+01  0.15906544749E+02  0.72461597651E+02  0.70000035637E+02 0.  0.
         12    1    1    2    0    0  0.50701637947E+01 -0.84825360713E+01 -0.15906544749E+02  0.18726402349E+02  0.00000000000E+00 0. -1.
         11    1    3    3    0    0  0.78988294004E+01  0.18426693844E+02  0.17146730301E+02  0.26380767847E+02  0.51100000000E-03 0.  1.
        -11    1    3    3    0    0  0.64341612036E+01 -0.21811805831E+02 -0.42597428936E+01  0.23136523373E+02  0.51100000000E-03 0. -1.
         12    1    3    3    0    0 -0.19403154399E+02  0.11867648059E+02  0.30195573415E+01  0.22944306431E+02  0.00000000000E+00 0. -1.
</event>
<event>
 7    1  0.3434711E-013  0.7246155E+02  0.7816164E-02  0.1226708E+00
        -11   -1    0    0    0    0  0.00000000000E+00  0.00000000000E+00  0.45593999997E+02  0.45594000000E+02  0.51100000000E-03 0. -1.
         11   -1    0    0    0    0 -0.00000000000E+00 -0.00000000000E+00 -0.45593999997E+02  0.45594000000E+02  0.51100000000E-03 0.  1.
    9900012    2    1    2    0    0 -0.49779112880E+01 -0.17974745402E+02  0.16759456695E+01  0.72461551673E+02  0.69999975742E+02 0.  0.
         12    1    1    2    0    0  0.49779112880E+01  0.17974745402E+02 -0.16759456695E+01  0.18726448327E+02  0.00000000000E+00 0. -1.
         11    1    3    3    0    0  0.46987876423E+01  0.12231457088E+02  0.99141813445E+01  0.16431011527E+02  0.51100000000E-03 0. -1.
        -11    1    3    3    0    0  0.18197311699E+02 -0.10076350270E+02 -0.59938724601E+00  0.20809475081E+02  0.51100000000E-03 0.  1.
        -12    1    3    3    0    0 -0.27874010629E+02 -0.20129852220E+02 -0.76388484291E+01  0.35221065064E+02  0.00000000000E+00 0.  1.
</event>
<event>
 7    1  0.3434711E-013  0.7246162E+02  0.7816164E-02  0.1226708E+00
        -11   -1    0    0    0    0  0.00000000000E+00  0.00000000000E+00  0.45593999997E+02  0.45594000000E+02  0.51100000000E-03 0. -1.
         11   -1    0    0    0    0 -0.00000000000E+00 -0.00000000000E+00 -0.45593999997E+02  0.45594000000E+02  0.51100000000E-03 0.  1.
    9900012    2    1    2    0    0  0.83181246918E+01  0.16752798978E+02 -0.91096540489E+00  0.72461619411E+02  0.70000063984E+02 0.  0.
         12    1    1    2    0    0 -0.83181246918E+01 -0.16752798978E+02  0.91096540489E+00  0.18726380589E+02  0.00000000000E+00 0. -1.
         11    1    3    3    0    0  0.16341545638E+02 -0.19868279423E+02  0.12108616887E+02  0.28432608819E+02  0.51100000000E-03 0. -1.
        -11    1    3    3    0    0 -0.43575906641E+01  0.25961905607E+02  0.62272864125E+00  0.26332431152E+02  0.51100000000E-03 0.  1.
        -12    1    3    3    0    0 -0.36658302823E+01  0.10659172794E+02 -0.13642310933E+02  0.17696579440E+02  0.00000000000E+00 0.  1.
</event>
<event>
 7    1  0.3434711E-013  0.7246156E+02  0.7816164E-02  0.1226708E+00
        -11   -1    0    0    0    0  0.00000000000E+00  0.00000000000E+00  0.45593999997E+02  0.45594000000E+02  0.51100000000E-03 0. -1.
         11   -1    0    0    0    0 -0.00000000000E+00 -0.00000000000E+00 -0.45593999997E+02  0.45594000000E+02  0.51100000000E-03 0.  1.
    9900012    2    1    2    0    0 -0.40218004042E+01 -0.10459930257E+02 -0.15003150153E+02  0.72461560563E+02  0.69999987324E+02 0.  0.
         12    1    1    2    0    0  0.40218004042E+01  0.10459930257E+02  0.15003150153E+02  0.18726439437E+02  0.00000000000E+00 0. -1.
         11    1    3    3    0    0 -0.12253603309E+02 -0.12939754960E+02  0.15144990467E+01  0.17885238609E+02  0.51100000000E-03 0. -1.
        -11    1    3    3    0    0 -0.15278369308E+02  0.10287891229E+02  0.76710620999E+01  0.19952806034E+02  0.51100000000E-03 0.  1.
        -12    1    3    3    0    0  0.23510172213E+02 -0.78080665257E+01 -0.24188711299E+02  0.34623515920E+02  0.00000000000E+00 0.  1.
</event>
<event>
 7    1  0.3434711E-013  0.7246156E+02  0.7816164E-02  0.1226708E+00
        -11   -1    0    0    0    0  0.00000000000E+00  0.00000000000E+00  0.45593999997E+02  0.45594000000E+02  0.51100000000E-03 0. -1.
         11   -1    0    0    0    0 -0.00000000000E+00 -0.00000000000E+00 -0.45593999997E+02  0.45594000000E+02  0.51100000000E-03 0.  1.
    9900012    2    1    2    0    0 -0.47067145955E+01  0.77572561102E+01 -0.16381435201E+02  0.72461558697E+02  0.69999984892E+02 0.  0.
         12    1    1    2    0    0  0.47067145955E+01 -0.77572561102E+01  0.16381435201E+02  0.18726441303E+02  0.00000000000E+00 0. -1.
         11    1    3    3    0    0  0.73610269779E+01 -0.39547241464E+01  0.61236306042E+01  0.10359701409E+02  0.51100000000E-03 0. -1.
        -11    1    3    3    0    0  0.19439043043E+02  0.14820432352E+02 -0.23182882697E+01  0.24553942052E+02  0.51100000000E-03 0.  1.
         12    1    3    3    0    0 -0.31506784617E+02 -0.31084520953E+01 -0.20186777535E+02  0.37547915236E+02  0.00000000000E+00 0. -1.
</event>
<event>
 7    1  0.3434711E-013  0.7246155E+02  0.7816164E-02  0.1226708E+00
        -11   -1    0    0    0    0  0.00000000000E+00  0.00000000000E+00  0.45593999997E+02  0.45594000000E+02  0.51100000000E-03 0. -1.
         11   -1    0    0    0    0 -0.00000000000E+00 -0.00000000000E+00 -0.45593999997E+02  0.45594000000E+02  0.51100000000E-03 0.  1.
    9900012    2    1    2    0    0 -0.56259626117E-01 -0.11132192964E+02 -0.15058251294E+02  0.72461552997E+02  0.69999977467E+02 0.  0.
         12    1    1    2    0    0  0.56259626117E-01  0.11132192964E+02  0.15058251294E+02  0.18726447003E+02  0.00000000000E+00 0. -1.
         11    1    3    3    0    0 -0.57645188907E+01 -0.98870708001E+00  0.35715946200E+01  0.68529926398E+01  0.51100000000E-03 0. -1.
        -11    1    3    3    0    0 -0.10042536550E+02  0.15060706087E+02 -0.28952761745E+02  0.34145860966E+02  0.51100000000E-03 0.  1.
         12    1    3    3    0    0  0.15750795815E+02 -0.25204191971E+02  0.10322915831E+02  0.31462699391E+02  0.00000000000E+00 0. -1.
</event>
<event>
 7    1  0.3434711E-013  0.7246160E+02  0.7816164E-02  0.1226708E+00
        -11   -1    0    0    0    0  0.00000000000E+00  0.00000000000E+00  0.45593999997E+02  0.45594000000E+02  0.51100000000E-03 0. -1.
         11   -1    0    0    0    0 -0.00000000000E+00 -0.00000000000E+00 -0.45593999997E+02  0.45594000000E+02  0.51100000000E-03 0.  1.
    9900012    2    1    2    0    0 -0.90623881760E+01 -0.93261167463E+01 -0.13474960392E+02  0.72461604442E+02  0.70000044484E+02 0.  0.
         12    1    1    2    0    0  0.90623881760E+01  0.93261167463E+01  0.13474960392E+02  0.18726395558E+02  0.00000000000E+00 0. -1.
         11    1    3    3    0    0  0.19150689035E+02 -0.17071617225E+02  0.34021322130E+01  0.25879789587E+02  0.51100000000E-03 0. -1.
        -11    1    3    3    0    0  0.61741102701E+01  0.28574010345E+01  0.19463357348E+01  0.70761996405E+01  0.51100000000E-03 0.  1.
        -12    1    3    3    0    0 -0.34387187481E+02  0.48880994441E+01 -0.18823428340E+02  0.39505615215E+02  0.00000000000E+00 0.  1.
</event>
<event>
 7    1  0.3434711E-013  0.7246136E+02  0.7816164E-02  0.1226709E+00
        -11   -1    0    0    0    0  0.00000000000E+00  0.00000000000E+00  0.45593999997E+02  0.45594000000E+02  0.51100000000E-03 0.  1.
         11   -1    0    0    0    0 -0.00000000000E+00 -0.00000000000E+00 -0.45593999997E+02  0.45594000000E+02  0.51100000000E-03 0. -1.
    9900012    2    1    2    0    0 -0.14451810846E+02 -0.96013060905E+01  0.70460782349E+01  0.72461357646E+02  0.69999722985E+02 0.  0.
         12    1    1    2    0    0  0.14451810846E+02  0.96013060905E+01 -0.70460782349E+01  0.18726642354E+02  0.00000000000E+00 0. -1.
         11    1    3    3    0    0 -0.11643708223E+02  0.17638112426E+02  0.16603242642E+02  0.26876506798E+02  0.51100000000E-03 0. -1.
        -11    1    3    3    0    0  0.85060204840E+01 -0.28856884958E+01  0.91777469615E+01  0.12841753078E+02  0.51100000000E-03 0.  1.
         12    1    3    3    0    0 -0.11314123107E+02 -0.24353730021E+02 -0.18734911368E+02  0.32743097770E+02  0.00000000000E+00 0. -1.
</event>
<event>
 7    1  0.3434711E-013  0.7246164E+02  0.7816164E-02  0.1226708E+00
        -11   -1    0    0    0    0  0.00000000000E+00  0.00000000000E+00  0.45593999997E+02  0.45594000000E+02  0.51100000000E-03 0. -1.
         11   -1    0    0    0    0 -0.00000000000E+00 -0.00000000000E+00 -0.45593999997E+02  0.45594000000E+02  0.51100000000E-03 0.  1.
    9900012    2    1    2    0    0  0.16802137569E+02  0.39773224023E+01 -0.72488385682E+01  0.72461639410E+02  0.70000090036E+02 0.  0.
         12    1    1    2    0    0 -0.16802137569E+02 -0.39773224023E+01  0.72488385682E+01  0.18726360590E+02  0.00000000000E+00 0. -1.
         11    1    3    3    0    0 -0.25802211753E+01 -0.16075270262E+02 -0.37485005948E+01  0.16706977952E+02  0.51100000000E-03 0. -1.
        -11    1    3    3    0    0 -0.85156483265E+01 -0.10909149210E+02 -0.25188048803E+01  0.14066633613E+02  0.51100000000E-03 0.  1.
         12    1    3    3    0    0  0.27898007070E+02  0.30961741875E+02 -0.98153309308E+00  0.41688027845E+02  0.00000000000E+00 0. -1.
</event>
<event>
 7    1  0.3434711E-013  0.7246158E+02  0.7816164E-02  0.1226708E+00
        -11   -1    0    0    0    0  0.00000000000E+00  0.00000000000E+00  0.45593999997E+02  0.45594000000E+02  0.51100000000E-03 0.  1.
         11   -1    0    0    0    0 -0.00000000000E+00 -0.00000000000E+00 -0.45593999997E+02  0.45594000000E+02  0.51100000000E-03 0. -1.
    9900012    2    1    2    0    0 -0.17754098386E+02 -0.59160818718E+01 -0.68601642270E+00  0.72461584093E+02  0.70000017975E+02 0.  0.
         12    1    1    2    0    0  0.17754098386E+02  0.59160818718E+01  0.68601642270E+00  0.18726415907E+02  0.00000000000E+00 0. -1.
         11    1    3    3    0    0 -0.48318597980E+01  0.15159350953E+02 -0.17752328072E+02  0.23839000454E+02  0.51100000000E-03 0. -1.
        -11    1    3    3    0    0 -0.10567199918E+02  0.98005210516E+01  0.35975149184E+01  0.14854562964E+02  0.51100000000E-03 0.  1.
        -12    1    3    3    0    0 -0.23550386696E+01 -0.30875953876E+02  0.13468796731E+02  0.33768020675E+02  0.00000000000E+00 0.  1.
</event>
<event>
 7    1  0.3434711E-013  0.7246155E+02  0.7816164E-02  0.1226708E+00
        -11   -1    0    0    0    0  0.00000000000E+00  0.00000000000E+00  0.45593999997E+02  0.45594000000E+02  0.51100000000E-03 0.  1.
         11   -1    0    0    0    0 -0.00000000000E+00 -0.00000000000E+00 -0.45593999997E+02  0.45594000000E+02  0.51100000000E-03 0. -1.
    9900012    2    1    2    0    0 -0.14121138030E+02 -0.10320741415E+02 -0.66899563709E+01  0.72461554559E+02  0.69999979501E+02 0.  0.
         12    1    1    2    0    0  0.14121138030E+02  0.10320741415E+02  0.66899563709E+01  0.18726445441E+02  0.00000000000E+00 0. -1.
         11    1    3    3    0    0 -0.86179299320E+00  0.11463656183E+02  0.86990098200E+00  0.11528869338E+02  0.51100000000E-03 0. -1.
        -11    1    3    3    0    0 -0.10190383981E+01 -0.20019425173E+02  0.21473234345E+02  0.29375425393E+02  0.51100000000E-03 0.  1.
         12    1    3    3    0    0 -0.12240306639E+02 -0.17649724254E+01 -0.29033091698E+02  0.31557259827E+02  0.00000000000E+00 0. -1.
</event>
<event>
 7    1  0.3434711E-013  0.7246127E+02  0.7816164E-02  0.1226709E+00
        -11   -1    0    0    0    0  0.00000000000E+00  0.00000000000E+00  0.45593999997E+02  0.45594000000E+02  0.51100000000E-03 0. -1.
         11   -1    0    0    0    0 -0.00000000000E+00 -0.00000000000E+00 -0.45593999997E+02  0.45594000000E+02  0.51100000000E-03 0.  1.
    9900012    2    1    2    0    0 -0.11970703807E+02  0.13496884457E+02 -0.50226363677E+01  0.72461267349E+02  0.69999605356E+02 0.  0.
         12    1    1    2    0    0  0.11970703807E+02 -0.13496884457E+02  0.50226363677E+01  0.18726732651E+02  0.00000000000E+00 0. -1.
         11    1    3    3    0    0 -0.10644235101E+02  0.20884796612E+02  0.20129951527E+02  0.30898048792E+02  0.51100000000E-03 0. -1.
        -11    1    3    3    0    0 -0.13652530262E+02 -0.70891916031E+01 -0.22423869937E+01  0.15545948663E+02  0.51100000000E-03 0.  1.
        -12    1    3    3    0    0  0.12326061556E+02 -0.29872055123E+00 -0.22910200900E+02  0.26017269894E+02  0.00000000000E+00 0.  1.
</event>
<event>
 7    1  0.3434711E-013  0.7246159E+02  0.7816164E-02  0.1226708E+00
        -11   -1    0    0    0    0  0.00000000000E+00  0.00000000000E+00  0.45593999997E+02  0.45594000000E+02  0.51100000000E-03 0. -1.
         11   -1    0    0    0    0 -0.00000000000E+00 -0.00000000000E+00 -0.45593999997E+02  0.45594000000E+02  0.51100000000E-03 0.  1.
    9900012    2    1    2    0    0  0.74945734732E+01  0.15155700298E+02 -0.80507409112E+01  0.72461593183E+02  0.70000029817E+02 0.  0.
         12    1    1    2    0    0 -0.74945734732E+01 -0.15155700298E+02  0.80507409112E+01  0.18726406817E+02  0.00000000000E+00 0. -1.
         11    1    3    3    0    0 -0.14072434234E+02 -0.15075451332E+02 -0.22920701916E+02  0.30832794468E+02  0.51100000000E-03 0. -1.
        -11    1    3    3    0    0  0.28359881305E+01  0.25154102582E+01  0.58699412010E+01  0.69875838033E+01  0.51100000000E-03 0.  1.
        -12    1    3    3    0    0  0.18731019577E+02  0.27715741371E+02  0.90000198034E+01  0.34641214912E+02  0.00000000000E+00 0.  1.
</event>
<event>
 7    1  0.3434711E-013  0.7246160E+02  0.7816164E-02  0.1226708E+00
        -11   -1    0    0    0    0  0.00000000000E+00  0.00000000000E+00  0.45593999997E+02  0.45594000000E+02  0.51100000000E-03 0. -1.
         11   -1    0    0    0    0 -0.00000000000E+00 -0.00000000000E+00 -0.45593999997E+02  0.45594000000E+02  0.51100000000E-03 0.  1.
    9900012    2    1    2    0    0 -0.14716404437E+02  0.69107736901E+01 -0.92922906217E+01  0.72461601052E+02  0.70000040068E+02 0.  0.
         12    1    1    2    0    0  0.14716404437E+02 -0.69107736901E+01  0.92922906217E+01  0.18726398948E+02  0.00000000000E+00 0. -1.
         11    1    3    3    0    0  0.19439292819E+01  0.29456513844E+00  0.72608009292E+01  0.75222908790E+01  0.51100000000E-03 0. -1.
        -11    1    3    3    0    0  0.11321470363E+02 -0.60710125844E+01  0.15772592923E+02  0.20342260758E+02  0.51100000000E-03 0.  1.
        -12    1    3    3    0    0 -0.27981804082E+02  0.12687221136E+02 -0.32325684474E+02  0.44597049415E+02  0.00000000000E+00 0.  1.
</event>
<event>
 7    1  0.3434711E-013  0.7246151E+02  0.7816164E-02  0.1226708E+00
        -11   -1    0    0    0    0  0.00000000000E+00  0.00000000000E+00  0.45593999997E+02  0.45594000000E+02  0.51100000000E-03 0. -1.
         11   -1    0    0    0    0 -0.00000000000E+00 -0.00000000000E+00 -0.45593999997E+02  0.45594000000E+02  0.51100000000E-03 0.  1.
    9900012    2    1    2    0    0  0.73677896727E+01  0.16857191860E+02 -0.34974546226E+01  0.72461509915E+02  0.69999921344E+02 0.  0.
         12    1    1    2    0    0 -0.73677896727E+01 -0.16857191860E+02  0.34974546226E+01  0.18726490085E+02  0.00000000000E+00 0. -1.
         11    1    3    3    0    0  0.25556104715E+02  0.87989085863E+01 -0.86959872957E+00  0.27042401571E+02  0.51100000000E-03 0.  1.
        -11    1    3    3    0    0 -0.10108937914E+01  0.18202676813E+02  0.10969598384E+02  0.21276546675E+02  0.51100000000E-03 0. -1.
        -12    1    3    3    0    0 -0.17177421251E+02 -0.10144393539E+02 -0.13597454277E+02  0.24142561669E+02  0.00000000000E+00 0.  1.
</event>
<event>
 7    1  0.3434711E-013  0.7246160E+02  0.7816164E-02  0.1226708E+00
        -11   -1    0    0    0    0  0.00000000000E+00  0.00000000000E+00  0.45593999997E+02  0.45594000000E+02  0.51100000000E-03 0. -1.
         11   -1    0    0    0    0 -0.00000000000E+00 -0.00000000000E+00 -0.45593999997E+02  0.45594000000E+02  0.51100000000E-03 0.  1.
    9900012    2    1    2    0    0  0.34432657202E+01  0.11954853451E+02 -0.13996549774E+02  0.72461601376E+02  0.70000040489E+02 0.  0.
         12    1    1    2    0    0 -0.34432657202E+01 -0.11954853451E+02  0.13996549774E+02  0.18726398624E+02  0.00000000000E+00 0. -1.
         11    1    3    3    0    0  0.24369977343E+02  0.12284415724E+01  0.10122966807E+02  0.26417405657E+02  0.51100000000E-03 0. -1.
        -11    1    3    3    0    0 -0.56469415276E+01  0.16955983074E+02 -0.13475729148E+01  0.17922311895E+02  0.51100000000E-03 0.  1.
        -12    1    3    3    0    0 -0.15279770096E+02 -0.62295711956E+01 -0.22771943666E+02  0.28121883824E+02  0.00000000000E+00 0.  1.
</event>
<event>
 7    1  0.3434711E-013  0.7246157E+02  0.7816164E-02  0.1226708E+00
        -11   -1    0    0    0    0  0.00000000000E+00  0.00000000000E+00  0.45593999997E+02  0.45594000000E+02  0.51100000000E-03 0.  1.
         11   -1    0    0    0    0 -0.00000000000E+00 -0.00000000000E+00 -0.45593999997E+02  0.45594000000E+02  0.51100000000E-03 0. -1.
    9900012    2    1    2    0    0 -0.16388227224E+02 -0.83080175867E+01 -0.36168979312E+01  0.72461572193E+02  0.70000002474E+02 0.  0.
         12    1    1    2    0    0  0.16388227224E+02  0.83080175867E+01  0.36168979312E+01  0.18726427807E+02  0.00000000000E+00 0. -1.
         11    1    3    3    0    0 -0.99502252809E+01 -0.48437176992E+01 -0.19662372357E+02  0.22562745207E+02  0.51100000000E-03 0. -1.
        -11    1    3    3    0    0 -0.66255771420E+01  0.21178426264E+02  0.43164764099E+01  0.22606547289E+02  0.51100000000E-03 0.  1.
        -12    1    3    3    0    0  0.18757519909E+00 -0.24642726151E+02  0.11728998016E+02  0.27292279697E+02  0.00000000000E+00 0.  1.
</event>
<event>
 7    1  0.3434711E-013  0.7246159E+02  0.7816164E-02  0.1226708E+00
        -11   -1    0    0    0    0  0.00000000000E+00  0.00000000000E+00  0.45593999997E+02  0.45594000000E+02  0.51100000000E-03 0. -1.
         11   -1    0    0    0    0 -0.00000000000E+00 -0.00000000000E+00 -0.45593999997E+02  0.45594000000E+02  0.51100000000E-03 0.  1.
    9900012    2    1    2    0    0 -0.16316861145E+02  0.86547590255E+01 -0.30876579768E+01  0.72461589687E+02  0.70000025263E+02 0.  0.
         12    1    1    2    0    0  0.16316861145E+02 -0.86547590255E+01  0.30876579768E+01  0.18726410313E+02  0.00000000000E+00 0. -1.
         11    1    3    3    0    0  0.79195550974E+01  0.33534329270E+01  0.24608303360E+02  0.26067862587E+02  0.51100000000E-03 0. -1.
        -11    1    3    3    0    0 -0.45614813716E+01 -0.57341536554E+01  0.33179430855E+01  0.80434058102E+01  0.51100000000E-03 0.  1.
        -12    1    3    3    0    0 -0.19674934871E+02  0.11035479754E+02 -0.31013904422E+02  0.38350321290E+02  0.00000000000E+00 0.  1.
</event>
<event>
 7    1  0.3434711E-013  0.7246158E+02  0.7816164E-02  0.1226708E+00
        -11   -1    0    0    0    0  0.00000000000E+00  0.00000000000E+00  0.45593999997E+02  0.45594000000E+02  0.51100000000E-03 0.  1.
         11   -1    0    0    0    0 -0.00000000000E+00 -0.00000000000E+00 -0.45593999997E+02  0.45594000000E+02  0.51100000000E-03 0. -1.
    9900012    2    1    2    0    0 -0.14382904590E+02  0.49756113805E+01  0.10911192783E+02  0.72461580667E+02  0.70000013513E+02 0.  0.
         12    1    1    2    0    0  0.14382904590E+02 -0.49756113805E+01 -0.10911192783E+02  0.18726419333E+02  0.00000000000E+00 0. -1.
         11    1    3    3    0    0 -0.59719638717E+01 -0.81934959377E+01  0.17805668436E+02  0.20489986746E+02  0.51100000000E-03 0. -1.
        -11    1    3    3    0    0  0.26718195285E+01  0.22332182877E+02  0.14084310146E+02  0.26537385029E+02  0.51100000000E-03 0.  1.
         12    1    3    3    0    0 -0.11082760247E+02 -0.91630755588E+01 -0.20978785798E+02  0.25434208892E+02  0.00000000000E+00 0. -1.
</event>
<event>
 7    1  0.3434711E-013  0.7246160E+02  0.7816164E-02  0.1226708E+00
        -11   -1    0    0    0    0  0.00000000000E+00  0.00000000000E+00  0.45593999997E+02  0.45594000000E+02  0.51100000000E-03 0.  1.
         11   -1    0    0    0    0 -0.00000000000E+00 -0.00000000000E+00 -0.45593999997E+02  0.45594000000E+02  0.51100000000E-03 0. -1.
    9900012    2    1    2    0    0 -0.13193919483E+01 -0.59850618882E+01  0.17695090827E+02  0.72461601513E+02  0.70000040668E+02 0.  0.
         12    1    1    2    0    0  0.13193919483E+01  0.59850618882E+01 -0.17695090827E+02  0.18726398487E+02  0.00000000000E+00 0. -1.
         11    1    3    3    0    0  0.19689131631E+02 -0.13897946663E+02  0.12739754476E+01  0.24133748974E+02  0.51100000000E-03 0. -1.
        -11    1    3    3    0    0  0.31695738433E+01  0.30443356418E+01  0.22500958318E+02  0.22926127090E+02  0.51100000000E-03 0.  1.
         12    1    3    3    0    0 -0.24178097423E+02  0.48685491327E+01 -0.60798429387E+01  0.25401725450E+02  0.00000000000E+00 0. -1.
</event>
<event>
 7    1  0.3434711E-013  0.7246157E+02  0.7816164E-02  0.1226708E+00
        -11   -1    0    0    0    0  0.00000000000E+00  0.00000000000E+00  0.45593999997E+02  0.45594000000E+02  0.51100000000E-03 0. -1.
         11   -1    0    0    0    0 -0.00000000000E+00 -0.00000000000E+00 -0.45593999997E+02  0.45594000000E+02  0.51100000000E-03 0.  1.
    9900012    2    1    2    0    0 -0.11612176618E+02 -0.13435343331E+02 -0.59437470139E+01  0.72461568819E+02  0.69999998078E+02 0.  0.
         12    1    1    2    0    0  0.11612176618E+02  0.13435343331E+02  0.59437470139E+01  0.18726431181E+02  0.00000000000E+00 0. -1.
         11    1    3    3    0    0 -0.18118317041E+02 -0.34737208951E+00  0.59099072885E+01  0.19060983296E+02  0.51100000000E-03 0. -1.
        -11    1    3    3    0    0 -0.26824374634E+00 -0.21320892478E+02 -0.27294868708E+02  0.34636141079E+02  0.51100000000E-03 0.  1.
        -12    1    3    3    0    0  0.67743841694E+01  0.82329212367E+01  0.15441214406E+02  0.18764444444E+02  0.00000000000E+00 0.  1.
</event>
<event>
 7    1  0.3434711E-013  0.7246226E+02  0.7816164E-02  0.1226706E+00
        -11   -1    0    0    0    0  0.00000000000E+00  0.00000000000E+00  0.45593999997E+02  0.45594000000E+02  0.51100000000E-03 0.  1.
         11   -1    0    0    0    0 -0.00000000000E+00 -0.00000000000E+00 -0.45593999997E+02  0.45594000000E+02  0.51100000000E-03 0. -1.
    9900012    2    1    2    0    0  0.13142872883E+02 -0.70461761441E+01 -0.11325620039E+02  0.72462259023E+02  0.70000897191E+02 0.  0.
         12    1    1    2    0    0 -0.13142872883E+02  0.70461761441E+01  0.11325620039E+02  0.18725740977E+02  0.00000000000E+00 0. -1.
         11    1    3    3    0    0 -0.43212993584E+00 -0.12075952569E+01  0.36170949141E+01  0.38377595632E+01  0.51100000000E-03 0. -1.
        -11    1    3    3    0    0 -0.14070058235E+01 -0.24686509174E+02  0.15974624079E+02  0.29437934970E+02  0.51100000000E-03 0.  1.
         12    1    3    3    0    0  0.14982008642E+02  0.18847928287E+02 -0.30917339032E+02  0.39186564490E+02  0.00000000000E+00 0. -1.
</event>
<event>
 7    1  0.3434711E-013  0.7246158E+02  0.7816164E-02  0.1226708E+00
        -11   -1    0    0    0    0  0.00000000000E+00  0.00000000000E+00  0.45593999997E+02  0.45594000000E+02  0.51100000000E-03 0.  1.
         11   -1    0    0    0    0 -0.00000000000E+00 -0.00000000000E+00 -0.45593999997E+02  0.45594000000E+02  0.51100000000E-03 0. -1.
    9900012    2    1    2    0    0 -0.12661943908E+00 -0.14527793817E+02  0.11815503485E+02  0.72461576201E+02  0.70000007695E+02 0.  0.
         12    1    1    2    0    0  0.12661943908E+00  0.14527793817E+02 -0.11815503485E+02  0.18726423799E+02  0.00000000000E+00 0. -1.
         11    1    3    3    0    0 -0.22031907289E+02  0.74490778668E+01 -0.76566110157E+01  0.24485044259E+02  0.51100000000E-03 0. -1.
        -11    1    3    3    0    0 -0.36129106321E+00 -0.34980452526E+01 -0.75855530852E+01  0.83610685735E+01  0.51100000000E-03 0.  1.
        -12    1    3    3    0    0  0.22266578913E+02 -0.18478826432E+02  0.27057667586E+02  0.39615463369E+02  0.00000000000E+00 0.  1.
</event>
<event>
 7    1  0.3434711E-013  0.7246159E+02  0.7816164E-02  0.1226708E+00
        -11   -1    0    0    0    0  0.00000000000E+00  0.00000000000E+00  0.45593999997E+02  0.45594000000E+02  0.51100000000E-03 0. -1.
         11   -1    0    0    0    0 -0.00000000000E+00 -0.00000000000E+00 -0.45593999997E+02  0.45594000000E+02  0.51100000000E-03 0.  1.
    9900012    2    1    2    0    0 -0.32956042254E+01  0.18399713689E+02 -0.11260778348E+01  0.72461587575E+02  0.70000022511E+02 0.  0.
         12    1    1    2    0    0  0.32956042254E+01 -0.18399713689E+02  0.11260778348E+01  0.18726412425E+02  0.00000000000E+00 0. -1.
         11    1    3    3    0    0  0.53473178930E+01  0.41917149461E+01 -0.11245312264E+02  0.13138543718E+02  0.51100000000E-03 0. -1.
        -11    1    3    3    0    0  0.19894871404E+02  0.20567597758E+02  0.92469495963E+01  0.30072214132E+02  0.51100000000E-03 0.  1.
         12    1    3    3    0    0 -0.28537793522E+02 -0.63595990152E+01  0.87228483328E+00  0.29250829725E+02  0.00000000000E+00 0. -1.
</event>
<event>
 7    1  0.3434711E-013  0.7246129E+02  0.7816164E-02  0.1226709E+00
        -11   -1    0    0    0    0  0.00000000000E+00  0.00000000000E+00  0.45593999997E+02  0.45594000000E+02  0.51100000000E-03 0.  1.
         11   -1    0    0    0    0 -0.00000000000E+00 -0.00000000000E+00 -0.45593999997E+02  0.45594000000E+02  0.51100000000E-03 0. -1.
    9900012    2    1    2    0    0  0.98624779638E+01  0.13880397702E+02 -0.77946079156E+01  0.72461285806E+02  0.69999629400E+02 0.  0.
         12    1    1    2    0    0 -0.98624779638E+01 -0.13880397702E+02  0.77946079156E+01  0.18726714194E+02  0.00000000000E+00 0. -1.
         11    1    3    3    0    0  0.10187483189E+02 -0.34573369162E+01  0.14068454078E+02  0.17710431748E+02  0.51100000000E-03 0. -1.
        -11    1    3    3    0    0  0.79917794329E+01  0.97837829399E+01  0.12997029144E+02  0.18124947281E+02  0.51100000000E-03 0.  1.
         12    1    3    3    0    0 -0.83167846586E+01  0.75539516782E+01 -0.34860091138E+02  0.36625906776E+02  0.00000000000E+00 0. -1.
</event>
<event>
 7    1  0.4019954E-013  0.7246151E+02  0.7816164E-02  0.1226708E+00
        -11   -1    0    0    0    0  0.00000000000E+00  0.00000000000E+00  0.45593999997E+02  0.45594000000E+02  0.51100000000E-03 0. -1.
         11   -1    0    0    0    0 -0.00000000000E+00 -0.00000000000E+00 -0.45593999997E+02  0.45594000000E+02  0.51100000000E-03 0.  1.
    9900012    2    1    2    0    0  0.74756755578E+01 -0.10669946185E+02 -0.13451687625E+02  0.72461511365E+02  0.69999923233E+02 0.  0.
         12    1    1    2    0    0 -0.74756755578E+01  0.10669946185E+02  0.13451687625E+02  0.18726488635E+02  0.00000000000E+00 0. -1.
         11    1    3    3    0    0 -0.33129124838E+01  0.52606292755E+01 -0.17080106251E+01  0.64472404993E+01  0.51100000000E-03 0. -1.
        -11    1    3    3    0    0  0.52560967798E+01  0.16008911385E+02 -0.25692895141E+02  0.30725179545E+02  0.51100000000E-03 0.  1.
         12    1    3    3    0    0  0.55324912617E+01 -0.31939486845E+02  0.13949218141E+02  0.35289091321E+02  0.00000000000E+00 0. -1.
</event>
<event>
 7    1  0.3434711E-013  0.7246156E+02  0.7816164E-02  0.1226708E+00
        -11   -1    0    0    0    0  0.00000000000E+00  0.00000000000E+00  0.45593999997E+02  0.45594000000E+02  0.51100000000E-03 0.  1.
         11   -1    0    0    0    0 -0.00000000000E+00 -0.00000000000E+00 -0.45593999997E+02  0.45594000000E+02  0.51100000000E-03 0. -1.
    9900012    2    1    2    0    0 -0.90596084568E+01 -0.57045814610E+00  0.16379179278E+02  0.72461563027E+02  0.69999990533E+02 0.  0.
         12    1    1    2    0    0  0.90596084568E+01  0.57045814610E+00 -0.16379179278E+02  0.18726436973E+02  0.00000000000E+00 0. -1.
         11    1    3    3    0    0  0.50776690852E+01 -0.31064078450E+01  0.17605683025E+02  0.18584740194E+02  0.51100000000E-03 0. -1.
        -11    1    3    3    0    0 -0.91848703995E+01 -0.10852812523E+02  0.22247708588E+02  0.26402763521E+02  0.51100000000E-03 0.  1.
         12    1    3    3    0    0 -0.49524071424E+01  0.13388762221E+02 -0.23474212334E+02  0.27474059311E+02  0.00000000000E+00 0. -1.
</event>
<event>
 7    1  0.3434711E-013  0.7246155E+02  0.7816164E-02  0.1226708E+00
        -11   -1    0    0    0    0  0.00000000000E+00  0.00000000000E+00  0.45593999997E+02  0.45594000000E+02  0.51100000000E-03 0. -1.
         11   -1    0    0    0    0 -0.00000000000E+00 -0.00000000000E+00 -0.45593999997E+02  0.45594000000E+02  0.51100000000E-03 0.  1.
    9900012    2    1    2    0    0  0.33323758699E+01  0.70274410927E+01 -0.17034973235E+02  0.72461548911E+02  0.69999972145E+02 0.  0.
         12    1    1    2    0    0 -0.33323758699E+01 -0.70274410927E+01  0.17034973235E+02  0.18726451089E+02  0.00000000000E+00 0. -1.
         11    1    3    3    0    0 -0.14206656499E+02  0.33297222091E+02 -0.72909030319E+01  0.36928191874E+02  0.51100000000E-03 0. -1.
        -11    1    3    3    0    0 -0.87719688552E+00 -0.14954567128E+01 -0.36883427917E+01  0.40755046272E+01  0.51100000000E-03 0.  1.
        -12    1    3    3    0    0  0.18416229255E+02 -0.24774324285E+02 -0.60557274118E+01  0.31457852410E+02  0.00000000000E+00 0.  1.
</event>
<event>
 7    1  0.3434711E-013  0.7246159E+02  0.7816164E-02  0.1226708E+00
        -11   -1    0    0    0    0  0.00000000000E+00  0.00000000000E+00  0.45593999997E+02  0.45594000000E+02  0.51100000000E-03 0.  1.
         11   -1    0    0    0    0 -0.00000000000E+00 -0.00000000000E+00 -0.45593999997E+02  0.45594000000E+02  0.51100000000E-03 0. -1.
    9900012    2    1    2    0    0  0.16537218679E+02 -0.82058287967E+01  0.31405500823E+01  0.72461593972E+02  0.70000030845E+02 0.  0.
         12    1    1    2    0    0 -0.16537218679E+02  0.82058287967E+01 -0.31405500823E+01  0.18726406028E+02  0.00000000000E+00 0. -1.
         11    1    3    3    0    0  0.16855369367E+02 -0.57914334955E+01 -0.14524915539E+02  0.22991680020E+02  0.51100000000E-03 0. -1.
        -11    1    3    3    0    0 -0.93988961031E+01 -0.20009847951E+02 -0.11745633687E+01  0.22138492775E+02  0.51100000000E-03 0.  1.
        -12    1    3    3    0    0  0.90807454151E+01  0.17595452650E+02  0.18840028991E+02  0.27331421178E+02  0.00000000000E+00 0.  1.
</event>
<event>
 7    1  0.3434711E-013  0.7246160E+02  0.7816164E-02  0.1226708E+00
        -11   -1    0    0    0    0  0.00000000000E+00  0.00000000000E+00  0.45593999997E+02  0.45594000000E+02  0.51100000000E-03 0.  1.
         11   -1    0    0    0    0 -0.00000000000E+00 -0.00000000000E+00 -0.45593999997E+02  0.45594000000E+02  0.51100000000E-03 0. -1.
    9900012    2    1    2    0    0  0.18019048668E+02 -0.49499626968E+01  0.12206488002E+01  0.72461595404E+02  0.70000032710E+02 0.  0.
         12    1    1    2    0    0 -0.18019048668E+02  0.49499626968E+01 -0.12206488002E+01  0.18726404596E+02  0.00000000000E+00 0. -1.
         11    1    3    3    0    0 -0.11136511763E+02 -0.84877813791E+01 -0.19550151919E+02  0.24047302703E+02  0.51100000000E-03 0. -1.
        -11    1    3    3    0    0  0.50989159141E+01 -0.13246463428E+02  0.90047538133E+01  0.16809322662E+02  0.51100000000E-03 0.  1.
        -12    1    3    3    0    0  0.24056644516E+02  0.16784282111E+02  0.11766046906E+02  0.31604970039E+02  0.00000000000E+00 0.  1.
</event>
<event>
 7    1  0.3434711E-013  0.7246155E+02  0.7816164E-02  0.1226708E+00
        -11   -1    0    0    0    0  0.00000000000E+00  0.00000000000E+00  0.45593999997E+02  0.45594000000E+02  0.51100000000E-03 0. -1.
         11   -1    0    0    0    0 -0.00000000000E+00 -0.00000000000E+00 -0.45593999997E+02  0.45594000000E+02  0.51100000000E-03 0.  1.
    9900012    2    1    2    0    0  0.84819248125E+01 -0.13788347735E+02 -0.94137348821E+01  0.72461548488E+02  0.69999971593E+02 0.  0.
         12    1    1    2    0    0 -0.84819248125E+01  0.13788347735E+02  0.94137348821E+01  0.18726451512E+02  0.00000000000E+00 0. -1.
         11    1    3    3    0    0 -0.18428511962E+02  0.87252243398E+01  0.74928721785E+01  0.21722861843E+02  0.51100000000E-03 0. -1.
        -11    1    3    3    0    0 -0.17000177652E+01 -0.48786875977E+01  0.75676443690E+01  0.91630177690E+01  0.51100000000E-03 0.  1.
        -12    1    3    3    0    0  0.28610454539E+02 -0.17634884477E+02 -0.24474251430E+02  0.41575668876E+02  0.00000000000E+00 0.  1.
</event>
<event>
 7    1  0.3434711E-013  0.7246156E+02  0.7816164E-02  0.1226708E+00
        -11   -1    0    0    0    0  0.00000000000E+00  0.00000000000E+00  0.45593999997E+02  0.45594000000E+02  0.51100000000E-03 0. -1.
         11   -1    0    0    0    0 -0.00000000000E+00 -0.00000000000E+00 -0.45593999997E+02  0.45594000000E+02  0.51100000000E-03 0.  1.
    9900012    2    1    2    0    0  0.94136020697E+01 -0.13061583147E+02 -0.95634076175E+01  0.72461558173E+02  0.69999984210E+02 0.  0.
         12    1    1    2    0    0 -0.94136020697E+01  0.13061583147E+02  0.95634076175E+01  0.18726441827E+02  0.00000000000E+00 0. -1.
         11    1    3    3    0    0 -0.15564588108E+02 -0.93642098287E+01  0.23706737595E+02  0.29865602896E+02  0.51100000000E-03 0. -1.
        -11    1    3    3    0    0  0.33864352789E+01 -0.31881493801E+01 -0.35207655918E+01  0.58333550365E+01  0.51100000000E-03 0.  1.
        -12    1    3    3    0    0  0.21591754899E+02 -0.50922393847E+00 -0.29749379621E+02  0.36762600241E+02  0.00000000000E+00 0.  1.
</event>
<event>
 7    1  0.3434711E-013  0.7246163E+02  0.7816164E-02  0.1226708E+00
        -11   -1    0    0    0    0  0.00000000000E+00  0.00000000000E+00  0.45593999997E+02  0.45594000000E+02  0.51100000000E-03 0. -1.
         11   -1    0    0    0    0 -0.00000000000E+00 -0.00000000000E+00 -0.45593999997E+02  0.45594000000E+02  0.51100000000E-03 0.  1.
    9900012    2    1    2    0    0 -0.42362369489E+01 -0.12202207496E+02 -0.13558664834E+02  0.72461629200E+02  0.70000076736E+02 0.  0.
         12    1    1    2    0    0  0.42362369489E+01  0.12202207496E+02  0.13558664834E+02  0.18726370800E+02  0.00000000000E+00 0. -1.
         11    1    3    3    0    0  0.96103796270E+01  0.40216657340E+01  0.18299567513E+01  0.10577425671E+02  0.51100000000E-03 0. -1.
        -11    1    3    3    0    0  0.13346423556E+02  0.69299923086E+01 -0.20898331775E+02  0.25746690785E+02  0.51100000000E-03 0.  1.
        -12    1    3    3    0    0 -0.27193040132E+02 -0.23153865538E+02  0.55097101894E+01  0.36137512744E+02  0.00000000000E+00 0.  1.
</event>
<event>
 7    1  0.3434711E-013  0.7246157E+02  0.7816164E-02  0.1226708E+00
        -11   -1    0    0    0    0  0.00000000000E+00  0.00000000000E+00  0.45593999997E+02  0.45594000000E+02  0.51100000000E-03 0.  1.
         11   -1    0    0    0    0 -0.00000000000E+00 -0.00000000000E+00 -0.45593999997E+02  0.45594000000E+02  0.51100000000E-03 0. -1.
    9900012    2    1    2    0    0 -0.16088930756E+02  0.77734186031E+01  0.56035341444E+01  0.72461566154E+02  0.69999994607E+02 0.  0.
         12    1    1    2    0    0  0.16088930756E+02 -0.77734186031E+01 -0.56035341444E+01  0.18726433846E+02  0.00000000000E+00 0. -1.
         11    1    3    3    0    0 -0.23245306045E+02 -0.13699447682E+02 -0.15675496607E+01  0.27027325656E+02  0.51100000000E-03 0. -1.
        -11    1    3    3    0    0 -0.55659953444E+01  0.28877350378E+02  0.86901060633E+00  0.29421707101E+02  0.51100000000E-03 0.  1.
         12    1    3    3    0    0  0.12722370633E+02 -0.74044840929E+01  0.63020731988E+01  0.16012533397E+02  0.00000000000E+00 0. -1.
</event>
<event>
 7    1  0.3434711E-013  0.7246155E+02  0.7816164E-02  0.1226708E+00
        -11   -1    0    0    0    0  0.00000000000E+00  0.00000000000E+00  0.45593999997E+02  0.45594000000E+02  0.51100000000E-03 0. -1.
         11   -1    0    0    0    0 -0.00000000000E+00 -0.00000000000E+00 -0.45593999997E+02  0.45594000000E+02  0.51100000000E-03 0.  1.
    9900012    2    1    2    0    0  0.57857385576E+01 -0.14288129499E+02 -0.10632703910E+02  0.72461553256E+02  0.69999977804E+02 0.  0.
         12    1    1    2    0    0 -0.57857385576E+01  0.14288129499E+02  0.10632703910E+02  0.18726446744E+02  0.00000000000E+00 0. -1.
         11    1    3    3    0    0  0.36339369199E+01  0.49171375089E+01  0.24581151547E+01  0.65898459158E+01  0.51100000000E-03 0. -1.
        -11    1    3    3    0    0  0.19269400301E+02  0.12355186932E+02  0.79805263362E+01  0.24241477532E+02  0.51100000000E-03 0.  1.
        -12    1    3    3    0    0 -0.17117598663E+02 -0.31560453940E+02 -0.21071345401E+02  0.41630229808E+02  0.00000000000E+00 0.  1.
</event>
<event>
 7    1  0.3806407E-013  0.7246131E+02  0.7816164E-02  0.1226709E+00
        -11   -1    0    0    0    0  0.00000000000E+00  0.00000000000E+00  0.45593999997E+02  0.45594000000E+02  0.51100000000E-03 0.  1.
         11   -1    0    0    0    0 -0.00000000000E+00 -0.00000000000E+00 -0.45593999997E+02  0.45594000000E+02  0.51100000000E-03 0. -1.
    9900012    2    1    2    0    0  0.94367110283E+01  0.48763305627E+01  0.15422670613E+02  0.72461310927E+02  0.69999662125E+02 0.  0.
         12    1    1    2    0    0 -0.94367110283E+01 -0.48763305627E+01 -0.15422670613E+02  0.18726689073E+02  0.00000000000E+00 0. -1.
         11    1    3    3    0    0  0.15113783885E+02 -0.14016149176E+02  0.14196319429E+02  0.25028271747E+02  0.51100000000E-03 0. -1.
        -11    1    3    3    0    0  0.68636811100E+01  0.27789262634E+02  0.92598271937E+01  0.30084840636E+02  0.51100000000E-03 0.  1.
         12    1    3    3    0    0 -0.12540753967E+02 -0.88967828960E+01 -0.80334760094E+01  0.17348198545E+02  0.00000000000E+00 0. -1.
</event>
<event>
 7    1  0.3434711E-013  0.7246151E+02  0.7816164E-02  0.1226708E+00
        -11   -1    0    0    0    0  0.00000000000E+00  0.00000000000E+00  0.45593999997E+02  0.45594000000E+02  0.51100000000E-03 0.  1.
         11   -1    0    0    0    0 -0.00000000000E+00 -0.00000000000E+00 -0.45593999997E+02  0.45594000000E+02  0.51100000000E-03 0. -1.
    9900012    2    1    2    0    0 -0.15034864770E+01  0.71260951761E+01  0.17252238280E+02  0.72461509946E+02  0.69999921385E+02 0.  0.
         12    1    1    2    0    0  0.15034864770E+01 -0.71260951761E+01 -0.17252238280E+02  0.18726490054E+02  0.00000000000E+00 0. -1.
         11    1    3    3    0    0  0.32346145168E+01  0.24648622768E+02 -0.32720106078E+01  0.25074357202E+02  0.51100000000E-03 0. -1.
        -11    1    3    3    0    0 -0.95459525360E+01 -0.11035590316E+01 -0.90633225955E+01  0.13209347792E+02  0.51100000000E-03 0.  1.
        -12    1    3    3    0    0  0.48078515423E+01 -0.16418968560E+02  0.29587571484E+02  0.34177804952E+02  0.00000000000E+00 0.  1.
</event>
<event>
 7    1  0.3434711E-013  0.7246167E+02  0.7816164E-02  0.1226708E+00
        -11   -1    0    0    0    0  0.00000000000E+00  0.00000000000E+00  0.45593999997E+02  0.45594000000E+02  0.51100000000E-03 0. -1.
         11   -1    0    0    0    0 -0.00000000000E+00 -0.00000000000E+00 -0.45593999997E+02  0.45594000000E+02  0.51100000000E-03 0.  1.
    9900012    2    1    2    0    0 -0.44272032880E+00 -0.66867152745E+01 -0.17486207524E+02  0.72461665174E+02  0.70000123598E+02 0.  0.
         12    1    1    2    0    0  0.44272032880E+00  0.66867152745E+01  0.17486207524E+02  0.18726334826E+02  0.00000000000E+00 0. -1.
         11    1    3    3    0    0 -0.25280497756E+01  0.16113282804E+01 -0.93180079474E+01  0.97883955204E+01  0.51100000000E-03 0. -1.
        -11    1    3    3    0    0 -0.13201028868E+02  0.14781598347E+01 -0.30872509219E+02  0.33608986081E+02  0.51100000000E-03 0.  1.
         12    1    3    3    0    0  0.15286358315E+02 -0.97762033897E+01  0.22704309642E+02  0.29064283572E+02  0.00000000000E+00 0. -1.
</event>
<event>
 7    1  0.3434711E-013  0.7246156E+02  0.7816164E-02  0.1226708E+00
        -11   -1    0    0    0    0  0.00000000000E+00  0.00000000000E+00  0.45593999997E+02  0.45594000000E+02  0.51100000000E-03 0. -1.
         11   -1    0    0    0    0 -0.00000000000E+00 -0.00000000000E+00 -0.45593999997E+02  0.45594000000E+02  0.51100000000E-03 0.  1.
    9900012    2    1    2    0    0  0.12330328445E+02 -0.12500453167E+01 -0.14038511025E+02  0.72461564017E+02  0.69999991822E+02 0.  0.
         12    1    1    2    0    0 -0.12330328445E+02  0.12500453167E+01  0.14038511025E+02  0.18726435983E+02  0.00000000000E+00 0. -1.
         11    1    3    3    0    0  0.50544060876E+01 -0.92953290537E+01  0.45317244990E+00  0.10590350733E+02  0.51100000000E-03 0. -1.
        -11    1    3    3    0    0 -0.21631683299E+02  0.18861100158E+02 -0.11291493277E+02  0.30841022068E+02  0.51100000000E-03 0.  1.
         12    1    3    3    0    0  0.28907605656E+02 -0.10815816421E+02 -0.32001901979E+01  0.31030191216E+02  0.00000000000E+00 0. -1.
</event>
<event>
 7    1  0.3434711E-013  0.7246158E+02  0.7816164E-02  0.1226708E+00
        -11   -1    0    0    0    0  0.00000000000E+00  0.00000000000E+00  0.45593999997E+02  0.45594000000E+02  0.51100000000E-03 0.  1.
         11   -1    0    0    0    0 -0.00000000000E+00 -0.00000000000E+00 -0.45593999997E+02  0.45594000000E+02  0.51100000000E-03 0. -1.
    9900012    2    1    2    0    0 -0.62487523437E+01  0.11440040527E+02  0.13444604539E+02  0.72461579511E+02  0.70000012007E+02 0.  0.
         12    1    1    2    0    0  0.62487523437E+01 -0.11440040527E+02 -0.13444604539E+02  0.18726420489E+02  0.00000000000E+00 0. -1.
         11    1    3    3    0    0  0.27371262879E+01 -0.15728012221E+02  0.29762825579E+01  0.16239473110E+02  0.51100000000E-03 0. -1.
        -11    1    3    3    0    0  0.11606167642E+02 -0.76145710334E+01  0.72831028926E+01  0.15675726693E+02  0.51100000000E-03 0.  1.
         12    1    3    3    0    0 -0.20592046273E+02  0.34782623782E+02  0.31852190884E+01  0.40546379709E+02  0.00000000000E+00 0. -1.
</event>
<event>
 7    1  0.3434711E-013  0.7246152E+02  0.7816164E-02  0.1226708E+00
        -11   -1    0    0    0    0  0.00000000000E+00  0.00000000000E+00  0.45593999997E+02  0.45594000000E+02  0.51100000000E-03 0.  1.
         11   -1    0    0    0    0 -0.00000000000E+00 -0.00000000000E+00 -0.45593999997E+02  0.45594000000E+02  0.51100000000E-03 0. -1.
    9900012    2    1    2    0    0 -0.73548910622E+01  0.15230192211E+02 -0.80391421832E+01  0.72461521837E+02  0.69999936876E+02 0.  0.
         12    1    1    2    0    0  0.73548910622E+01 -0.15230192211E+02  0.80391421832E+01  0.18726478163E+02  0.00000000000E+00 0. -1.
         11    1    3    3    0    0  0.11996943903E+01 -0.60954761818E+01  0.92261455573E+01  0.11122763084E+02  0.51100000000E-03 0. -1.
        -11    1    3    3    0    0 -0.13978429177E+02 -0.15887319606E+02 -0.78632674294E+01  0.22575083199E+02  0.51100000000E-03 0.  1.
         12    1    3    3    0    0  0.54238437247E+01  0.37212987999E+02 -0.94020203111E+01  0.38763675554E+02  0.00000000000E+00 0. -1.
</event>
<event>
 7    1  0.3434711E-013  0.7246157E+02  0.7816164E-02  0.1226708E+00
        -11   -1    0    0    0    0  0.00000000000E+00  0.00000000000E+00  0.45593999997E+02  0.45594000000E+02  0.51100000000E-03 0. -1.
         11   -1    0    0    0    0 -0.00000000000E+00 -0.00000000000E+00 -0.45593999997E+02  0.45594000000E+02  0.51100000000E-03 0.  1.
    9900012    2    1    2    0    0 -0.72322471371E+01  0.15487206612E+02 -0.76498384223E+01  0.72461574950E+02  0.70000006064E+02 0.  0.
         12    1    1    2    0    0  0.72322471371E+01 -0.15487206612E+02  0.76498384223E+01  0.18726425050E+02  0.00000000000E+00 0. -1.
         11    1    3    3    0    0 -0.21747532200E+02  0.16664075347E+02 -0.53905645871E+01  0.27923193779E+02  0.51100000000E-03 0.  1.
        -11    1    3    3    0    0 -0.37808434861E+01 -0.92237442828E+01 -0.16997233260E+02  0.19704775432E+02  0.51100000000E-03 0. -1.
         12    1    3    3    0    0  0.18296128549E+02  0.80468755471E+01  0.14737959425E+02  0.24833605739E+02  0.00000000000E+00 0. -1.
</event>
<event>
 7    1  0.3434711E-013  0.7246151E+02  0.7816164E-02  0.1226708E+00
        -11   -1    0    0    0    0  0.00000000000E+00  0.00000000000E+00  0.45593999997E+02  0.45594000000E+02  0.51100000000E-03 0. -1.
         11   -1    0    0    0    0 -0.00000000000E+00 -0.00000000000E+00 -0.45593999997E+02  0.45594000000E+02  0.51100000000E-03 0.  1.
    9900012    2    1    2    0    0  0.87019363029E+00 -0.18318887311E+02  0.37871335538E+01  0.72461514750E+02  0.69999927643E+02 0.  0.
         12    1    1    2    0    0 -0.87019363029E+00  0.18318887311E+02 -0.37871335538E+01  0.18726485250E+02  0.00000000000E+00 0. -1.
         11    1    3    3    0    0  0.24433331819E+02  0.64478454812E+01  0.15479814984E+02  0.29634221557E+02  0.51100000000E-03 0. -1.
        -11    1    3    3    0    0  0.34547992600E+01  0.12648579172E+01 -0.11921621474E+01  0.38673963236E+01  0.51100000000E-03 0.  1.
        -12    1    3    3    0    0 -0.27017937449E+02 -0.26031590709E+02 -0.10500519283E+02  0.38959896869E+02  0.00000000000E+00 0.  1.
</event>
<event>
 7    1  0.3434711E-013  0.7246159E+02  0.7816164E-02  0.1226708E+00
        -11   -1    0    0    0    0  0.00000000000E+00  0.00000000000E+00  0.45593999997E+02  0.45594000000E+02  0.51100000000E-03 0.  1.
         11   -1    0    0    0    0 -0.00000000000E+00 -0.00000000000E+00 -0.45593999997E+02  0.45594000000E+02  0.51100000000E-03 0. -1.
    9900012    2    1    2    0    0  0.12849327861E+02  0.13516905561E+02  0.16930925713E+01  0.72461587506E+02  0.70000022422E+02 0.  0.
         12    1    1    2    0    0 -0.12849327861E+02 -0.13516905561E+02 -0.16930925713E+01  0.18726412494E+02  0.00000000000E+00 0. -1.
         11    1    3    3    0    0  0.86248997052E+01 -0.25808919666E+01 -0.93158627167E+01  0.12955122411E+02  0.51100000000E-03 0.  1.
        -11    1    3    3    0    0  0.13903866546E+01  0.14908513776E+02 -0.21858779552E+02  0.26495343021E+02  0.51100000000E-03 0. -1.
         12    1    3    3    0    0  0.28340415016E+01  0.11892837513E+01  0.32867734840E+02  0.33011122074E+02  0.00000000000E+00 0. -1.
</event>
<event>
 7    1  0.6652604E-013  0.7246165E+02  0.7816164E-02  0.1226708E+00
        -11   -1    0    0    0    0  0.00000000000E+00  0.00000000000E+00  0.45593999997E+02  0.45594000000E+02  0.51100000000E-03 0. -1.
         11   -1    0    0    0    0 -0.00000000000E+00 -0.00000000000E+00 -0.45593999997E+02  0.45594000000E+02  0.51100000000E-03 0.  1.
    9900012    2    1    2    0    0 -0.60993229393E+01 -0.14804492578E+02 -0.97108972879E+01  0.72461647794E+02  0.70000100957E+02 0.  0.
         12    1    1    2    0    0  0.60993229393E+01  0.14804492578E+02  0.97108972879E+01  0.18726352206E+02  0.00000000000E+00 0. -1.
         11    1    3    3    0    0 -0.71527543454E+01  0.12235604798E+02  0.79103332178E+00  0.14194986913E+02  0.51100000000E-03 0. -1.
        -11    1    3    3    0    0 -0.10097207964E+02 -0.15907310664E+02 -0.28613873273E+02  0.34260033350E+02  0.51100000000E-03 0.  1.
         12    1    3    3    0    0  0.11150639370E+02 -0.11132786712E+02  0.18111942663E+02  0.24006627530E+02  0.00000000000E+00 0. -1.
</event>
<event>
 7    1  0.3434711E-013  0.7246158E+02  0.7816164E-02  0.1226708E+00
        -11   -1    0    0    0    0  0.00000000000E+00  0.00000000000E+00  0.45593999997E+02  0.45594000000E+02  0.51100000000E-03 0. -1.
         11   -1    0    0    0    0 -0.00000000000E+00 -0.00000000000E+00 -0.45593999997E+02  0.45594000000E+02  0.51100000000E-03 0.  1.
    9900012    2    1    2    0    0 -0.15250007956E+02 -0.99112761617E+01 -0.44590136678E+01  0.72461576404E+02  0.70000007959E+02 0.  0.
         12    1    1    2    0    0  0.15250007956E+02  0.99112761617E+01  0.44590136678E+01  0.18726423596E+02  0.00000000000E+00 0. -1.
         11    1    3    3    0    0 -0.86403705539E+01  0.50640839318E+01  0.11302402407E+02  0.15101167167E+02  0.51100000000E-03 0. -1.
        -11    1    3    3    0    0 -0.15105664958E+02  0.11936579189E+02 -0.21181188955E+02  0.28623518343E+02  0.51100000000E-03 0.  1.
        -12    1    3    3    0    0  0.84960275558E+01 -0.26911939283E+02  0.54197728801E+01  0.28736890894E+02  0.00000000000E+00 0.  1.
</event>
<event>
 7    1  0.3434711E-013  0.7246158E+02  0.7816164E-02  0.1226708E+00
        -11   -1    0    0    0    0  0.00000000000E+00  0.00000000000E+00  0.45593999997E+02  0.45594000000E+02  0.51100000000E-03 0.  1.
         11   -1    0    0    0    0 -0.00000000000E+00 -0.00000000000E+00 -0.45593999997E+02  0.45594000000E+02  0.51100000000E-03 0. -1.
    9900012    2    1    2    0    0 -0.17122721177E+02  0.56481902145E+01 -0.50585605438E+01  0.72461583686E+02  0.70000017445E+02 0.  0.
         12    1    1    2    0    0  0.17122721177E+02 -0.56481902145E+01  0.50585605438E+01  0.18726416314E+02  0.00000000000E+00 0. -1.
         11    1    3    3    0    0 -0.23137723265E+02  0.14888837202E+02 -0.75692106271E+01  0.28536374347E+02  0.51100000000E-03 0. -1.
        -11    1    3    3    0    0 -0.14990320384E+02  0.45121446506E+01  0.89137398727E+01  0.18014547270E+02  0.51100000000E-03 0.  1.
         12    1    3    3    0    0  0.21005322472E+02 -0.13752791639E+02 -0.64030897895E+01  0.25910662069E+02  0.00000000000E+00 0. -1.
</event>
<event>
 7    1  0.3434711E-013  0.7246167E+02  0.7816164E-02  0.1226708E+00
        -11   -1    0    0    0    0  0.00000000000E+00  0.00000000000E+00  0.45593999997E+02  0.45594000000E+02  0.51100000000E-03 0.  1.
         11   -1    0    0    0    0 -0.00000000000E+00 -0.00000000000E+00 -0.45593999997E+02  0.45594000000E+02  0.51100000000E-03 0. -1.
    9900012    2    1    2    0    0  0.69099387448E+01 -0.48439939352E+01  0.16717168486E+02  0.72461674869E+02  0.70000136228E+02 0.  0.
         12    1    1    2    0    0 -0.69099387448E+01  0.48439939352E+01 -0.16717168486E+02  0.18726325131E+02  0.00000000000E+00 0. -1.
         11    1    3    3    0    0  0.17450549135E+02  0.12024563718E+02 -0.45594548437E+01  0.21677186774E+02  0.51100000000E-03 0. -1.
        -11    1    3    3    0    0 -0.18821504638E+01  0.53829464856E+01 -0.99543237116E+01  0.11472016564E+02  0.51100000000E-03 0.  1.
        -12    1    3    3    0    0 -0.86584599263E+01 -0.22251504139E+02  0.31230947042E+02  0.39312471531E+02  0.00000000000E+00 0.  1.
</event>
<event>
 7    1  0.3434711E-013  0.7246156E+02  0.7816164E-02  0.1226708E+00
        -11   -1    0    0    0    0  0.00000000000E+00  0.00000000000E+00  0.45593999997E+02  0.45594000000E+02  0.51100000000E-03 0.  1.
         11   -1    0    0    0    0 -0.00000000000E+00 -0.00000000000E+00 -0.45593999997E+02  0.45594000000E+02  0.51100000000E-03 0. -1.
    9900012    2    1    2    0    0 -0.13766549456E+02  0.41339605928E+01  0.12003005837E+02  0.72461557113E+02  0.69999982828E+02 0.  0.
         12    1    1    2    0    0  0.13766549456E+02 -0.41339605928E+01 -0.12003005837E+02  0.18726442887E+02  0.00000000000E+00 0. -1.
         11    1    3    3    0    0  0.14295575520E+02 -0.60624964024E+00 -0.10433672188E+02  0.17708544086E+02  0.51100000000E-03 0. -1.
        -11    1    3    3    0    0 -0.24237891930E+02  0.17773273040E+02  0.18805049071E+01  0.30114796010E+02  0.51100000000E-03 0.  1.
        -12    1    3    3    0    0 -0.38242330454E+01 -0.13033062807E+02  0.20556173117E+02  0.24638217016E+02  0.00000000000E+00 0.  1.
</event>
<event>
 7    1  0.4421672E-013  0.7246156E+02  0.7816164E-02  0.1226708E+00
        -11   -1    0    0    0    0  0.00000000000E+00  0.00000000000E+00  0.45593999997E+02  0.45594000000E+02  0.51100000000E-03 0. -1.
         11   -1    0    0    0    0 -0.00000000000E+00 -0.00000000000E+00 -0.45593999997E+02  0.45594000000E+02  0.51100000000E-03 0.  1.
    9900012    2    1    2    0    0  0.73009731966E+01 -0.80342360138E+01 -0.15258648630E+02  0.72461561044E+02  0.69999987950E+02 0.  0.
         12    1    1    2    0    0 -0.73009731966E+01  0.80342360138E+01  0.15258648630E+02  0.18726438956E+02  0.00000000000E+00 0. -1.
         11    1    3    3    0    0 -0.47381612845E+01  0.64598885802E+01 -0.12416992054E+02  0.14777077680E+02  0.51100000000E-03 0. -1.
        -11    1    3    3    0    0  0.28208299200E+01 -0.12257251972E+02 -0.28055202474E+02  0.30745596327E+02  0.51100000000E-03 0.  1.
         12    1    3    3    0    0  0.92183045610E+01 -0.22368726216E+01  0.25213545898E+02  0.26938887038E+02  0.00000000000E+00 0. -1.
</event>
<event>
 7    1  0.3434711E-013  0.7246160E+02  0.7816164E-02  0.1226708E+00
        -11   -1    0    0    0    0  0.00000000000E+00  0.00000000000E+00  0.45593999997E+02  0.45594000000E+02  0.51100000000E-03 0.  1.
         11   -1    0    0    0    0 -0.00000000000E+00 -0.00000000000E+00 -0.45593999997E+02  0.45594000000E+02  0.51100000000E-03 0. -1.
    9900012    2    1    2    0    0  0.15633893752E+02  0.89086092725E+01 -0.51861494847E+01  0.72461598864E+02  0.70000037218E+02 0.  0.
         12    1    1    2    0    0 -0.15633893752E+02 -0.89086092725E+01  0.51861494847E+01  0.18726401136E+02  0.00000000000E+00 0. -1.
         11    1    3    3    0    0 -0.12974695653E+02  0.17858553919E+02 -0.93207851149E+01  0.23961379568E+02  0.51100000000E-03 0. -1.
        -11    1    3    3    0    0 -0.13621267999E+01  0.87333252311E+01  0.98511270174E+01  0.13235220542E+02  0.51100000000E-03 0.  1.
         12    1    3    3    0    0  0.29970716205E+02 -0.17683269877E+02 -0.57164913872E+01  0.35264998755E+02  0.00000000000E+00 0. -1.
</event>
<event>
 7    1  0.3434711E-013  0.7246158E+02  0.7816164E-02  0.1226708E+00
        -11   -1    0    0    0    0  0.00000000000E+00  0.00000000000E+00  0.45593999997E+02  0.45594000000E+02  0.51100000000E-03 0. -1.
         11   -1    0    0    0    0 -0.00000000000E+00 -0.00000000000E+00 -0.45593999997E+02  0.45594000000E+02  0.51100000000E-03 0.  1.
    9900012    2    1    2    0    0 -0.16840176917E+01 -0.10273754418E+02 -0.15565762793E+02  0.72461577043E+02  0.70000008791E+02 0.  0.
         12    1    1    2    0    0  0.16840176917E+01  0.10273754418E+02  0.15565762793E+02  0.18726422957E+02  0.00000000000E+00 0. -1.
         11    1    3    3    0    0  0.27900966230E+01  0.26879519852E+02 -0.66623453419E+01  0.27833075151E+02  0.51100000000E-03 0. -1.
        -11    1    3    3    0    0  0.17820109275E+01 -0.19514057938E+02  0.62278945628E+01  0.20561145180E+02  0.51100000000E-03 0.  1.
        -12    1    3    3    0    0 -0.62561252423E+01 -0.17639216332E+02 -0.15131312014E+02  0.24067356712E+02  0.00000000000E+00 0.  1.
</event>
<event>
 7    1  0.3434711E-013  0.7246157E+02  0.7816164E-02  0.1226708E+00
        -11   -1    0    0    0    0  0.00000000000E+00  0.00000000000E+00  0.45593999997E+02  0.45594000000E+02  0.51100000000E-03 0. -1.
         11   -1    0    0    0    0 -0.00000000000E+00 -0.00000000000E+00 -0.45593999997E+02  0.45594000000E+02  0.51100000000E-03 0.  1.
    9900012    2    1    2    0    0  0.19175210345E+01  0.16318842773E+02 -0.89831958601E+01  0.72461566164E+02  0.69999994619E+02 0.  0.
         12    1    1    2    0    0 -0.19175210345E+01 -0.16318842773E+02  0.89831958601E+01  0.18726433836E+02  0.00000000000E+00 0. -1.
         11    1    3    3    0    0  0.21058541951E+02  0.15269821173E+02  0.10272643169E+02  0.27967066805E+02  0.51100000000E-03 0. -1.
        -11    1    3    3    0    0  0.38742231875E+01 -0.70246927675E+01  0.55120617218E+01  0.97333826839E+01  0.51100000000E-03 0.  1.
        -12    1    3    3    0    0 -0.23015244104E+02  0.80737143674E+01 -0.24767900751E+02  0.34761116674E+02  0.00000000000E+00 0.  1.
</event>
<event>
 7    1  0.3434711E-013  0.7246158E+02  0.7816164E-02  0.1226708E+00
        -11   -1    0    0    0    0  0.00000000000E+00  0.00000000000E+00  0.45593999997E+02  0.45594000000E+02  0.51100000000E-03 0. -1.
         11   -1    0    0    0    0 -0.00000000000E+00 -0.00000000000E+00 -0.45593999997E+02  0.45594000000E+02  0.51100000000E-03 0.  1.
    9900012    2    1    2    0    0  0.14348142489E+02 -0.10965044694E+02 -0.49575524209E+01  0.72461582189E+02  0.70000015495E+02 0.  0.
         12    1    1    2    0    0 -0.14348142489E+02  0.10965044694E+02  0.49575524209E+01  0.18726417811E+02  0.00000000000E+00 0. -1.
         11    1    3    3    0    0  0.19777179690E+02  0.22905501237E+02  0.23633536955E+01  0.30354312122E+02  0.51100000000E-03 0.  1.
        -11    1    3    3    0    0  0.75020172312E+01 -0.13110139022E+02  0.32694929514E+01  0.15454630119E+02  0.51100000000E-03 0. -1.
        -12    1    3    3    0    0 -0.12931054432E+02 -0.20760406910E+02 -0.10590399068E+02  0.26652639948E+02  0.00000000000E+00 0.  1.
</event>
<event>
 7    1  0.3434711E-013  0.7246166E+02  0.7816164E-02  0.1226708E+00
        -11   -1    0    0    0    0  0.00000000000E+00  0.00000000000E+00  0.45593999997E+02  0.45594000000E+02  0.51100000000E-03 0. -1.
         11   -1    0    0    0    0 -0.00000000000E+00 -0.00000000000E+00 -0.45593999997E+02  0.45594000000E+02  0.51100000000E-03 0.  1.
    9900012    2    1    2    0    0 -0.17846663737E+01  0.18339965527E+02 -0.33371484884E+01  0.72461656800E+02  0.70000112690E+02 0.  0.
         12    1    1    2    0    0  0.17846663737E+01 -0.18339965527E+02  0.33371484884E+01  0.18726343200E+02  0.00000000000E+00 0. -1.
         11    1    3    3    0    0  0.62156479884E+01  0.19858245665E+01  0.13364187491E+02  0.14872097589E+02  0.51100000000E-03 0. -1.
        -11    1    3    3    0    0  0.47468170978E+01  0.78970106724E+01  0.17692090274E+02  0.19947558964E+02  0.51100000000E-03 0.  1.
        -12    1    3    3    0    0 -0.12747131460E+02  0.84571302884E+01 -0.34393426253E+02  0.37642000247E+02  0.00000000000E+00 0.  1.
</event>
<event>
 7    1  0.3434711E-013  0.7246164E+02  0.7816164E-02  0.1226708E+00
        -11   -1    0    0    0    0  0.00000000000E+00  0.00000000000E+00  0.45593999997E+02  0.45594000000E+02  0.51100000000E-03 0.  1.
         11   -1    0    0    0    0 -0.00000000000E+00 -0.00000000000E+00 -0.45593999997E+02  0.45594000000E+02  0.51100000000E-03 0. -1.
    9900012    2    1    2    0    0  0.82741171674E+01 -0.16638910532E+02  0.23156419436E+01  0.72461640071E+02  0.70000090897E+02 0.  0.
         12    1    1    2    0    0 -0.82741171674E+01  0.16638910532E+02 -0.23156419436E+01  0.18726359929E+02  0.00000000000E+00 0. -1.
         11    1    3    3    0    0  0.68808745222E+01 -0.22263318325E+02 -0.31239583005E+01  0.23510867546E+02  0.51100000000E-03 0. -1.
        -11    1    3    3    0    0 -0.13471639573E+02  0.78049588797E+01  0.21767553210E+02  0.26762451848E+02  0.51100000000E-03 0.  1.
         12    1    3    3    0    0  0.14864882218E+02 -0.21805510860E+01 -0.16327952966E+02  0.22188320677E+02  0.00000000000E+00 0. -1.
</event>
<event>
 7    1  0.3434711E-013  0.7246155E+02  0.7816164E-02  0.1226708E+00
        -11   -1    0    0    0    0  0.00000000000E+00  0.00000000000E+00  0.45593999997E+02  0.45594000000E+02  0.51100000000E-03 0. -1.
         11   -1    0    0    0    0 -0.00000000000E+00 -0.00000000000E+00 -0.45593999997E+02  0.45594000000E+02  0.51100000000E-03 0.  1.
    9900012    2    1    2    0    0 -0.67128934577E+01  0.12114763581E+02 -0.12603552116E+02  0.72461549158E+02  0.69999972466E+02 0.  0.
         12    1    1    2    0    0  0.67128934577E+01 -0.12114763581E+02  0.12603552116E+02  0.18726450842E+02  0.00000000000E+00 0. -1.
         11    1    3    3    0    0 -0.85417869976E+01  0.22273844038E+02 -0.23361716210E+02  0.33389459982E+02  0.51100000000E-03 0. -1.
        -11    1    3    3    0    0 -0.71294907384E+01  0.85108633425E+01 -0.58293335675E+01  0.12539759293E+02  0.51100000000E-03 0.  1.
         12    1    3    3    0    0  0.89583842783E+01 -0.18669943799E+02  0.16587497661E+02  0.26532329883E+02  0.00000000000E+00 0. -1.
</event>
<event>
 7    1  0.3434711E-013  0.7246157E+02  0.7816164E-02  0.1226708E+00
        -11   -1    0    0    0    0  0.00000000000E+00  0.00000000000E+00  0.45593999997E+02  0.45594000000E+02  0.51100000000E-03 0. -1.
         11   -1    0    0    0    0 -0.00000000000E+00 -0.00000000000E+00 -0.45593999997E+02  0.45594000000E+02  0.51100000000E-03 0.  1.
    9900012    2    1    2    0    0  0.73282440773E+01  0.12531569859E+02 -0.11829446974E+02  0.72461568944E+02  0.69999998240E+02 0.  0.
         12    1    1    2    0    0 -0.73282440773E+01 -0.12531569859E+02  0.11829446974E+02  0.18726431056E+02  0.00000000000E+00 0. -1.
         11    1    3    3    0    0  0.14655443558E+00  0.23718573198E+01  0.90716057062E+01  0.93776977824E+01  0.51100000000E-03 0. -1.
        -11    1    3    3    0    0  0.12348385012E+02 -0.15530923834E+02  0.10285643564E+02  0.22349198449E+02  0.51100000000E-03 0.  1.
        -12    1    3    3    0    0 -0.51666953707E+01  0.25690636373E+02 -0.31186696245E+02  0.40734672712E+02  0.00000000000E+00 0.  1.
</event>
<event>
 7    1  0.3434711E-013  0.7246154E+02  0.7816164E-02  0.1226708E+00
        -11   -1    0    0    0    0  0.00000000000E+00  0.00000000000E+00  0.45593999997E+02  0.45594000000E+02  0.51100000000E-03 0. -1.
         11   -1    0    0    0    0 -0.00000000000E+00 -0.00000000000E+00 -0.45593999997E+02  0.45594000000E+02  0.51100000000E-03 0.  1.
    9900012    2    1    2    0    0  0.60861124749E+01  0.39875696620E+01 -0.17255107366E+02  0.72461542591E+02  0.69999963911E+02 0.  0.
         12    1    1    2    0    0 -0.60861124749E+01 -0.39875696620E+01  0.17255107366E+02  0.18726457409E+02  0.00000000000E+00 0. -1.
         11    1    3    3    0    0 -0.14389911003E+02 -0.18830030572E+02 -0.16705219359E+02  0.28994895139E+02  0.51100000000E-03 0. -1.
        -11    1    3    3    0    0 -0.17649015559E+01  0.11062525861E+02 -0.11478490201E+02  0.16039017846E+02  0.51100000000E-03 0.  1.
         12    1    3    3    0    0  0.22240925034E+02  0.11755074373E+02  0.10928602194E+02  0.27427629606E+02  0.00000000000E+00 0. -1.
</event>
<event>
 7    1  0.3434711E-013  0.7246155E+02  0.7816164E-02  0.1226708E+00
        -11   -1    0    0    0    0  0.00000000000E+00  0.00000000000E+00  0.45593999997E+02  0.45594000000E+02  0.51100000000E-03 0.  1.
         11   -1    0    0    0    0 -0.00000000000E+00 -0.00000000000E+00 -0.45593999997E+02  0.45594000000E+02  0.51100000000E-03 0. -1.
    9900012    2    1    2    0    0 -0.14326416857E+02 -0.11467441369E+02  0.37325050494E+01  0.72461547441E+02  0.69999970229E+02 0.  0.
         12    1    1    2    0    0  0.14326416857E+02  0.11467441369E+02 -0.37325050494E+01  0.18726452559E+02  0.00000000000E+00 0. -1.
         11    1    3    3    0    0 -0.18312704331E+02  0.83985727171E+01 -0.50520637804E+00  0.20153074142E+02  0.51100000000E-03 0. -1.
        -11    1    3    3    0    0 -0.18907853546E+02  0.22486205018E+01 -0.39389887719E+01  0.19444249862E+02  0.51100000000E-03 0.  1.
         12    1    3    3    0    0  0.22894141020E+02 -0.22114634588E+02  0.81767001993E+01  0.32864223437E+02  0.00000000000E+00 0. -1.
</event>
<event>
 7    1  0.3434711E-013  0.7246130E+02  0.7816164E-02  0.1226709E+00
        -11   -1    0    0    0    0  0.00000000000E+00  0.00000000000E+00  0.45593999997E+02  0.45594000000E+02  0.51100000000E-03 0.  1.
         11   -1    0    0    0    0 -0.00000000000E+00 -0.00000000000E+00 -0.45593999997E+02  0.45594000000E+02  0.51100000000E-03 0. -1.
    9900012    2    1    2    0    0  0.14251475281E+02  0.87784036399E+01  0.83978837087E+01  0.72461297969E+02  0.69999645245E+02 0.  0.
         12    1    1    2    0    0 -0.14251475281E+02 -0.87784036399E+01 -0.83978837087E+01  0.18726702031E+02  0.00000000000E+00 0. -1.
         11    1    3    3    0    0  0.25565677318E+02 -0.39462235135E+01 -0.23242594661E+00  0.25869490889E+02  0.51100000000E-03 0. -1.
        -11    1    3    3    0    0 -0.15269432596E+02  0.23023301287E+02 -0.59976611963E+01  0.28270124054E+02  0.51100000000E-03 0.  1.
         12    1    3    3    0    0  0.39552305594E+01 -0.10298674133E+02  0.14627970852E+02  0.18321683026E+02  0.00000000000E+00 0. -1.
</event>
<event>
 7    1  0.3434711E-013  0.7246159E+02  0.7816164E-02  0.1226708E+00
        -11   -1    0    0    0    0  0.00000000000E+00  0.00000000000E+00  0.45593999997E+02  0.45594000000E+02  0.51100000000E-03 0.  1.
         11   -1    0    0    0    0 -0.00000000000E+00 -0.00000000000E+00 -0.45593999997E+02  0.45594000000E+02  0.51100000000E-03 0. -1.
    9900012    2    1    2    0    0  0.64303689913E+01  0.16498636738E+02 -0.60929373268E+01  0.72461586974E+02  0.70000021728E+02 0.  0.
         12    1    1    2    0    0 -0.64303689913E+01 -0.16498636738E+02  0.60929373268E+01  0.18726413026E+02  0.00000000000E+00 0. -1.
         11    1    3    3    0    0  0.91999654908E+01 -0.22783724547E+01 -0.13022388283E+02  0.16106301342E+02  0.51100000000E-03 0. -1.
        -11    1    3    3    0    0  0.12218697405E+02 -0.11289494475E+02 -0.92852731578E+01  0.19051654775E+02  0.51100000000E-03 0.  1.
        -12    1    3    3    0    0 -0.14988293905E+02  0.30066503668E+02  0.16214724114E+02  0.37303630856E+02  0.00000000000E+00 0.  1.
</event>
<event>
 7    1  0.3434711E-013  0.7246157E+02  0.7816164E-02  0.1226708E+00
        -11   -1    0    0    0    0  0.00000000000E+00  0.00000000000E+00  0.45593999997E+02  0.45594000000E+02  0.51100000000E-03 0.  1.
         11   -1    0    0    0    0 -0.00000000000E+00 -0.00000000000E+00 -0.45593999997E+02  0.45594000000E+02  0.51100000000E-03 0. -1.
    9900012    2    1    2    0    0  0.13318248472E+02 -0.11604940870E+02  0.62151948851E+01  0.72461573688E+02  0.70000004420E+02 0.  0.
         12    1    1    2    0    0 -0.13318248472E+02  0.11604940870E+02 -0.62151948851E+01  0.18726426312E+02  0.00000000000E+00 0. -1.
         11    1    3    3    0    0 -0.88003379064E+01 -0.45523001128E+01 -0.18354358870E+01  0.10076616929E+02  0.51100000000E-03 0. -1.
        -11    1    3    3    0    0  0.10458516172E+02 -0.21669888257E+02  0.26723364339E+02  0.35959738868E+02  0.51100000000E-03 0.  1.
         12    1    3    3    0    0  0.11660070207E+02  0.14617247499E+02 -0.18672733567E+02  0.26425217890E+02  0.00000000000E+00 0. -1.
</event>
<event>
 7    1  0.3434711E-013  0.7246167E+02  0.7816164E-02  0.1226708E+00
        -11   -1    0    0    0    0  0.00000000000E+00  0.00000000000E+00  0.45593999997E+02  0.45594000000E+02  0.51100000000E-03 0. -1.
         11   -1    0    0    0    0 -0.00000000000E+00 -0.00000000000E+00 -0.45593999997E+02  0.45594000000E+02  0.51100000000E-03 0.  1.
    9900012    2    1    2    0    0  0.17363942003E+02 -0.28821474200E+01 -0.63923624535E+01  0.72461666846E+02  0.70000125777E+02 0.  0.
         12    1    1    2    0    0 -0.17363942003E+02  0.28821474200E+01  0.63923624535E+01  0.18726333154E+02  0.00000000000E+00 0. -1.
         11    1    3    3    0    0 -0.17198444686E+02  0.88463426078E+01 -0.14849381082E+02  0.24383363097E+02  0.51100000000E-03 0. -1.
        -11    1    3    3    0    0  0.85225858827E+01 -0.11401084441E+02 -0.88948885688E+01  0.16785060008E+02  0.51100000000E-03 0.  1.
        -12    1    3    3    0    0  0.26039800806E+02 -0.32740558647E+00  0.17351907197E+02  0.31293243741E+02  0.00000000000E+00 0.  1.
</event>
<event>
 7    1  0.3434711E-013  0.7246160E+02  0.7816164E-02  0.1226708E+00
        -11   -1    0    0    0    0  0.00000000000E+00  0.00000000000E+00  0.45593999997E+02  0.45594000000E+02  0.51100000000E-03 0.  1.
         11   -1    0    0    0    0 -0.00000000000E+00 -0.00000000000E+00 -0.45593999997E+02  0.45594000000E+02  0.51100000000E-03 0. -1.
    9900012    2    1    2    0    0  0.24038389089E+01  0.18380523256E+02 -0.26563419049E+01  0.72461595407E+02  0.70000032714E+02 0.  0.
         12    1    1    2    0    0 -0.24038389089E+01 -0.18380523256E+02  0.26563419049E+01  0.18726404593E+02  0.00000000000E+00 0. -1.
         11    1    3    3    0    0 -0.35444321602E+01 -0.21724247949E+02 -0.64471846637E+01  0.22936262525E+02  0.51100000000E-03 0. -1.
        -11    1    3    3    0    0 -0.53422284515E+01  0.61750079018E+00 -0.52025757365E+01  0.74824799771E+01  0.51100000000E-03 0.  1.
        -12    1    3    3    0    0  0.11290499521E+02  0.39487270414E+02  0.89934184952E+01  0.42042852905E+02  0.00000000000E+00 0.  1.
</event>
<event>
 7    1  0.3434711E-013  0.7246165E+02  0.7816164E-02  0.1226708E+00
        -11   -1    0    0    0    0  0.00000000000E+00  0.00000000000E+00  0.45593999997E+02  0.45594000000E+02  0.51100000000E-03 0. -1.
         11   -1    0    0    0    0 -0.00000000000E+00 -0.00000000000E+00 -0.45593999997E+02  0.45594000000E+02  0.51100000000E-03 0.  1.
    9900012    2    1    2    0    0  0.44556705791E+01 -0.24118738326E+01 -0.18027928807E+02  0.72461645503E+02  0.70000097973E+02 0.  0.
         12    1    1    2    0    0 -0.44556705791E+01  0.24118738326E+01  0.18027928807E+02  0.18726354497E+02  0.00000000000E+00 0. -1.
         11    1    3    3    0    0 -0.16440376258E+02 -0.65800234257E+01 -0.11695231975E+02  0.21221713668E+02  0.51100000000E-03 0. -1.
        -11    1    3    3    0    0 -0.10955906460E+02 -0.74331668812E+01 -0.10750249950E+02  0.17054375699E+02  0.51100000000E-03 0.  1.
         12    1    3    3    0    0  0.31851953297E+02  0.11601316474E+02  0.44175531177E+01  0.34185556136E+02  0.00000000000E+00 0. -1.
</event>
<event>
 7    1  0.3434711E-013  0.7246159E+02  0.7816164E-02  0.1226708E+00
        -11   -1    0    0    0    0  0.00000000000E+00  0.00000000000E+00  0.45593999997E+02  0.45594000000E+02  0.51100000000E-03 0.  1.
         11   -1    0    0    0    0 -0.00000000000E+00 -0.00000000000E+00 -0.45593999997E+02  0.45594000000E+02  0.51100000000E-03 0. -1.
    9900012    2    1    2    0    0  0.13681658112E+02 -0.51792934098E+01  0.11690412681E+02  0.72461585565E+02  0.70000019893E+02 0.  0.
         12    1    1    2    0    0 -0.13681658112E+02  0.51792934098E+01 -0.11690412681E+02  0.18726414435E+02  0.00000000000E+00 0. -1.
         11    1    3    3    0    0  0.10350877668E+02 -0.18794635292E+01 -0.13024947845E+02  0.16742828861E+02  0.51100000000E-03 0. -1.
        -11    1    3    3    0    0 -0.10400894093E+02 -0.20607108196E+02  0.70972320637E+00  0.23094051473E+02  0.51100000000E-03 0.  1.
        -12    1    3    3    0    0  0.13731674538E+02  0.17307278316E+02  0.24005637319E+02  0.32624705231E+02  0.00000000000E+00 0.  1.
</event>
<event>
 7    1  0.3434711E-013  0.7246159E+02  0.7816164E-02  0.1226708E+00
        -11   -1    0    0    0    0  0.00000000000E+00  0.00000000000E+00  0.45593999997E+02  0.45594000000E+02  0.51100000000E-03 0.  1.
         11   -1    0    0    0    0 -0.00000000000E+00 -0.00000000000E+00 -0.45593999997E+02  0.45594000000E+02  0.51100000000E-03 0. -1.
    9900012    2    1    2    0    0 -0.78112408709E+01 -0.62125233305E+01  0.15845112604E+02  0.72461587543E+02  0.70000022470E+02 0.  0.
         12    1    1    2    0    0  0.78112408709E+01  0.62125233305E+01 -0.15845112604E+02  0.18726412457E+02  0.00000000000E+00 0. -1.
         11    1    3    3    0    0 -0.24243681726E+01 -0.38467608354E+01 -0.17765691359E+02  0.18338345610E+02  0.51100000000E-03 0. -1.
        -11    1    3    3    0    0 -0.20320457083E+02 -0.12652820888E+02  0.22524963634E+02  0.32869268922E+02  0.51100000000E-03 0.  1.
         12    1    3    3    0    0  0.14933584385E+02  0.10287058393E+02  0.11085840329E+02  0.21253973012E+02  0.00000000000E+00 0. -1.
</event>
<event>
 7    1  0.3434711E-013  0.7246153E+02  0.7816164E-02  0.1226708E+00
        -11   -1    0    0    0    0  0.00000000000E+00  0.00000000000E+00  0.45593999997E+02  0.45594000000E+02  0.51100000000E-03 0.  1.
         11   -1    0    0    0    0 -0.00000000000E+00 -0.00000000000E+00 -0.45593999997E+02  0.45594000000E+02  0.51100000000E-03 0. -1.
    9900012    2    1    2    0    0  0.14134606858E+02 -0.11111119159E+02  0.52379870069E+01  0.72461532424E+02  0.69999950667E+02 0.  0.
         12    1    1    2    0    0 -0.14134606858E+02  0.11111119159E+02 -0.52379870069E+01  0.18726467576E+02  0.00000000000E+00 0. -1.
         11    1    3    3    0    0  0.19292707335E+02  0.15932016771E+01  0.18208613115E+01  0.19443826374E+02  0.51100000000E-03 0. -1.
        -11    1    3    3    0    0  0.18969984471E+02  0.71151646933E+01  0.73369597770E+01  0.21548012866E+02  0.51100000000E-03 0.  1.
         12    1    3    3    0    0 -0.24128084948E+02 -0.19819485529E+02 -0.39198340816E+01  0.31469693184E+02  0.00000000000E+00 0. -1.
</event>
<event>
 7    1  0.3434711E-013  0.7246156E+02  0.7816164E-02  0.1226708E+00
        -11   -1    0    0    0    0  0.00000000000E+00  0.00000000000E+00  0.45593999997E+02  0.45594000000E+02  0.51100000000E-03 0.  1.
         11   -1    0    0    0    0 -0.00000000000E+00 -0.00000000000E+00 -0.45593999997E+02  0.45594000000E+02  0.51100000000E-03 0. -1.
    9900012    2    1    2    0    0  0.11049098988E+02 -0.14681959223E+02  0.36106790128E+01  0.72461560990E+02  0.69999987879E+02 0.  0.
         12    1    1    2    0    0 -0.11049098988E+02  0.14681959223E+02 -0.36106790128E+01  0.18726439010E+02  0.00000000000E+00 0. -1.
         11    1    3    3    0    0  0.13350515232E+02  0.28111819787E+01 -0.25521622262E+02  0.28939457566E+02  0.51100000000E-03 0. -1.
        -11    1    3    3    0    0  0.66102855440E+01 -0.38968007803E+01 -0.24049563972E+01  0.80414393506E+01  0.51100000000E-03 0.  1.
        -12    1    3    3    0    0 -0.89117017882E+01 -0.13596340422E+02  0.31537257672E+02  0.35480664073E+02  0.00000000000E+00 0.  1.
</event>
<event>
 7    1  0.3434711E-013  0.7246157E+02  0.7816164E-02  0.1226708E+00
        -11   -1    0    0    0    0  0.00000000000E+00  0.00000000000E+00  0.45593999997E+02  0.45594000000E+02  0.51100000000E-03 0.  1.
         11   -1    0    0    0    0 -0.00000000000E+00 -0.00000000000E+00 -0.45593999997E+02  0.45594000000E+02  0.51100000000E-03 0. -1.
    9900012    2    1    2    0    0  0.18211427311E+02 -0.92843418445E+00  0.42615766709E+01  0.72461571871E+02  0.70000002054E+02 0.  0.
         12    1    1    2    0    0 -0.18211427311E+02  0.92843418445E+00 -0.42615766709E+01  0.18726428129E+02  0.00000000000E+00 0. -1.
         11    1    3    3    0    0  0.21984445618E+02  0.11651251122E+01  0.18903474972E+02  0.29017490104E+02  0.51100000000E-03 0. -1.
        -11    1    3    3    0    0 -0.81362542206E+01  0.16477105464E+02  0.15235611000E+01  0.18439492290E+02  0.51100000000E-03 0.  1.
         12    1    3    3    0    0  0.43632359143E+01 -0.18570664761E+02 -0.16165459401E+02  0.25004589478E+02  0.00000000000E+00 0. -1.
</event>
<event>
 7    1  0.3434711E-013  0.7246157E+02  0.7816164E-02  0.1226708E+00
        -11   -1    0    0    0    0  0.00000000000E+00  0.00000000000E+00  0.45593999997E+02  0.45594000000E+02  0.51100000000E-03 0. -1.
         11   -1    0    0    0    0 -0.00000000000E+00 -0.00000000000E+00 -0.45593999997E+02  0.45594000000E+02  0.51100000000E-03 0.  1.
    9900012    2    1    2    0    0  0.12864921794E+02 -0.13557401717E+02  0.11703238664E+01  0.72461574499E+02  0.70000005477E+02 0.  0.
         12    1    1    2    0    0 -0.12864921794E+02  0.13557401717E+02 -0.11703238664E+01  0.18726425501E+02  0.00000000000E+00 0. -1.
         11    1    3    3    0    0  0.28313387443E+01 -0.39270869687E+01 -0.17468502276E+01  0.51468414706E+01  0.51100000000E-03 0. -1.
        -11    1    3    3    0    0  0.31370906260E+02 -0.22603637965E+02  0.12396117325E+02  0.40604457069E+02  0.51100000000E-03 0.  1.
        -12    1    3    3    0    0 -0.21337323210E+02  0.12973323216E+02 -0.94789432311E+01  0.26710275959E+02  0.00000000000E+00 0.  1.
</event>
<event>
 7    1  0.3434711E-013  0.7246160E+02  0.7816164E-02  0.1226708E+00
        -11   -1    0    0    0    0  0.00000000000E+00  0.00000000000E+00  0.45593999997E+02  0.45594000000E+02  0.51100000000E-03 0.  1.
         11   -1    0    0    0    0 -0.00000000000E+00 -0.00000000000E+00 -0.45593999997E+02  0.45594000000E+02  0.51100000000E-03 0. -1.
    9900012    2    1    2    0    0  0.71785353192E+01  0.95165245440E-01  0.17295600394E+02  0.72461595680E+02  0.70000033070E+02 0.  0.
         12    1    1    2    0    0 -0.71785353192E+01 -0.95165245440E-01 -0.17295600394E+02  0.18726404320E+02  0.00000000000E+00 0. -1.
         11    1    3    3    0    0 -0.13955048229E+02 -0.45460778713E+01  0.68730192862E+01  0.16206436667E+02  0.51100000000E-03 0. -1.
        -11    1    3    3    0    0 -0.13229931030E+01  0.23619946104E+02  0.12543260301E+02  0.26776585741E+02  0.51100000000E-03 0.  1.
         12    1    3    3    0    0  0.22456576651E+02 -0.18978702987E+02 -0.21206791931E+01  0.29478573273E+02  0.00000000000E+00 0. -1.
</event>
<event>
 7    1  0.3434711E-013  0.7246164E+02  0.7816164E-02  0.1226708E+00
        -11   -1    0    0    0    0  0.00000000000E+00  0.00000000000E+00  0.45593999997E+02  0.45594000000E+02  0.51100000000E-03 0.  1.
         11   -1    0    0    0    0 -0.00000000000E+00 -0.00000000000E+00 -0.45593999997E+02  0.45594000000E+02  0.51100000000E-03 0. -1.
    9900012    2    1    2    0    0  0.17337865524E+02 -0.21719930274E+01  0.67348033298E+01  0.72461635950E+02  0.70000085528E+02 0.  0.
         12    1    1    2    0    0 -0.17337865524E+02  0.21719930274E+01 -0.67348033298E+01  0.18726364050E+02  0.00000000000E+00 0. -1.
         11    1    3    3    0    0  0.55794503939E-01  0.15344416245E+02 -0.18764522093E+02  0.24239668161E+02  0.51100000000E-03 0. -1.
        -11    1    3    3    0    0  0.30480177783E+01  0.71797611715E+01  0.16631774646E+02  0.18369956750E+02  0.51100000000E-03 0.  1.
        -12    1    3    3    0    0  0.14234053242E+02 -0.24696170443E+02  0.88675507766E+01  0.29852011039E+02  0.00000000000E+00 0.  1.
</event>
<event>
 7    1  0.3434711E-013  0.7246158E+02  0.7816164E-02  0.1226708E+00
        -11   -1    0    0    0    0  0.00000000000E+00  0.00000000000E+00  0.45593999997E+02  0.45594000000E+02  0.51100000000E-03 0.  1.
         11   -1    0    0    0    0 -0.00000000000E+00 -0.00000000000E+00 -0.45593999997E+02  0.45594000000E+02  0.51100000000E-03 0. -1.
    9900012    2    1    2    0    0  0.12071367403E+02  0.22476028474E+01 -0.14138929457E+02  0.72461576003E+02  0.70000007437E+02 0.  0.
         12    1    1    2    0    0 -0.12071367403E+02 -0.22476028474E+01  0.14138929457E+02  0.18726423997E+02  0.00000000000E+00 0. -1.
         11    1    3    3    0    0 -0.12765962114E+02  0.27893644715E+01 -0.11334638859E+02  0.17298103398E+02  0.51100000000E-03 0. -1.
        -11    1    3    3    0    0 -0.10506991741E+01 -0.15285894265E+01  0.20339835926E+02  0.20424237565E+02  0.51100000000E-03 0.  1.
        -12    1    3    3    0    0  0.25888028691E+02  0.98682780236E+00 -0.23144126523E+02  0.34739235040E+02  0.00000000000E+00 0.  1.
</event>
<event>
 7    1  0.3434711E-013  0.7246156E+02  0.7816164E-02  0.1226708E+00
        -11   -1    0    0    0    0  0.00000000000E+00  0.00000000000E+00  0.45593999997E+02  0.45594000000E+02  0.51100000000E-03 0.  1.
         11   -1    0    0    0    0 -0.00000000000E+00 -0.00000000000E+00 -0.45593999997E+02  0.45594000000E+02  0.51100000000E-03 0. -1.
    9900012    2    1    2    0    0  0.18126093291E+02  0.29890391690E+01  0.36317777297E+01  0.72461563537E+02  0.69999991197E+02 0.  0.
         12    1    1    2    0    0 -0.18126093291E+02 -0.29890391690E+01 -0.36317777297E+01  0.18726436463E+02  0.00000000000E+00 0. -1.
         11    1    3    3    0    0 -0.67102441192E+01 -0.24445835838E+02  0.11671091557E+02  0.27907716574E+02  0.51100000000E-03 0. -1.
        -11    1    3    3    0    0 -0.25298874417E+01 -0.16764629964E+01  0.16311086583E+01  0.34454860851E+01  0.51100000000E-03 0.  1.
        -12    1    3    3    0    0  0.27366224852E+02  0.29111338004E+02 -0.96704224859E+01  0.41108360878E+02  0.00000000000E+00 0.  1.
</event>
<event>
 7    1  0.3434711E-013  0.7246154E+02  0.7816164E-02  0.1226708E+00
        -11   -1    0    0    0    0  0.00000000000E+00  0.00000000000E+00  0.45593999997E+02  0.45594000000E+02  0.51100000000E-03 0.  1.
         11   -1    0    0    0    0 -0.00000000000E+00 -0.00000000000E+00 -0.45593999997E+02  0.45594000000E+02  0.51100000000E-03 0. -1.
    9900012    2    1    2    0    0 -0.16740938203E+02 -0.44685487914E+01  0.71030504457E+01  0.72461541022E+02  0.69999961867E+02 0.  0.
         12    1    1    2    0    0  0.16740938203E+02  0.44685487914E+01 -0.71030504457E+01  0.18726458978E+02  0.00000000000E+00 0. -1.
         11    1    3    3    0    0 -0.49437546941E+01  0.13672078114E+02 -0.25411758025E+02  0.29276678032E+02  0.51100000000E-03 0. -1.
        -11    1    3    3    0    0 -0.11578312397E+01  0.98691227341E+00 -0.18787730512E+01  0.24175105903E+01  0.51100000000E-03 0.  1.
        -12    1    3    3    0    0 -0.10639352270E+02 -0.19127539179E+02  0.34393581522E+02  0.40767352399E+02  0.00000000000E+00 0.  1.
</event>
<event>
 7    1  0.3434711E-013  0.7246158E+02  0.7816164E-02  0.1226708E+00
        -11   -1    0    0    0    0  0.00000000000E+00  0.00000000000E+00  0.45593999997E+02  0.45594000000E+02  0.51100000000E-03 0. -1.
         11   -1    0    0    0    0 -0.00000000000E+00 -0.00000000000E+00 -0.45593999997E+02  0.45594000000E+02  0.51100000000E-03 0.  1.
    9900012    2    1    2    0    0 -0.13390194366E+02  0.95481881502E+01 -0.89562081840E+01  0.72461578368E+02  0.70000010517E+02 0.  0.
         12    1    1    2    0    0  0.13390194366E+02 -0.95481881502E+01  0.89562081840E+01  0.18726421632E+02  0.00000000000E+00 0. -1.
         11    1    3    3    0    0 -0.37851221516E+01  0.28545694692E+02  0.77438322126E+01  0.29818631302E+02  0.51100000000E-03 0. -1.
        -11    1    3    3    0    0  0.78199173492E+01  0.20466328781E+01 -0.12664978354E+02  0.15024696019E+02  0.51100000000E-03 0.  1.
         12    1    3    3    0    0 -0.17424989564E+02 -0.21044139419E+02 -0.40350620424E+01  0.27618251047E+02  0.00000000000E+00 0. -1.
</event>
<event>
 7    1  0.3434711E-013  0.7246165E+02  0.7816164E-02  0.1226708E+00
        -11   -1    0    0    0    0  0.00000000000E+00  0.00000000000E+00  0.45593999997E+02  0.45594000000E+02  0.51100000000E-03 0. -1.
         11   -1    0    0    0    0 -0.00000000000E+00 -0.00000000000E+00 -0.45593999997E+02  0.45594000000E+02  0.51100000000E-03 0.  1.
    9900012    2    1    2    0    0 -0.16270253604E+02 -0.91726539612E+01  0.13481272154E+01  0.72461650115E+02  0.70000103981E+02 0.  0.
         12    1    1    2    0    0  0.16270253604E+02  0.91726539612E+01 -0.13481272154E+01  0.18726349885E+02  0.00000000000E+00 0. -1.
         11    1    3    3    0    0 -0.38479857799E+01 -0.34781606344E+01 -0.15037182899E+02  0.15906648476E+02  0.51100000000E-03 0. -1.
        -11    1    3    3    0    0  0.34545121455E+00 -0.11801130572E+02 -0.16767878461E+02  0.20507261340E+02  0.51100000000E-03 0.  1.
         12    1    3    3    0    0 -0.12767719039E+02  0.61066372448E+01  0.33153188575E+02  0.36047740298E+02  0.00000000000E+00 0. -1.
</event>
<event>
 7    1  0.4253889E-013  0.7246156E+02  0.7816164E-02  0.1226708E+00
        -11   -1    0    0    0    0  0.00000000000E+00  0.00000000000E+00  0.45593999997E+02  0.45594000000E+02  0.51100000000E-03 0.  1.
         11   -1    0    0    0    0 -0.00000000000E+00 -0.00000000000E+00 -0.45593999997E+02  0.45594000000E+02  0.51100000000E-03 0. -1.
    9900012    2    1    2    0    0  0.68542722899E+01  0.16320728518E+02  0.61100310702E+01  0.72461555926E+02  0.69999981282E+02 0.  0.
         12    1    1    2    0    0 -0.68542722899E+01 -0.16320728518E+02 -0.61100310702E+01  0.18726444074E+02  0.00000000000E+00 0. -1.
         11    1    3    3    0    0 -0.20487488829E+02  0.25329715383E+01  0.17325660286E+01  0.20716054852E+02  0.51100000000E-03 0. -1.
        -11    1    3    3    0    0  0.15622791466E+02  0.24658702989E+02  0.14734154268E+02  0.32698907452E+02  0.51100000000E-03 0.  1.
         12    1    3    3    0    0  0.11718969653E+02 -0.10870946009E+02 -0.10356689226E+02  0.19046593621E+02  0.00000000000E+00 0. -1.
</event>
<event>
 7    1  0.3434711E-013  0.7246151E+02  0.7816164E-02  0.1226708E+00
        -11   -1    0    0    0    0  0.00000000000E+00  0.00000000000E+00  0.45593999997E+02  0.45594000000E+02  0.51100000000E-03 0. -1.
         11   -1    0    0    0    0 -0.00000000000E+00 -0.00000000000E+00 -0.45593999997E+02  0.45594000000E+02  0.51100000000E-03 0.  1.
    9900012    2    1    2    0    0 -0.76131496865E+01  0.85225612163E+01 -0.14835344205E+02  0.72461507122E+02  0.69999917706E+02 0.  0.
         12    1    1    2    0    0  0.76131496865E+01 -0.85225612163E+01  0.14835344205E+02  0.18726492878E+02  0.00000000000E+00 0. -1.
         11    1    3    3    0    0  0.21159751369E+02  0.22718751331E+01  0.12786446791E+02  0.24827197111E+02  0.51100000000E-03 0. -1.
        -11    1    3    3    0    0  0.22978152889E+01  0.37482272046E+01  0.18186928161E+01  0.47578152654E+01  0.51100000000E-03 0.  1.
        -12    1    3    3    0    0 -0.31070716344E+02  0.25024588785E+01 -0.29440483812E+02  0.42876494745E+02  0.00000000000E+00 0.  1.
</event>
<event>
 7    1  0.3434711E-013  0.7246180E+02  0.7816164E-02  0.1226707E+00
        -11   -1    0    0    0    0  0.00000000000E+00  0.00000000000E+00  0.45593999997E+02  0.45594000000E+02  0.51100000000E-03 0. -1.
         11   -1    0    0    0    0 -0.00000000000E+00 -0.00000000000E+00 -0.45593999997E+02  0.45594000000E+02  0.51100000000E-03 0.  1.
    9900012    2    1    2    0    0 -0.10210991665E+02 -0.10901282172E+02 -0.11294615585E+02  0.72461797902E+02  0.70000296501E+02 0.  0.
         12    1    1    2    0    0  0.10210991665E+02  0.10901282172E+02  0.11294615585E+02  0.18726202098E+02  0.00000000000E+00 0. -1.
         11    1    3    3    0    0  0.16126004975E+02  0.21149215939E+01 -0.15555113532E+02  0.22505165786E+02  0.51100000000E-03 0. -1.
        -11    1    3    3    0    0  0.75828281848E+01 -0.61167585490E+00  0.10842301408E+02  0.13244958691E+02  0.51100000000E-03 0.  1.
        -12    1    3    3    0    0 -0.33919824825E+02 -0.12404527911E+02 -0.65818034623E+01  0.36711673425E+02  0.00000000000E+00 0.  1.
</event>
<event>
 7    1  0.3434711E-013  0.7246154E+02  0.7816164E-02  0.1226708E+00
        -11   -1    0    0    0    0  0.00000000000E+00  0.00000000000E+00  0.45593999997E+02  0.45594000000E+02  0.51100000000E-03 0. -1.
         11   -1    0    0    0    0 -0.00000000000E+00 -0.00000000000E+00 -0.45593999997E+02  0.45594000000E+02  0.51100000000E-03 0.  1.
    9900012    2    1    2    0    0  0.22015165544E+01  0.33224635289E+01 -0.18297396211E+02  0.72461544192E+02  0.69999965996E+02 0.  0.
         12    1    1    2    0    0 -0.22015165544E+01 -0.33224635289E+01  0.18297396211E+02  0.18726455808E+02  0.00000000000E+00 0. -1.
         11    1    3    3    0    0 -0.93359675930E+01 -0.12977934510E+02  0.16193334279E+01  0.16068892807E+02  0.51100000000E-03 0. -1.
        -11    1    3    3    0    0  0.30342384414E+02  0.14799259597E+02 -0.10831505531E+02  0.35454194236E+02  0.51100000000E-03 0.  1.
         12    1    3    3    0    0 -0.18804900267E+02  0.15011384423E+01 -0.90852241075E+01  0.20938457148E+02  0.00000000000E+00 0. -1.
</event>
<event>
 7    1  0.3434711E-013  0.7246224E+02  0.7816164E-02  0.1226706E+00
        -11   -1    0    0    0    0  0.00000000000E+00  0.00000000000E+00  0.45593999997E+02  0.45594000000E+02  0.51100000000E-03 0.  1.
         11   -1    0    0    0    0 -0.00000000000E+00 -0.00000000000E+00 -0.45593999997E+02  0.45594000000E+02  0.51100000000E-03 0. -1.
    9900012    2    1    2    0    0 -0.97474893184E+01  0.15519178565E+02  0.38465056281E+01  0.72462240819E+02  0.70000873478E+02 0.  0.
         12    1    1    2    0    0  0.97474893184E+01 -0.15519178565E+02 -0.38465056281E+01  0.18725759181E+02  0.00000000000E+00 0. -1.
         11    1    3    3    0    0  0.15700005083E+02  0.33116315013E+01  0.22194211578E+02  0.27386859817E+02  0.51100000000E-03 0. -1.
        -11    1    3    3    0    0 -0.78079403166E+01 -0.85606100889E+01  0.10406966870E+01  0.11633186448E+02  0.51100000000E-03 0.  1.
         12    1    3    3    0    0 -0.17639554085E+02  0.20768157153E+02 -0.19388402637E+02  0.33442194554E+02  0.00000000000E+00 0. -1.
</event>
<event>
 7    1  0.3434711E-013  0.7246158E+02  0.7816164E-02  0.1226708E+00
        -11   -1    0    0    0    0  0.00000000000E+00  0.00000000000E+00  0.45593999997E+02  0.45594000000E+02  0.51100000000E-03 0.  1.
         11   -1    0    0    0    0 -0.00000000000E+00 -0.00000000000E+00 -0.45593999997E+02  0.45594000000E+02  0.51100000000E-03 0. -1.
    9900012    2    1    2    0    0  0.12885888026E+02 -0.13470082096E+02 -0.17859644386E+01  0.72461577735E+02  0.70000009692E+02 0.  0.
         12    1    1    2    0    0 -0.12885888026E+02  0.13470082096E+02  0.17859644386E+01  0.18726422265E+02  0.00000000000E+00 0. -1.
         11    1    3    3    0    0  0.11953281307E+02 -0.13692412848E+02 -0.42202691156E+01  0.18659415191E+02  0.51100000000E-03 0. -1.
        -11    1    3    3    0    0  0.15767755355E+02  0.11252982145E+02  0.20323822205E+02  0.28076849278E+02  0.51100000000E-03 0.  1.
         12    1    3    3    0    0 -0.14835148637E+02 -0.11030651393E+02 -0.17889517528E+02  0.25725313266E+02  0.00000000000E+00 0. -1.
</event>
<event>
 7    1  0.3434711E-013  0.7246229E+02  0.7816164E-02  0.1226706E+00
        -11   -1    0    0    0    0  0.00000000000E+00  0.00000000000E+00  0.45593999997E+02  0.45594000000E+02  0.51100000000E-03 0. -1.
         11   -1    0    0    0    0 -0.00000000000E+00 -0.00000000000E+00 -0.45593999997E+02  0.45594000000E+02  0.51100000000E-03 0.  1.
    9900012    2    1    2    0    0  0.16825501849E+02 -0.71019047223E+01  0.41373471029E+01  0.72462290288E+02  0.70000937920E+02 0.  0.
         12    1    1    2    0    0 -0.16825501849E+02  0.71019047223E+01 -0.41373471029E+01  0.18725709712E+02  0.00000000000E+00 0. -1.
         11    1    3    3    0    0 -0.11041011280E+02 -0.10536130848E+02  0.82566634952E+01  0.17351843581E+02  0.51100000000E-03 0. -1.
        -11    1    3    3    0    0  0.24772934254E+01 -0.19888619262E+02  0.18284570675E+01  0.20125541344E+02  0.51100000000E-03 0.  1.
         12    1    3    3    0    0  0.25389219704E+02  0.23322845388E+02 -0.59477734598E+01  0.34984905363E+02  0.00000000000E+00 0. -1.
</event>
<event>
 7    1  0.3434711E-013  0.7246146E+02  0.7816164E-02  0.1226708E+00
        -11   -1    0    0    0    0  0.00000000000E+00  0.00000000000E+00  0.45593999997E+02  0.45594000000E+02  0.51100000000E-03 0. -1.
         11   -1    0    0    0    0 -0.00000000000E+00 -0.00000000000E+00 -0.45593999997E+02  0.45594000000E+02  0.51100000000E-03 0.  1.
    9900012    2    1    2    0    0  0.19011550918E+01 -0.18104093966E+02  0.43943758819E+01  0.72461464058E+02  0.69999861607E+02 0.  0.
         12    1    1    2    0    0 -0.19011550918E+01  0.18104093966E+02 -0.43943758819E+01  0.18726535942E+02  0.00000000000E+00 0. -1.
         11    1    3    3    0    0  0.11373246482E+02 -0.25140186613E+02  0.10514532105E+02  0.29528547274E+02  0.51100000000E-03 0. -1.
        -11    1    3    3    0    0  0.84083739419E+01  0.81403013013E+01  0.12479758326E+02  0.17108758744E+02  0.51100000000E-03 0.  1.
        -12    1    3    3    0    0 -0.17880465332E+02 -0.11042086543E+01 -0.18599914549E+02  0.25824158040E+02  0.00000000000E+00 0.  1.
</event>
<event>
 7    1  0.3434711E-013  0.7246157E+02  0.7816164E-02  0.1226708E+00
        -11   -1    0    0    0    0  0.00000000000E+00  0.00000000000E+00  0.45593999997E+02  0.45594000000E+02  0.51100000000E-03 0. -1.
         11   -1    0    0    0    0 -0.00000000000E+00 -0.00000000000E+00 -0.45593999997E+02  0.45594000000E+02  0.51100000000E-03 0.  1.
    9900012    2    1    2    0    0  0.29580481577E+01  0.11881252748E+02 -0.14169158509E+02  0.72461567648E+02  0.69999996553E+02 0.  0.
         12    1    1    2    0    0 -0.29580481577E+01 -0.11881252748E+02  0.14169158509E+02  0.18726432352E+02  0.00000000000E+00 0. -1.
         11    1    3    3    0    0 -0.42607881638E+01  0.14871387477E+01  0.24654187055E+02  0.25063815293E+02  0.51100000000E-03 0. -1.
        -11    1    3    3    0    0  0.11811091331E+02 -0.62882173007E+00 -0.78329893598E+01  0.14186367321E+02  0.51100000000E-03 0.  1.
        -12    1    3    3    0    0 -0.45922550094E+01  0.11022935730E+02 -0.30990356205E+02  0.33211385034E+02  0.00000000000E+00 0.  1.
</event>
<event>
 7    1  0.3434711E-013  0.7246151E+02  0.7816164E-02  0.1226708E+00
        -11   -1    0    0    0    0  0.00000000000E+00  0.00000000000E+00  0.45593999997E+02  0.45594000000E+02  0.51100000000E-03 0. -1.
         11   -1    0    0    0    0 -0.00000000000E+00 -0.00000000000E+00 -0.45593999997E+02  0.45594000000E+02  0.51100000000E-03 0.  1.
    9900012    2    1    2    0    0  0.17686475136E+01  0.10048740611E+02 -0.15702737188E+02  0.72461514555E+02  0.69999927390E+02 0.  0.
         12    1    1    2    0    0 -0.17686475136E+01 -0.10048740611E+02  0.15702737188E+02  0.18726485445E+02  0.00000000000E+00 0. -1.
         11    1    3    3    0    0 -0.72068127960E+00  0.23974238504E+01 -0.30082897138E+00  0.25214124924E+01  0.51100000000E-03 0. -1.
        -11    1    3    3    0    0 -0.10492498848E+02  0.25357275006E+02  0.15892634009E+02  0.31712138745E+02  0.51100000000E-03 0.  1.
        -12    1    3    3    0    0  0.12981827641E+02 -0.17705958245E+02 -0.31294542226E+02  0.38227963318E+02  0.00000000000E+00 0.  1.
</event>
<event>
 7    1  0.3434711E-013  0.7246158E+02  0.7816164E-02  0.1226708E+00
        -11   -1    0    0    0    0  0.00000000000E+00  0.00000000000E+00  0.45593999997E+02  0.45594000000E+02  0.51100000000E-03 0.  1.
         11   -1    0    0    0    0 -0.00000000000E+00 -0.00000000000E+00 -0.45593999997E+02  0.45594000000E+02  0.51100000000E-03 0. -1.
    9900012    2    1    2    0    0 -0.14172569253E+02 -0.75975465750E+01  0.95965775072E+01  0.72461581948E+02  0.70000015182E+02 0.  0.
         12    1    1    2    0    0  0.14172569253E+02  0.75975465750E+01 -0.95965775072E+01  0.18726418052E+02  0.00000000000E+00 0. -1.
         11    1    3    3    0    0  0.62546001010E+01 -0.94068002252E+01 -0.82226294439E+01  0.13972098917E+02  0.51100000000E-03 0. -1.
        -11    1    3    3    0    0  0.17553903941E+02 -0.71878149325E+00  0.70493905372E+01  0.18930137285E+02  0.51100000000E-03 0.  1.
         12    1    3    3    0    0 -0.37981073295E+02  0.25280351435E+01  0.10769816414E+02  0.39559345747E+02  0.00000000000E+00 0. -1.
</event>
<event>
 7    1  0.3434711E-013  0.7246159E+02  0.7816164E-02  0.1226708E+00
        -11   -1    0    0    0    0  0.00000000000E+00  0.00000000000E+00  0.45593999997E+02  0.45594000000E+02  0.51100000000E-03 0.  1.
         11   -1    0    0    0    0 -0.00000000000E+00 -0.00000000000E+00 -0.45593999997E+02  0.45594000000E+02  0.51100000000E-03 0. -1.
    9900012    2    1    2    0    0 -0.19347554060E+01 -0.54000348025E+01  0.17826241729E+02  0.72461586875E+02  0.70000021599E+02 0.  0.
         12    1    1    2    0    0  0.19347554060E+01  0.54000348025E+01 -0.17826241729E+02  0.18726413125E+02  0.00000000000E+00 0. -1.
         11    1    3    3    0    0  0.15809495255E+02 -0.17604348718E+02  0.68289957068E+01  0.24626985537E+02  0.51100000000E-03 0. -1.
        -11    1    3    3    0    0 -0.84454745211E+01 -0.46134106233E+01  0.23168234113E+02  0.25087380685E+02  0.51100000000E-03 0.  1.
         12    1    3    3    0    0 -0.92987761394E+01  0.16817724539E+02 -0.12170988090E+02  0.22747220653E+02  0.00000000000E+00 0. -1.
</event>
<event>
 7    1  0.3434711E-013  0.7246156E+02  0.7816164E-02  0.1226708E+00
        -11   -1    0    0    0    0  0.00000000000E+00  0.00000000000E+00  0.45593999997E+02  0.45594000000E+02  0.51100000000E-03 0.  1.
         11   -1    0    0    0    0 -0.00000000000E+00 -0.00000000000E+00 -0.45593999997E+02  0.45594000000E+02  0.51100000000E-03 0. -1.
    9900012    2    1    2    0    0 -0.11472476312E+02 -0.30726768487E+01  0.14478280170E+02  0.72461557401E+02  0.69999983203E+02 0.  0.
         12    1    1    2    0    0  0.11472476312E+02  0.30726768487E+01 -0.14478280170E+02  0.18726442599E+02  0.00000000000E+00 0. -1.
         11    1    3    3    0    0 -0.53030535599E+01  0.18455205707E+01  0.82114764848E+00  0.56747340869E+01  0.51100000000E-03 0. -1.
        -11    1    3    3    0    0 -0.24743605778E+02 -0.26707146957E+02  0.10996187704E+02  0.38032011119E+02  0.51100000000E-03 0.  1.
         12    1    3    3    0    0  0.18574183026E+02  0.21788949538E+02  0.26609448179E+01  0.28754812195E+02  0.00000000000E+00 0. -1.
</event>
<event>
 7    1  0.3434711E-013  0.7246156E+02  0.7816164E-02  0.1226708E+00
        -11   -1    0    0    0    0  0.00000000000E+00  0.00000000000E+00  0.45593999997E+02  0.45594000000E+02  0.51100000000E-03 0.  1.
         11   -1    0    0    0    0 -0.00000000000E+00 -0.00000000000E+00 -0.45593999997E+02  0.45594000000E+02  0.51100000000E-03 0. -1.
    9900012    2    1    2    0    0 -0.36806550595E+01  0.83634167697E+01  0.16345810919E+02  0.72461561569E+02  0.69999988633E+02 0.  0.
         12    1    1    2    0    0  0.36806550595E+01 -0.83634167697E+01 -0.16345810919E+02  0.18726438431E+02  0.00000000000E+00 0. -1.
         11    1    3    3    0    0  0.11980085305E+02 -0.71385310002E+01  0.12992940925E+02  0.19060366809E+02  0.51100000000E-03 0. -1.
        -11    1    3    3    0    0  0.47641436284E+01 -0.12694548512E+02  0.11344374537E+02  0.17678898731E+02  0.51100000000E-03 0.  1.
         12    1    3    3    0    0 -0.20424883993E+02  0.28196496282E+02 -0.79915045433E+01  0.35722296029E+02  0.00000000000E+00 0. -1.
</event>
<event>
 7    1  0.3434711E-013  0.7246164E+02  0.7816164E-02  0.1226708E+00
        -11   -1    0    0    0    0  0.00000000000E+00  0.00000000000E+00  0.45593999997E+02  0.45594000000E+02  0.51100000000E-03 0. -1.
         11   -1    0    0    0    0 -0.00000000000E+00 -0.00000000000E+00 -0.45593999997E+02  0.45594000000E+02  0.51100000000E-03 0.  1.
    9900012    2    1    2    0    0  0.95489026425E+01  0.10421935466E+02 -0.12283259186E+02  0.72461635250E+02  0.70000084616E+02 0.  0.
         12    1    1    2    0    0 -0.95489026425E+01 -0.10421935466E+02  0.12283259186E+02  0.18726364750E+02  0.00000000000E+00 0. -1.
         11    1    3    3    0    0  0.12616283413E+02 -0.13780684319E+02 -0.24539311702E+02  0.30842433213E+02  0.51100000000E-03 0. -1.
        -11    1    3    3    0    0  0.27412385452E+01  0.29165448598E+01 -0.96991395384E+01  0.10492565498E+02  0.51100000000E-03 0.  1.
        -12    1    3    3    0    0 -0.58086193152E+01  0.21286074925E+02  0.21955192054E+02  0.31126636538E+02  0.00000000000E+00 0.  1.
</event>
<event>
 7    1  0.3434711E-013  0.7246157E+02  0.7816164E-02  0.1226708E+00
        -11   -1    0    0    0    0  0.00000000000E+00  0.00000000000E+00  0.45593999997E+02  0.45594000000E+02  0.51100000000E-03 0.  1.
         11   -1    0    0    0    0 -0.00000000000E+00 -0.00000000000E+00 -0.45593999997E+02  0.45594000000E+02  0.51100000000E-03 0. -1.
    9900012    2    1    2    0    0 -0.85052161748E+01  0.14876932846E+02  0.75509932840E+01  0.72461565939E+02  0.69999994326E+02 0.  0.
         12    1    1    2    0    0  0.85052161748E+01 -0.14876932846E+02 -0.75509932840E+01  0.18726434061E+02  0.00000000000E+00 0. -1.
         11    1    3    3    0    0 -0.99326299233E+00  0.73578845948E+01  0.51033242713E+01  0.90093815527E+01  0.51100000000E-03 0. -1.
        -11    1    3    3    0    0 -0.12071457069E+01  0.33314598499E+02 -0.90074672010E+01  0.34531929277E+02  0.51100000000E-03 0.  1.
         12    1    3    3    0    0 -0.63048074756E+01 -0.25795550248E+02  0.11455136214E+02  0.28920255109E+02  0.00000000000E+00 0. -1.
</event>
<event>
 7    1  0.3434711E-013  0.7246158E+02  0.7816164E-02  0.1226708E+00
        -11   -1    0    0    0    0  0.00000000000E+00  0.00000000000E+00  0.45593999997E+02  0.45594000000E+02  0.51100000000E-03 0. -1.
         11   -1    0    0    0    0 -0.00000000000E+00 -0.00000000000E+00 -0.45593999997E+02  0.45594000000E+02  0.51100000000E-03 0.  1.
    9900012    2    1    2    0    0 -0.14422149981E+01  0.51638902838E+01 -0.17942494695E+02  0.72461578483E+02  0.70000010667E+02 0.  0.
         12    1    1    2    0    0  0.14422149981E+01 -0.51638902838E+01  0.17942494695E+02  0.18726421517E+02  0.00000000000E+00 0. -1.
         11    1    3    3    0    0 -0.37491108780E+01  0.13756159573E+02 -0.89304489781E+01  0.16823812820E+02  0.51100000000E-03 0. -1.
        -11    1    3    3    0    0  0.25213215546E+02  0.64540141365E+01 -0.10789881166E+02  0.28174138363E+02  0.51100000000E-03 0.  1.
         12    1    3    3    0    0 -0.22906319666E+02 -0.15046283426E+02  0.17778354493E+01  0.27463627300E+02  0.00000000000E+00 0. -1.
</event>
<event>
 7    1  0.3434711E-013  0.7246159E+02  0.7816164E-02  0.1226708E+00
        -11   -1    0    0    0    0  0.00000000000E+00  0.00000000000E+00  0.45593999997E+02  0.45594000000E+02  0.51100000000E-03 0.  1.
         11   -1    0    0    0    0 -0.00000000000E+00 -0.00000000000E+00 -0.45593999997E+02  0.45594000000E+02  0.51100000000E-03 0. -1.
    9900012    2    1    2    0    0  0.74558879538E+01  0.10635024642E+02  0.13490159942E+02  0.72461590051E+02  0.70000025737E+02 0.  0.
         12    1    1    2    0    0 -0.74558879538E+01 -0.10635024642E+02 -0.13490159942E+02  0.18726409949E+02  0.00000000000E+00 0. -1.
         11    1    3    3    0    0  0.39183968882E+01  0.23071134375E+02  0.47851228733E+01  0.23885737935E+02  0.51100000000E-03 0. -1.
        -11    1    3    3    0    0 -0.11868193458E+02  0.12887356393E+02  0.70605304934E+01  0.18888860788E+02  0.51100000000E-03 0.  1.
         12    1    3    3    0    0  0.15405684524E+02 -0.25323466126E+02  0.16445065748E+01  0.29686991329E+02  0.00000000000E+00 0. -1.
</event>
<event>
 7    1  0.3434711E-013  0.7246159E+02  0.7816164E-02  0.1226708E+00
        -11   -1    0    0    0    0  0.00000000000E+00  0.00000000000E+00  0.45593999997E+02  0.45594000000E+02  0.51100000000E-03 0. -1.
         11   -1    0    0    0    0 -0.00000000000E+00 -0.00000000000E+00 -0.45593999997E+02  0.45594000000E+02  0.51100000000E-03 0.  1.
    9900012    2    1    2    0    0 -0.10225202251E+02 -0.14139075276E+02 -0.67978144626E+01  0.72461588379E+02  0.70000023559E+02 0.  0.
         12    1    1    2    0    0  0.10225202251E+02  0.14139075276E+02  0.67978144626E+01  0.18726411621E+02  0.00000000000E+00 0. -1.
         11    1    3    3    0    0  0.13937116398E+02  0.45916667030E+01 -0.74918828065E+01  0.16475889197E+02  0.51100000000E-03 0. -1.
        -11    1    3    3    0    0  0.13695038773E+02 -0.29360008901E+01 -0.43270299450E+01  0.14659378453E+02  0.51100000000E-03 0.  1.
        -12    1    3    3    0    0 -0.37857357421E+02 -0.15794741089E+02  0.50210982889E+01  0.41326320729E+02  0.00000000000E+00 0.  1.
</event>
<event>
 7    1  0.3434711E-013  0.7246147E+02  0.7816164E-02  0.1226708E+00
        -11   -1    0    0    0    0  0.00000000000E+00  0.00000000000E+00  0.45593999997E+02  0.45594000000E+02  0.51100000000E-03 0. -1.
         11   -1    0    0    0    0 -0.00000000000E+00 -0.00000000000E+00 -0.45593999997E+02  0.45594000000E+02  0.51100000000E-03 0.  1.
    9900012    2    1    2    0    0  0.22825884975E+01 -0.15118636411E+02  0.10812006931E+02  0.72461471462E+02  0.69999871253E+02 0.  0.
         12    1    1    2    0    0 -0.22825884975E+01  0.15118636411E+02 -0.10812006931E+02  0.18726528538E+02  0.00000000000E+00 0. -1.
         11    1    3    3    0    0 -0.15773424723E+00 -0.22358000476E+01  0.92600192044E+01  0.95274150677E+01  0.51100000000E-03 0.  1.
        -11    1    3    3    0    0  0.17975845040E+01 -0.30987253438E+02  0.20122189618E+02  0.36991130031E+02  0.51100000000E-03 0. -1.
        -12    1    3    3    0    0  0.64273824079E+00  0.18104417075E+02 -0.18570201891E+02  0.25942926364E+02  0.00000000000E+00 0.  1.
</event>
<event>
 7    1  0.3434711E-013  0.7246170E+02  0.7816164E-02  0.1226708E+00
        -11   -1    0    0    0    0  0.00000000000E+00  0.00000000000E+00  0.45593999997E+02  0.45594000000E+02  0.51100000000E-03 0.  1.
         11   -1    0    0    0    0 -0.00000000000E+00 -0.00000000000E+00 -0.45593999997E+02  0.45594000000E+02  0.51100000000E-03 0. -1.
    9900012    2    1    2    0    0  0.81725113990E+01 -0.22780848997E+00  0.16847330384E+02  0.72461698167E+02  0.70000166578E+02 0.  0.
         12    1    1    2    0    0 -0.81725113990E+01  0.22780848997E+00 -0.16847330384E+02  0.18726301833E+02  0.00000000000E+00 0. -1.
         11    1    3    3    0    0  0.21882086890E+02 -0.18172133997E+02 -0.57280450735E+01  0.29014870003E+02  0.51100000000E-03 0. -1.
        -11    1    3    3    0    0  0.39443668714E+01 -0.59241548957E+01  0.67291794098E+01  0.97946667649E+01  0.51100000000E-03 0.  1.
        -12    1    3    3    0    0 -0.17653942363E+02  0.23868480403E+02  0.15846196047E+02  0.33652161399E+02  0.00000000000E+00 0.  1.
</event>
<event>
 7    1  0.3434711E-013  0.7246160E+02  0.7816164E-02  0.1226708E+00
        -11   -1    0    0    0    0  0.00000000000E+00  0.00000000000E+00  0.45593999997E+02  0.45594000000E+02  0.51100000000E-03 0.  1.
         11   -1    0    0    0    0 -0.00000000000E+00 -0.00000000000E+00 -0.45593999997E+02  0.45594000000E+02  0.51100000000E-03 0. -1.
    9900012    2    1    2    0    0 -0.13203025321E+02 -0.11436673969E+02  0.67498534992E+01  0.72461603887E+02  0.70000043761E+02 0.  0.
         12    1    1    2    0    0  0.13203025321E+02  0.11436673969E+02 -0.67498534992E+01  0.18726396113E+02  0.00000000000E+00 0. -1.
         11    1    3    3    0    0  0.11760886258E+02  0.24731527132E+01 -0.12052402226E+02  0.17020438584E+02  0.51100000000E-03 0. -1.
        -11    1    3    3    0    0  0.45240816692E+01  0.97328914052E+01  0.13544435016E+02  0.17281441208E+02  0.51100000000E-03 0.  1.
         12    1    3    3    0    0 -0.29487993249E+02 -0.23642718088E+02  0.52578207087E+01  0.38159724095E+02  0.00000000000E+00 0. -1.
</event>
<event>
 7    1  0.3434711E-013  0.7246177E+02  0.7816164E-02  0.1226707E+00
        -11   -1    0    0    0    0  0.00000000000E+00  0.00000000000E+00  0.45593999997E+02  0.45594000000E+02  0.51100000000E-03 0.  1.
         11   -1    0    0    0    0 -0.00000000000E+00 -0.00000000000E+00 -0.45593999997E+02  0.45594000000E+02  0.51100000000E-03 0. -1.
    9900012    2    1    2    0    0  0.11407540764E+01  0.17140145928E+02  0.74555762413E+01  0.72461774022E+02  0.70000265392E+02 0.  0.
         12    1    1    2    0    0 -0.11407540764E+01 -0.17140145928E+02 -0.74555762413E+01  0.18726225978E+02  0.00000000000E+00 0. -1.
         11    1    3    3    0    0 -0.10100830000E+02  0.10305626383E+01  0.51448487986E+01  0.11382367744E+02  0.51100000000E-03 0. -1.
        -11    1    3    3    0    0 -0.64296705101E+01  0.33734123564E+02  0.84745978250E+01  0.35371606749E+02  0.51100000000E-03 0.  1.
         12    1    3    3    0    0  0.17671254586E+02 -0.17624540274E+02 -0.61638703823E+01  0.25707799528E+02  0.00000000000E+00 0. -1.
</event>
<event>
 7    1  0.3434711E-013  0.7246153E+02  0.7816164E-02  0.1226708E+00
        -11   -1    0    0    0    0  0.00000000000E+00  0.00000000000E+00  0.45593999997E+02  0.45594000000E+02  0.51100000000E-03 0.  1.
         11   -1    0    0    0    0 -0.00000000000E+00 -0.00000000000E+00 -0.45593999997E+02  0.45594000000E+02  0.51100000000E-03 0. -1.
    9900012    2    1    2    0    0  0.48860360064E+01 -0.11286496662E+02  0.14121703519E+02  0.72461525024E+02  0.69999941027E+02 0.  0.
         12    1    1    2    0    0 -0.48860360064E+01  0.11286496662E+02 -0.14121703519E+02  0.18726474976E+02  0.00000000000E+00 0. -1.
         11    1    3    3    0    0  0.13371191523E+02  0.20493840835E+02  0.89341226826E+01  0.26050044592E+02  0.51100000000E-03 0. -1.
        -11    1    3    3    0    0  0.61640090637E+01 -0.82940323824E+01  0.13965139785E+02  0.17372711659E+02  0.51100000000E-03 0.  1.
        -12    1    3    3    0    0 -0.14649164580E+02 -0.23486305114E+02 -0.87775589490E+01  0.29038768774E+02  0.00000000000E+00 0.  1.
</event>
<event>
 7    1  0.3434711E-013  0.7246163E+02  0.7816164E-02  0.1226708E+00
        -11   -1    0    0    0    0  0.00000000000E+00  0.00000000000E+00  0.45593999997E+02  0.45594000000E+02  0.51100000000E-03 0.  1.
         11   -1    0    0    0    0 -0.00000000000E+00 -0.00000000000E+00 -0.45593999997E+02  0.45594000000E+02  0.51100000000E-03 0. -1.
    9900012    2    1    2    0    0  0.17769042313E+02 -0.41699270181E+00 -0.58961257343E+01  0.72461626985E+02  0.70000073850E+02 0.  0.
         12    1    1    2    0    0 -0.17769042313E+02  0.41699270181E+00  0.58961257343E+01  0.18726373015E+02  0.00000000000E+00 0. -1.
         11    1    3    3    0    0  0.24217386526E+02  0.22597538058E+02  0.23467131350E+01  0.33205987401E+02  0.51100000000E-03 0. -1.
        -11    1    3    3    0    0  0.11338240665E+02 -0.11182855248E+02 -0.81578703705E+01  0.17893093699E+02  0.51100000000E-03 0.  1.
        -12    1    3    3    0    0 -0.17786584878E+02 -0.11831675512E+02 -0.84968498826E-01  0.21362545885E+02  0.00000000000E+00 0.  1.
</event>
<event>
 7    1  0.3434711E-013  0.7246150E+02  0.7816164E-02  0.1226708E+00
        -11   -1    0    0    0    0  0.00000000000E+00  0.00000000000E+00  0.45593999997E+02  0.45594000000E+02  0.51100000000E-03 0. -1.
         11   -1    0    0    0    0 -0.00000000000E+00 -0.00000000000E+00 -0.45593999997E+02  0.45594000000E+02  0.51100000000E-03 0.  1.
    9900012    2    1    2    0    0 -0.16814302993E+02  0.57635621410E+01  0.58942615620E+01  0.72461501313E+02  0.69999910140E+02 0.  0.
         12    1    1    2    0    0  0.16814302993E+02 -0.57635621410E+01 -0.58942615620E+01  0.18726498687E+02  0.00000000000E+00 0. -1.
         11    1    3    3    0    0 -0.69801787473E+01 -0.54332892217E+01 -0.35464823498E+01  0.95300086270E+01  0.51100000000E-03 0. -1.
        -11    1    3    3    0    0 -0.26408088793E+02 -0.64592262295E+01 -0.12802307652E+02  0.30050088829E+02  0.51100000000E-03 0.  1.
         12    1    3    3    0    0  0.16573964547E+02  0.17656077592E+02  0.22243051564E+02  0.32881403857E+02  0.00000000000E+00 0. -1.
</event>
<event>
 7    1  0.3434711E-013  0.7246163E+02  0.7816164E-02  0.1226708E+00
        -11   -1    0    0    0    0  0.00000000000E+00  0.00000000000E+00  0.45593999997E+02  0.45594000000E+02  0.51100000000E-03 0. -1.
         11   -1    0    0    0    0 -0.00000000000E+00 -0.00000000000E+00 -0.45593999997E+02  0.45594000000E+02  0.51100000000E-03 0.  1.
    9900012    2    1    2    0    0  0.36970056514E+01 -0.15032619748E+02 -0.10537056306E+02  0.72461626543E+02  0.70000073274E+02 0.  0.
         12    1    1    2    0    0 -0.36970056514E+01  0.15032619748E+02  0.10537056306E+02  0.18726373457E+02  0.00000000000E+00 0. -1.
         11    1    3    3    0    0 -0.62641413266E+01 -0.39417964708E+01  0.53699594667E+01  0.91440522151E+01  0.51100000000E-03 0. -1.
        -11    1    3    3    0    0 -0.15332006634E+02  0.64846583405E+01 -0.26028895537E+02  0.30897000248E+02  0.51100000000E-03 0.  1.
         12    1    3    3    0    0  0.25293153612E+02 -0.17575481617E+02  0.10121879764E+02  0.32420574080E+02  0.00000000000E+00 0. -1.
</event>
<event>
 7    1  0.3434711E-013  0.7246202E+02  0.7816164E-02  0.1226707E+00
        -11   -1    0    0    0    0  0.00000000000E+00  0.00000000000E+00  0.45593999997E+02  0.45594000000E+02  0.51100000000E-03 0.  1.
         11   -1    0    0    0    0 -0.00000000000E+00 -0.00000000000E+00 -0.45593999997E+02  0.45594000000E+02  0.51100000000E-03 0. -1.
    9900012    2    1    2    0    0  0.57798103336E+01  0.59848137301E+01  0.16776116620E+02  0.72462020941E+02  0.70000587049E+02 0.  0.
         12    1    1    2    0    0 -0.57798103336E+01 -0.59848137301E+01 -0.16776116620E+02  0.18725979059E+02  0.00000000000E+00 0. -1.
         11    1    3    3    0    0  0.30214283812E+01 -0.42670995397E+01 -0.15077067784E+02  0.15957917820E+02  0.51100000000E-03 0. -1.
        -11    1    3    3    0    0  0.10349477684E+02 -0.26355161015E+01 -0.83836241729E+01  0.13577289419E+02  0.51100000000E-03 0.  1.
        -12    1    3    3    0    0 -0.75910957311E+01  0.12887429371E+02  0.40236808576E+02  0.42926813702E+02  0.00000000000E+00 0.  1.
</event>
<event>
 7    1  0.3434711E-013  0.7246158E+02  0.7816164E-02  0.1226708E+00
        -11   -1    0    0    0    0  0.00000000000E+00  0.00000000000E+00  0.45593999997E+02  0.45594000000E+02  0.51100000000E-03 0.  1.
         11   -1    0    0    0    0 -0.00000000000E+00 -0.00000000000E+00 -0.45593999997E+02  0.45594000000E+02  0.51100000000E-03 0. -1.
    9900012    2    1    2    0    0 -0.14914900795E+02 -0.10104898212E+02 -0.51103524409E+01  0.72461576538E+02  0.70000008134E+02 0.  0.
         12    1    1    2    0    0  0.14914900795E+02  0.10104898212E+02  0.51103524409E+01  0.18726423462E+02  0.00000000000E+00 0. -1.
         11    1    3    3    0    0 -0.16674033230E+01  0.52479651355E+01 -0.90677335462E+01  0.10608730548E+02  0.51100000000E-03 0. -1.
        -11    1    3    3    0    0 -0.10283346353E+02  0.61418793713E+01  0.27403631300E+02  0.29907004249E+02  0.51100000000E-03 0.  1.
         12    1    3    3    0    0 -0.29641511193E+01 -0.21494742718E+02 -0.23446250195E+02  0.31945841742E+02  0.00000000000E+00 0. -1.
</event>
<event>
 7    1  0.3434711E-013  0.7246149E+02  0.7816164E-02  0.1226708E+00
        -11   -1    0    0    0    0  0.00000000000E+00  0.00000000000E+00  0.45593999997E+02  0.45594000000E+02  0.51100000000E-03 0.  1.
         11   -1    0    0    0    0 -0.00000000000E+00 -0.00000000000E+00 -0.45593999997E+02  0.45594000000E+02  0.51100000000E-03 0. -1.
    9900012    2    1    2    0    0 -0.15271996159E+02  0.74272864143E+01  0.78920149290E+01  0.72461485380E+02  0.69999889384E+02 0.  0.
         12    1    1    2    0    0  0.15271996159E+02 -0.74272864143E+01 -0.78920149290E+01  0.18726514620E+02  0.00000000000E+00 0. -1.
         11    1    3    3    0    0 -0.35666473204E+01 -0.10128239563E+02  0.80432246153E+01  0.13416246578E+02  0.51100000000E-03 0.  1.
        -11    1    3    3    0    0  0.11779427228E+02  0.28518627509E+02 -0.81637544413E+01  0.31917297938E+02  0.51100000000E-03 0. -1.
         12    1    3    3    0    0 -0.23484776067E+02 -0.10963101532E+02  0.80125447550E+01  0.27127940865E+02  0.00000000000E+00 0. -1.
</event>
<event>
 7    1  0.3434711E-013  0.7246156E+02  0.7816164E-02  0.1226708E+00
        -11   -1    0    0    0    0  0.00000000000E+00  0.00000000000E+00  0.45593999997E+02  0.45594000000E+02  0.51100000000E-03 0.  1.
         11   -1    0    0    0    0 -0.00000000000E+00 -0.00000000000E+00 -0.45593999997E+02  0.45594000000E+02  0.51100000000E-03 0. -1.
    9900012    2    1    2    0    0 -0.15540997531E+02 -0.89181186658E+01 -0.54427992520E+01  0.72461561244E+02  0.69999988210E+02 0.  0.
         12    1    1    2    0    0  0.15540997531E+02  0.89181186658E+01  0.54427992520E+01  0.18726438756E+02  0.00000000000E+00 0. -1.
         11    1    3    3    0    0  0.53729431111E+01  0.78002023273E+01 -0.42144577912E+01  0.10366934395E+02  0.51100000000E-03 0. -1.
        -11    1    3    3    0    0  0.69697819576E+01  0.16763475714E+02 -0.33918097043E+01  0.18468794001E+02  0.51100000000E-03 0.  1.
         12    1    3    3    0    0 -0.27883722600E+02 -0.33481796707E+02  0.21634682435E+01  0.43625832847E+02  0.00000000000E+00 0. -1.
</event>
<event>
 7    1  0.3434711E-013  0.7246154E+02  0.7816164E-02  0.1226708E+00
        -11   -1    0    0    0    0  0.00000000000E+00  0.00000000000E+00  0.45593999997E+02  0.45594000000E+02  0.51100000000E-03 0. -1.
         11   -1    0    0    0    0 -0.00000000000E+00 -0.00000000000E+00 -0.45593999997E+02  0.45594000000E+02  0.51100000000E-03 0.  1.
    9900012    2    1    2    0    0  0.13420756723E+02 -0.10025834220E+02 -0.83693584318E+01  0.72461542156E+02  0.69999963345E+02 0.  0.
         12    1    1    2    0    0 -0.13420756723E+02  0.10025834220E+02  0.83693584318E+01  0.18726457844E+02  0.00000000000E+00 0. -1.
         11    1    3    3    0    0 -0.38276021450E+01 -0.61428605301E+01  0.10595961206E+02  0.12831978328E+02  0.51100000000E-03 0. -1.
        -11    1    3    3    0    0  0.11922777675E+02 -0.40565384441E+01  0.18173347575E+02  0.22110601393E+02  0.51100000000E-03 0.  1.
        -12    1    3    3    0    0  0.53255811927E+01  0.17356475440E+00 -0.37138667213E+02  0.37518962434E+02  0.00000000000E+00 0.  1.
</event>
<event>
 7    1  0.3434711E-013  0.7246156E+02  0.7816164E-02  0.1226708E+00
        -11   -1    0    0    0    0  0.00000000000E+00  0.00000000000E+00  0.45593999997E+02  0.45594000000E+02  0.51100000000E-03 0.  1.
         11   -1    0    0    0    0 -0.00000000000E+00 -0.00000000000E+00 -0.45593999997E+02  0.45594000000E+02  0.51100000000E-03 0. -1.
    9900012    2    1    2    0    0  0.16416380995E+02  0.10714066415E+01  0.89461677387E+01  0.72461564290E+02  0.69999992179E+02 0.  0.
         12    1    1    2    0    0 -0.16416380995E+02 -0.10714066415E+01 -0.89461677387E+01  0.18726435710E+02  0.00000000000E+00 0. -1.
         11    1    3    3    0    0  0.13207397274E+02  0.14460606946E+02  0.12561712903E+02  0.23266738648E+02  0.51100000000E-03 0. -1.
        -11    1    3    3    0    0  0.14683520041E+02 -0.24167535014E+02 -0.12721359412E+02  0.31008200447E+02  0.51100000000E-03 0.  1.
         12    1    3    3    0    0 -0.11474536320E+02  0.10778334709E+02  0.91058142475E+01  0.18186625195E+02  0.00000000000E+00 0. -1.
</event>
<event>
 7    1  0.3434711E-013  0.7246167E+02  0.7816164E-02  0.1226708E+00
        -11   -1    0    0    0    0  0.00000000000E+00  0.00000000000E+00  0.45593999997E+02  0.45594000000E+02  0.51100000000E-03 0. -1.
         11   -1    0    0    0    0 -0.00000000000E+00 -0.00000000000E+00 -0.45593999997E+02  0.45594000000E+02  0.51100000000E-03 0.  1.
    9900012    2    1    2    0    0  0.18197843697E+02  0.94834047685E+00 -0.43144680427E+01  0.72461668289E+02  0.70000127655E+02 0.  0.
         12    1    1    2    0    0 -0.18197843697E+02 -0.94834047685E+00  0.43144680427E+01  0.18726331711E+02  0.00000000000E+00 0. -1.
         11    1    3    3    0    0 -0.74663401210E+01  0.84912933729E+01 -0.65149584544E+01  0.13049635316E+02  0.51100000000E-03 0. -1.
        -11    1    3    3    0    0 -0.83433238794E+01 -0.19458995850E+02  0.85293837128E+01  0.22825730210E+02  0.51100000000E-03 0.  1.
         12    1    3    3    0    0  0.34007507697E+02  0.11916042954E+02 -0.63288933010E+01  0.36586302763E+02  0.00000000000E+00 0. -1.
</event>
<event>
 7    1  0.3434711E-013  0.7246155E+02  0.7816164E-02  0.1226708E+00
        -11   -1    0    0    0    0  0.00000000000E+00  0.00000000000E+00  0.45593999997E+02  0.45594000000E+02  0.51100000000E-03 0. -1.
         11   -1    0    0    0    0 -0.00000000000E+00 -0.00000000000E+00 -0.45593999997E+02  0.45594000000E+02  0.51100000000E-03 0.  1.
    9900012    2    1    2    0    0 -0.16633214851E+02 -0.84065019605E+01 -0.18293867166E+01  0.72461554335E+02  0.69999979209E+02 0.  0.
         12    1    1    2    0    0  0.16633214851E+02  0.84065019605E+01  0.18293867166E+01  0.18726445665E+02  0.00000000000E+00 0. -1.
         11    1    3    3    0    0  0.13628602875E+02 -0.65104056990E+01  0.51626785541E+01  0.15961749553E+02  0.51100000000E-03 0. -1.
        -11    1    3    3    0    0 -0.66890914189E+01 -0.22785608473E+02  0.17523541559E+01  0.23811733302E+02  0.51100000000E-03 0.  1.
        -12    1    3    3    0    0 -0.23572726307E+02  0.20889512211E+02 -0.87444194266E+01  0.32688071480E+02  0.00000000000E+00 0.  1.
</event>
<event>
 7    1  0.3434711E-013  0.7246111E+02  0.7816164E-02  0.1226709E+00
        -11   -1    0    0    0    0  0.00000000000E+00  0.00000000000E+00  0.45593999997E+02  0.45594000000E+02  0.51100000000E-03 0. -1.
         11   -1    0    0    0    0 -0.00000000000E+00 -0.00000000000E+00 -0.45593999997E+02  0.45594000000E+02  0.51100000000E-03 0.  1.
    9900012    2    1    2    0    0 -0.13114034221E+02 -0.13318389140E+02 -0.11571848291E+01  0.72461108652E+02  0.69999398623E+02 0.  0.
         12    1    1    2    0    0  0.13114034221E+02  0.13318389140E+02  0.11571848291E+01  0.18726891348E+02  0.00000000000E+00 0. -1.
         11    1    3    3    0    0  0.82220322628E+01 -0.34363854145E+01  0.32120473664E+01  0.94724763285E+01  0.51100000000E-03 0. -1.
        -11    1    3    3    0    0 -0.13551482313E+02  0.23204332626E+02  0.58396478343E+01  0.27498822021E+02  0.51100000000E-03 0.  1.
         12    1    3    3    0    0 -0.77845841707E+01 -0.33086336351E+02 -0.10208880030E+02  0.35489810302E+02  0.00000000000E+00 0. -1.
</event>
<event>
 7    1  0.3434711E-013  0.7246156E+02  0.7816164E-02  0.1226708E+00
        -11   -1    0    0    0    0  0.00000000000E+00  0.00000000000E+00  0.45593999997E+02  0.45594000000E+02  0.51100000000E-03 0.  1.
         11   -1    0    0    0    0 -0.00000000000E+00 -0.00000000000E+00 -0.45593999997E+02  0.45594000000E+02  0.51100000000E-03 0. -1.
    9900012    2    1    2    0    0 -0.97405485482E+01 -0.15993675560E+02  0.60557847938E-01  0.72461558502E+02  0.69999984638E+02 0.  0.
         12    1    1    2    0    0  0.97405485482E+01  0.15993675560E+02 -0.60557847938E-01  0.18726441498E+02  0.00000000000E+00 0. -1.
         11    1    3    3    0    0  0.10411166391E+02 -0.29629016424E+02  0.14451300215E+01  0.31438183804E+02  0.51100000000E-03 0. -1.
        -11    1    3    3    0    0 -0.30154989273E+01  0.49155830695E+01  0.14804696366E+02  0.15888210265E+02  0.51100000000E-03 0.  1.
        -12    1    3    3    0    0 -0.17136216012E+02  0.87197577947E+01 -0.16189268539E+02  0.25135164432E+02  0.00000000000E+00 0.  1.
</event>
<event>
 7    1  0.3434711E-013  0.7246154E+02  0.7816164E-02  0.1226708E+00
        -11   -1    0    0    0    0  0.00000000000E+00  0.00000000000E+00  0.45593999997E+02  0.45594000000E+02  0.51100000000E-03 0.  1.
         11   -1    0    0    0    0 -0.00000000000E+00 -0.00000000000E+00 -0.45593999997E+02  0.45594000000E+02  0.51100000000E-03 0. -1.
    9900012    2    1    2    0    0 -0.86578069013E+01  0.12607765386E+02 -0.10805872316E+02  0.72461541582E+02  0.69999962597E+02 0.  0.
         12    1    1    2    0    0  0.86578069013E+01 -0.12607765386E+02  0.10805872316E+02  0.18726458418E+02  0.00000000000E+00 0. -1.
         11    1    3    3    0    0 -0.14585629169E+01  0.61646223551E+01  0.58777740861E+01  0.86416551095E+01  0.51100000000E-03 0. -1.
        -11    1    3    3    0    0  0.33539493023E+01  0.20585075618E+02  0.16261538941E+02  0.26446776044E+02  0.51100000000E-03 0.  1.
         12    1    3    3    0    0 -0.10553193287E+02 -0.14141932587E+02 -0.32945185343E+02  0.37373110429E+02  0.00000000000E+00 0. -1.
</event>
<event>
 7    1  0.3434711E-013  0.7246161E+02  0.7816164E-02  0.1226708E+00
        -11   -1    0    0    0    0  0.00000000000E+00  0.00000000000E+00  0.45593999997E+02  0.45594000000E+02  0.51100000000E-03 0.  1.
         11   -1    0    0    0    0 -0.00000000000E+00 -0.00000000000E+00 -0.45593999997E+02  0.45594000000E+02  0.51100000000E-03 0. -1.
    9900012    2    1    2    0    0 -0.14129411560E+01  0.67642509980E+01  0.17404779837E+02  0.72461605381E+02  0.70000045706E+02 0.  0.
         12    1    1    2    0    0  0.14129411560E+01 -0.67642509980E+01 -0.17404779837E+02  0.18726394619E+02  0.00000000000E+00 0. -1.
         11    1    3    3    0    0  0.86209967650E+01  0.19539041754E+00 -0.17352238168E+01  0.87960652904E+01  0.51100000000E-03 0. -1.
        -11    1    3    3    0    0  0.40659768223E+01  0.16041286281E+02 -0.17004995892E+02  0.23728146127E+02  0.51100000000E-03 0.  1.
        -12    1    3    3    0    0 -0.14099914743E+02 -0.94724257007E+01  0.36144999546E+02  0.39937393963E+02  0.00000000000E+00 0.  1.
</event>
<event>
 7    1  0.3434711E-013  0.7246153E+02  0.7816164E-02  0.1226708E+00
        -11   -1    0    0    0    0  0.00000000000E+00  0.00000000000E+00  0.45593999997E+02  0.45594000000E+02  0.51100000000E-03 0.  1.
         11   -1    0    0    0    0 -0.00000000000E+00 -0.00000000000E+00 -0.45593999997E+02  0.45594000000E+02  0.51100000000E-03 0. -1.
    9900012    2    1    2    0    0  0.46309268737E+01  0.61090246255E+01  0.17085518218E+02  0.72461532144E+02  0.69999950302E+02 0.  0.
         12    1    1    2    0    0 -0.46309268737E+01 -0.61090246255E+01 -0.17085518218E+02  0.18726467856E+02  0.00000000000E+00 0. -1.
         11    1    3    3    0    0 -0.86012066242E+01 -0.17450491333E+02  0.92972389562E+01  0.21562445493E+02  0.51100000000E-03 0. -1.
        -11    1    3    3    0    0  0.34351943486E+01  0.67197170082E+01  0.24247540383E+02  0.25394849316E+02  0.51100000000E-03 0.  1.
         12    1    3    3    0    0  0.97969391493E+01  0.16839798951E+02 -0.16459261121E+02  0.25504237335E+02  0.00000000000E+00 0. -1.
</event>
<event>
 7    1  0.3434711E-013  0.7246159E+02  0.7816164E-02  0.1226708E+00
        -11   -1    0    0    0    0  0.00000000000E+00  0.00000000000E+00  0.45593999997E+02  0.45594000000E+02  0.51100000000E-03 0. -1.
         11   -1    0    0    0    0 -0.00000000000E+00 -0.00000000000E+00 -0.45593999997E+02  0.45594000000E+02  0.51100000000E-03 0.  1.
    9900012    2    1    2    0    0 -0.14473992861E+02 -0.74472003834E+01 -0.92585769688E+01  0.72461587894E+02  0.70000022927E+02 0.  0.
         12    1    1    2    0    0  0.14473992861E+02  0.74472003834E+01  0.92585769688E+01  0.18726412106E+02  0.00000000000E+00 0. -1.
         11    1    3    3    0    0  0.17445913874E+02 -0.99383179663E+01 -0.16334064397E+02  0.25883039522E+02  0.51100000000E-03 0. -1.
        -11    1    3    3    0    0  0.63122068547E+01 -0.36464978350E+01  0.54541957745E+00  0.73101562647E+01  0.51100000000E-03 0.  1.
        -12    1    3    3    0    0 -0.38232113589E+02  0.61376154179E+01  0.65300678512E+01  0.39268392107E+02  0.00000000000E+00 0.  1.
</event>
<event>
 7    1  0.3434711E-013  0.7246160E+02  0.7816164E-02  0.1226708E+00
        -11   -1    0    0    0    0  0.00000000000E+00  0.00000000000E+00  0.45593999997E+02  0.45594000000E+02  0.51100000000E-03 0.  1.
         11   -1    0    0    0    0 -0.00000000000E+00 -0.00000000000E+00 -0.45593999997E+02  0.45594000000E+02  0.51100000000E-03 0. -1.
    9900012    2    1    2    0    0 -0.18533079916E+02 -0.23804191577E+01 -0.12396223220E+01  0.72461598583E+02  0.70000036851E+02 0.  0.
         12    1    1    2    0    0  0.18533079916E+02  0.23804191577E+01  0.12396223220E+01  0.18726401417E+02  0.00000000000E+00 0. -1.
         11    1    3    3    0    0  0.53592329251E+01 -0.64026008352E+01  0.22777910795E+02  0.24260006089E+02  0.51100000000E-03 0. -1.
        -11    1    3    3    0    0  0.23752176666E+01  0.33020615157E+00  0.69936799355E+01  0.73933926156E+01  0.51100000000E-03 0.  1.
        -12    1    3    3    0    0 -0.26267530508E+02  0.36919755259E+01 -0.31011213053E+02  0.40808199878E+02  0.00000000000E+00 0.  1.
</event>
<event>
 7    1  0.3434711E-013  0.7246159E+02  0.7816164E-02  0.1226708E+00
        -11   -1    0    0    0    0  0.00000000000E+00  0.00000000000E+00  0.45593999997E+02  0.45594000000E+02  0.51100000000E-03 0.  1.
         11   -1    0    0    0    0 -0.00000000000E+00 -0.00000000000E+00 -0.45593999997E+02  0.45594000000E+02  0.51100000000E-03 0. -1.
    9900012    2    1    2    0    0 -0.32530265833E+00 -0.11008534901E+02  0.15145451726E+02  0.72461591629E+02  0.70000027792E+02 0.  0.
         12    1    1    2    0    0  0.32530265833E+00  0.11008534901E+02 -0.15145451726E+02  0.18726408371E+02  0.00000000000E+00 0. -1.
         11    1    3    3    0    0 -0.38097702051E+01  0.17451214697E+02  0.18231723743E+02  0.25523616403E+02  0.51100000000E-03 0. -1.
        -11    1    3    3    0    0 -0.12775310299E+02  0.13222297215E+01  0.22296211333E+00  0.12845487808E+02  0.51100000000E-03 0.  1.
        -12    1    3    3    0    0  0.16259777846E+02 -0.29781979319E+02 -0.33092341297E+01  0.34092487417E+02  0.00000000000E+00 0.  1.
</event>
<event>
 7    1  0.3434711E-013  0.7246157E+02  0.7816164E-02  0.1226708E+00
        -11   -1    0    0    0    0  0.00000000000E+00  0.00000000000E+00  0.45593999997E+02  0.45594000000E+02  0.51100000000E-03 0.  1.
         11   -1    0    0    0    0 -0.00000000000E+00 -0.00000000000E+00 -0.45593999997E+02  0.45594000000E+02  0.51100000000E-03 0. -1.
    9900012    2    1    2    0    0  0.16321925223E+02 -0.47529047709E+01  0.78538967827E+01  0.72461573714E+02  0.70000004455E+02 0.  0.
         12    1    1    2    0    0 -0.16321925223E+02  0.47529047709E+01 -0.78538967827E+01  0.18726426286E+02  0.00000000000E+00 0. -1.
         11    1    3    3    0    0  0.22956970958E+02  0.10242945523E+02 -0.89177937010E+01  0.26673347996E+02  0.51100000000E-03 0. -1.
        -11    1    3    3    0    0 -0.73282231713E+01  0.12623614251E+02  0.87535724227E+01  0.17020091716E+02  0.51100000000E-03 0.  1.
         12    1    3    3    0    0  0.69317743657E+00 -0.27619464545E+02  0.80181180611E+01  0.28768134002E+02  0.00000000000E+00 0. -1.
</event>
<event>
 7    1  0.3434711E-013  0.7246158E+02  0.7816164E-02  0.1226708E+00
        -11   -1    0    0    0    0  0.00000000000E+00  0.00000000000E+00  0.45593999997E+02  0.45594000000E+02  0.51100000000E-03 0. -1.
         11   -1    0    0    0    0 -0.00000000000E+00 -0.00000000000E+00 -0.45593999997E+02  0.45594000000E+02  0.51100000000E-03 0.  1.
    9900012    2    1    2    0    0  0.12674384772E+02  0.13496691230E+02  0.28067692877E+01  0.72461583970E+02  0.70000017814E+02 0.  0.
         12    1    1    2    0    0 -0.12674384772E+02 -0.13496691230E+02 -0.28067692877E+01  0.18726416030E+02  0.00000000000E+00 0. -1.
         11    1    3    3    0    0 -0.68337448090E+01 -0.88641511473E+01 -0.55621665514E+01  0.12498437530E+02  0.51100000000E-03 0. -1.
        -11    1    3    3    0    0  0.43477814128E+01 -0.97346545684E+01 -0.14306899416E+02  0.17842479478E+02  0.51100000000E-03 0.  1.
         12    1    3    3    0    0  0.15160348169E+02  0.32095496945E+02  0.22675835255E+02  0.42120666961E+02  0.00000000000E+00 0. -1.
</event>
<event>
 7    1  0.3434711E-013  0.7246166E+02  0.7816164E-02  0.1226708E+00
        -11   -1    0    0    0    0  0.00000000000E+00  0.00000000000E+00  0.45593999997E+02  0.45594000000E+02  0.51100000000E-03 0. -1.
         11   -1    0    0    0    0 -0.00000000000E+00 -0.00000000000E+00 -0.45593999997E+02  0.45594000000E+02  0.51100000000E-03 0.  1.
    9900012    2    1    2    0    0 -0.11860649506E+02  0.14130570423E+02 -0.32136783766E+01  0.72461661439E+02  0.70000118733E+02 0.  0.
         12    1    1    2    0    0  0.11860649506E+02 -0.14130570423E+02  0.32136783766E+01  0.18726338561E+02  0.00000000000E+00 0. -1.
         11    1    3    3    0    0  0.21150656206E+02 -0.56888955671E+01  0.91455941536E+01  0.23735114986E+02  0.51100000000E-03 0. -1.
        -11    1    3    3    0    0 -0.44017601603E+01  0.17179292471E+02 -0.78470459792E+00  0.17751601164E+02  0.51100000000E-03 0.  1.
        -12    1    3    3    0    0 -0.28609545551E+02  0.26401735187E+01 -0.11574567932E+02  0.30974945289E+02  0.00000000000E+00 0.  1.
</event>
<event>
 7    1  0.3434711E-013  0.7246156E+02  0.7816164E-02  0.1226708E+00
        -11   -1    0    0    0    0  0.00000000000E+00  0.00000000000E+00  0.45593999997E+02  0.45594000000E+02  0.51100000000E-03 0.  1.
         11   -1    0    0    0    0 -0.00000000000E+00 -0.00000000000E+00 -0.45593999997E+02  0.45594000000E+02  0.51100000000E-03 0. -1.
    9900012    2    1    2    0    0 -0.50276839581E+01 -0.90163685825E+01  0.15623931383E+02  0.72461555055E+02  0.69999980148E+02 0.  0.
         12    1    1    2    0    0  0.50276839581E+01  0.90163685825E+01 -0.15623931383E+02  0.18726444945E+02  0.00000000000E+00 0. -1.
         11    1    3    3    0    0  0.33402222454E+01  0.75566123324E+01  0.14473644322E+02  0.16665708950E+02  0.51100000000E-03 0. -1.
        -11    1    3    3    0    0  0.20280537273E+02 -0.35063704349E+01 -0.93471239843E+01  0.22604502931E+02  0.51100000000E-03 0.  1.
         12    1    3    3    0    0 -0.28648443476E+02 -0.13066610480E+02  0.10497411045E+02  0.33191343174E+02  0.00000000000E+00 0. -1.
</event>
<event>
 7    1  0.3434711E-013  0.7246152E+02  0.7816164E-02  0.1226708E+00
        -11   -1    0    0    0    0  0.00000000000E+00  0.00000000000E+00  0.45593999997E+02  0.45594000000E+02  0.51100000000E-03 0.  1.
         11   -1    0    0    0    0 -0.00000000000E+00 -0.00000000000E+00 -0.45593999997E+02  0.45594000000E+02  0.51100000000E-03 0. -1.
    9900012    2    1    2    0    0 -0.37185271660E+01 -0.12472532186E+02  0.13464381247E+02  0.72461519664E+02  0.69999934045E+02 0.  0.
         12    1    1    2    0    0  0.37185271660E+01  0.12472532186E+02 -0.13464381247E+02  0.18726480336E+02  0.00000000000E+00 0. -1.
         11    1    3    3    0    0  0.13123501500E+01 -0.23117618180E+01  0.23932596847E+00  0.26690415507E+01  0.51100000000E-03 0. -1.
        -11    1    3    3    0    0  0.14511803054E+02 -0.34431827477E+02  0.74849752623E+01  0.38107322475E+02  0.51100000000E-03 0.  1.
         12    1    3    3    0    0 -0.19542680370E+02  0.24271057109E+02  0.57400800160E+01  0.31685155638E+02  0.00000000000E+00 0. -1.
</event>
<event>
 7    1  0.3434711E-013  0.7246190E+02  0.7816164E-02  0.1226707E+00
        -11   -1    0    0    0    0  0.00000000000E+00  0.00000000000E+00  0.45593999997E+02  0.45594000000E+02  0.51100000000E-03 0. -1.
         11   -1    0    0    0    0 -0.00000000000E+00 -0.00000000000E+00 -0.45593999997E+02  0.45594000000E+02  0.51100000000E-03 0.  1.
    9900012    2    1    2    0    0 -0.29059195769E+01 -0.17815157443E+02 -0.49842465921E+01  0.72461897432E+02  0.70000426156E+02 0.  0.
         12    1    1    2    0    0  0.29059195769E+01  0.17815157443E+02  0.49842465921E+01  0.18726102568E+02  0.00000000000E+00 0. -1.
         11    1    3    3    0    0  0.19024941059E+02 -0.13156205407E+02 -0.53976386674E+01  0.23752234136E+02  0.51100000000E-03 0. -1.
        -11    1    3    3    0    0 -0.65443410155E+01 -0.16478475132E+02  0.15953485120E+02  0.23851252163E+02  0.51100000000E-03 0.  1.
        -12    1    3    3    0    0 -0.15386519620E+02  0.11819523095E+02 -0.15540093045E+02  0.24858411133E+02  0.00000000000E+00 0.  1.
</event>
<event>
 7    1  0.3434711E-013  0.7246161E+02  0.7816164E-02  0.1226708E+00
        -11   -1    0    0    0    0  0.00000000000E+00  0.00000000000E+00  0.45593999997E+02  0.45594000000E+02  0.51100000000E-03 0.  1.
         11   -1    0    0    0    0 -0.00000000000E+00 -0.00000000000E+00 -0.45593999997E+02  0.45594000000E+02  0.51100000000E-03 0. -1.
    9900012    2    1    2    0    0 -0.83198355312E+01 -0.15739156265E+02 -0.58083538604E+01  0.72461610125E+02  0.70000051887E+02 0.  0.
         12    1    1    2    0    0  0.83198355312E+01  0.15739156265E+02  0.58083538604E+01  0.18726389875E+02  0.00000000000E+00 0. -1.
         11    1    3    3    0    0  0.92989310395E+00  0.17665566398E+02 -0.24058430419E+01  0.17852871432E+02  0.51100000000E-03 0. -1.
        -11    1    3    3    0    0  0.16489343051E+02 -0.18374261866E+02 -0.10741592471E+01  0.24711652145E+02  0.51100000000E-03 0.  1.
        -12    1    3    3    0    0 -0.25739071686E+02 -0.15030460797E+02 -0.23283515715E+01  0.29897086548E+02  0.00000000000E+00 0.  1.
</event>
<event>
 7    1  0.3434711E-013  0.7246157E+02  0.7816164E-02  0.1226708E+00
        -11   -1    0    0    0    0  0.00000000000E+00  0.00000000000E+00  0.45593999997E+02  0.45594000000E+02  0.51100000000E-03 0. -1.
         11   -1    0    0    0    0 -0.00000000000E+00 -0.00000000000E+00 -0.45593999997E+02  0.45594000000E+02  0.51100000000E-03 0.  1.
    9900012    2    1    2    0    0 -0.34497389289E+01 -0.88400476544E+01 -0.16144105677E+02  0.72461567095E+02  0.69999995833E+02 0.  0.
         12    1    1    2    0    0  0.34497389289E+01  0.88400476544E+01  0.16144105677E+02  0.18726432905E+02  0.00000000000E+00 0. -1.
         11    1    3    3    0    0  0.56427068316E+01 -0.18374847573E+02  0.27023690235E+01  0.19410769235E+02  0.51100000000E-03 0. -1.
        -11    1    3    3    0    0  0.16799530397E+02  0.15180209754E+02 -0.12243147821E+02  0.25740195387E+02  0.51100000000E-03 0.  1.
         12    1    3    3    0    0 -0.25891976158E+02 -0.56454098354E+01 -0.66033268801E+01  0.27310602473E+02  0.00000000000E+00 0. -1.
</event>
<event>
 7    1  0.3434711E-013  0.7246170E+02  0.7816164E-02  0.1226708E+00
        -11   -1    0    0    0    0  0.00000000000E+00  0.00000000000E+00  0.45593999997E+02  0.45594000000E+02  0.51100000000E-03 0.  1.
         11   -1    0    0    0    0 -0.00000000000E+00 -0.00000000000E+00 -0.45593999997E+02  0.45594000000E+02  0.51100000000E-03 0. -1.
    9900012    2    1    2    0    0  0.17250216631E+02 -0.30084516259E+01 -0.66372769816E+01  0.72461702963E+02  0.70000172825E+02 0.  0.
         12    1    1    2    0    0 -0.17250216631E+02  0.30084516259E+01  0.66372769816E+01  0.18726297037E+02  0.00000000000E+00 0. -1.
         11    1    3    3    0    0 -0.60165025554E+01 -0.97320146280E+01 -0.24985728791E+02  0.27480848880E+02  0.51100000000E-03 0. -1.
        -11    1    3    3    0    0  0.14184669360E+02 -0.13026555027E+02  0.99452528345E+01  0.21674963320E+02  0.51100000000E-03 0.  1.
        -12    1    3    3    0    0  0.90820498268E+01  0.19750118029E+02  0.84031989748E+01  0.23305890762E+02  0.00000000000E+00 0.  1.
</event>
<event>
 7    1  0.3434711E-013  0.7246156E+02  0.7816164E-02  0.1226708E+00
        -11   -1    0    0    0    0  0.00000000000E+00  0.00000000000E+00  0.45593999997E+02  0.45594000000E+02  0.51100000000E-03 0.  1.
         11   -1    0    0    0    0 -0.00000000000E+00 -0.00000000000E+00 -0.45593999997E+02  0.45594000000E+02  0.51100000000E-03 0. -1.
    9900012    2    1    2    0    0  0.12010960575E+01  0.18505651467E+02 -0.26034470857E+01  0.72461556005E+02  0.69999981386E+02 0.  0.
         12    1    1    2    0    0 -0.12010960575E+01 -0.18505651467E+02  0.26034470857E+01  0.18726443995E+02  0.00000000000E+00 0. -1.
         11    1    3    3    0    0 -0.12304270164E+01  0.19934927696E+02  0.18481803554E+02  0.27211989192E+02  0.51100000000E-03 0. -1.
        -11    1    3    3    0    0  0.66770217942E+01  0.47922613511E+01  0.10183563736E+02  0.13086380689E+02  0.51100000000E-03 0.  1.
         12    1    3    3    0    0 -0.42454987202E+01 -0.62215375800E+01 -0.31268814376E+02  0.32163186125E+02  0.00000000000E+00 0. -1.
</event>
<event>
 7    1  0.3434711E-013  0.7246163E+02  0.7816164E-02  0.1226708E+00
        -11   -1    0    0    0    0  0.00000000000E+00  0.00000000000E+00  0.45593999997E+02  0.45594000000E+02  0.51100000000E-03 0.  1.
         11   -1    0    0    0    0 -0.00000000000E+00 -0.00000000000E+00 -0.45593999997E+02  0.45594000000E+02  0.51100000000E-03 0. -1.
    9900012    2    1    2    0    0 -0.15364758722E+02  0.10628628428E+02  0.12779751669E+01  0.72461634272E+02  0.70000083343E+02 0.  0.
         12    1    1    2    0    0  0.15364758722E+02 -0.10628628428E+02 -0.12779751669E+01  0.18726365728E+02  0.00000000000E+00 0. -1.
         11    1    3    3    0    0 -0.35293694169E+01  0.81732363830E+01  0.26024053196E+01  0.92752765545E+01  0.51100000000E-03 0. -1.
        -11    1    3    3    0    0 -0.49185241224E+01  0.28772214753E+02  0.13543698080E+02  0.32178626125E+02  0.51100000000E-03 0.  1.
         12    1    3    3    0    0 -0.69168651826E+01 -0.26316822708E+02 -0.14868128233E+02  0.31007731593E+02  0.00000000000E+00 0. -1.
</event>
<event>
 7    1  0.3434711E-013  0.7246151E+02  0.7816164E-02  0.1226708E+00
        -11   -1    0    0    0    0  0.00000000000E+00  0.00000000000E+00  0.45593999997E+02  0.45594000000E+02  0.51100000000E-03 0. -1.
         11   -1    0    0    0    0 -0.00000000000E+00 -0.00000000000E+00 -0.45593999997E+02  0.45594000000E+02  0.51100000000E-03 0.  1.
    9900012    2    1    2    0    0 -0.62113662794E+01  0.17362005891E+02  0.32651139607E+01  0.72461513710E+02  0.69999926288E+02 0.  0.
         12    1    1    2    0    0  0.62113662794E+01 -0.17362005891E+02 -0.32651139607E+01  0.18726486290E+02  0.00000000000E+00 0. -1.
         11    1    3    3    0    0 -0.64060923137E+01 -0.10423828407E+02  0.20207653480E+02  0.23622943864E+02  0.51100000000E-03 0. -1.
        -11    1    3    3    0    0  0.15703263086E+02  0.21539461418E+02 -0.25497392279E+01  0.26777640675E+02  0.51100000000E-03 0.  1.
         12    1    3    3    0    0 -0.15508537052E+02  0.62463728800E+01 -0.14392800291E+02  0.22060929170E+02  0.00000000000E+00 0. -1.
</event>
<event>
 7    1  0.3434711E-013  0.7246158E+02  0.7816164E-02  0.1226708E+00
        -11   -1    0    0    0    0  0.00000000000E+00  0.00000000000E+00  0.45593999997E+02  0.45594000000E+02  0.51100000000E-03 0.  1.
         11   -1    0    0    0    0 -0.00000000000E+00 -0.00000000000E+00 -0.45593999997E+02  0.45594000000E+02  0.51100000000E-03 0. -1.
    9900012    2    1    2    0    0  0.11351639525E+02  0.14811110236E+02  0.15652282706E+01  0.72461584276E+02  0.70000018214E+02 0.  0.
         12    1    1    2    0    0 -0.11351639525E+02 -0.14811110236E+02 -0.15652282706E+01  0.18726415724E+02  0.00000000000E+00 0. -1.
         11    1    3    3    0    0 -0.79675399241E+01 -0.62992637576E+01 -0.42213194772E+01  0.10999179729E+02  0.51100000000E-03 0. -1.
        -11    1    3    3    0    0  0.28144437929E+02 -0.88992098183E+01 -0.65741377498E+00  0.29525201352E+02  0.51100000000E-03 0.  1.
         12    1    3    3    0    0 -0.88252584805E+01  0.30009583812E+02  0.64439615228E+01  0.31937203195E+02  0.00000000000E+00 0. -1.
</event>
<event>
 7    1  0.3434711E-013  0.7246181E+02  0.7816164E-02  0.1226707E+00
        -11   -1    0    0    0    0  0.00000000000E+00  0.00000000000E+00  0.45593999997E+02  0.45594000000E+02  0.51100000000E-03 0. -1.
         11   -1    0    0    0    0 -0.00000000000E+00 -0.00000000000E+00 -0.45593999997E+02  0.45594000000E+02  0.51100000000E-03 0.  1.
    9900012    2    1    2    0    0 -0.90214794782E+01  0.13548113989E+02  0.92591431713E+01  0.72461809333E+02  0.70000311391E+02 0.  0.
         12    1    1    2    0    0  0.90214794782E+01 -0.13548113989E+02 -0.92591431713E+01  0.18726190667E+02  0.00000000000E+00 0. -1.
         11    1    3    3    0    0  0.15792540725E+02  0.14685043025E+01  0.92054010362E+01  0.18338491103E+02  0.51100000000E-03 0.  1.
        -11    1    3    3    0    0  0.21396781810E+01 -0.14565962784E+02  0.57330096386E+01  0.15799142202E+02  0.51100000000E-03 0. -1.
        -12    1    3    3    0    0 -0.26953698384E+02  0.26645572470E+02 -0.56792675036E+01  0.38324176028E+02  0.00000000000E+00 0.  1.
</event>
<event>
 7    1  0.3434711E-013  0.7246159E+02  0.7816164E-02  0.1226708E+00
        -11   -1    0    0    0    0  0.00000000000E+00  0.00000000000E+00  0.45593999997E+02  0.45594000000E+02  0.51100000000E-03 0. -1.
         11   -1    0    0    0    0 -0.00000000000E+00 -0.00000000000E+00 -0.45593999997E+02  0.45594000000E+02  0.51100000000E-03 0.  1.
    9900012    2    1    2    0    0 -0.69151812774E+01  0.17204680786E+02  0.26187185013E+01  0.72461589248E+02  0.70000024691E+02 0.  0.
         12    1    1    2    0    0  0.69151812774E+01 -0.17204680786E+02 -0.26187185013E+01  0.18726410752E+02  0.00000000000E+00 0. -1.
         11    1    3    3    0    0 -0.29580837052E+00  0.49812855963E+01  0.16704786856E+01  0.52622436359E+01  0.51100000000E-03 0. -1.
        -11    1    3    3    0    0 -0.11319461338E+02  0.38664410279E+02  0.18366930699E+01  0.40329149122E+02  0.51100000000E-03 0.  1.
         12    1    3    3    0    0  0.47000884316E+01 -0.26441015090E+02 -0.88845325429E+00  0.26870196490E+02  0.00000000000E+00 0. -1.
</event>
<event>
 7    1  0.3434711E-013  0.7246155E+02  0.7816164E-02  0.1226708E+00
        -11   -1    0    0    0    0  0.00000000000E+00  0.00000000000E+00  0.45593999997E+02  0.45594000000E+02  0.51100000000E-03 0. -1.
         11   -1    0    0    0    0 -0.00000000000E+00 -0.00000000000E+00 -0.45593999997E+02  0.45594000000E+02  0.51100000000E-03 0.  1.
    9900012    2    1    2    0    0  0.37843468037E+01 -0.66720338409E+01 -0.17083396728E+02  0.72461554527E+02  0.69999979460E+02 0.  0.
         12    1    1    2    0    0 -0.37843468037E+01  0.66720338409E+01  0.17083396728E+02  0.18726445473E+02  0.00000000000E+00 0. -1.
         11    1    3    3    0    0  0.77625226908E+01 -0.33981226454E+02 -0.16218702153E+01  0.34894282814E+02  0.51100000000E-03 0. -1.
        -11    1    3    3    0    0  0.52329323537E+01  0.25651101775E+00 -0.37729362825E+00  0.52527830398E+01  0.51100000000E-03 0.  1.
        -12    1    3    3    0    0 -0.92111082407E+01  0.27052681595E+02 -0.15084232884E+02  0.32314488673E+02  0.00000000000E+00 0.  1.
</event>
<event>
 7    1  0.3434711E-013  0.7246161E+02  0.7816164E-02  0.1226708E+00
        -11   -1    0    0    0    0  0.00000000000E+00  0.00000000000E+00  0.45593999997E+02  0.45594000000E+02  0.51100000000E-03 0. -1.
         11   -1    0    0    0    0 -0.00000000000E+00 -0.00000000000E+00 -0.45593999997E+02  0.45594000000E+02  0.51100000000E-03 0.  1.
    9900012    2    1    2    0    0  0.16095710127E+02 -0.22892063270E+01 -0.92932918118E+01  0.72461611593E+02  0.70000053799E+02 0.  0.
         12    1    1    2    0    0 -0.16095710127E+02  0.22892063270E+01  0.92932918118E+01  0.18726388407E+02  0.00000000000E+00 0. -1.
         11    1    3    3    0    0 -0.56850961990E+01 -0.16042345974E+02 -0.22465923972E+01  0.17167537995E+02  0.51100000000E-03 0. -1.
        -11    1    3    3    0    0  0.16022501296E+02 -0.17099657836E+02 -0.38281909051E+01  0.23743923259E+02  0.51100000000E-03 0.  1.
         12    1    3    3    0    0  0.57583050296E+01  0.30852797483E+02 -0.32185085095E+01  0.31550150338E+02  0.00000000000E+00 0. -1.
</event>
<event>
 7    1  0.3434711E-013  0.7246155E+02  0.7816164E-02  0.1226708E+00
        -11   -1    0    0    0    0  0.00000000000E+00  0.00000000000E+00  0.45593999997E+02  0.45594000000E+02  0.51100000000E-03 0.  1.
         11   -1    0    0    0    0 -0.00000000000E+00 -0.00000000000E+00 -0.45593999997E+02  0.45594000000E+02  0.51100000000E-03 0. -1.
    9900012    2    1    2    0    0  0.74354430973E+01  0.17624941017E+01  0.17096425371E+02  0.72461549189E+02  0.69999972506E+02 0.  0.
         12    1    1    2    0    0 -0.74354430973E+01 -0.17624941017E+01 -0.17096425371E+02  0.18726450811E+02  0.00000000000E+00 0. -1.
         11    1    3    3    0    0  0.27361113748E+00  0.27877870560E+02  0.10239925607E+02  0.29700279573E+02  0.51100000000E-03 0. -1.
        -11    1    3    3    0    0  0.16263805034E+02 -0.44562094479E+01  0.90974200090E+01  0.19160694348E+02  0.51100000000E-03 0.  1.
        -12    1    3    3    0    0 -0.91019730743E+01 -0.21659167010E+02 -0.22409202443E+01  0.23600575268E+02  0.00000000000E+00 0.  1.
</event>
<event>
 7    1  0.3434711E-013  0.7246157E+02  0.7816164E-02  0.1226708E+00
        -11   -1    0    0    0    0  0.00000000000E+00  0.00000000000E+00  0.45593999997E+02  0.45594000000E+02  0.51100000000E-03 0. -1.
         11   -1    0    0    0    0 -0.00000000000E+00 -0.00000000000E+00 -0.45593999997E+02  0.45594000000E+02  0.51100000000E-03 0.  1.
    9900012    2    1    2    0    0 -0.13312605680E+02 -0.63780401955E+00 -0.13154727716E+02  0.72461571477E+02  0.70000001540E+02 0.  0.
         12    1    1    2    0    0  0.13312605680E+02  0.63780401955E+00  0.13154727716E+02  0.18726428523E+02  0.00000000000E+00 0. -1.
         11    1    3    3    0    0  0.11454510623E+01  0.22792422201E+02 -0.53707731201E+01  0.23444653380E+02  0.51100000000E-03 0. -1.
        -11    1    3    3    0    0 -0.49617573549E+01  0.10341090670E+01  0.14013704937E+02  0.14902091932E+02  0.51100000000E-03 0.  1.
        -12    1    3    3    0    0 -0.94962993874E+01 -0.24464335288E+02 -0.21797659533E+02  0.34114826165E+02  0.00000000000E+00 0.  1.
</event>
<event>
 7    1  0.3434711E-013  0.7246158E+02  0.7816164E-02  0.1226708E+00
        -11   -1    0    0    0    0  0.00000000000E+00  0.00000000000E+00  0.45593999997E+02  0.45594000000E+02  0.51100000000E-03 0.  1.
         11   -1    0    0    0    0 -0.00000000000E+00 -0.00000000000E+00 -0.45593999997E+02  0.45594000000E+02  0.51100000000E-03 0. -1.
    9900012    2    1    2    0    0 -0.17117170337E+01  0.15995682796E+02 -0.95857745443E+01  0.72461577038E+02  0.70000008785E+02 0.  0.
         12    1    1    2    0    0  0.17117170337E+01 -0.15995682796E+02  0.95857745443E+01  0.18726422962E+02  0.00000000000E+00 0. -1.
         11    1    3    3    0    0  0.17940456089E+02  0.35313930019E+01  0.92359200864E+01  0.20484943771E+02  0.51100000000E-03 0. -1.
        -11    1    3    3    0    0  0.11543612053E+02  0.90101008247E+01  0.12885202939E+01  0.14700244246E+02  0.51100000000E-03 0.  1.
         12    1    3    3    0    0 -0.31195785175E+02  0.34541889698E+01 -0.20110214925E+02  0.37276389021E+02  0.00000000000E+00 0. -1.
</event>
<event>
 7    1  0.3434711E-013  0.7246163E+02  0.7816164E-02  0.1226708E+00
        -11   -1    0    0    0    0  0.00000000000E+00  0.00000000000E+00  0.45593999997E+02  0.45594000000E+02  0.51100000000E-03 0.  1.
         11   -1    0    0    0    0 -0.00000000000E+00 -0.00000000000E+00 -0.45593999997E+02  0.45594000000E+02  0.51100000000E-03 0. -1.
    9900012    2    1    2    0    0  0.17525624011E+02 -0.48564017777E+01 -0.44659754558E+01  0.72461626300E+02  0.70000072957E+02 0.  0.
         12    1    1    2    0    0 -0.17525624011E+02  0.48564017777E+01  0.44659754558E+01  0.18726373700E+02  0.00000000000E+00 0. -1.
         11    1    3    3    0    0  0.48947287505E+01 -0.34454332597E+01  0.13925223540E+00  0.59873843483E+01  0.51100000000E-03 0. -1.
        -11    1    3    3    0    0 -0.20060316226E+02 -0.20021203585E+02 -0.53847975583E+01  0.28848932824E+02  0.51100000000E-03 0.  1.
         12    1    3    3    0    0  0.32691211487E+02  0.18610235067E+02  0.77956986711E+00  0.37625309127E+02  0.00000000000E+00 0. -1.
</event>
<event>
 7    1  0.3434711E-013  0.7246162E+02  0.7816164E-02  0.1226708E+00
        -11   -1    0    0    0    0  0.00000000000E+00  0.00000000000E+00  0.45593999997E+02  0.45594000000E+02  0.51100000000E-03 0.  1.
         11   -1    0    0    0    0 -0.00000000000E+00 -0.00000000000E+00 -0.45593999997E+02  0.45594000000E+02  0.51100000000E-03 0. -1.
    9900012    2    1    2    0    0 -0.26751193854E+01 -0.17961594284E+02 -0.45718726450E+01  0.72461624151E+02  0.70000070158E+02 0.  0.
         12    1    1    2    0    0  0.26751193854E+01  0.17961594284E+02  0.45718726450E+01  0.18726375849E+02  0.00000000000E+00 0. -1.
         11    1    3    3    0    0  0.34532306062E+01 -0.20398004836E+02 -0.42690294077E+01  0.21124109810E+02  0.51100000000E-03 0. -1.
        -11    1    3    3    0    0 -0.37173283488E+01 -0.33167767467E+01 -0.25191318017E+02  0.25679214196E+02  0.51100000000E-03 0.  1.
        -12    1    3    3    0    0 -0.24110216428E+01  0.57531872985E+01  0.24888474780E+02  0.25658300145E+02  0.00000000000E+00 0.  1.
</event>
<event>
 7    1  0.3434711E-013  0.7246141E+02  0.7816164E-02  0.1226708E+00
        -11   -1    0    0    0    0  0.00000000000E+00  0.00000000000E+00  0.45593999997E+02  0.45594000000E+02  0.51100000000E-03 0. -1.
         11   -1    0    0    0    0 -0.00000000000E+00 -0.00000000000E+00 -0.45593999997E+02  0.45594000000E+02  0.51100000000E-03 0.  1.
    9900012    2    1    2    0    0 -0.14870508910E+02  0.10988390050E+02  0.29678784988E+01  0.72461413180E+02  0.69999795329E+02 0.  0.
         12    1    1    2    0    0  0.14870508910E+02 -0.10988390050E+02 -0.29678784988E+01  0.18726586820E+02  0.00000000000E+00 0. -1.
         11    1    3    3    0    0 -0.19545753120E+01  0.11190265373E+02 -0.21034701889E+02  0.23906088923E+02  0.51100000000E-03 0. -1.
        -11    1    3    3    0    0  0.19918369206E+01 -0.10437169775E+02 -0.69577167675E+01  0.12700856275E+02  0.51100000000E-03 0.  1.
         12    1    3    3    0    0 -0.14907770519E+02  0.10235294452E+02  0.30960297155E+02  0.35854467982E+02  0.00000000000E+00 0. -1.
</event>
<event>
 7    1  0.3434711E-013  0.7246156E+02  0.7816164E-02  0.1226708E+00
        -11   -1    0    0    0    0  0.00000000000E+00  0.00000000000E+00  0.45593999997E+02  0.45594000000E+02  0.51100000000E-03 0.  1.
         11   -1    0    0    0    0 -0.00000000000E+00 -0.00000000000E+00 -0.45593999997E+02  0.45594000000E+02  0.51100000000E-03 0. -1.
    9900012    2    1    2    0    0  0.47442540339E+01  0.15678130069E+02 -0.90756687289E+01  0.72461562227E+02  0.69999989490E+02 0.  0.
         12    1    1    2    0    0 -0.47442540339E+01 -0.15678130069E+02  0.90756687289E+01  0.18726437773E+02  0.00000000000E+00 0. -1.
         11    1    3    3    0    0  0.27037764588E+02 -0.10252854019E+02 -0.61773168129E+01  0.29568919032E+02  0.51100000000E-03 0. -1.
        -11    1    3    3    0    0  0.81656898284E+00  0.36736800314E+01  0.81350167651E+01  0.89633257169E+01  0.51100000000E-03 0.  1.
        -12    1    3    3    0    0 -0.23110079536E+02  0.22257304057E+02 -0.11033368681E+02  0.33929317478E+02  0.00000000000E+00 0.  1.
</event>
<event>
 7    1  0.3434711E-013  0.7246145E+02  0.7816164E-02  0.1226708E+00
        -11   -1    0    0    0    0  0.00000000000E+00  0.00000000000E+00  0.45593999997E+02  0.45594000000E+02  0.51100000000E-03 0. -1.
         11   -1    0    0    0    0 -0.00000000000E+00 -0.00000000000E+00 -0.45593999997E+02  0.45594000000E+02  0.51100000000E-03 0.  1.
    9900012    2    1    2    0    0  0.15671549924E+02 -0.12720475732E+01  0.10171923329E+02  0.72461451833E+02  0.69999845682E+02 0.  0.
         12    1    1    2    0    0 -0.15671549924E+02  0.12720475732E+01 -0.10171923329E+02  0.18726548167E+02  0.00000000000E+00 0. -1.
         11    1    3    3    0    0  0.37393433533E+02 -0.16635804738E+01  0.20150238434E+00  0.37430962783E+02  0.51100000000E-03 0. -1.
        -11    1    3    3    0    0  0.45051921598E+01  0.45399067124E+01  0.47555658424E+01  0.79701264793E+01  0.51100000000E-03 0.  1.
        -12    1    3    3    0    0 -0.26227075770E+02 -0.41483738118E+01  0.52148551025E+01  0.27060362571E+02  0.00000000000E+00 0.  1.
</event>
<event>
 7    1  0.3434711E-013  0.7246154E+02  0.7816164E-02  0.1226708E+00
        -11   -1    0    0    0    0  0.00000000000E+00  0.00000000000E+00  0.45593999997E+02  0.45594000000E+02  0.51100000000E-03 0.  1.
         11   -1    0    0    0    0 -0.00000000000E+00 -0.00000000000E+00 -0.45593999997E+02  0.45594000000E+02  0.51100000000E-03 0. -1.
    9900012    2    1    2    0    0 -0.53936806384E+01 -0.16907915971E+02 -0.59758463699E+01  0.72461544031E+02  0.69999965787E+02 0.  0.
         12    1    1    2    0    0  0.53936806384E+01  0.16907915971E+02  0.59758463699E+01  0.18726455969E+02  0.00000000000E+00 0. -1.
         11    1    3    3    0    0 -0.58691225930E+01  0.16412384138E+02 -0.42386730014E+01  0.17938207887E+02  0.51100000000E-03 0. -1.
        -11    1    3    3    0    0  0.87028513324E+01  0.19196314553E+01 -0.13757243222E+02  0.16391654815E+02  0.51100000000E-03 0.  1.
        -12    1    3    3    0    0 -0.82274093778E+01 -0.35239931565E+02  0.12020069853E+02  0.38131681330E+02  0.00000000000E+00 0.  1.
</event>
<event>
 7    1  0.3434711E-013  0.7246159E+02  0.7816164E-02  0.1226708E+00
        -11   -1    0    0    0    0  0.00000000000E+00  0.00000000000E+00  0.45593999997E+02  0.45594000000E+02  0.51100000000E-03 0.  1.
         11   -1    0    0    0    0 -0.00000000000E+00 -0.00000000000E+00 -0.45593999997E+02  0.45594000000E+02  0.51100000000E-03 0. -1.
    9900012    2    1    2    0    0  0.26982734076E+01  0.16801083893E+02  0.78180239937E+01  0.72461585540E+02  0.70000019861E+02 0.  0.
         12    1    1    2    0    0 -0.26982734076E+01 -0.16801083893E+02 -0.78180239937E+01  0.18726414460E+02  0.00000000000E+00 0. -1.
         11    1    3    3    0    0  0.21073529810E+01  0.17896257655E+02  0.55147048991E+01  0.18844865216E+02  0.51100000000E-03 0. -1.
        -11    1    3    3    0    0  0.17363010137E+02  0.19379953960E+02  0.64964398169E+01  0.26819031807E+02  0.51100000000E-03 0.  1.
         12    1    3    3    0    0 -0.16772089710E+02 -0.20475127722E+02 -0.41931207223E+01  0.26797688517E+02  0.00000000000E+00 0. -1.
</event>
<event>
 7    1  0.3434711E-013  0.7246155E+02  0.7816164E-02  0.1226708E+00
        -11   -1    0    0    0    0  0.00000000000E+00  0.00000000000E+00  0.45593999997E+02  0.45594000000E+02  0.51100000000E-03 0.  1.
         11   -1    0    0    0    0 -0.00000000000E+00 -0.00000000000E+00 -0.45593999997E+02  0.45594000000E+02  0.51100000000E-03 0. -1.
    9900012    2    1    2    0    0  0.16111444686E+02 -0.83889246242E+01  0.45527093793E+01  0.72461551621E+02  0.69999975674E+02 0.  0.
         12    1    1    2    0    0 -0.16111444686E+02  0.83889246242E+01 -0.45527093793E+01  0.18726448379E+02  0.00000000000E+00 0. -1.
         11    1    3    3    0    0  0.23138304587E+00  0.13388914147E+02 -0.57246479964E+01  0.14563246723E+02  0.51100000000E-03 0. -1.
        -11    1    3    3    0    0  0.19285809674E+02  0.81229694931E+01  0.17118445240E+02  0.27036387626E+02  0.51100000000E-03 0.  1.
        -12    1    3    3    0    0 -0.34057480344E+01 -0.29900808265E+02 -0.68410878641E+01  0.30861917272E+02  0.00000000000E+00 0.  1.
</event>
<event>
 7    1  0.3434711E-013  0.7246158E+02  0.7816164E-02  0.1226708E+00
        -11   -1    0    0    0    0  0.00000000000E+00  0.00000000000E+00  0.45593999997E+02  0.45594000000E+02  0.51100000000E-03 0.  1.
         11   -1    0    0    0    0 -0.00000000000E+00 -0.00000000000E+00 -0.45593999997E+02  0.45594000000E+02  0.51100000000E-03 0. -1.
    9900012    2    1    2    0    0  0.47801291283E+01 -0.18105986444E+02  0.50655070604E-01  0.72461576275E+02  0.70000007791E+02 0.  0.
         12    1    1    2    0    0 -0.47801291283E+01  0.18105986444E+02 -0.50655070604E-01  0.18726423725E+02  0.00000000000E+00 0. -1.
         11    1    3    3    0    0  0.12135124060E+02  0.35949863234E+01  0.32974021003E+01  0.13078915226E+02  0.51100000000E-03 0. -1.
        -11    1    3    3    0    0  0.48116119818E+01  0.17056296957E+02  0.38759074536E+01  0.18140880205E+02  0.51100000000E-03 0.  1.
        -12    1    3    3    0    0 -0.12166606914E+02 -0.38757269725E+02 -0.71226544833E+01  0.41241780844E+02  0.00000000000E+00 0.  1.
</event>
<event>
 7    1  0.3434711E-013  0.7246167E+02  0.7816164E-02  0.1226708E+00
        -11   -1    0    0    0    0  0.00000000000E+00  0.00000000000E+00  0.45593999997E+02  0.45594000000E+02  0.51100000000E-03 0.  1.
         11   -1    0    0    0    0 -0.00000000000E+00 -0.00000000000E+00 -0.45593999997E+02  0.45594000000E+02  0.51100000000E-03 0. -1.
    9900012    2    1    2    0    0  0.18443881724E+02  0.30166290505E+01 -0.11825871305E+01  0.72461672645E+02  0.70000133331E+02 0.  0.
         12    1    1    2    0    0 -0.18443881724E+02 -0.30166290505E+01  0.11825871305E+01  0.18726327355E+02  0.00000000000E+00 0. -1.
         11    1    3    3    0    0 -0.54177698018E+01 -0.44432140362E+01  0.27001831694E+02  0.27896116140E+02  0.51100000000E-03 0. -1.
        -11    1    3    3    0    0  0.51871101828E+01  0.10055285024E+02 -0.83237321424E+00  0.11344942239E+02  0.51100000000E-03 0.  1.
        -12    1    3    3    0    0  0.18674541343E+02 -0.25954419376E+01 -0.27352045610E+02  0.33220614267E+02  0.00000000000E+00 0.  1.
</event>
<event>
 7    1  0.3434711E-013  0.7246172E+02  0.7816164E-02  0.1226708E+00
        -11   -1    0    0    0    0  0.00000000000E+00  0.00000000000E+00  0.45593999997E+02  0.45594000000E+02  0.51100000000E-03 0. -1.
         11   -1    0    0    0    0 -0.00000000000E+00 -0.00000000000E+00 -0.45593999997E+02  0.45594000000E+02  0.51100000000E-03 0.  1.
    9900012    2    1    2    0    0 -0.39714563327E+01  0.82237284790E+00 -0.18281816934E+02  0.72461719191E+02  0.70000193966E+02 0.  0.
         12    1    1    2    0    0  0.39714563327E+01 -0.82237284790E+00  0.18281816934E+02  0.18726280809E+02  0.00000000000E+00 0. -1.
         11    1    3    3    0    0 -0.55397679784E+01 -0.27082565477E+02 -0.12996864628E+01  0.27673878789E+02  0.51100000000E-03 0. -1.
        -11    1    3    3    0    0  0.75401355463E+01 -0.22576260258E+01 -0.10898858163E+02  0.13443795180E+02  0.51100000000E-03 0.  1.
         12    1    3    3    0    0 -0.59718239006E+01  0.30162564351E+02 -0.60832723087E+01  0.31344045222E+02  0.00000000000E+00 0. -1.
</event>
<event>
 7    1  0.3434711E-013  0.7246158E+02  0.7816164E-02  0.1226708E+00
        -11   -1    0    0    0    0  0.00000000000E+00  0.00000000000E+00  0.45593999997E+02  0.45594000000E+02  0.51100000000E-03 0. -1.
         11   -1    0    0    0    0 -0.00000000000E+00 -0.00000000000E+00 -0.45593999997E+02  0.45594000000E+02  0.51100000000E-03 0.  1.
    9900012    2    1    2    0    0 -0.10425804752E+02  0.52347301550E+01 -0.14648511847E+02  0.72461582728E+02  0.70000016197E+02 0.  0.
         12    1    1    2    0    0  0.10425804752E+02 -0.52347301550E+01  0.14648511847E+02  0.18726417272E+02  0.00000000000E+00 0. -1.
         11    1    3    3    0    0 -0.49804425974E+00 -0.14582801044E+02  0.45171263131E+01  0.15274507022E+02  0.51100000000E-03 0. -1.
        -11    1    3    3    0    0 -0.44313923789E+01 -0.14487209000E+02 -0.16412685514E+02  0.22335906274E+02  0.51100000000E-03 0.  1.
        -12    1    3    3    0    0 -0.54963681131E+01  0.34304740199E+02 -0.27529526460E+01  0.34851169432E+02  0.00000000000E+00 0.  1.
</event>
<event>
 7    1  0.3434711E-013  0.7246157E+02  0.7816164E-02  0.1226708E+00
        -11   -1    0    0    0    0  0.00000000000E+00  0.00000000000E+00  0.45593999997E+02  0.45594000000E+02  0.51100000000E-03 0. -1.
         11   -1    0    0    0    0 -0.00000000000E+00 -0.00000000000E+00 -0.45593999997E+02  0.45594000000E+02  0.51100000000E-03 0.  1.
    9900012    2    1    2    0    0  0.14730221377E+02  0.11385158399E+02 -0.20194333433E+01  0.72461565085E+02  0.69999993214E+02 0.  0.
         12    1    1    2    0    0 -0.14730221377E+02 -0.11385158399E+02  0.20194333433E+01  0.18726434915E+02  0.00000000000E+00 0. -1.
         11    1    3    3    0    0  0.11489571790E+02 -0.20341997533E+02  0.14546287131E+01  0.23407756588E+02  0.51100000000E-03 0. -1.
        -11    1    3    3    0    0  0.18298023989E+02  0.98180108498E+01  0.46024521992E+01  0.21269545962E+02  0.51100000000E-03 0.  1.
         12    1    3    3    0    0 -0.15057374401E+02  0.21909145082E+02 -0.80765142556E+01  0.27784262535E+02  0.00000000000E+00 0. -1.
</event>
<event>
 7    1  0.3434711E-013  0.7246157E+02  0.7816164E-02  0.1226708E+00
        -11   -1    0    0    0    0  0.00000000000E+00  0.00000000000E+00  0.45593999997E+02  0.45594000000E+02  0.51100000000E-03 0.  1.
         11   -1    0    0    0    0 -0.00000000000E+00 -0.00000000000E+00 -0.45593999997E+02  0.45594000000E+02  0.51100000000E-03 0. -1.
    9900012    2    1    2    0    0 -0.39267708105E+01  0.17052427799E+02  0.66689114121E+01  0.72461569420E+02  0.69999998861E+02 0.  0.
         12    1    1    2    0    0  0.39267708105E+01 -0.17052427799E+02 -0.66689114121E+01  0.18726430580E+02  0.00000000000E+00 0. -1.
         11    1    3    3    0    0  0.23974965047E+02  0.91431724842E+01 -0.80447249490E+01  0.26890781912E+02  0.51100000000E-03 0. -1.
        -11    1    3    3    0    0 -0.16951588346E+02 -0.11638948287E+02  0.50767349401E+01  0.21180054358E+02  0.51100000000E-03 0.  1.
        -12    1    3    3    0    0 -0.10950147511E+02  0.19548203602E+02  0.96369014210E+01  0.24390733150E+02  0.00000000000E+00 0.  1.
</event>
<event>
 7    1  0.3837361E-013  0.7246159E+02  0.7816164E-02  0.1226708E+00
        -11   -1    0    0    0    0  0.00000000000E+00  0.00000000000E+00  0.45593999997E+02  0.45594000000E+02  0.51100000000E-03 0. -1.
         11   -1    0    0    0    0 -0.00000000000E+00 -0.00000000000E+00 -0.45593999997E+02  0.45594000000E+02  0.51100000000E-03 0.  1.
    9900012    2    1    2    0    0  0.18082151333E+02 -0.42228327792E+01 -0.24252726077E+01  0.72461589219E+02  0.70000024653E+02 0.  0.
         12    1    1    2    0    0 -0.18082151333E+02  0.42228327792E+01  0.24252726077E+01  0.18726410781E+02  0.00000000000E+00 0. -1.
         11    1    3    3    0    0 -0.78961340467E+01 -0.10266219180E+02 -0.79574581638E+01  0.15200833195E+02  0.51100000000E-03 0. -1.
        -11    1    3    3    0    0  0.10186225093E+02 -0.12928171980E+02  0.22082657582E+02  0.27541615394E+02  0.51100000000E-03 0.  1.
         12    1    3    3    0    0  0.15792060287E+02  0.18971558381E+02 -0.16550472026E+02  0.29719140630E+02  0.00000000000E+00 0. -1.
</event>
<event>
 7    1  0.3434711E-013  0.7246155E+02  0.7816164E-02  0.1226708E+00
        -11   -1    0    0    0    0  0.00000000000E+00  0.00000000000E+00  0.45593999997E+02  0.45594000000E+02  0.51100000000E-03 0. -1.
         11   -1    0    0    0    0 -0.00000000000E+00 -0.00000000000E+00 -0.45593999997E+02  0.45594000000E+02  0.51100000000E-03 0.  1.
    9900012    2    1    2    0    0  0.10190703357E+02  0.28092041607E+01 -0.15457619175E+02  0.72461546692E+02  0.69999969253E+02 0.  0.
         12    1    1    2    0    0 -0.10190703357E+02 -0.28092041607E+01  0.15457619175E+02  0.18726453308E+02  0.00000000000E+00 0. -1.
         11    1    3    3    0    0 -0.13761067746E+02  0.14437845916E+02  0.51748838517E+01  0.20605771118E+02  0.51100000000E-03 0. -1.
        -11    1    3    3    0    0  0.75264184108E+00 -0.11620962330E+02 -0.25605829766E+02  0.28129553027E+02  0.51100000000E-03 0.  1.
        -12    1    3    3    0    0  0.23199129262E+02 -0.76794257965E-02  0.49733267393E+01  0.23726222547E+02  0.00000000000E+00 0.  1.
</event>
<event>
 7    1  0.3434711E-013  0.7246156E+02  0.7816164E-02  0.1226708E+00
        -11   -1    0    0    0    0  0.00000000000E+00  0.00000000000E+00  0.45593999997E+02  0.45594000000E+02  0.51100000000E-03 0.  1.
         11   -1    0    0    0    0 -0.00000000000E+00 -0.00000000000E+00 -0.45593999997E+02  0.45594000000E+02  0.51100000000E-03 0. -1.
    9900012    2    1    2    0    0  0.99550838350E+01 -0.35793970329E+01  0.15451984932E+02  0.72461558383E+02  0.69999984484E+02 0.  0.
         12    1    1    2    0    0 -0.99550838350E+01  0.35793970329E+01 -0.15451984932E+02  0.18726441617E+02  0.00000000000E+00 0. -1.
         11    1    3    3    0    0  0.40524166411E+01  0.19902345390E+01 -0.39660345387E+01  0.60093713795E+01  0.51100000000E-03 0. -1.
        -11    1    3    3    0    0  0.30791385174E+02  0.73163080244E+01 -0.11795680516E+01  0.31670635375E+02  0.51100000000E-03 0.  1.
         12    1    3    3    0    0 -0.24888717980E+02 -0.12885939596E+02  0.20597587522E+02  0.34781551629E+02  0.00000000000E+00 0. -1.
</event>
<event>
 7    1  0.3434711E-013  0.7246160E+02  0.7816164E-02  0.1226708E+00
        -11   -1    0    0    0    0  0.00000000000E+00  0.00000000000E+00  0.45593999997E+02  0.45594000000E+02  0.51100000000E-03 0. -1.
         11   -1    0    0    0    0 -0.00000000000E+00 -0.00000000000E+00 -0.45593999997E+02  0.45594000000E+02  0.51100000000E-03 0.  1.
    9900012    2    1    2    0    0  0.72952241661E+01 -0.17457516641E+00 -0.17246076461E+02  0.72461603512E+02  0.70000043272E+02 0.  0.
         12    1    1    2    0    0 -0.72952241661E+01  0.17457516641E+00  0.17246076461E+02  0.18726396488E+02  0.00000000000E+00 0. -1.
         11    1    3    3    0    0  0.13500518091E+02 -0.18533475527E+02 -0.57240448272E+01  0.23632993743E+02  0.51100000000E-03 0. -1.
        -11    1    3    3    0    0 -0.42763400983E+01 -0.13792809898E+02  0.49859492726E+00  0.14449127541E+02  0.51100000000E-03 0.  1.
        -12    1    3    3    0    0 -0.19289538265E+01  0.32151710258E+02 -0.12020626561E+02  0.34379482229E+02  0.00000000000E+00 0.  1.
</event>
<event>
 7    1  0.3434711E-013  0.7246156E+02  0.7816164E-02  0.1226708E+00
        -11   -1    0    0    0    0  0.00000000000E+00  0.00000000000E+00  0.45593999997E+02  0.45594000000E+02  0.51100000000E-03 0.  1.
         11   -1    0    0    0    0 -0.00000000000E+00 -0.00000000000E+00 -0.45593999997E+02  0.45594000000E+02  0.51100000000E-03 0. -1.
    9900012    2    1    2    0    0  0.29883423338E+01 -0.14703479436E+02  0.11205219390E+02  0.72461563099E+02  0.69999990626E+02 0.  0.
         12    1    1    2    0    0 -0.29883423338E+01  0.14703479436E+02 -0.11205219390E+02  0.18726436901E+02  0.00000000000E+00 0. -1.
         11    1    3    3    0    0 -0.88722144681E+01  0.56078302692E+01  0.27349397609E+02  0.29294257112E+02  0.51100000000E-03 0. -1.
        -11    1    3    3    0    0  0.75827755323E+01 -0.10405191034E+02  0.90648469488E+01  0.15746045081E+02  0.51100000000E-03 0.  1.
         12    1    3    3    0    0  0.42777812696E+01 -0.99061186712E+01 -0.25209025168E+02  0.27421260905E+02  0.00000000000E+00 0. -1.
</event>
<event>
 8    1  0.3434711E-013  0.7246158E+02  0.7816164E-02  0.1226708E+00
        -11   -1    0    0    0    0  0.00000000000E+00  0.00000000000E+00  0.45593999997E+02  0.45594000000E+02  0.51100000000E-03 0.  1.
         11   -1    0    0    0    0 -0.00000000000E+00 -0.00000000000E+00 -0.45593999997E+02  0.45594000000E+02  0.51100000000E-03 0. -1.
    9900012    2    1    2    0    0  0.12898504449E+02  0.35040191912E+01  0.13115997385E+02  0.72461576025E+02  0.70000007465E+02 0.  0.
         23    2    3    3    0    0  0.19718052881E+02  0.99076773856E+01  0.23315707557E+01  0.58185129100E+02  0.53787631901E+02 0.  0.
         12    1    1    2    0    0 -0.12898504449E+02 -0.35040191912E+01 -0.13115997385E+02  0.18726423975E+02  0.00000000000E+00 0. -1.
         11    1    4    4    0    0 -0.66528925510E+01  0.23906806097E+02 -0.87879262548E+01  0.26325349099E+02  0.51100000000E-03 0. -1.
        -11    1    4    4    0    0  0.26370945432E+02 -0.13999128711E+02  0.11119497011E+02  0.31859780001E+02  0.51100000000E-03 0.  1.
        -12    1    3    3    0    0 -0.68195484328E+01 -0.64036581944E+01  0.10784426629E+02  0.14276446925E+02  0.00000000000E+00 0.  1.
</event>
<event>
 7    1  0.3434711E-013  0.7246167E+02  0.7816164E-02  0.1226708E+00
        -11   -1    0    0    0    0  0.00000000000E+00  0.00000000000E+00  0.45593999997E+02  0.45594000000E+02  0.51100000000E-03 0. -1.
         11   -1    0    0    0    0 -0.00000000000E+00 -0.00000000000E+00 -0.45593999997E+02  0.45594000000E+02  0.51100000000E-03 0.  1.
    9900012    2    1    2    0    0 -0.68385291332E+01  0.26742149573E+01 -0.17226679563E+02  0.72461671072E+02  0.70000131281E+02 0.  0.
         12    1    1    2    0    0  0.68385291332E+01 -0.26742149573E+01  0.17226679563E+02  0.18726328928E+02  0.00000000000E+00 0. -1.
         11    1    3    3    0    0 -0.15296536315E+02  0.69965183300E+01 -0.59569604658E+00  0.16831225327E+02  0.51100000000E-03 0. -1.
        -11    1    3    3    0    0  0.15672751050E+01 -0.18892354683E+02  0.12239981722E+02  0.22565340005E+02  0.51100000000E-03 0.  1.
        -12    1    3    3    0    0  0.68907320768E+01  0.14570051310E+02 -0.28870965239E+02  0.33065105740E+02  0.00000000000E+00 0.  1.
</event>
<event>
 7    1  0.3434711E-013  0.7246158E+02  0.7816164E-02  0.1226708E+00
        -11   -1    0    0    0    0  0.00000000000E+00  0.00000000000E+00  0.45593999997E+02  0.45594000000E+02  0.51100000000E-03 0.  1.
         11   -1    0    0    0    0 -0.00000000000E+00 -0.00000000000E+00 -0.45593999997E+02  0.45594000000E+02  0.51100000000E-03 0. -1.
    9900012    2    1    2    0    0 -0.95401417973E+01 -0.15512085560E+02  0.43634465504E+01  0.72461580969E+02  0.70000013906E+02 0.  0.
         12    1    1    2    0    0  0.95401417973E+01  0.15512085560E+02 -0.43634465504E+01  0.18726419031E+02  0.00000000000E+00 0. -1.
         11    1    3    3    0    0  0.24389898027E+01  0.16433982309E+00 -0.22889677689E+02  0.23019839786E+02  0.51100000000E-03 0. -1.
        -11    1    3    3    0    0 -0.18121853537E+02  0.48109570938E+01  0.70832499880E+01  0.20042936771E+02  0.51100000000E-03 0.  1.
        -12    1    3    3    0    0  0.61427219366E+01 -0.20487382477E+02  0.20169874251E+02  0.29398804412E+02  0.00000000000E+00 0.  1.
</event>
<event>
 7    1  0.3434711E-013  0.7246158E+02  0.7816164E-02  0.1226708E+00
        -11   -1    0    0    0    0  0.00000000000E+00  0.00000000000E+00  0.45593999997E+02  0.45594000000E+02  0.51100000000E-03 0.  1.
         11   -1    0    0    0    0 -0.00000000000E+00 -0.00000000000E+00 -0.45593999997E+02  0.45594000000E+02  0.51100000000E-03 0. -1.
    9900012    2    1    2    0    0 -0.13848360152E+01 -0.14143754873E+02  0.12194883308E+02  0.72461581452E+02  0.70000014536E+02 0.  0.
         12    1    1    2    0    0  0.13848360152E+01  0.14143754873E+02 -0.12194883308E+02  0.18726418548E+02  0.00000000000E+00 0. -1.
         11    1    3    3    0    0 -0.16202523076E+02 -0.29702257883E+02  0.15667721933E+02  0.37285699513E+02  0.51100000000E-03 0. -1.
        -11    1    3    3    0    0  0.10064553282E+02 -0.44708215360E+01  0.59710122527E+01  0.12527428529E+02  0.51100000000E-03 0.  1.
         12    1    3    3    0    0  0.47531337781E+01  0.20029324545E+02 -0.94438508775E+01  0.22648453410E+02  0.00000000000E+00 0. -1.
</event>
<event>
 7    1  0.3434711E-013  0.7246155E+02  0.7816164E-02  0.1226708E+00
        -11   -1    0    0    0    0  0.00000000000E+00  0.00000000000E+00  0.45593999997E+02  0.45594000000E+02  0.51100000000E-03 0.  1.
         11   -1    0    0    0    0 -0.00000000000E+00 -0.00000000000E+00 -0.45593999997E+02  0.45594000000E+02  0.51100000000E-03 0. -1.
    9900012    2    1    2    0    0 -0.13284552466E+02 -0.14581401313E+00  0.13197698337E+02  0.72461552463E+02  0.69999976772E+02 0.  0.
         12    1    1    2    0    0  0.13284552466E+02  0.14581401313E+00 -0.13197698337E+02  0.18726447537E+02  0.00000000000E+00 0. -1.
         11    1    3    3    0    0  0.67363760535E+01 -0.57460835678E+01 -0.15168050668E+02  0.17563200165E+02  0.51100000000E-03 0. -1.
        -11    1    3    3    0    0 -0.55525165189E+01 -0.10212119087E+02 -0.69824606113E+01  0.13559962109E+02  0.51100000000E-03 0.  1.
        -12    1    3    3    0    0 -0.14468412000E+02  0.15812388642E+02  0.35348209617E+02  0.41338390190E+02  0.00000000000E+00 0.  1.
</event>
<event>
 7    1  0.3434711E-013  0.7246159E+02  0.7816164E-02  0.1226708E+00
        -11   -1    0    0    0    0  0.00000000000E+00  0.00000000000E+00  0.45593999997E+02  0.45594000000E+02  0.51100000000E-03 0. -1.
         11   -1    0    0    0    0 -0.00000000000E+00 -0.00000000000E+00 -0.45593999997E+02  0.45594000000E+02  0.51100000000E-03 0.  1.
    9900012    2    1    2    0    0 -0.46237581941E+01 -0.16317954128E+02 -0.79387448355E+01  0.72461589871E+02  0.70000025502E+02 0.  0.
         12    1    1    2    0    0  0.46237581941E+01  0.16317954128E+02  0.79387448355E+01  0.18726410129E+02  0.00000000000E+00 0. -1.
         11    1    3    3    0    0  0.72601434639E+01 -0.20989950243E+01  0.61139563302E+01  0.97209014755E+01  0.51100000000E-03 0. -1.
        -11    1    3    3    0    0  0.12917263073E+02  0.88903798944E+01 -0.22855291047E+02  0.27717483094E+02  0.51100000000E-03 0.  1.
         12    1    3    3    0    0 -0.24801164731E+02 -0.23109338998E+02  0.88025898810E+01  0.35023205301E+02  0.00000000000E+00 0. -1.
</event>
<event>
 7    1  0.3434711E-013  0.7246158E+02  0.7816164E-02  0.1226708E+00
        -11   -1    0    0    0    0  0.00000000000E+00  0.00000000000E+00  0.45593999997E+02  0.45594000000E+02  0.51100000000E-03 0. -1.
         11   -1    0    0    0    0 -0.00000000000E+00 -0.00000000000E+00 -0.45593999997E+02  0.45594000000E+02  0.51100000000E-03 0.  1.
    9900012    2    1    2    0    0  0.13012102506E+02 -0.21266179714E+01 -0.13298174108E+02  0.72461581490E+02  0.70000014584E+02 0.  0.
         12    1    1    2    0    0 -0.13012102506E+02  0.21266179714E+01  0.13298174108E+02  0.18726418510E+02  0.00000000000E+00 0. -1.
         11    1    3    3    0    0  0.28476868247E+01  0.39733910575E+01  0.22431352075E+02  0.22957846435E+02  0.51100000000E-03 0. -1.
        -11    1    3    3    0    0  0.15197251841E+02  0.61501165053E+01 -0.69184357088E+01  0.17794525829E+02  0.51100000000E-03 0.  1.
        -12    1    3    3    0    0 -0.50328361600E+01 -0.12250125534E+02 -0.28811090474E+02  0.31709209226E+02  0.00000000000E+00 0.  1.
</event>
<event>
 7    1  0.3434711E-013  0.7246157E+02  0.7816164E-02  0.1226708E+00
        -11   -1    0    0    0    0  0.00000000000E+00  0.00000000000E+00  0.45593999997E+02  0.45594000000E+02  0.51100000000E-03 0.  1.
         11   -1    0    0    0    0 -0.00000000000E+00 -0.00000000000E+00 -0.45593999997E+02  0.45594000000E+02  0.51100000000E-03 0. -1.
    9900012    2    1    2    0    0  0.11206839631E+02 -0.12859200931E+02  0.77283150657E+01  0.72461570633E+02  0.70000000441E+02 0.  0.
         12    1    1    2    0    0 -0.11206839631E+02  0.12859200931E+02 -0.77283150657E+01  0.18726429367E+02  0.00000000000E+00 0. -1.
         11    1    3    3    0    0  0.15729578931E+01  0.51842259008E+01 -0.38459286415E+01  0.66439116566E+01  0.51100000000E-03 0. -1.
        -11    1    3    3    0    0  0.15168936830E+01 -0.40366740227E+02  0.11730243714E+02  0.42063919228E+02  0.51100000000E-03 0.  1.
         12    1    3    3    0    0  0.81169880547E+01  0.22323313395E+02 -0.15600000708E+00  0.23753739748E+02  0.00000000000E+00 0. -1.
</event>
<event>
 7    1  0.3434711E-013  0.7246159E+02  0.7816164E-02  0.1226708E+00
        -11   -1    0    0    0    0  0.00000000000E+00  0.00000000000E+00  0.45593999997E+02  0.45594000000E+02  0.51100000000E-03 0. -1.
         11   -1    0    0    0    0 -0.00000000000E+00 -0.00000000000E+00 -0.45593999997E+02  0.45594000000E+02  0.51100000000E-03 0.  1.
    9900012    2    1    2    0    0  0.12147394922E+01 -0.13710987541E+02 -0.12696912883E+02  0.72461591692E+02  0.70000027874E+02 0.  0.
         12    1    1    2    0    0 -0.12147394922E+01  0.13710987541E+02  0.12696912883E+02  0.18726408308E+02  0.00000000000E+00 0. -1.
         11    1    3    3    0    0  0.83681521560E+01 -0.64020704301E+01  0.21701616746E+02  0.24124109226E+02  0.51100000000E-03 0. -1.
        -11    1    3    3    0    0  0.26525635980E+01 -0.90385342639E+01  0.28017949453E+01  0.98275760215E+01  0.51100000000E-03 0.  1.
         12    1    3    3    0    0 -0.98059762618E+01  0.17296171530E+01 -0.37200324574E+02  0.38509906444E+02  0.00000000000E+00 0. -1.
</event>
<event>
 7    1  0.3434711E-013  0.7246162E+02  0.7816164E-02  0.1226708E+00
        -11   -1    0    0    0    0  0.00000000000E+00  0.00000000000E+00  0.45593999997E+02  0.45594000000E+02  0.51100000000E-03 0.  1.
         11   -1    0    0    0    0 -0.00000000000E+00 -0.00000000000E+00 -0.45593999997E+02  0.45594000000E+02  0.51100000000E-03 0. -1.
    9900012    2    1    2    0    0 -0.43587745331E+01  0.16706478875E+01  0.18135247331E+02  0.72461623533E+02  0.70000069354E+02 0.  0.
         12    1    1    2    0    0  0.43587745331E+01 -0.16706478875E+01 -0.18135247331E+02  0.18726376467E+02  0.00000000000E+00 0. -1.
         11    1    3    3    0    0 -0.58079784909E+01 -0.82870395497E+01  0.10289788506E+02  0.14432164994E+02  0.51100000000E-03 0. -1.
        -11    1    3    3    0    0  0.23489872393E+00 -0.12817523507E+02  0.25927514512E+02  0.28923694357E+02  0.51100000000E-03 0.  1.
         12    1    3    3    0    0  0.12143052338E+01  0.22775210944E+02 -0.18082055687E+02  0.29105764182E+02  0.00000000000E+00 0. -1.
</event>
<event>
 7    1  0.3434711E-013  0.7246154E+02  0.7816164E-02  0.1226708E+00
        -11   -1    0    0    0    0  0.00000000000E+00  0.00000000000E+00  0.45593999997E+02  0.45594000000E+02  0.51100000000E-03 0.  1.
         11   -1    0    0    0    0 -0.00000000000E+00 -0.00000000000E+00 -0.45593999997E+02  0.45594000000E+02  0.51100000000E-03 0. -1.
    9900012    2    1    2    0    0 -0.15180226420E+02 -0.25689302701E+01  0.10660276207E+02  0.72461543696E+02  0.69999965351E+02 0.  0.
         12    1    1    2    0    0  0.15180226420E+02  0.25689302701E+01 -0.10660276207E+02  0.18726456304E+02  0.00000000000E+00 0. -1.
         11    1    3    3    0    0 -0.18996930437E+02 -0.12216805062E+02 -0.11918135302E+02  0.25537729760E+02  0.51100000000E-03 0. -1.
        -11    1    3    3    0    0 -0.16277175096E+01 -0.14414047131E+01 -0.10964670921E+02  0.11178153716E+02  0.51100000000E-03 0.  1.
        -12    1    3    3    0    0  0.54444215259E+01  0.11089279505E+02  0.33543082430E+02  0.35745660220E+02  0.00000000000E+00 0.  1.
</event>
<event>
 7    1  0.3434711E-013  0.7246159E+02  0.7816164E-02  0.1226708E+00
        -11   -1    0    0    0    0  0.00000000000E+00  0.00000000000E+00  0.45593999997E+02  0.45594000000E+02  0.51100000000E-03 0. -1.
         11   -1    0    0    0    0 -0.00000000000E+00 -0.00000000000E+00 -0.45593999997E+02  0.45594000000E+02  0.51100000000E-03 0.  1.
    9900012    2    1    2    0    0 -0.97617113783E+01  0.12990230197E+02 -0.93081244956E+01  0.72461594279E+02  0.70000031244E+02 0.  0.
         12    1    1    2    0    0  0.97617113783E+01 -0.12990230197E+02  0.93081244956E+01  0.18726405721E+02  0.00000000000E+00 0. -1.
         11    1    3    3    0    0 -0.16202094501E+02  0.13519019479E+02 -0.77649336357E+01  0.22484793717E+02  0.51100000000E-03 0. -1.
        -11    1    3    3    0    0  0.13839730415E+01  0.19888585627E+02  0.13534553761E+02  0.24096791599E+02  0.51100000000E-03 0.  1.
         12    1    3    3    0    0  0.50564100809E+01 -0.20417374908E+02 -0.15077744621E+02  0.25880008962E+02  0.00000000000E+00 0. -1.
</event>
<event>
 7    1  0.3434711E-013  0.7246155E+02  0.7816164E-02  0.1226708E+00
        -11   -1    0    0    0    0  0.00000000000E+00  0.00000000000E+00  0.45593999997E+02  0.45594000000E+02  0.51100000000E-03 0. -1.
         11   -1    0    0    0    0 -0.00000000000E+00 -0.00000000000E+00 -0.45593999997E+02  0.45594000000E+02  0.51100000000E-03 0.  1.
    9900012    2    1    2    0    0 -0.17597427394E+02  0.18764405818E+01  0.61228631032E+01  0.72461549917E+02  0.69999973455E+02 0.  0.
         12    1    1    2    0    0  0.17597427394E+02 -0.18764405818E+01 -0.61228631032E+01  0.18726450083E+02  0.00000000000E+00 0. -1.
         11    1    3    3    0    0 -0.26409948824E+01  0.41901058356E+01  0.27339957340E+02  0.27784979908E+02  0.51100000000E-03 0. -1.
        -11    1    3    3    0    0  0.56363346810E+01  0.12647732686E+02 -0.80921802446E+01  0.16037979676E+02  0.51100000000E-03 0.  1.
        -12    1    3    3    0    0 -0.20592767192E+02 -0.14961397940E+02 -0.13124913992E+02  0.28638590333E+02  0.00000000000E+00 0.  1.
</event>
<event>
 7    1  0.3434711E-013  0.7246082E+02  0.7816164E-02  0.1226710E+00
        -11   -1    0    0    0    0  0.00000000000E+00  0.00000000000E+00  0.45593999997E+02  0.45594000000E+02  0.51100000000E-03 0. -1.
         11   -1    0    0    0    0 -0.00000000000E+00 -0.00000000000E+00 -0.45593999997E+02  0.45594000000E+02  0.51100000000E-03 0.  1.
    9900012    2    1    2    0    0  0.64934855723E+01  0.30555413012E+00 -0.17562701936E+02  0.72460821422E+02  0.69999024448E+02 0.  0.
         12    1    1    2    0    0 -0.64934855723E+01 -0.30555413012E+00  0.17562701936E+02  0.18727178578E+02  0.00000000000E+00 0. -1.
         11    1    3    3    0    0 -0.31796759345E+01 -0.59242591243E+01  0.19388528884E+02  0.20521263065E+02  0.51100000000E-03 0. -1.
        -11    1    3    3    0    0 -0.26488592264E-01  0.62919580099E+01  0.55227988080E+01  0.83720215109E+01  0.51100000000E-03 0.  1.
        -12    1    3    3    0    0  0.96996500991E+01 -0.62144755549E-01 -0.42474029628E+02  0.43567536846E+02  0.00000000000E+00 0.  1.
</event>
<event>
 7    1  0.3434711E-013  0.7246159E+02  0.7816164E-02  0.1226708E+00
        -11   -1    0    0    0    0  0.00000000000E+00  0.00000000000E+00  0.45593999997E+02  0.45594000000E+02  0.51100000000E-03 0. -1.
         11   -1    0    0    0    0 -0.00000000000E+00 -0.00000000000E+00 -0.45593999997E+02  0.45594000000E+02  0.51100000000E-03 0.  1.
    9900012    2    1    2    0    0  0.10232811429E+02  0.13586228937E+02 -0.78346960391E+01  0.72461587944E+02  0.70000022992E+02 0.  0.
         12    1    1    2    0    0 -0.10232811429E+02 -0.13586228937E+02  0.78346960391E+01  0.18726412056E+02  0.00000000000E+00 0. -1.
         11    1    3    3    0    0 -0.15304167271E+02  0.12885027204E+02 -0.23504817896E+02  0.30866129114E+02  0.51100000000E-03 0. -1.
        -11    1    3    3    0    0  0.79085290315E+01  0.14059054196E+02  0.41437947576E+01  0.16654515051E+02  0.51100000000E-03 0.  1.
        -12    1    3    3    0    0  0.17628449669E+02 -0.13357852464E+02  0.11526327099E+02  0.24940943779E+02  0.00000000000E+00 0.  1.
</event>
<event>
 7    1  0.3434711E-013  0.7246172E+02  0.7816164E-02  0.1226708E+00
        -11   -1    0    0    0    0  0.00000000000E+00  0.00000000000E+00  0.45593999997E+02  0.45594000000E+02  0.51100000000E-03 0.  1.
         11   -1    0    0    0    0 -0.00000000000E+00 -0.00000000000E+00 -0.45593999997E+02  0.45594000000E+02  0.51100000000E-03 0. -1.
    9900012    2    1    2    0    0  0.11145563133E+02 -0.13699111703E+02 -0.62277175194E+01  0.72461716213E+02  0.70000190085E+02 0.  0.
         12    1    1    2    0    0 -0.11145563133E+02  0.13699111703E+02  0.62277175194E+01  0.18726283787E+02  0.00000000000E+00 0. -1.
         11    1    3    3    0    0 -0.21920743767E+02 -0.11473091284E+02 -0.11266431265E+02  0.27186086600E+02  0.51100000000E-03 0. -1.
        -11    1    3    3    0    0  0.15931155752E+02  0.13677178045E+02 -0.13510032944E+01  0.21040250308E+02  0.51100000000E-03 0.  1.
        -12    1    3    3    0    0  0.17135151148E+02 -0.15903198463E+02  0.63897170402E+01  0.24235379305E+02  0.00000000000E+00 0.  1.
</event>
<event>
 7    1  0.3434711E-013  0.7246159E+02  0.7816164E-02  0.1226708E+00
        -11   -1    0    0    0    0  0.00000000000E+00  0.00000000000E+00  0.45593999997E+02  0.45594000000E+02  0.51100000000E-03 0.  1.
         11   -1    0    0    0    0 -0.00000000000E+00 -0.00000000000E+00 -0.45593999997E+02  0.45594000000E+02  0.51100000000E-03 0. -1.
    9900012    2    1    2    0    0  0.18154945508E+02  0.13870435303E+01  0.43763773996E+01  0.72461585092E+02  0.70000019277E+02 0.  0.
         12    1    1    2    0    0 -0.18154945508E+02 -0.13870435303E+01 -0.43763773996E+01  0.18726414908E+02  0.00000000000E+00 0. -1.
         11    1    3    3    0    0  0.11760791579E+02  0.25802276144E+02 -0.87825239079E+01  0.29685120839E+02  0.51100000000E-03 0. -1.
        -11    1    3    3    0    0 -0.81189333776E+01  0.78007871591E+00  0.10898217686E+02  0.13612374921E+02  0.51100000000E-03 0.  1.
         12    1    3    3    0    0  0.14513087307E+02 -0.25195311329E+02  0.22606836218E+01  0.29164089333E+02  0.00000000000E+00 0. -1.
</event>
<event>
 7    1  0.3434711E-013  0.7246154E+02  0.7816164E-02  0.1226708E+00
        -11   -1    0    0    0    0  0.00000000000E+00  0.00000000000E+00  0.45593999997E+02  0.45594000000E+02  0.51100000000E-03 0.  1.
         11   -1    0    0    0    0 -0.00000000000E+00 -0.00000000000E+00 -0.45593999997E+02  0.45594000000E+02  0.51100000000E-03 0. -1.
    9900012    2    1    2    0    0  0.15521530634E+02  0.88943064886E+01  0.55365650022E+01  0.72461544031E+02  0.69999965787E+02 0.  0.
         12    1    1    2    0    0 -0.15521530634E+02 -0.88943064886E+01 -0.55365650022E+01  0.18726455969E+02  0.00000000000E+00 0. -1.
         11    1    3    3    0    0 -0.38806956022E+01  0.66545842627E+01  0.60973193995E+01  0.98244895128E+01  0.51100000000E-03 0. -1.
        -11    1    3    3    0    0  0.16767629255E+02  0.15844026006E+02  0.24717167864E+02  0.33810130706E+02  0.51100000000E-03 0.  1.
         12    1    3    3    0    0  0.26345969820E+01 -0.13604303780E+02 -0.25277922261E+02  0.28826923812E+02  0.00000000000E+00 0. -1.
</event>
<event>
 7    1  0.3434711E-013  0.7246150E+02  0.7816164E-02  0.1226708E+00
        -11   -1    0    0    0    0  0.00000000000E+00  0.00000000000E+00  0.45593999997E+02  0.45594000000E+02  0.51100000000E-03 0.  1.
         11   -1    0    0    0    0 -0.00000000000E+00 -0.00000000000E+00 -0.45593999997E+02  0.45594000000E+02  0.51100000000E-03 0. -1.
    9900012    2    1    2    0    0  0.16867304438E+01 -0.11987288864E+02  0.14287814510E+02  0.72461500130E+02  0.69999908598E+02 0.  0.
         12    1    1    2    0    0 -0.16867304438E+01  0.11987288864E+02 -0.14287814510E+02  0.18726499870E+02  0.00000000000E+00 0. -1.
         11    1    3    3    0    0 -0.11880920503E+02  0.92971083216E+01 -0.77733811274E+01  0.16971091584E+02  0.51100000000E-03 0. -1.
        -11    1    3    3    0    0 -0.15480091643E+02 -0.61858153304E+01  0.14014641600E+02  0.21778607118E+02  0.51100000000E-03 0.  1.
         12    1    3    3    0    0  0.29047742590E+02 -0.15098581856E+02  0.80465540371E+01  0.33711801427E+02  0.00000000000E+00 0. -1.
</event>
<event>
 7    1  0.3434711E-013  0.7246158E+02  0.7816164E-02  0.1226708E+00
        -11   -1    0    0    0    0  0.00000000000E+00  0.00000000000E+00  0.45593999997E+02  0.45594000000E+02  0.51100000000E-03 0. -1.
         11   -1    0    0    0    0 -0.00000000000E+00 -0.00000000000E+00 -0.45593999997E+02  0.45594000000E+02  0.51100000000E-03 0.  1.
    9900012    2    1    2    0    0  0.73670750984E+01  0.11807508303E+02 -0.12529479628E+02  0.72461577288E+02  0.70000009111E+02 0.  0.
         12    1    1    2    0    0 -0.73670750984E+01 -0.11807508303E+02  0.12529479628E+02  0.18726422712E+02  0.00000000000E+00 0. -1.
         11    1    3    3    0    0 -0.81488602122E+01 -0.65459485331E+01 -0.13674135512E+02  0.17211488815E+02  0.51100000000E-03 0. -1.
        -11    1    3    3    0    0  0.32428431106E+02  0.66732215812E+01 -0.56825073696E+01  0.33592051449E+02  0.51100000000E-03 0.  1.
         12    1    3    3    0    0 -0.16912495795E+02  0.11680235255E+02  0.68271632542E+01  0.21658037024E+02  0.00000000000E+00 0. -1.
</event>
<event>
 7    1  0.3434711E-013  0.7246158E+02  0.7816164E-02  0.1226708E+00
        -11   -1    0    0    0    0  0.00000000000E+00  0.00000000000E+00  0.45593999997E+02  0.45594000000E+02  0.51100000000E-03 0. -1.
         11   -1    0    0    0    0 -0.00000000000E+00 -0.00000000000E+00 -0.45593999997E+02  0.45594000000E+02  0.51100000000E-03 0.  1.
    9900012    2    1    2    0    0  0.17653395812E+02  0.59031334049E+01 -0.20468550842E+01  0.72461575263E+02  0.70000006473E+02 0.  0.
         12    1    1    2    0    0 -0.17653395812E+02 -0.59031334049E+01  0.20468550842E+01  0.18726424737E+02  0.00000000000E+00 0. -1.
         11    1    3    3    0    0  0.32599114109E+02  0.54494077311E+01  0.11332963948E+02  0.34940440144E+02  0.51100000000E-03 0. -1.
        -11    1    3    3    0    0 -0.15562016949E+01 -0.98007805790E+01 -0.17538020036E+02  0.20150910915E+02  0.51100000000E-03 0.  1.
         12    1    3    3    0    0 -0.13389516602E+02  0.10254506253E+02  0.41582010033E+01  0.17370224205E+02  0.00000000000E+00 0. -1.
</event>
<event>
 7    1  0.3434711E-013  0.7246158E+02  0.7816164E-02  0.1226708E+00
        -11   -1    0    0    0    0  0.00000000000E+00  0.00000000000E+00  0.45593999997E+02  0.45594000000E+02  0.51100000000E-03 0.  1.
         11   -1    0    0    0    0 -0.00000000000E+00 -0.00000000000E+00 -0.45593999997E+02  0.45594000000E+02  0.51100000000E-03 0. -1.
    9900012    2    1    2    0    0 -0.79363330213E+00 -0.99104738246E+01  0.15869198566E+02  0.72461579937E+02  0.70000012561E+02 0.  0.
         12    1    1    2    0    0  0.79363330213E+00  0.99104738246E+01 -0.15869198566E+02  0.18726420063E+02  0.00000000000E+00 0. -1.
         11    1    3    3    0    0  0.55366141992E+01 -0.13744008664E+02 -0.10369339607E+02  0.18085217032E+02  0.51100000000E-03 0. -1.
        -11    1    3    3    0    0  0.13212328281E+02  0.17867186339E+02  0.62143612357E+01  0.23074233511E+02  0.51100000000E-03 0.  1.
        -12    1    3    3    0    0 -0.19542575782E+02 -0.14033651499E+02  0.20024176937E+02  0.31302129394E+02  0.00000000000E+00 0.  1.
</event>
<event>
 7    1  0.3839581E-013  0.7246159E+02  0.7816164E-02  0.1226708E+00
        -11   -1    0    0    0    0  0.00000000000E+00  0.00000000000E+00  0.45593999997E+02  0.45594000000E+02  0.51100000000E-03 0. -1.
         11   -1    0    0    0    0 -0.00000000000E+00 -0.00000000000E+00 -0.45593999997E+02  0.45594000000E+02  0.51100000000E-03 0.  1.
    9900012    2    1    2    0    0  0.43242981501E+00  0.12626689905E+02 -0.13822383584E+02  0.72461585996E+02  0.70000020454E+02 0.  0.
         12    1    1    2    0    0 -0.43242981501E+00 -0.12626689905E+02  0.13822383584E+02  0.18726414004E+02  0.00000000000E+00 0. -1.
         11    1    3    3    0    0  0.19499235803E+02  0.15039872692E+02 -0.17460963043E+02  0.30187798829E+02  0.51100000000E-03 0. -1.
        -11    1    3    3    0    0 -0.11533048334E+02  0.16791154063E+01 -0.16606543929E+02  0.20288122977E+02  0.51100000000E-03 0.  1.
         12    1    3    3    0    0 -0.75337576544E+01 -0.40922981935E+01  0.20245123387E+02  0.21985664190E+02  0.00000000000E+00 0. -1.
</event>
<event>
 7    1  0.3434711E-013  0.7246155E+02  0.7816164E-02  0.1226708E+00
        -11   -1    0    0    0    0  0.00000000000E+00  0.00000000000E+00  0.45593999997E+02  0.45594000000E+02  0.51100000000E-03 0. -1.
         11   -1    0    0    0    0 -0.00000000000E+00 -0.00000000000E+00 -0.45593999997E+02  0.45594000000E+02  0.51100000000E-03 0.  1.
    9900012    2    1    2    0    0 -0.17059120598E+02  0.71099623892E+01 -0.30190754892E+01  0.72461548720E+02  0.69999971895E+02 0.  0.
         12    1    1    2    0    0  0.17059120598E+02 -0.71099623892E+01  0.30190754892E+01  0.18726451280E+02  0.00000000000E+00 0. -1.
         11    1    3    3    0    0 -0.21727465658E+02 -0.20640745736E+02 -0.51169973116E+01  0.30402414546E+02  0.51100000000E-03 0. -1.
        -11    1    3    3    0    0 -0.13422397531E+02  0.11261692915E+02  0.12787808147E+01  0.17567633973E+02  0.51100000000E-03 0.  1.
        -12    1    3    3    0    0  0.18090742592E+02  0.16489015210E+02  0.81914100767E+00  0.24491500201E+02  0.00000000000E+00 0.  1.
</event>
<event>
 7    1  0.3434711E-013  0.7246150E+02  0.7816164E-02  0.1226708E+00
        -11   -1    0    0    0    0  0.00000000000E+00  0.00000000000E+00  0.45593999997E+02  0.45594000000E+02  0.51100000000E-03 0.  1.
         11   -1    0    0    0    0 -0.00000000000E+00 -0.00000000000E+00 -0.45593999997E+02  0.45594000000E+02  0.51100000000E-03 0. -1.
    9900012    2    1    2    0    0  0.67286674813E+01  0.15408103030E+00  0.17475218177E+02  0.72461495858E+02  0.69999903033E+02 0.  0.
         12    1    1    2    0    0 -0.67286674813E+01 -0.15408103030E+00 -0.17475218177E+02  0.18726504142E+02  0.00000000000E+00 0. -1.
         11    1    3    3    0    0  0.16676136464E+02 -0.12891519115E+02 -0.18669285192E+02  0.28157183849E+02  0.51100000000E-03 0. -1.
        -11    1    3    3    0    0  0.21278983559E+00 -0.11097110390E+01 -0.20400862836E+01  0.23321000000E+01  0.51100000000E-03 0.  1.
        -12    1    3    3    0    0 -0.10160258818E+02  0.14155311184E+02  0.38184589653E+02  0.41972212009E+02  0.00000000000E+00 0.  1.
</event>
<event>
 7    1  0.3434711E-013  0.7246162E+02  0.7816164E-02  0.1226708E+00
        -11   -1    0    0    0    0  0.00000000000E+00  0.00000000000E+00  0.45593999997E+02  0.45594000000E+02  0.51100000000E-03 0. -1.
         11   -1    0    0    0    0 -0.00000000000E+00 -0.00000000000E+00 -0.45593999997E+02  0.45594000000E+02  0.51100000000E-03 0.  1.
    9900012    2    1    2    0    0  0.27445492634E+01 -0.28687188138E+01 -0.18300688328E+02  0.72461620436E+02  0.70000065319E+02 0.  0.
         12    1    1    2    0    0 -0.27445492634E+01  0.28687188138E+01  0.18300688328E+02  0.18726379564E+02  0.00000000000E+00 0. -1.
         11    1    3    3    0    0  0.91859492407E+01  0.14032499212E+02  0.11043327640E+02  0.20081030432E+02  0.51100000000E-03 0. -1.
        -11    1    3    3    0    0 -0.83831267696E+01 -0.33042320751E+01  0.83360012587E+01  0.12275328154E+02  0.51100000000E-03 0.  1.
        -12    1    3    3    0    0  0.19417267923E+01 -0.13596985950E+02 -0.37680017227E+02  0.40105261850E+02  0.00000000000E+00 0.  1.
</event>
<event>
 7    1  0.3434711E-013  0.7246161E+02  0.7816164E-02  0.1226708E+00
        -11   -1    0    0    0    0  0.00000000000E+00  0.00000000000E+00  0.45593999997E+02  0.45594000000E+02  0.51100000000E-03 0.  1.
         11   -1    0    0    0    0 -0.00000000000E+00 -0.00000000000E+00 -0.45593999997E+02  0.45594000000E+02  0.51100000000E-03 0. -1.
    9900012    2    1    2    0    0 -0.91683749036E+01 -0.16302211289E+02  0.92537011095E+00  0.72461614841E+02  0.70000058030E+02 0.  0.
         12    1    1    2    0    0  0.91683749036E+01  0.16302211289E+02 -0.92537011095E+00  0.18726385159E+02  0.00000000000E+00 0. -1.
         11    1    3    3    0    0  0.17240812315E+02 -0.19074915633E+02 -0.14972565931E+02  0.29753583759E+02  0.51100000000E-03 0. -1.
        -11    1    3    3    0    0 -0.19777912013E+02 -0.98722718264E+01  0.10813809623E+01  0.22131356481E+02  0.51100000000E-03 0.  1.
        -12    1    3    3    0    0 -0.66312752056E+01  0.12644976171E+02  0.14816555080E+02  0.20576674601E+02  0.00000000000E+00 0.  1.
</event>
<event>
 7    1  0.3434711E-013  0.7246158E+02  0.7816164E-02  0.1226708E+00
        -11   -1    0    0    0    0  0.00000000000E+00  0.00000000000E+00  0.45593999997E+02  0.45594000000E+02  0.51100000000E-03 0.  1.
         11   -1    0    0    0    0 -0.00000000000E+00 -0.00000000000E+00 -0.45593999997E+02  0.45594000000E+02  0.51100000000E-03 0. -1.
    9900012    2    1    2    0    0 -0.76306210272E+01 -0.72520384335E+01  0.15487430964E+02  0.72461575980E+02  0.70000007407E+02 0.  0.
         12    1    1    2    0    0  0.76306210272E+01  0.72520384335E+01 -0.15487430964E+02  0.18726424020E+02  0.00000000000E+00 0. -1.
         11    1    3    3    0    0  0.12662863423E+02  0.11298615147E+01 -0.16732910545E+02  0.21014637582E+02  0.51100000000E-03 0. -1.
        -11    1    3    3    0    0 -0.10950976664E+02 -0.87024816535E+01 -0.35862979070E+01  0.14440173467E+02  0.51100000000E-03 0.  1.
        -12    1    3    3    0    0 -0.93425077864E+01  0.32058170533E+00  0.35806639416E+02  0.37006764931E+02  0.00000000000E+00 0.  1.
</event>
<event>
 7    1  0.3434711E-013  0.7246155E+02  0.7816164E-02  0.1226708E+00
        -11   -1    0    0    0    0  0.00000000000E+00  0.00000000000E+00  0.45593999997E+02  0.45594000000E+02  0.51100000000E-03 0.  1.
         11   -1    0    0    0    0 -0.00000000000E+00 -0.00000000000E+00 -0.45593999997E+02  0.45594000000E+02  0.51100000000E-03 0. -1.
    9900012    2    1    2    0    0 -0.88763240895E+01 -0.36823186135E+01 -0.16072689343E+02  0.72461549658E+02  0.69999973117E+02 0.  0.
         12    1    1    2    0    0  0.88763240895E+01  0.36823186135E+01  0.16072689343E+02  0.18726450342E+02  0.00000000000E+00 0. -1.
         11    1    3    3    0    0  0.14143863377E+02 -0.50826041058E+01 -0.47330274957E+01  0.15757007497E+02  0.51100000000E-03 0. -1.
        -11    1    3    3    0    0  0.17263389808E+01 -0.72884892514E+01  0.16704645981E+02  0.18307034699E+02  0.51100000000E-03 0.  1.
         12    1    3    3    0    0 -0.24746526447E+02  0.86887747437E+01 -0.28044307828E+02  0.38397507462E+02  0.00000000000E+00 0. -1.
</event>
<event>
 7    1  0.3434711E-013  0.7246155E+02  0.7816164E-02  0.1226708E+00
        -11   -1    0    0    0    0  0.00000000000E+00  0.00000000000E+00  0.45593999997E+02  0.45594000000E+02  0.51100000000E-03 0.  1.
         11   -1    0    0    0    0 -0.00000000000E+00 -0.00000000000E+00 -0.45593999997E+02  0.45594000000E+02  0.51100000000E-03 0. -1.
    9900012    2    1    2    0    0 -0.17361191342E+02  0.68440920546E+01 -0.15580417472E+01  0.72461546653E+02  0.69999969203E+02 0.  0.
         12    1    1    2    0    0  0.17361191342E+02 -0.68440920546E+01  0.15580417472E+01  0.18726453347E+02  0.00000000000E+00 0. -1.
         11    1    3    3    0    0 -0.55469794394E+01  0.58954024573E+01 -0.25706424901E+01  0.84931121568E+01  0.51100000000E-03 0. -1.
        -11    1    3    3    0    0 -0.11652457217E+02  0.16203016435E+02  0.27155129643E+02  0.33700423839E+02  0.51100000000E-03 0.  1.
         12    1    3    3    0    0 -0.16175468576E+00 -0.15254326837E+02 -0.26142528900E+02  0.30268010657E+02  0.00000000000E+00 0. -1.
</event>
<event>
 7    1  0.3434711E-013  0.7246151E+02  0.7816164E-02  0.1226708E+00
        -11   -1    0    0    0    0  0.00000000000E+00  0.00000000000E+00  0.45593999997E+02  0.45594000000E+02  0.51100000000E-03 0.  1.
         11   -1    0    0    0    0 -0.00000000000E+00 -0.00000000000E+00 -0.45593999997E+02  0.45594000000E+02  0.51100000000E-03 0. -1.
    9900012    2    1    2    0    0  0.13205441327E+02 -0.96845254116E+01  0.90833822062E+01  0.72461506858E+02  0.69999917363E+02 0.  0.
         12    1    1    2    0    0 -0.13205441327E+02  0.96845254116E+01 -0.90833822062E+01  0.18726493142E+02  0.00000000000E+00 0. -1.
         11    1    3    3    0    0 -0.76026783815E+01  0.11355792947E+02 -0.37058734409E+00  0.13670848081E+02  0.51100000000E-03 0. -1.
        -11    1    3    3    0    0  0.10198406371E+02  0.16219670728E+02  0.49503781050E+01  0.19788669856E+02  0.51100000000E-03 0.  1.
         12    1    3    3    0    0  0.10609713337E+02 -0.37259989087E+02  0.45035914453E+01  0.39001988920E+02  0.00000000000E+00 0. -1.
</event>
<event>
 7    1  0.3434711E-013  0.7246164E+02  0.7816164E-02  0.1226708E+00
        -11   -1    0    0    0    0  0.00000000000E+00  0.00000000000E+00  0.45593999997E+02  0.45594000000E+02  0.51100000000E-03 0. -1.
         11   -1    0    0    0    0 -0.00000000000E+00 -0.00000000000E+00 -0.45593999997E+02  0.45594000000E+02  0.51100000000E-03 0.  1.
    9900012    2    1    2    0    0  0.45960572790E+01 -0.16291319445E+02 -0.80091090211E+01  0.72461637323E+02  0.70000087318E+02 0.  0.
         12    1    1    2    0    0 -0.45960572790E+01  0.16291319445E+02  0.80091090211E+01  0.18726362677E+02  0.00000000000E+00 0. -1.
         11    1    3    3    0    0  0.49684067091E+00 -0.78324892911E+01 -0.11090280112E+01  0.79262022772E+01  0.51100000000E-03 0. -1.
        -11    1    3    3    0    0 -0.24485890533E+01 -0.30890738924E+02  0.13228874331E+02  0.33693270188E+02  0.51100000000E-03 0.  1.
         12    1    3    3    0    0  0.65478056614E+01  0.22431908770E+02 -0.20128955341E+02  0.30842164858E+02  0.00000000000E+00 0. -1.
</event>
<event>
 7    1  0.3434711E-013  0.7246153E+02  0.7816164E-02  0.1226708E+00
        -11   -1    0    0    0    0  0.00000000000E+00  0.00000000000E+00  0.45593999997E+02  0.45594000000E+02  0.51100000000E-03 0. -1.
         11   -1    0    0    0    0 -0.00000000000E+00 -0.00000000000E+00 -0.45593999997E+02  0.45594000000E+02  0.51100000000E-03 0.  1.
    9900012    2    1    2    0    0 -0.21461090141E+01  0.18596909301E+02  0.47927304016E+00  0.72461534180E+02  0.69999952955E+02 0.  0.
         12    1    1    2    0    0  0.21461090141E+01 -0.18596909301E+02 -0.47927304016E+00  0.18726465820E+02  0.00000000000E+00 0. -1.
         11    1    3    3    0    0 -0.12360012631E-01  0.80138514581E+01 -0.10990152780E+02  0.13601669984E+02  0.51100000000E-03 0. -1.
        -11    1    3    3    0    0  0.19755360072E+02  0.14350367828E+02 -0.11428343861E+02  0.26959494655E+02  0.51100000000E-03 0.  1.
         12    1    3    3    0    0 -0.21889109074E+02 -0.37673099848E+01  0.22897769681E+02  0.31900369542E+02  0.00000000000E+00 0. -1.
</event>
<event>
 7    1  0.3434711E-013  0.7246159E+02  0.7816164E-02  0.1226708E+00
        -11   -1    0    0    0    0  0.00000000000E+00  0.00000000000E+00  0.45593999997E+02  0.45594000000E+02  0.51100000000E-03 0. -1.
         11   -1    0    0    0    0 -0.00000000000E+00 -0.00000000000E+00 -0.45593999997E+02  0.45594000000E+02  0.51100000000E-03 0.  1.
    9900012    2    1    2    0    0 -0.67914806668E+01  0.13242710598E+02 -0.11365942700E+02  0.72461594923E+02  0.70000032083E+02 0.  0.
         12    1    1    2    0    0  0.67914806668E+01 -0.13242710598E+02  0.11365942700E+02  0.18726405077E+02  0.00000000000E+00 0. -1.
         11    1    3    3    0    0 -0.21338970849E+02  0.51904268603E+01 -0.15705238483E+02  0.26999013389E+02  0.51100000000E-03 0. -1.
        -11    1    3    3    0    0  0.53741428784E+01 -0.14524957000E+02 -0.87623975437E+01  0.17794251839E+02  0.51100000000E-03 0.  1.
         12    1    3    3    0    0  0.91733473040E+01  0.22577240738E+02  0.13101693326E+02  0.27668329695E+02  0.00000000000E+00 0. -1.
</event>
<event>
 7    1  0.3434711E-013  0.7246159E+02  0.7816164E-02  0.1226708E+00
        -11   -1    0    0    0    0  0.00000000000E+00  0.00000000000E+00  0.45593999997E+02  0.45594000000E+02  0.51100000000E-03 0. -1.
         11   -1    0    0    0    0 -0.00000000000E+00 -0.00000000000E+00 -0.45593999997E+02  0.45594000000E+02  0.51100000000E-03 0.  1.
    9900012    2    1    2    0    0  0.15111414945E+01 -0.66547715727E+01 -0.17438719708E+02  0.72461588749E+02  0.70000024041E+02 0.  0.
         12    1    1    2    0    0 -0.15111414945E+01  0.66547715727E+01  0.17438719708E+02  0.18726411251E+02  0.00000000000E+00 0. -1.
         11    1    3    3    0    0  0.21907765396E+01 -0.27290121109E+02  0.90679027613E+01  0.28840545639E+02  0.51100000000E-03 0. -1.
        -11    1    3    3    0    0  0.12514420468E+02  0.82320625645E+01 -0.56734160639E+01  0.16017653505E+02  0.51100000000E-03 0.  1.
        -12    1    3    3    0    0 -0.13194055513E+02  0.12403286972E+02 -0.20833206405E+02  0.27603389605E+02  0.00000000000E+00 0.  1.
</event>
<event>
 7    1  0.3434711E-013  0.7246131E+02  0.7816164E-02  0.1226709E+00
        -11   -1    0    0    0    0  0.00000000000E+00  0.00000000000E+00  0.45593999997E+02  0.45594000000E+02  0.51100000000E-03 0.  1.
         11   -1    0    0    0    0 -0.00000000000E+00 -0.00000000000E+00 -0.45593999997E+02  0.45594000000E+02  0.51100000000E-03 0. -1.
    9900012    2    1    2    0    0 -0.17077815582E+02  0.12772304974E+01  0.75766525063E+01  0.72461314068E+02  0.69999666217E+02 0.  0.
         12    1    1    2    0    0  0.17077815582E+02 -0.12772304974E+01 -0.75766525063E+01  0.18726685932E+02  0.00000000000E+00 0. -1.
         11    1    3    3    0    0 -0.99709611109E+01  0.11096754111E+02 -0.10232331186E+02  0.18090290740E+02  0.51100000000E-03 0. -1.
        -11    1    3    3    0    0 -0.39730940333E+00  0.20083390706E+02  0.11276757537E+02  0.23036182362E+02  0.51100000000E-03 0.  1.
         12    1    3    3    0    0 -0.67095450676E+01 -0.29902914320E+02  0.65322261552E+01  0.31334840966E+02  0.00000000000E+00 0. -1.
</event>
<event>
 7    1  0.3434711E-013  0.7246162E+02  0.7816164E-02  0.1226708E+00
        -11   -1    0    0    0    0  0.00000000000E+00  0.00000000000E+00  0.45593999997E+02  0.45594000000E+02  0.51100000000E-03 0. -1.
         11   -1    0    0    0    0 -0.00000000000E+00 -0.00000000000E+00 -0.45593999997E+02  0.45594000000E+02  0.51100000000E-03 0.  1.
    9900012    2    1    2    0    0 -0.17989716559E+02 -0.48675319387E+01  0.18315772454E+01  0.72461616360E+02  0.70000060009E+02 0.  0.
         12    1    1    2    0    0  0.17989716559E+02  0.48675319387E+01 -0.18315772454E+01  0.18726383640E+02  0.00000000000E+00 0. -1.
         11    1    3    3    0    0  0.34231891014E+00 -0.18482624251E+02 -0.91209244168E+01  0.20613486942E+02  0.51100000000E-03 0. -1.
        -11    1    3    3    0    0  0.18348881894E+01 -0.79415481085E+01 -0.11964657072E+02  0.14477155112E+02  0.51100000000E-03 0.  1.
         12    1    3    3    0    0 -0.20166923658E+02  0.21556640421E+02  0.22917158734E+02  0.37370974305E+02  0.00000000000E+00 0. -1.
</event>
<event>
 7    1  0.3434711E-013  0.7246157E+02  0.7816164E-02  0.1226708E+00
        -11   -1    0    0    0    0  0.00000000000E+00  0.00000000000E+00  0.45593999997E+02  0.45594000000E+02  0.51100000000E-03 0.  1.
         11   -1    0    0    0    0 -0.00000000000E+00 -0.00000000000E+00 -0.45593999997E+02  0.45594000000E+02  0.51100000000E-03 0. -1.
    9900012    2    1    2    0    0  0.50038437115E+01 -0.17006911594E+02  0.60337092402E+01  0.72461571055E+02  0.70000000990E+02 0.  0.
         12    1    1    2    0    0 -0.50038437115E+01  0.17006911594E+02 -0.60337092402E+01  0.18726428945E+02  0.00000000000E+00 0. -1.
         11    1    3    3    0    0 -0.32423536571E+01  0.33392396492E+01 -0.68487756110E+01  0.82806464907E+01  0.51100000000E-03 0. -1.
        -11    1    3    3    0    0 -0.61945327523E+01 -0.38071988540E+02  0.14622605949E+02  0.41251292736E+02  0.51100000000E-03 0.  1.
         12    1    3    3    0    0  0.14440730121E+02  0.17725837297E+02 -0.17401210979E+01  0.22929631827E+02  0.00000000000E+00 0. -1.
</event>
<event>
 7    1  0.3434711E-013  0.7246157E+02  0.7816164E-02  0.1226708E+00
        -11   -1    0    0    0    0  0.00000000000E+00  0.00000000000E+00  0.45593999997E+02  0.45594000000E+02  0.51100000000E-03 0.  1.
         11   -1    0    0    0    0 -0.00000000000E+00 -0.00000000000E+00 -0.45593999997E+02  0.45594000000E+02  0.51100000000E-03 0. -1.
    9900012    2    1    2    0    0 -0.12239565547E+02 -0.82240392957E+01  0.11542844842E+02  0.72461573375E+02  0.70000004013E+02 0.  0.
         12    1    1    2    0    0  0.12239565547E+02  0.82240392957E+01 -0.11542844842E+02  0.18726426625E+02  0.00000000000E+00 0. -1.
         11    1    3    3    0    0 -0.41654077015E+01 -0.78308191545E+01  0.48472406683E+01  0.10107823322E+02  0.51100000000E-03 0. -1.
        -11    1    3    3    0    0  0.32098879811E+01 -0.26930607782E+02  0.16676923875E+02  0.31838354332E+02  0.51100000000E-03 0.  1.
         12    1    3    3    0    0 -0.11284045826E+02  0.26537387641E+02 -0.99813197011E+01  0.30515395721E+02  0.00000000000E+00 0. -1.
</event>
<event>
 7    1  0.3434711E-013  0.7246155E+02  0.7816164E-02  0.1226708E+00
        -11   -1    0    0    0    0  0.00000000000E+00  0.00000000000E+00  0.45593999997E+02  0.45594000000E+02  0.51100000000E-03 0.  1.
         11   -1    0    0    0    0 -0.00000000000E+00 -0.00000000000E+00 -0.45593999997E+02  0.45594000000E+02  0.51100000000E-03 0. -1.
    9900012    2    1    2    0    0 -0.18444510416E+02 -0.30851164076E+01 -0.98086365385E+00  0.72461548087E+02  0.69999971071E+02 0.  0.
         12    1    1    2    0    0  0.18444510416E+02  0.30851164076E+01  0.98086365385E+00  0.18726451913E+02  0.00000000000E+00 0. -1.
         11    1    3    3    0    0  0.20616636214E+02 -0.71877425501E+00 -0.21446224571E+01  0.20740340666E+02  0.51100000000E-03 0. -1.
        -11    1    3    3    0    0  0.34831096633E+01 -0.64707422158E+01  0.48749680628E+01  0.88186093928E+01  0.51100000000E-03 0.  1.
        -12    1    3    3    0    0 -0.42544256293E+02  0.41044000631E+01 -0.37112092595E+01  0.42902598028E+02  0.00000000000E+00 0.  1.
</event>
<event>
 7    1  0.3434711E-013  0.7246149E+02  0.7816164E-02  0.1226708E+00
        -11   -1    0    0    0    0  0.00000000000E+00  0.00000000000E+00  0.45593999997E+02  0.45594000000E+02  0.51100000000E-03 0.  1.
         11   -1    0    0    0    0 -0.00000000000E+00 -0.00000000000E+00 -0.45593999997E+02  0.45594000000E+02  0.51100000000E-03 0. -1.
    9900012    2    1    2    0    0  0.14099255235E+02 -0.12043885244E+02  0.26149243425E+01  0.72461494740E+02  0.69999901576E+02 0.  0.
         12    1    1    2    0    0 -0.14099255235E+02  0.12043885244E+02 -0.26149243425E+01  0.18726505260E+02  0.00000000000E+00 0. -1.
         11    1    3    3    0    0  0.13198161181E+02  0.16453410000E+02  0.11010725523E+02  0.23793743631E+02  0.51100000000E-03 0. -1.
        -11    1    3    3    0    0  0.69739359334E+01  0.49636372738E+00 -0.16530539880E+02  0.17948284272E+02  0.51100000000E-03 0.  1.
        -12    1    3    3    0    0 -0.60728418793E+01 -0.28993658971E+02  0.81347386994E+01  0.30719466837E+02  0.00000000000E+00 0.  1.
</event>
<event>
 7    1  0.3434711E-013  0.7246157E+02  0.7816164E-02  0.1226708E+00
        -11   -1    0    0    0    0  0.00000000000E+00  0.00000000000E+00  0.45593999997E+02  0.45594000000E+02  0.51100000000E-03 0.  1.
         11   -1    0    0    0    0 -0.00000000000E+00 -0.00000000000E+00 -0.45593999997E+02  0.45594000000E+02  0.51100000000E-03 0. -1.
    9900012    2    1    2    0    0 -0.15665175127E+02 -0.87253524652E+01  0.53990539331E+01  0.72461567591E+02  0.69999996479E+02 0.  0.
         12    1    1    2    0    0  0.15665175127E+02  0.87253524652E+01 -0.53990539331E+01  0.18726432409E+02  0.00000000000E+00 0. -1.
         11    1    3    3    0    0 -0.55233018379E+00 -0.78831225703E+01  0.42280853411E+01  0.89624436402E+01  0.51100000000E-03 0. -1.
        -11    1    3    3    0    0  0.21330511425E+02  0.79188580845E+01  0.10216454389E+02  0.24941430824E+02  0.51100000000E-03 0.  1.
         12    1    3    3    0    0 -0.36443356368E+02 -0.87610879793E+01 -0.90454857971E+01  0.38557693127E+02  0.00000000000E+00 0. -1.
</event>
<event>
 7    1  0.3434711E-013  0.7246158E+02  0.7816164E-02  0.1226708E+00
        -11   -1    0    0    0    0  0.00000000000E+00  0.00000000000E+00  0.45593999997E+02  0.45594000000E+02  0.51100000000E-03 0. -1.
         11   -1    0    0    0    0 -0.00000000000E+00 -0.00000000000E+00 -0.45593999997E+02  0.45594000000E+02  0.51100000000E-03 0.  1.
    9900012    2    1    2    0    0  0.11515533683E+01 -0.16307823968E+02 -0.91327720788E+01  0.72461582201E+02  0.70000015511E+02 0.  0.
         12    1    1    2    0    0 -0.11515533683E+01  0.16307823968E+02  0.91327720788E+01  0.18726417799E+02  0.00000000000E+00 0. -1.
         11    1    3    3    0    0  0.58348582417E+01 -0.23652145802E+02  0.36840907175E+00  0.24364016443E+02  0.51100000000E-03 0. -1.
        -11    1    3    3    0    0 -0.12525101043E+02 -0.11954133339E+02 -0.18560081870E+02  0.25382200442E+02  0.51100000000E-03 0.  1.
         12    1    3    3    0    0  0.78417961696E+01  0.19298455172E+02  0.90589007190E+01  0.22715365316E+02  0.00000000000E+00 0. -1.
</event>
<event>
 7    1  0.3434711E-013  0.7246154E+02  0.7816164E-02  0.1226708E+00
        -11   -1    0    0    0    0  0.00000000000E+00  0.00000000000E+00  0.45593999997E+02  0.45594000000E+02  0.51100000000E-03 0.  1.
         11   -1    0    0    0    0 -0.00000000000E+00 -0.00000000000E+00 -0.45593999997E+02  0.45594000000E+02  0.51100000000E-03 0. -1.
    9900012    2    1    2    0    0 -0.13840680188E+02  0.93521743933E+01  0.84647867145E+01  0.72461542565E+02  0.69999963878E+02 0.  0.
         12    1    1    2    0    0  0.13840680188E+02 -0.93521743933E+01 -0.84647867145E+01  0.18726457435E+02  0.00000000000E+00 0. -1.
         11    1    3    3    0    0 -0.35794540824E+01 -0.65395296072E+01  0.36657680145E+01  0.83075745202E+01  0.51100000000E-03 0. -1.
        -11    1    3    3    0    0 -0.14911427615E+02 -0.13378080950E+02  0.22106735080E+02  0.29833395040E+02  0.51100000000E-03 0.  1.
         12    1    3    3    0    0  0.46502015103E+01  0.29269784950E+02 -0.17307716380E+02  0.34320573005E+02  0.00000000000E+00 0. -1.
</event>
<event>
 7    1  0.3434711E-013  0.7246153E+02  0.7816164E-02  0.1226708E+00
        -11   -1    0    0    0    0  0.00000000000E+00  0.00000000000E+00  0.45593999997E+02  0.45594000000E+02  0.51100000000E-03 0. -1.
         11   -1    0    0    0    0 -0.00000000000E+00 -0.00000000000E+00 -0.45593999997E+02  0.45594000000E+02  0.51100000000E-03 0.  1.
    9900012    2    1    2    0    0  0.12401637148E+02 -0.13561185942E+02 -0.36019812392E+01  0.72461531114E+02  0.69999948960E+02 0.  0.
         12    1    1    2    0    0 -0.12401637148E+02  0.13561185942E+02  0.36019812392E+01  0.18726468886E+02  0.00000000000E+00 0. -1.
         11    1    3    3    0    0 -0.83253862708E-01  0.10880102210E+02  0.63194955388E+00  0.10898757535E+02  0.51100000000E-03 0. -1.
        -11    1    3    3    0    0 -0.53771313313E-01  0.58233398761E+01 -0.23056848612E+02  0.23780926114E+02  0.51100000000E-03 0.  1.
         12    1    3    3    0    0  0.12538662324E+02 -0.30264628029E+02  0.18822917819E+02  0.37781847464E+02  0.00000000000E+00 0. -1.
</event>
<event>
 7    1  0.3434711E-013  0.7246162E+02  0.7816164E-02  0.1226708E+00
        -11   -1    0    0    0    0  0.00000000000E+00  0.00000000000E+00  0.45593999997E+02  0.45594000000E+02  0.51100000000E-03 0.  1.
         11   -1    0    0    0    0 -0.00000000000E+00 -0.00000000000E+00 -0.45593999997E+02  0.45594000000E+02  0.51100000000E-03 0. -1.
    9900012    2    1    2    0    0  0.40349418943E+01  0.14788700670E+02  0.10755968599E+02  0.72461620636E+02  0.70000065579E+02 0.  0.
         12    1    1    2    0    0 -0.40349418943E+01 -0.14788700670E+02 -0.10755968599E+02  0.18726379364E+02  0.00000000000E+00 0. -1.
         11    1    3    3    0    0 -0.39926865072E+01  0.32412122114E+02 -0.93370846190E+01  0.33965693794E+02  0.51100000000E-03 0. -1.
        -11    1    3    3    0    0  0.74765821758E+01  0.17279176360E+01 -0.31077914035E+01  0.82790910164E+01  0.51100000000E-03 0.  1.
        -12    1    3    3    0    0  0.55104622563E+00 -0.19351339080E+02  0.23200844621E+02  0.30216835825E+02  0.00000000000E+00 0.  1.
</event>
<event>
 7    1  0.3434711E-013  0.7246158E+02  0.7816164E-02  0.1226708E+00
        -11   -1    0    0    0    0  0.00000000000E+00  0.00000000000E+00  0.45593999997E+02  0.45594000000E+02  0.51100000000E-03 0.  1.
         11   -1    0    0    0    0 -0.00000000000E+00 -0.00000000000E+00 -0.45593999997E+02  0.45594000000E+02  0.51100000000E-03 0. -1.
    9900012    2    1    2    0    0 -0.11648619252E+02 -0.92029234667E+01  0.11414675382E+02  0.72461576292E+02  0.70000007813E+02 0.  0.
         12    1    1    2    0    0  0.11648619252E+02  0.92029234667E+01 -0.11414675382E+02  0.18726423708E+02  0.00000000000E+00 0. -1.
         11    1    3    3    0    0 -0.14477605238E+02 -0.19136750270E+02 -0.10295753862E+02  0.26111660464E+02  0.51100000000E-03 0. -1.
        -11    1    3    3    0    0  0.33198070960E+01 -0.87769928525E+01 -0.72562888345E+01  0.11862143592E+02  0.51100000000E-03 0.  1.
         12    1    3    3    0    0 -0.49082111041E+00  0.18710819656E+02  0.28966718078E+02  0.34487772236E+02  0.00000000000E+00 0. -1.
</event>
<event>
 7    1  0.3434711E-013  0.7246157E+02  0.7816164E-02  0.1226708E+00
        -11   -1    0    0    0    0  0.00000000000E+00  0.00000000000E+00  0.45593999997E+02  0.45594000000E+02  0.51100000000E-03 0. -1.
         11   -1    0    0    0    0 -0.00000000000E+00 -0.00000000000E+00 -0.45593999997E+02  0.45594000000E+02  0.51100000000E-03 0.  1.
    9900012    2    1    2    0    0 -0.13164352057E+02  0.11486863040E+02 -0.67402456726E+01  0.72461572169E+02  0.70000002443E+02 0.  0.
         12    1    1    2    0    0  0.13164352057E+02 -0.11486863040E+02  0.67402456726E+01  0.18726427831E+02  0.00000000000E+00 0. -1.
         11    1    3    3    0    0  0.96624074316E+01  0.19639944191E+02  0.10920568727E+02  0.24461159964E+02  0.51100000000E-03 0. -1.
        -11    1    3    3    0    0 -0.18405437826E+02  0.63485333611E+01  0.55786407360E+01  0.20253030641E+02  0.51100000000E-03 0.  1.
        -12    1    3    3    0    0 -0.44213216621E+01 -0.14501614513E+02 -0.23239455135E+02  0.27747381565E+02  0.00000000000E+00 0.  1.
</event>
<event>
 7    1  0.3434711E-013  0.7246152E+02  0.7816164E-02  0.1226708E+00
        -11   -1    0    0    0    0  0.00000000000E+00  0.00000000000E+00  0.45593999997E+02  0.45594000000E+02  0.51100000000E-03 0. -1.
         11   -1    0    0    0    0 -0.00000000000E+00 -0.00000000000E+00 -0.45593999997E+02  0.45594000000E+02  0.51100000000E-03 0.  1.
    9900012    2    1    2    0    0  0.86139924789E+01 -0.14290254709E+02 -0.85011137978E+01  0.72461516564E+02  0.69999930007E+02 0.  0.
         12    1    1    2    0    0 -0.86139924789E+01  0.14290254709E+02  0.85011137978E+01  0.18726483436E+02  0.00000000000E+00 0. -1.
         11    1    3    3    0    0  0.10843743091E+02  0.88764704334E+01  0.16399151208E+02  0.21571060525E+02  0.51100000000E-03 0. -1.
        -11    1    3    3    0    0  0.13470239054E+02 -0.58681366285E+01  0.24777249713E+01  0.14900385530E+02  0.51100000000E-03 0.  1.
        -12    1    3    3    0    0 -0.15699989666E+02 -0.17298588514E+02 -0.27377989977E+02  0.35990070509E+02  0.00000000000E+00 0.  1.
</event>
<event>
 7    1  0.3434711E-013  0.7246158E+02  0.7816164E-02  0.1226708E+00
        -11   -1    0    0    0    0  0.00000000000E+00  0.00000000000E+00  0.45593999997E+02  0.45594000000E+02  0.51100000000E-03 0. -1.
         11   -1    0    0    0    0 -0.00000000000E+00 -0.00000000000E+00 -0.45593999997E+02  0.45594000000E+02  0.51100000000E-03 0.  1.
    9900012    2    1    2    0    0 -0.38909548967E+01  0.25324568739E-01 -0.18317710602E+02  0.72461583017E+02  0.70000016573E+02 0.  0.
         12    1    1    2    0    0  0.38909548967E+01 -0.25324568739E-01  0.18317710602E+02  0.18726416983E+02  0.00000000000E+00 0. -1.
         11    1    3    3    0    0  0.93748884414E+01 -0.11578142864E+02 -0.25785559390E+01  0.15119222085E+02  0.51100000000E-03 0. -1.
        -11    1    3    3    0    0 -0.30430753184E+02 -0.92709451347E+00 -0.18932867462E+02  0.35851690534E+02  0.51100000000E-03 0.  1.
         12    1    3    3    0    0  0.17164909846E+02  0.12530561946E+02  0.31937127994E+01  0.21490670398E+02  0.00000000000E+00 0. -1.
</event>
<event>
 7    1  0.3434711E-013  0.7246155E+02  0.7816164E-02  0.1226708E+00
        -11   -1    0    0    0    0  0.00000000000E+00  0.00000000000E+00  0.45593999997E+02  0.45594000000E+02  0.51100000000E-03 0.  1.
         11   -1    0    0    0    0 -0.00000000000E+00 -0.00000000000E+00 -0.45593999997E+02  0.45594000000E+02  0.51100000000E-03 0. -1.
    9900012    2    1    2    0    0 -0.17076604099E+02 -0.23417804330E+01 -0.73202192005E+01  0.72461549394E+02  0.69999972774E+02 0.  0.
         12    1    1    2    0    0  0.17076604099E+02  0.23417804330E+01  0.73202192005E+01  0.18726450606E+02  0.00000000000E+00 0. -1.
         11    1    3    3    0    0 -0.46241152247E+01  0.13333809991E+02 -0.10127186296E+02  0.17370458630E+02  0.51100000000E-03 0. -1.
        -11    1    3    3    0    0 -0.22060334944E+02 -0.15271239599E+02 -0.17904632748E+02  0.32255929855E+02  0.51100000000E-03 0.  1.
        -12    1    3    3    0    0  0.96078460696E+01 -0.40435082459E+00  0.20711599843E+02  0.22835160909E+02  0.00000000000E+00 0.  1.
</event>
<event>
 7    1  0.3434711E-013  0.7246158E+02  0.7816164E-02  0.1226708E+00
        -11   -1    0    0    0    0  0.00000000000E+00  0.00000000000E+00  0.45593999997E+02  0.45594000000E+02  0.51100000000E-03 0.  1.
         11   -1    0    0    0    0 -0.00000000000E+00 -0.00000000000E+00 -0.45593999997E+02  0.45594000000E+02  0.51100000000E-03 0. -1.
    9900012    2    1    2    0    0  0.16608132893E+02 -0.81772254193E+01  0.28251621910E+01  0.72461584562E+02  0.70000018587E+02 0.  0.
         12    1    1    2    0    0 -0.16608132893E+02  0.81772254193E+01 -0.28251621910E+01  0.18726415438E+02  0.00000000000E+00 0. -1.
         11    1    3    3    0    0  0.35355189035E+02  0.77704481484E+01  0.13717591504E+01  0.36225004894E+02  0.51100000000E-03 0.  1.
        -11    1    3    3    0    0 -0.61360641208E+00  0.69172131341E+01  0.12338602790E+01  0.70531384376E+01  0.51100000000E-03 0. -1.
        -12    1    3    3    0    0 -0.18133449731E+02 -0.22864886702E+02  0.21954276169E+00  0.29183441230E+02  0.00000000000E+00 0.  1.
</event>
<event>
 7    1  0.3434711E-013  0.7246159E+02  0.7816164E-02  0.1226708E+00
        -11   -1    0    0    0    0  0.00000000000E+00  0.00000000000E+00  0.45593999997E+02  0.45594000000E+02  0.51100000000E-03 0. -1.
         11   -1    0    0    0    0 -0.00000000000E+00 -0.00000000000E+00 -0.45593999997E+02  0.45594000000E+02  0.51100000000E-03 0.  1.
    9900012    2    1    2    0    0  0.12942918827E+02 -0.11520296756E+02  0.71022677430E+01  0.72461585709E+02  0.70000020080E+02 0.  0.
         12    1    1    2    0    0 -0.12942918827E+02  0.11520296756E+02 -0.71022677430E+01  0.18726414291E+02  0.00000000000E+00 0. -1.
         11    1    3    3    0    0 -0.86899220319E+01  0.47599848115E+01  0.13376035937E+02  0.16646036704E+02  0.51100000000E-03 0. -1.
        -11    1    3    3    0    0  0.15871041993E+02  0.14140668082E+02  0.66384351840E+01  0.22269200473E+02  0.51100000000E-03 0.  1.
        -12    1    3    3    0    0  0.57617988653E+01 -0.30420949650E+02 -0.12912203378E+02  0.33546348532E+02  0.00000000000E+00 0.  1.
</event>
<event>
 7    1  0.3434711E-013  0.7246156E+02  0.7816164E-02  0.1226708E+00
        -11   -1    0    0    0    0  0.00000000000E+00  0.00000000000E+00  0.45593999997E+02  0.45594000000E+02  0.51100000000E-03 0. -1.
         11   -1    0    0    0    0 -0.00000000000E+00 -0.00000000000E+00 -0.45593999997E+02  0.45594000000E+02  0.51100000000E-03 0.  1.
    9900012    2    1    2    0    0  0.27741822650E+01 -0.51375664567E+01 -0.17792946056E+02  0.72461558649E+02  0.69999984830E+02 0.  0.
         12    1    1    2    0    0 -0.27741822650E+01  0.51375664567E+01  0.17792946056E+02  0.18726441351E+02  0.00000000000E+00 0. -1.
         11    1    3    3    0    0 -0.67325171728E-01  0.12397708540E+02 -0.81026176408E+01  0.14810811004E+02  0.51100000000E-03 0. -1.
        -11    1    3    3    0    0  0.41352673496E+01  0.19402114549E+02 -0.24559570989E+01  0.19989352430E+02  0.51100000000E-03 0.  1.
        -12    1    3    3    0    0 -0.12937599129E+01 -0.36937389546E+02 -0.72343713159E+01  0.37661395215E+02  0.00000000000E+00 0.  1.
</event>
<event>
 7    1  0.3434711E-013  0.7246152E+02  0.7816164E-02  0.1226708E+00
        -11   -1    0    0    0    0  0.00000000000E+00  0.00000000000E+00  0.45593999997E+02  0.45594000000E+02  0.51100000000E-03 0.  1.
         11   -1    0    0    0    0 -0.00000000000E+00 -0.00000000000E+00 -0.45593999997E+02  0.45594000000E+02  0.51100000000E-03 0. -1.
    9900012    2    1    2    0    0  0.17187275922E+02 -0.46904837872E+01  0.57687065515E+01  0.72461519630E+02  0.69999934000E+02 0.  0.
         12    1    1    2    0    0 -0.17187275922E+02  0.46904837872E+01 -0.57687065515E+01  0.18726480370E+02  0.00000000000E+00 0. -1.
         11    1    3    3    0    0  0.88004965991E+01 -0.88008197043E+00  0.43977091117E+01  0.98774050417E+01  0.51100000000E-03 0.  1.
        -11    1    3    3    0    0 -0.10009956040E+02  0.22788165679E+02 -0.11946987860E+02  0.27608517420E+02  0.51100000000E-03 0. -1.
         12    1    3    3    0    0  0.18396735363E+02 -0.26598567496E+02  0.13317985300E+02  0.34975597168E+02  0.00000000000E+00 0. -1.
</event>
<event>
 7    1  0.3434711E-013  0.7246166E+02  0.7816164E-02  0.1226708E+00
        -11   -1    0    0    0    0  0.00000000000E+00  0.00000000000E+00  0.45593999997E+02  0.45594000000E+02  0.51100000000E-03 0.  1.
         11   -1    0    0    0    0 -0.00000000000E+00 -0.00000000000E+00 -0.45593999997E+02  0.45594000000E+02  0.51100000000E-03 0. -1.
    9900012    2    1    2    0    0 -0.54587732717E+01 -0.13438086340E+02  0.11844637580E+02  0.72461660007E+02  0.70000116867E+02 0.  0.
         12    1    1    2    0    0  0.54587732717E+01  0.13438086340E+02 -0.11844637580E+02  0.18726339993E+02  0.00000000000E+00 0. -1.
         11    1    3    3    0    0  0.69984787163E+01 -0.64126175447E+01 -0.20584988083E+02  0.22668085555E+02  0.51100000000E-03 0. -1.
        -11    1    3    3    0    0  0.85585978774E+01 -0.66266534298E+01 -0.37707579951E+00  0.10830711875E+02  0.51100000000E-03 0.  1.
        -12    1    3    3    0    0 -0.21015849865E+02 -0.39881536597E+00  0.32806701463E+02  0.38962862576E+02  0.00000000000E+00 0.  1.
</event>
<event>
 7    1  0.3434711E-013  0.7246158E+02  0.7816164E-02  0.1226708E+00
        -11   -1    0    0    0    0  0.00000000000E+00  0.00000000000E+00  0.45593999997E+02  0.45594000000E+02  0.51100000000E-03 0.  1.
         11   -1    0    0    0    0 -0.00000000000E+00 -0.00000000000E+00 -0.45593999997E+02  0.45594000000E+02  0.51100000000E-03 0. -1.
    9900012    2    1    2    0    0 -0.16192980645E+02 -0.74794389174E+01  0.57029975763E+01  0.72461579892E+02  0.70000012503E+02 0.  0.
         12    1    1    2    0    0  0.16192980645E+02  0.74794389174E+01 -0.57029975763E+01  0.18726420108E+02  0.00000000000E+00 0. -1.
         11    1    3    3    0    0 -0.30239926102E+02 -0.10327203751E+02 -0.11217817871E+02  0.33866557340E+02  0.51100000000E-03 0.  1.
        -11    1    3    3    0    0  0.12988661397E+02  0.86632728229E+01 -0.46007226205E+01  0.16276494394E+02  0.51100000000E-03 0. -1.
        -12    1    3    3    0    0  0.10582840608E+01 -0.58155079897E+01  0.21521538068E+02  0.22318528158E+02  0.00000000000E+00 0.  1.
</event>
<event>
 7    1  0.3434711E-013  0.7246144E+02  0.7816164E-02  0.1226708E+00
        -11   -1    0    0    0    0  0.00000000000E+00  0.00000000000E+00  0.45593999997E+02  0.45594000000E+02  0.51100000000E-03 0.  1.
         11   -1    0    0    0    0 -0.00000000000E+00 -0.00000000000E+00 -0.45593999997E+02  0.45594000000E+02  0.51100000000E-03 0. -1.
    9900012    2    1    2    0    0  0.10904700946E+02  0.10181650150E+02  0.11318375537E+02  0.72461437921E+02  0.69999827559E+02 0.  0.
         12    1    1    2    0    0 -0.10904700946E+02 -0.10181650150E+02 -0.11318375537E+02  0.18726562079E+02  0.00000000000E+00 0. -1.
         11    1    3    3    0    0  0.27803903526E+01  0.10613611785E+02 -0.56042303672E+01  0.12320175482E+02  0.51100000000E-03 0. -1.
        -11    1    3    3    0    0 -0.18044003872E+02 -0.90644075999E+00 -0.11568709209E+02  0.21453268833E+02  0.51100000000E-03 0.  1.
         12    1    3    3    0    0  0.26168314465E+02  0.47447912523E+00  0.28491315114E+02  0.38687993606E+02  0.00000000000E+00 0. -1.
</event>
<event>
 7    1  0.3434711E-013  0.7246144E+02  0.7816164E-02  0.1226708E+00
        -11   -1    0    0    0    0  0.00000000000E+00  0.00000000000E+00  0.45593999997E+02  0.45594000000E+02  0.51100000000E-03 0. -1.
         11   -1    0    0    0    0 -0.00000000000E+00 -0.00000000000E+00 -0.45593999997E+02  0.45594000000E+02  0.51100000000E-03 0.  1.
    9900012    2    1    2    0    0 -0.85366771623E+01 -0.13081723309E+02  0.10328492083E+02  0.72461438906E+02  0.69999828842E+02 0.  0.
         12    1    1    2    0    0  0.85366771623E+01  0.13081723309E+02 -0.10328492083E+02  0.18726561094E+02  0.00000000000E+00 0. -1.
         11    1    3    3    0    0  0.21961305567E+01  0.41476067780E+01  0.17177555931E+01  0.49976310334E+01  0.51100000000E-03 0. -1.
        -11    1    3    3    0    0  0.21229763100E+02 -0.16829706495E+02 -0.11787612356E+02  0.29544706248E+02  0.51100000000E-03 0.  1.
         12    1    3    3    0    0 -0.31962570819E+02 -0.39962359224E+00  0.20398348845E+02  0.37919101624E+02  0.00000000000E+00 0. -1.
</event>
<event>
 7    1  0.3434711E-013  0.7246150E+02  0.7816164E-02  0.1226708E+00
        -11   -1    0    0    0    0  0.00000000000E+00  0.00000000000E+00  0.45593999997E+02  0.45594000000E+02  0.51100000000E-03 0.  1.
         11   -1    0    0    0    0 -0.00000000000E+00 -0.00000000000E+00 -0.45593999997E+02  0.45594000000E+02  0.51100000000E-03 0. -1.
    9900012    2    1    2    0    0 -0.13120426080E+02  0.13311336807E+02 -0.11594928919E+01  0.72461502947E+02  0.69999912268E+02 0.  0.
         12    1    1    2    0    0  0.13120426080E+02 -0.13311336807E+02  0.11594928919E+01  0.18726497053E+02  0.00000000000E+00 0. -1.
         11    1    3    3    0    0 -0.12605864754E+01 -0.37918131084E+01 -0.35424908767E+01  0.53400530694E+01  0.51100000000E-03 0. -1.
        -11    1    3    3    0    0 -0.42511271952E+01 -0.24452926633E+02  0.15085696568E+01  0.24865507958E+02  0.51100000000E-03 0.  1.
         12    1    3    3    0    0 -0.76087124096E+01  0.41556076548E+02  0.87442832804E+00  0.42255941920E+02  0.00000000000E+00 0. -1.
</event>
<event>
 7    1  0.3434711E-013  0.7246166E+02  0.7816164E-02  0.1226708E+00
        -11   -1    0    0    0    0  0.00000000000E+00  0.00000000000E+00  0.45593999997E+02  0.45594000000E+02  0.51100000000E-03 0.  1.
         11   -1    0    0    0    0 -0.00000000000E+00 -0.00000000000E+00 -0.45593999997E+02  0.45594000000E+02  0.51100000000E-03 0. -1.
    9900012    2    1    2    0    0 -0.68498560077E+01 -0.13955793676E+02 -0.10439873245E+02  0.72461664058E+02  0.70000122144E+02 0.  0.
         12    1    1    2    0    0  0.68498560077E+01  0.13955793676E+02  0.10439873245E+02  0.18726335942E+02  0.00000000000E+00 0. -1.
         11    1    3    3    0    0  0.14683724426E+02  0.35335983055E+01 -0.10658149026E+02  0.18484972841E+02  0.51100000000E-03 0. -1.
        -11    1    3    3    0    0 -0.99794460182E+01 -0.27775567072E+02  0.14535025886E+02  0.32898912547E+02  0.51100000000E-03 0.  1.
         12    1    3    3    0    0 -0.11554134416E+02  0.10286175090E+02 -0.14316750106E+02  0.21077778670E+02  0.00000000000E+00 0. -1.
</event>
<event>
 7    1  0.3434711E-013  0.7246148E+02  0.7816164E-02  0.1226708E+00
        -11   -1    0    0    0    0  0.00000000000E+00  0.00000000000E+00  0.45593999997E+02  0.45594000000E+02  0.51100000000E-03 0.  1.
         11   -1    0    0    0    0 -0.00000000000E+00 -0.00000000000E+00 -0.45593999997E+02  0.45594000000E+02  0.51100000000E-03 0. -1.
    9900012    2    1    2    0    0  0.11103859147E+02  0.52184051395E+01  0.14147614037E+02  0.72461483423E+02  0.69999886834E+02 0.  0.
         12    1    1    2    0    0 -0.11103859147E+02 -0.52184051395E+01 -0.14147614037E+02  0.18726516577E+02  0.00000000000E+00 0. -1.
         11    1    3    3    0    0 -0.45427229884E+01  0.11301305376E+02 -0.26380710722E+01  0.12462554096E+02  0.51100000000E-03 0. -1.
        -11    1    3    3    0    0 -0.16517003731E+02 -0.15474350232E+02  0.25119345434E+00  0.22634708431E+02  0.51100000000E-03 0.  1.
         12    1    3    3    0    0  0.32163585867E+02  0.93914499954E+01  0.16534491655E+02  0.37364220895E+02  0.00000000000E+00 0. -1.
</event>
<event>
 7    1  0.3434711E-013  0.7246158E+02  0.7816164E-02  0.1226708E+00
        -11   -1    0    0    0    0  0.00000000000E+00  0.00000000000E+00  0.45593999997E+02  0.45594000000E+02  0.51100000000E-03 0.  1.
         11   -1    0    0    0    0 -0.00000000000E+00 -0.00000000000E+00 -0.45593999997E+02  0.45594000000E+02  0.51100000000E-03 0. -1.
    9900012    2    1    2    0    0 -0.84838230319E+01  0.94872466127E+01  0.13736650160E+02  0.72461583921E+02  0.70000017752E+02 0.  0.
         12    1    1    2    0    0  0.84838230319E+01 -0.94872466127E+01 -0.13736650160E+02  0.18726416079E+02  0.00000000000E+00 0. -1.
         11    1    3    3    0    0  0.47273516285E+01  0.36140075302E+01 -0.56685446390E+00  0.59774767329E+01  0.51100000000E-03 0. -1.
        -11    1    3    3    0    0  0.10645884496E+02  0.22614543776E+02 -0.11540858720E+02  0.27530780359E+02  0.51100000000E-03 0.  1.
        -12    1    3    3    0    0 -0.23857059157E+02 -0.16741304694E+02  0.25844363344E+02  0.38953326830E+02  0.00000000000E+00 0.  1.
</event>
<event>
 7    1  0.3434711E-013  0.7246162E+02  0.7816164E-02  0.1226708E+00
        -11   -1    0    0    0    0  0.00000000000E+00  0.00000000000E+00  0.45593999997E+02  0.45594000000E+02  0.51100000000E-03 0. -1.
         11   -1    0    0    0    0 -0.00000000000E+00 -0.00000000000E+00 -0.45593999997E+02  0.45594000000E+02  0.51100000000E-03 0.  1.
    9900012    2    1    2    0    0 -0.11535552014E+02  0.14751545477E+02  0.10909879467E-01  0.72461623595E+02  0.70000069434E+02 0.  0.
         12    1    1    2    0    0  0.11535552014E+02 -0.14751545477E+02 -0.10909879467E-01  0.18726376405E+02  0.00000000000E+00 0. -1.
         11    1    3    3    0    0  0.10172269999E+02  0.40958555495E+01  0.12644562578E+02  0.16737265985E+02  0.51100000000E-03 0. -1.
        -11    1    3    3    0    0 -0.20271934378E+02  0.12850913731E+02  0.14778555413E+02  0.28186929728E+02  0.51100000000E-03 0.  1.
         12    1    3    3    0    0 -0.14358876348E+01 -0.21952238032E+01 -0.27412208111E+02  0.27537427882E+02  0.00000000000E+00 0. -1.
</event>
<event>
 7    1  0.3434711E-013  0.7246156E+02  0.7816164E-02  0.1226708E+00
        -11   -1    0    0    0    0  0.00000000000E+00  0.00000000000E+00  0.45593999997E+02  0.45594000000E+02  0.51100000000E-03 0. -1.
         11   -1    0    0    0    0 -0.00000000000E+00 -0.00000000000E+00 -0.45593999997E+02  0.45594000000E+02  0.51100000000E-03 0.  1.
    9900012    2    1    2    0    0 -0.14082127691E+02  0.96052168676E+01 -0.77532676275E+01  0.72461556924E+02  0.69999982582E+02 0.  0.
         12    1    1    2    0    0  0.14082127691E+02 -0.96052168676E+01  0.77532676275E+01  0.18726443076E+02  0.00000000000E+00 0. -1.
         11    1    3    3    0    0 -0.17100391547E+02 -0.11219634347E+02  0.12673420214E+02  0.24060739102E+02  0.51100000000E-03 0. -1.
        -11    1    3    3    0    0 -0.93758534664E+01  0.26657828409E+02 -0.20137548618E+02  0.34699673029E+02  0.51100000000E-03 0.  1.
         12    1    3    3    0    0  0.12394117322E+02 -0.58329771945E+01 -0.28913922325E+00  0.13701144793E+02  0.00000000000E+00 0. -1.
</event>
<event>
 7    1  0.3434711E-013  0.7246160E+02  0.7816164E-02  0.1226708E+00
        -11   -1    0    0    0    0  0.00000000000E+00  0.00000000000E+00  0.45593999997E+02  0.45594000000E+02  0.51100000000E-03 0. -1.
         11   -1    0    0    0    0 -0.00000000000E+00 -0.00000000000E+00 -0.45593999997E+02  0.45594000000E+02  0.51100000000E-03 0.  1.
    9900012    2    1    2    0    0  0.17865617392E+02 -0.33890900132E+01  0.44734687244E+01  0.72461597827E+02  0.70000035866E+02 0.  0.
         12    1    1    2    0    0 -0.17865617392E+02  0.33890900132E+01 -0.44734687244E+01  0.18726402173E+02  0.00000000000E+00 0. -1.
         11    1    3    3    0    0 -0.14976391642E+02  0.10545080221E+02  0.17108259150E+02  0.25063590224E+02  0.51100000000E-03 0. -1.
        -11    1    3    3    0    0 -0.30229921676E+01 -0.89434893984E+01 -0.19013812335E+01  0.96301472014E+01  0.51100000000E-03 0.  1.
        -12    1    3    3    0    0  0.35865001202E+02 -0.49906808356E+01 -0.10733409193E+02  0.37767860402E+02  0.00000000000E+00 0.  1.
</event>
<event>
 7    1  0.4118866E-013  0.7246151E+02  0.7816164E-02  0.1226708E+00
        -11   -1    0    0    0    0  0.00000000000E+00  0.00000000000E+00  0.45593999997E+02  0.45594000000E+02  0.51100000000E-03 0. -1.
         11   -1    0    0    0    0 -0.00000000000E+00 -0.00000000000E+00 -0.45593999997E+02  0.45594000000E+02  0.51100000000E-03 0.  1.
    9900012    2    1    2    0    0 -0.10460305642E+02  0.22137731607E+01 -0.15374086752E+02  0.72461512631E+02  0.69999924883E+02 0.  0.
         12    1    1    2    0    0  0.10460305642E+02 -0.22137731607E+01  0.15374086752E+02  0.18726487369E+02  0.00000000000E+00 0. -1.
         11    1    3    3    0    0 -0.57372615817E+01  0.84329504945E+01 -0.14306723382E+02  0.17570235021E+02  0.51100000000E-03 0. -1.
        -11    1    3    3    0    0  0.16740952485E+02 -0.15502871632E+02 -0.15340311792E+02  0.27494066362E+02  0.51100000000E-03 0.  1.
         12    1    3    3    0    0 -0.21463996545E+02  0.92836942984E+01  0.14272948422E+02  0.27397211248E+02  0.00000000000E+00 0. -1.
</event>
<event>
 7    1  0.3434711E-013  0.7246152E+02  0.7816164E-02  0.1226708E+00
        -11   -1    0    0    0    0  0.00000000000E+00  0.00000000000E+00  0.45593999997E+02  0.45594000000E+02  0.51100000000E-03 0. -1.
         11   -1    0    0    0    0 -0.00000000000E+00 -0.00000000000E+00 -0.45593999997E+02  0.45594000000E+02  0.51100000000E-03 0.  1.
    9900012    2    1    2    0    0 -0.78289516467E+01 -0.86301052150E+01 -0.14659802824E+02  0.72461520919E+02  0.69999935680E+02 0.  0.
         12    1    1    2    0    0  0.78289516467E+01  0.86301052150E+01  0.14659802824E+02  0.18726479081E+02  0.00000000000E+00 0. -1.
         11    1    3    3    0    0 -0.25126272296E+02 -0.15570842681E+02  0.11084425045E+02  0.31569687678E+02  0.51100000000E-03 0. -1.
        -11    1    3    3    0    0  0.58153728224E+01 -0.83048384813E+01 -0.18417755068E+01  0.10304418496E+02  0.51100000000E-03 0.  1.
        -12    1    3    3    0    0  0.11481947827E+02  0.15245575947E+02 -0.23902452362E+02  0.30587414745E+02  0.00000000000E+00 0.  1.
</event>
<event>
 7    1  0.3434711E-013  0.7246156E+02  0.7816164E-02  0.1226708E+00
        -11   -1    0    0    0    0  0.00000000000E+00  0.00000000000E+00  0.45593999997E+02  0.45594000000E+02  0.51100000000E-03 0. -1.
         11   -1    0    0    0    0 -0.00000000000E+00 -0.00000000000E+00 -0.45593999997E+02  0.45594000000E+02  0.51100000000E-03 0.  1.
    9900012    2    1    2    0    0 -0.77634384078E+01  0.78519395529E+01 -0.15124669155E+02  0.72461560197E+02  0.69999986846E+02 0.  0.
         12    1    1    2    0    0  0.77634384078E+01 -0.78519395529E+01  0.15124669155E+02  0.18726439803E+02  0.00000000000E+00 0. -1.
         11    1    3    3    0    0 -0.14250968977E+02 -0.26241735510E+01  0.73304678877E+01  0.16239216832E+02  0.51100000000E-03 0. -1.
        -11    1    3    3    0    0  0.16356406363E+02  0.27142723964E+02 -0.17618052230E+02  0.36258175050E+02  0.51100000000E-03 0.  1.
         12    1    3    3    0    0 -0.98688757941E+01 -0.16666610860E+02 -0.48370848125E+01  0.19964168315E+02  0.00000000000E+00 0. -1.
</event>
<event>
 7    1  0.3434711E-013  0.7246134E+02  0.7816164E-02  0.1226709E+00
        -11   -1    0    0    0    0  0.00000000000E+00  0.00000000000E+00  0.45593999997E+02  0.45594000000E+02  0.51100000000E-03 0.  1.
         11   -1    0    0    0    0 -0.00000000000E+00 -0.00000000000E+00 -0.45593999997E+02  0.45594000000E+02  0.51100000000E-03 0. -1.
    9900012    2    1    2    0    0  0.53815919852E+01 -0.40060831989E+01  0.17483634373E+02  0.72461342376E+02  0.69999703093E+02 0.  0.
         12    1    1    2    0    0 -0.53815919852E+01  0.40060831989E+01 -0.17483634373E+02  0.18726657624E+02  0.00000000000E+00 0. -1.
         11    1    3    3    0    0  0.90495193643E+01 -0.24056290610E+01  0.73030633788E+01  0.11874998395E+02  0.51100000000E-03 0. -1.
        -11    1    3    3    0    0 -0.13238945531E+02  0.94507879244E+00  0.33076572896E+02  0.35640181361E+02  0.51100000000E-03 0.  1.
         12    1    3    3    0    0  0.95710181515E+01 -0.25455329304E+01 -0.22896001902E+02  0.24946162620E+02  0.00000000000E+00 0. -1.
</event>
<event>
 7    1  0.3434711E-013  0.7246155E+02  0.7816164E-02  0.1226708E+00
        -11   -1    0    0    0    0  0.00000000000E+00  0.00000000000E+00  0.45593999997E+02  0.45594000000E+02  0.51100000000E-03 0. -1.
         11   -1    0    0    0    0 -0.00000000000E+00 -0.00000000000E+00 -0.45593999997E+02  0.45594000000E+02  0.51100000000E-03 0.  1.
    9900012    2    1    2    0    0 -0.39069537693E+01  0.13306081453E+02 -0.12584264195E+02  0.72461553548E+02  0.69999978185E+02 0.  0.
         12    1    1    2    0    0  0.39069537693E+01 -0.13306081453E+02  0.12584264195E+02  0.18726446452E+02  0.00000000000E+00 0. -1.
         11    1    3    3    0    0  0.17491605959E+02 -0.10994022335E+01 -0.22776250982E+02  0.28738868686E+02  0.51100000000E-03 0. -1.
        -11    1    3    3    0    0  0.57067429188E+01  0.11594300381E+01 -0.69156658031E+01  0.90408863788E+01  0.51100000000E-03 0.  1.
        -12    1    3    3    0    0 -0.27105302647E+02  0.13246053649E+02  0.17107652590E+02  0.34681798483E+02  0.00000000000E+00 0.  1.
</event>
<event>
 7    1  0.3434711E-013  0.7246134E+02  0.7816164E-02  0.1226709E+00
        -11   -1    0    0    0    0  0.00000000000E+00  0.00000000000E+00  0.45593999997E+02  0.45594000000E+02  0.51100000000E-03 0.  1.
         11   -1    0    0    0    0 -0.00000000000E+00 -0.00000000000E+00 -0.45593999997E+02  0.45594000000E+02  0.51100000000E-03 0. -1.
    9900012    2    1    2    0    0  0.48553585398E+01  0.88226280769E+01  0.15788435080E+02  0.72461335722E+02  0.69999694425E+02 0.  0.
         12    1    1    2    0    0 -0.48553585398E+01 -0.88226280769E+01 -0.15788435080E+02  0.18726664278E+02  0.00000000000E+00 0. -1.
         11    1    3    3    0    0  0.38441373537E+01  0.58204461526E+01 -0.71154465440E+01  0.99641640488E+01  0.51100000000E-03 0. -1.
        -11    1    3    3    0    0 -0.72724595712E+01 -0.21386359934E+02 -0.64043019447E+01  0.23479355679E+02  0.51100000000E-03 0.  1.
        -12    1    3    3    0    0  0.82836807573E+01  0.24388541858E+02  0.29308183568E+02  0.39017815994E+02  0.00000000000E+00 0.  1.
</event>
<event>
 7    1  0.3434711E-013  0.7246160E+02  0.7816164E-02  0.1226708E+00
        -11   -1    0    0    0    0  0.00000000000E+00  0.00000000000E+00  0.45593999997E+02  0.45594000000E+02  0.51100000000E-03 0.  1.
         11   -1    0    0    0    0 -0.00000000000E+00 -0.00000000000E+00 -0.45593999997E+02  0.45594000000E+02  0.51100000000E-03 0. -1.
    9900012    2    1    2    0    0  0.18706688477E+02  0.75294803930E+00 -0.41350010520E+00  0.72461598668E+02  0.70000036962E+02 0.  0.
         12    1    1    2    0    0 -0.18706688477E+02 -0.75294803930E+00  0.41350010520E+00  0.18726401332E+02  0.00000000000E+00 0. -1.
         11    1    3    3    0    0 -0.42926591266E+01  0.62240055102E+00  0.37137307850E+01  0.57101752536E+01  0.51100000000E-03 0. -1.
        -11    1    3    3    0    0 -0.16827321965E+02  0.16319774987E+02  0.95502790332E+00  0.23460730993E+02  0.51100000000E-03 0.  1.
         12    1    3    3    0    0  0.39826669569E+02 -0.16189227499E+02 -0.50822587935E+01  0.43290692422E+02  0.00000000000E+00 0. -1.
</event>
<event>
 7    1  0.4424432E-013  0.7246150E+02  0.7816164E-02  0.1226708E+00
        -11   -1    0    0    0    0  0.00000000000E+00  0.00000000000E+00  0.45593999997E+02  0.45594000000E+02  0.51100000000E-03 0. -1.
         11   -1    0    0    0    0 -0.00000000000E+00 -0.00000000000E+00 -0.45593999997E+02  0.45594000000E+02  0.51100000000E-03 0.  1.
    9900012    2    1    2    0    0  0.60000959277E+00 -0.12045224859E+02 -0.14326007060E+02  0.72461496544E+02  0.69999903926E+02 0.  0.
         12    1    1    2    0    0 -0.60000959277E+00  0.12045224859E+02  0.14326007060E+02  0.18726503456E+02  0.00000000000E+00 0. -1.
         11    1    3    3    0    0 -0.14930854421E+02 -0.19988382637E+02  0.55405970352E+01  0.25557074753E+02  0.51100000000E-03 0. -1.
        -11    1    3    3    0    0 -0.11632908658E+01 -0.12990391836E+01 -0.26609328733E+02  0.26666404413E+02  0.51100000000E-03 0.  1.
         12    1    3    3    0    0  0.16694154879E+02  0.92421969616E+01  0.67427246380E+01  0.20238017377E+02  0.00000000000E+00 0. -1.
</event>
<event>
 7    1  0.3434711E-013  0.7246158E+02  0.7816164E-02  0.1226708E+00
        -11   -1    0    0    0    0  0.00000000000E+00  0.00000000000E+00  0.45593999997E+02  0.45594000000E+02  0.51100000000E-03 0.  1.
         11   -1    0    0    0    0 -0.00000000000E+00 -0.00000000000E+00 -0.45593999997E+02  0.45594000000E+02  0.51100000000E-03 0. -1.
    9900012    2    1    2    0    0 -0.17564211423E+02 -0.48860477235E+01 -0.42782850049E+01  0.72461582621E+02  0.70000016058E+02 0.  0.
         12    1    1    2    0    0  0.17564211423E+02  0.48860477235E+01  0.42782850049E+01  0.18726417379E+02  0.00000000000E+00 0. -1.
         11    1    3    3    0    0 -0.56654230903E+01 -0.53081623852E+01  0.18639350068E+02  0.20191557095E+02  0.51100000000E-03 0. -1.
        -11    1    3    3    0    0 -0.93623367041E+00  0.11451017061E+02  0.10403135353E+02  0.15499275811E+02  0.51100000000E-03 0.  1.
         12    1    3    3    0    0 -0.10962554662E+02 -0.11028902399E+02 -0.33320770426E+02  0.36770749716E+02  0.00000000000E+00 0. -1.
</event>
<event>
 7    1  0.3434711E-013  0.7246156E+02  0.7816164E-02  0.1226708E+00
        -11   -1    0    0    0    0  0.00000000000E+00  0.00000000000E+00  0.45593999997E+02  0.45594000000E+02  0.51100000000E-03 0.  1.
         11   -1    0    0    0    0 -0.00000000000E+00 -0.00000000000E+00 -0.45593999997E+02  0.45594000000E+02  0.51100000000E-03 0. -1.
    9900012    2    1    2    0    0 -0.15412451729E+02  0.10614961096E+02  0.67699463998E+00  0.72461564431E+02  0.69999992362E+02 0.  0.
         12    1    1    2    0    0  0.15412451729E+02 -0.10614961096E+02 -0.67699463998E+00  0.18726435569E+02  0.00000000000E+00 0. -1.
         11    1    3    3    0    0  0.82567471039E+01 -0.55132428560E+01  0.39874969716E+01  0.10699058458E+02  0.51100000000E-03 0. -1.
        -11    1    3    3    0    0  0.21884391140E+01  0.11337235530E+02 -0.25088442677E+02  0.27617967547E+02  0.51100000000E-03 0.  1.
         12    1    3    3    0    0 -0.25857637947E+02  0.47909684221E+01  0.21777940345E+02  0.34144538426E+02  0.00000000000E+00 0. -1.
</event>
<event>
 7    1  0.3434711E-013  0.7246086E+02  0.7816164E-02  0.1226710E+00
        -11   -1    0    0    0    0  0.00000000000E+00  0.00000000000E+00  0.45593999997E+02  0.45594000000E+02  0.51100000000E-03 0. -1.
         11   -1    0    0    0    0 -0.00000000000E+00 -0.00000000000E+00 -0.45593999997E+02  0.45594000000E+02  0.51100000000E-03 0.  1.
    9900012    2    1    2    0    0 -0.91579599408E+01 -0.11804227449E+02 -0.11291491004E+02  0.72460859667E+02  0.69999074270E+02 0.  0.
         12    1    1    2    0    0  0.91579599408E+01  0.11804227449E+02  0.11291491004E+02  0.18727140333E+02  0.00000000000E+00 0. -1.
         11    1    3    3    0    0 -0.72173529011E+01  0.15538120436E+02  0.17809122326E+02  0.24712106504E+02  0.51100000000E-03 0. -1.
        -11    1    3    3    0    0 -0.38326131465E+01  0.20780524989E+01 -0.13923856111E+02  0.14590441905E+02  0.51100000000E-03 0.  1.
         12    1    3    3    0    0  0.18920061069E+01 -0.29420400384E+02 -0.15176757219E+02  0.33158311259E+02  0.00000000000E+00 0. -1.
</event>
<event>
 7    1  0.3434711E-013  0.7246152E+02  0.7816164E-02  0.1226708E+00
        -11   -1    0    0    0    0  0.00000000000E+00  0.00000000000E+00  0.45593999997E+02  0.45594000000E+02  0.51100000000E-03 0. -1.
         11   -1    0    0    0    0 -0.00000000000E+00 -0.00000000000E+00 -0.45593999997E+02  0.45594000000E+02  0.51100000000E-03 0.  1.
    9900012    2    1    2    0    0  0.12453050651E+02  0.13102829060E+02  0.48906617582E+01  0.72461516819E+02  0.69999930339E+02 0.  0.
         12    1    1    2    0    0 -0.12453050651E+02 -0.13102829060E+02 -0.48906617582E+01  0.18726483181E+02  0.00000000000E+00 0. -1.
         11    1    3    3    0    0 -0.56714882792E+01 -0.13252245267E+02 -0.21082878707E+01  0.14568207231E+02  0.51100000000E-03 0. -1.
        -11    1    3    3    0    0  0.26147313427E+02  0.61151961098E+01 -0.11607127294E+02  0.29254111287E+02  0.51100000000E-03 0.  1.
        -12    1    3    3    0    0 -0.80227744973E+01  0.20239878217E+02  0.18606076922E+02  0.28639198301E+02  0.00000000000E+00 0.  1.
</event>
<event>
 7    1  0.3434711E-013  0.7246205E+02  0.7816164E-02  0.1226707E+00
        -11   -1    0    0    0    0  0.00000000000E+00  0.00000000000E+00  0.45593999997E+02  0.45594000000E+02  0.51100000000E-03 0.  1.
         11   -1    0    0    0    0 -0.00000000000E+00 -0.00000000000E+00 -0.45593999997E+02  0.45594000000E+02  0.51100000000E-03 0. -1.
    9900012    2    1    2    0    0  0.10293502762E+02  0.11091449144E+02 -0.11031085624E+02  0.72462047600E+02  0.70000621777E+02 0.  0.
         12    1    1    2    0    0 -0.10293502762E+02 -0.11091449144E+02  0.11031085624E+02  0.18725952400E+02  0.00000000000E+00 0. -1.
         11    1    3    3    0    0 -0.75054049753E+01 -0.10608890937E+02 -0.26351207400E+02  0.29381385305E+02  0.51100000000E-03 0. -1.
        -11    1    3    3    0    0  0.10071353339E+02  0.19610691818E+02 -0.37831762381E+01  0.22367919312E+02  0.51100000000E-03 0.  1.
        -12    1    3    3    0    0  0.77275543989E+01  0.20896482635E+01  0.19103298014E+02  0.20712742983E+02  0.00000000000E+00 0.  1.
</event>
<event>
 7    1  0.3434711E-013  0.7246158E+02  0.7816164E-02  0.1226708E+00
        -11   -1    0    0    0    0  0.00000000000E+00  0.00000000000E+00  0.45593999997E+02  0.45594000000E+02  0.51100000000E-03 0.  1.
         11   -1    0    0    0    0 -0.00000000000E+00 -0.00000000000E+00 -0.45593999997E+02  0.45594000000E+02  0.51100000000E-03 0. -1.
    9900012    2    1    2    0    0  0.30102247203E+01  0.14327318885E+02  0.11676691658E+02  0.72461584236E+02  0.70000018162E+02 0.  0.
         12    1    1    2    0    0 -0.30102247203E+01 -0.14327318885E+02 -0.11676691658E+02  0.18726415764E+02  0.00000000000E+00 0. -1.
         11    1    3    3    0    0  0.10012669960E+02  0.15167824085E+02  0.24565475774E+01  0.18339876593E+02  0.51100000000E-03 0. -1.
        -11    1    3    3    0    0 -0.21692239429E+02 -0.81247133808E+01  0.23044958660E+02  0.32674674274E+02  0.51100000000E-03 0.  1.
         12    1    3    3    0    0  0.14689794190E+02  0.72842081804E+01 -0.13824814580E+02  0.21447033369E+02  0.00000000000E+00 0. -1.
</event>
<event>
 7    1  0.3434711E-013  0.7246150E+02  0.7816164E-02  0.1226708E+00
        -11   -1    0    0    0    0  0.00000000000E+00  0.00000000000E+00  0.45593999997E+02  0.45594000000E+02  0.51100000000E-03 0. -1.
         11   -1    0    0    0    0 -0.00000000000E+00 -0.00000000000E+00 -0.45593999997E+02  0.45594000000E+02  0.51100000000E-03 0.  1.
    9900012    2    1    2    0    0  0.15893678806E+02 -0.20290776701E+01 -0.96930689158E+01  0.72461500936E+02  0.69999909648E+02 0.  0.
         12    1    1    2    0    0 -0.15893678806E+02  0.20290776701E+01  0.96930689158E+01  0.18726499064E+02  0.00000000000E+00 0. -1.
         11    1    3    3    0    0 -0.79410593609E+01 -0.12623524240E+02  0.69706988788E+01  0.16462212218E+02  0.51100000000E-03 0. -1.
        -11    1    3    3    0    0  0.17352207674E+01 -0.14677626065E+02  0.55013082425E+01  0.15770481624E+02  0.51100000000E-03 0.  1.
        -12    1    3    3    0    0  0.22099517399E+02  0.25272072634E+02 -0.22165076037E+02  0.40228807094E+02  0.00000000000E+00 0.  1.
</event>
<event>
 7    1  0.3434711E-013  0.7246155E+02  0.7816164E-02  0.1226708E+00
        -11   -1    0    0    0    0  0.00000000000E+00  0.00000000000E+00  0.45593999997E+02  0.45594000000E+02  0.51100000000E-03 0.  1.
         11   -1    0    0    0    0 -0.00000000000E+00 -0.00000000000E+00 -0.45593999997E+02  0.45594000000E+02  0.51100000000E-03 0. -1.
    9900012    2    1    2    0    0 -0.80853482542E+01 -0.12667548480E+02  0.11173199538E+02  0.72461547351E+02  0.69999970112E+02 0.  0.
         12    1    1    2    0    0  0.80853482542E+01  0.12667548480E+02 -0.11173199538E+02  0.18726452649E+02  0.00000000000E+00 0. -1.
         11    1    3    3    0    0  0.85790307791E+01 -0.21077579522E+02 -0.14076462248E+01  0.22800122714E+02  0.51100000000E-03 0. -1.
        -11    1    3    3    0    0 -0.18332193636E+02 -0.13413304879E+02 -0.28333452822E+01  0.22891350267E+02  0.51100000000E-03 0.  1.
        -12    1    3    3    0    0  0.16678146026E+01  0.21823335921E+02  0.15414191045E+02  0.26770074371E+02  0.00000000000E+00 0.  1.
</event>
<event>
 7    1  0.3434711E-013  0.7246156E+02  0.7816164E-02  0.1226708E+00
        -11   -1    0    0    0    0  0.00000000000E+00  0.00000000000E+00  0.45593999997E+02  0.45594000000E+02  0.51100000000E-03 0.  1.
         11   -1    0    0    0    0 -0.00000000000E+00 -0.00000000000E+00 -0.45593999997E+02  0.45594000000E+02  0.51100000000E-03 0. -1.
    9900012    2    1    2    0    0 -0.15987050338E+02 -0.19222675130E+01  0.95602657390E+01  0.72461559551E+02  0.69999986005E+02 0.  0.
         12    1    1    2    0    0  0.15987050338E+02  0.19222675130E+01 -0.95602657390E+01  0.18726440449E+02  0.00000000000E+00 0. -1.
         11    1    3    3    0    0  0.14856538116E+01 -0.49238962204E+01  0.12200599155E+02  0.13240337656E+02  0.51100000000E-03 0. -1.
        -11    1    3    3    0    0  0.10574484748E+02 -0.14071489632E+02  0.13925243525E+02  0.22444129647E+02  0.51100000000E-03 0.  1.
         12    1    3    3    0    0 -0.28047188897E+02  0.17073118339E+02 -0.16565576940E+02  0.36777092248E+02  0.00000000000E+00 0. -1.
</event>
<event>
 7    1  0.3434711E-013  0.7246163E+02  0.7816164E-02  0.1226708E+00
        -11   -1    0    0    0    0  0.00000000000E+00  0.00000000000E+00  0.45593999997E+02  0.45594000000E+02  0.51100000000E-03 0.  1.
         11   -1    0    0    0    0 -0.00000000000E+00 -0.00000000000E+00 -0.45593999997E+02  0.45594000000E+02  0.51100000000E-03 0. -1.
    9900012    2    1    2    0    0 -0.71565569950E+01 -0.79155632281E+01  0.15388452433E+02  0.72461630423E+02  0.70000078329E+02 0.  0.
         12    1    1    2    0    0  0.71565569950E+01  0.79155632281E+01 -0.15388452433E+02  0.18726369577E+02  0.00000000000E+00 0. -1.
         11    1    3    3    0    0  0.73577071378E+01  0.21361156483E+02  0.44471653100E+01  0.23026335796E+02  0.51100000000E-03 0. -1.
        -11    1    3    3    0    0  0.37879721230E+01  0.19034238542E+01  0.12547985994E+02  0.13244761528E+02  0.51100000000E-03 0.  1.
        -12    1    3    3    0    0 -0.18302236256E+02 -0.31180143565E+02 -0.16066988708E+01  0.36190533099E+02  0.00000000000E+00 0.  1.
</event>
<event>
 7    1  0.3434711E-013  0.7246157E+02  0.7816164E-02  0.1226708E+00
        -11   -1    0    0    0    0  0.00000000000E+00  0.00000000000E+00  0.45593999997E+02  0.45594000000E+02  0.51100000000E-03 0.  1.
         11   -1    0    0    0    0 -0.00000000000E+00 -0.00000000000E+00 -0.45593999997E+02  0.45594000000E+02  0.51100000000E-03 0. -1.
    9900012    2    1    2    0    0 -0.11240001999E+02  0.14977259591E+02 -0.15190954250E+00  0.72461574118E+02  0.70000004981E+02 0.  0.
         12    1    1    2    0    0  0.11240001999E+02 -0.14977259591E+02  0.15190954250E+00  0.18726425882E+02  0.00000000000E+00 0. -1.
         11    1    3    3    0    0 -0.15352021592E+02  0.21212142212E+02 -0.33198301391E+01  0.26394333040E+02  0.51100000000E-03 0. -1.
        -11    1    3    3    0    0 -0.99019664777E+01  0.72456886920E+01  0.17878939534E+02  0.21684220620E+02  0.51100000000E-03 0.  1.
         12    1    3    3    0    0  0.14013986071E+02 -0.13480571313E+02 -0.14711018938E+02  0.24383020459E+02  0.00000000000E+00 0. -1.
</event>
<event>
 8    1  0.3434711E-013  0.7246146E+02  0.7816164E-02  0.1226708E+00
        -11   -1    0    0    0    0  0.00000000000E+00  0.00000000000E+00  0.45593999997E+02  0.45594000000E+02  0.51100000000E-03 0.  1.
         11   -1    0    0    0    0 -0.00000000000E+00 -0.00000000000E+00 -0.45593999997E+02  0.45594000000E+02  0.51100000000E-03 0. -1.
    9900012    2    1    2    0    0 -0.52667502989E+01 -0.12310848932E+02  0.13091503692E+02  0.72461464574E+02  0.69999862280E+02 0.  0.
         23    2    3    3    0    0  0.37747234847E+01 -0.13200367963E+02 -0.88403862920E+00  0.55792473140E+02  0.54069587413E+02 0.  0.
         12    1    1    2    0    0  0.52667502989E+01  0.12310848932E+02 -0.13091503692E+02  0.18726535426E+02  0.00000000000E+00 0. -1.
         11    1    4    4    0    0  0.92370309102E+01  0.20027985531E+02  0.86880723842E+00  0.22072556959E+02  0.51100000000E-03 0.  1.
        -11    1    4    4    0    0 -0.54623074255E+01 -0.33228353494E+02 -0.17528458676E+01  0.33719916180E+02  0.51100000000E-03 0. -1.
        -12    1    3    3    0    0 -0.90414737836E+01  0.88951903125E+00  0.13975542321E+02  0.16668991435E+02  0.00000000000E+00 0.  1.
</event>
<event>
 7    1  0.3434711E-013  0.7246159E+02  0.7816164E-02  0.1226708E+00
        -11   -1    0    0    0    0  0.00000000000E+00  0.00000000000E+00  0.45593999997E+02  0.45594000000E+02  0.51100000000E-03 0. -1.
         11   -1    0    0    0    0 -0.00000000000E+00 -0.00000000000E+00 -0.45593999997E+02  0.45594000000E+02  0.51100000000E-03 0.  1.
    9900012    2    1    2    0    0  0.12119556269E+02  0.72519465766E+01 -0.12296505906E+02  0.72461590018E+02  0.70000025694E+02 0.  0.
         12    1    1    2    0    0 -0.12119556269E+02 -0.72519465766E+01  0.12296505906E+02  0.18726409982E+02  0.00000000000E+00 0. -1.
         11    1    3    3    0    0  0.16737701571E+02  0.14157917526E+02 -0.14680484562E+01  0.21971628276E+02  0.51100000000E-03 0. -1.
        -11    1    3    3    0    0  0.18016033740E+02  0.99329135864E+00 -0.17980566583E+02  0.25472826195E+02  0.51100000000E-03 0.  1.
        -12    1    3    3    0    0 -0.22634179042E+02 -0.78992623080E+01  0.71521091329E+01  0.25017135547E+02  0.00000000000E+00 0.  1.
</event>
<event>
 7    1  0.3434711E-013  0.7246154E+02  0.7816164E-02  0.1226708E+00
        -11   -1    0    0    0    0  0.00000000000E+00  0.00000000000E+00  0.45593999997E+02  0.45594000000E+02  0.51100000000E-03 0.  1.
         11   -1    0    0    0    0 -0.00000000000E+00 -0.00000000000E+00 -0.45593999997E+02  0.45594000000E+02  0.51100000000E-03 0. -1.
    9900012    2    1    2    0    0 -0.17138005486E+02 -0.44710584033E+01  0.60810256273E+01  0.72461535626E+02  0.69999954838E+02 0.  0.
         12    1    1    2    0    0  0.17138005486E+02  0.44710584033E+01 -0.60810256273E+01  0.18726464374E+02  0.00000000000E+00 0. -1.
         11    1    3    3    0    0  0.41411205266E+01 -0.18160815881E+02 -0.14228520782E+02  0.23439601460E+02  0.51100000000E-03 0. -1.
        -11    1    3    3    0    0 -0.62490382390E+01  0.14190882775E+02 -0.76381665512E+01  0.17285057748E+02  0.51100000000E-03 0.  1.
        -12    1    3    3    0    0 -0.15030087773E+02 -0.50112529720E+00  0.27947712961E+02  0.31736876418E+02  0.00000000000E+00 0.  1.
</event>
<event>
 7    1  0.3434711E-013  0.7246157E+02  0.7816164E-02  0.1226708E+00
        -11   -1    0    0    0    0  0.00000000000E+00  0.00000000000E+00  0.45593999997E+02  0.45594000000E+02  0.51100000000E-03 0. -1.
         11   -1    0    0    0    0 -0.00000000000E+00 -0.00000000000E+00 -0.45593999997E+02  0.45594000000E+02  0.51100000000E-03 0.  1.
    9900012    2    1    2    0    0  0.16272513650E+02  0.43392809082E-01 -0.92672855899E+01  0.72461570398E+02  0.70000000135E+02 0.  0.
         12    1    1    2    0    0 -0.16272513650E+02 -0.43392809082E-01  0.92672855899E+01  0.18726429602E+02  0.00000000000E+00 0. -1.
         11    1    3    3    0    0  0.47984516354E+01 -0.13461962906E+02  0.11402989074E+02  0.18283264027E+02  0.51100000000E-03 0. -1.
        -11    1    3    3    0    0  0.23942931679E+02  0.44495240215E+01  0.44031764488E+01  0.24747731300E+02  0.51100000000E-03 0.  1.
         12    1    3    3    0    0 -0.12468869664E+02  0.90558316936E+01 -0.25073451113E+02  0.29430575072E+02  0.00000000000E+00 0. -1.
</event>
<event>
 7    1  0.3434711E-013  0.7246153E+02  0.7816164E-02  0.1226708E+00
        -11   -1    0    0    0    0  0.00000000000E+00  0.00000000000E+00  0.45593999997E+02  0.45594000000E+02  0.51100000000E-03 0. -1.
         11   -1    0    0    0    0 -0.00000000000E+00 -0.00000000000E+00 -0.45593999997E+02  0.45594000000E+02  0.51100000000E-03 0.  1.
    9900012    2    1    2    0    0 -0.17841111899E+00  0.99722570906E+00 -0.18699048042E+02  0.72461529769E+02  0.69999947208E+02 0.  0.
         12    1    1    2    0    0  0.17841111899E+00 -0.99722570906E+00  0.18699048042E+02  0.18726470231E+02  0.00000000000E+00 0. -1.
         11    1    3    3    0    0 -0.80883451132E+01  0.52422464609E+01 -0.18739668946E+02  0.21073150384E+02  0.51100000000E-03 0. -1.
        -11    1    3    3    0    0 -0.36881836950E+01  0.10361644294E+02 -0.20733463183E+02  0.23470041910E+02  0.51100000000E-03 0.  1.
         12    1    3    3    0    0  0.11598117689E+02 -0.14606665046E+02  0.20774084087E+02  0.27918337475E+02  0.00000000000E+00 0. -1.
</event>
<event>
 7    1  0.3434711E-013  0.7246147E+02  0.7816164E-02  0.1226708E+00
        -11   -1    0    0    0    0  0.00000000000E+00  0.00000000000E+00  0.45593999997E+02  0.45594000000E+02  0.51100000000E-03 0.  1.
         11   -1    0    0    0    0 -0.00000000000E+00 -0.00000000000E+00 -0.45593999997E+02  0.45594000000E+02  0.51100000000E-03 0. -1.
    9900012    2    1    2    0    0 -0.15318818638E+02  0.65198597870E+01 -0.85736868888E+01  0.72461471144E+02  0.69999870838E+02 0.  0.
         12    1    1    2    0    0  0.15318818638E+02 -0.65198597870E+01  0.85736868888E+01  0.18726528856E+02  0.00000000000E+00 0. -1.
         11    1    3    3    0    0 -0.18173520342E+02 -0.81633640024E+01  0.94493844395E+01  0.22050129705E+02  0.51100000000E-03 0. -1.
        -11    1    3    3    0    0 -0.14974236794E+02 -0.39193288427E+01  0.45731999540E+01  0.16140107318E+02  0.51100000000E-03 0.  1.
        -12    1    3    3    0    0  0.17828938497E+02  0.18602552632E+02 -0.22596271282E+02  0.34271234122E+02  0.00000000000E+00 0.  1.
</event>
<event>
 7    1  0.3434711E-013  0.7246157E+02  0.7816164E-02  0.1226708E+00
        -11   -1    0    0    0    0  0.00000000000E+00  0.00000000000E+00  0.45593999997E+02  0.45594000000E+02  0.51100000000E-03 0.  1.
         11   -1    0    0    0    0 -0.00000000000E+00 -0.00000000000E+00 -0.45593999997E+02  0.45594000000E+02  0.51100000000E-03 0. -1.
    9900012    2    1    2    0    0 -0.94205854654E+01  0.63633871036E+01  0.14880822511E+02  0.72461574699E+02  0.70000005738E+02 0.  0.
         12    1    1    2    0    0  0.94205854654E+01 -0.63633871036E+01 -0.14880822511E+02  0.18726425301E+02  0.00000000000E+00 0. -1.
         11    1    3    3    0    0 -0.73581434107E+01  0.34505501917E+01  0.68584245380E+01  0.10634216402E+02  0.51100000000E-03 0. -1.
        -11    1    3    3    0    0 -0.11189302141E+01  0.21970054388E+02  0.27059982535E+02  0.34873742984E+02  0.51100000000E-03 0.  1.
        -12    1    3    3    0    0 -0.94351184064E+00 -0.19057217476E+02 -0.19037584562E+02  0.26953615314E+02  0.00000000000E+00 0.  1.
</event>
<event>
 7    1  0.3434711E-013  0.7246159E+02  0.7816164E-02  0.1226708E+00
        -11   -1    0    0    0    0  0.00000000000E+00  0.00000000000E+00  0.45593999997E+02  0.45594000000E+02  0.51100000000E-03 0. -1.
         11   -1    0    0    0    0 -0.00000000000E+00 -0.00000000000E+00 -0.45593999997E+02  0.45594000000E+02  0.51100000000E-03 0.  1.
    9900012    2    1    2    0    0  0.23828158147E+01  0.15325954816E+02 -0.10493602088E+02  0.72461591187E+02  0.70000027217E+02 0.  0.
         12    1    1    2    0    0 -0.23828158147E+01 -0.15325954816E+02  0.10493602088E+02  0.18726408813E+02  0.00000000000E+00 0. -1.
         11    1    3    3    0    0 -0.89868506294E+00 -0.84655248154E-01  0.12472168101E+01  0.15395945525E+01  0.51100000000E-03 0. -1.
        -11    1    3    3    0    0 -0.19380513043E+02 -0.17587105155E+02 -0.15986592849E+02  0.30667274165E+02  0.51100000000E-03 0.  1.
         12    1    3    3    0    0  0.22662013921E+02  0.32997715220E+02  0.42457739510E+01  0.40254722470E+02  0.00000000000E+00 0. -1.
</event>
<event>
 7    1  0.3434711E-013  0.7246149E+02  0.7816164E-02  0.1226708E+00
        -11   -1    0    0    0    0  0.00000000000E+00  0.00000000000E+00  0.45593999997E+02  0.45594000000E+02  0.51100000000E-03 0. -1.
         11   -1    0    0    0    0 -0.00000000000E+00 -0.00000000000E+00 -0.45593999997E+02  0.45594000000E+02  0.51100000000E-03 0.  1.
    9900012    2    1    2    0    0  0.10407586135E+02  0.99183980042E+01 -0.11999572644E+02  0.72461489066E+02  0.69999894185E+02 0.  0.
         12    1    1    2    0    0 -0.10407586135E+02 -0.99183980042E+01  0.11999572644E+02  0.18726510934E+02  0.00000000000E+00 0. -1.
         11    1    3    3    0    0  0.82791714017E+01  0.24854681027E+02  0.10588852102E+02  0.28256391085E+02  0.51100000000E-03 0. -1.
        -11    1    3    3    0    0 -0.82659476267E+01  0.18859841940E+01  0.53139654062E+01  0.10006050927E+02  0.51100000000E-03 0.  1.
        -12    1    3    3    0    0  0.10394362360E+02 -0.16822267217E+02 -0.27902390152E+02  0.34199047054E+02  0.00000000000E+00 0.  1.
</event>
<event>
 7    1  0.3434711E-013  0.7246158E+02  0.7816164E-02  0.1226708E+00
        -11   -1    0    0    0    0  0.00000000000E+00  0.00000000000E+00  0.45593999997E+02  0.45594000000E+02  0.51100000000E-03 0.  1.
         11   -1    0    0    0    0 -0.00000000000E+00 -0.00000000000E+00 -0.45593999997E+02  0.45594000000E+02  0.51100000000E-03 0. -1.
    9900012    2    1    2    0    0  0.32154336702E+01  0.51598542514E+01  0.17712022800E+02  0.72461578525E+02  0.70000010722E+02 0.  0.
         12    1    1    2    0    0 -0.32154336702E+01 -0.51598542514E+01 -0.17712022800E+02  0.18726421475E+02  0.00000000000E+00 0. -1.
         11    1    3    3    0    0 -0.11185671843E+02 -0.16219758648E+02  0.17382835002E+02  0.26274755530E+02  0.51100000000E-03 0. -1.
        -11    1    3    3    0    0 -0.11355036481E+02  0.13301720665E+02  0.62126801669E+01  0.18559903590E+02  0.51100000000E-03 0.  1.
         12    1    3    3    0    0  0.25756141994E+02  0.80778922345E+01 -0.58834923688E+01  0.27626919406E+02  0.00000000000E+00 0. -1.
</event>
<event>
 7    1  0.5670096E-013  0.7246161E+02  0.7816164E-02  0.1226708E+00
        -11   -1    0    0    0    0  0.00000000000E+00  0.00000000000E+00  0.45593999997E+02  0.45594000000E+02  0.51100000000E-03 0. -1.
         11   -1    0    0    0    0 -0.00000000000E+00 -0.00000000000E+00 -0.45593999997E+02  0.45594000000E+02  0.51100000000E-03 0.  1.
    9900012    2    1    2    0    0  0.58558563286E+01  0.18857988893E+01 -0.17687013831E+02  0.72461608222E+02  0.70000049407E+02 0.  0.
         12    1    1    2    0    0 -0.58558563286E+01 -0.18857988893E+01  0.17687013831E+02  0.18726391778E+02  0.00000000000E+00 0. -1.
         11    1    3    3    0    0  0.20775716985E+01  0.11520611530E+02 -0.15998709103E+01  0.11815260529E+02  0.51100000000E-03 0. -1.
        -11    1    3    3    0    0 -0.23399134049E+02 -0.11632377970E+02 -0.20276872460E+02  0.33075417586E+02  0.51100000000E-03 0.  1.
         12    1    3    3    0    0  0.27177418679E+02  0.19975653292E+01  0.41897295398E+01  0.27570930106E+02  0.00000000000E+00 0. -1.
</event>
<event>
 7    1  0.3673308E-013  0.7246150E+02  0.7816164E-02  0.1226708E+00
        -11   -1    0    0    0    0  0.00000000000E+00  0.00000000000E+00  0.45593999997E+02  0.45594000000E+02  0.51100000000E-03 0. -1.
         11   -1    0    0    0    0 -0.00000000000E+00 -0.00000000000E+00 -0.45593999997E+02  0.45594000000E+02  0.51100000000E-03 0.  1.
    9900012    2    1    2    0    0 -0.70659745987E+01 -0.87683937660E+01 -0.14962255928E+02  0.72461499293E+02  0.69999907508E+02 0.  0.
         12    1    1    2    0    0  0.70659745987E+01  0.87683937660E+01  0.14962255928E+02  0.18726500707E+02  0.00000000000E+00 0. -1.
         11    1    3    3    0    0 -0.13907330559E+02 -0.14598059792E+02 -0.16251651985E+02  0.25896590228E+02  0.51100000000E-03 0. -1.
        -11    1    3    3    0    0  0.20189269034E+02  0.26252839080E+01 -0.14981215880E+02  0.25277174075E+02  0.51100000000E-03 0.  1.
         12    1    3    3    0    0 -0.13347913074E+02  0.32043821175E+01  0.16270611937E+02  0.21287734990E+02  0.00000000000E+00 0. -1.
</event>
<event>
 7    1  0.3434711E-013  0.7246152E+02  0.7816164E-02  0.1226708E+00
        -11   -1    0    0    0    0  0.00000000000E+00  0.00000000000E+00  0.45593999997E+02  0.45594000000E+02  0.51100000000E-03 0. -1.
         11   -1    0    0    0    0 -0.00000000000E+00 -0.00000000000E+00 -0.45593999997E+02  0.45594000000E+02  0.51100000000E-03 0.  1.
    9900012    2    1    2    0    0 -0.15385002053E+02  0.79094959735E+01 -0.71709536675E+01  0.72461521654E+02  0.69999936637E+02 0.  0.
         12    1    1    2    0    0  0.15385002053E+02 -0.79094959735E+01  0.71709536675E+01  0.18726478346E+02  0.00000000000E+00 0. -1.
         11    1    3    3    0    0  0.83782444610E+00  0.12941252637E+02  0.12184264349E+02  0.17794220062E+02  0.51100000000E-03 0. -1.
        -11    1    3    3    0    0 -0.79953929760E+01  0.89091876055E+01 -0.31974589436E+02  0.34141972739E+02  0.51100000000E-03 0.  1.
         12    1    3    3    0    0 -0.82274335233E+01 -0.13940944269E+02  0.12619371419E+02  0.20525328853E+02  0.00000000000E+00 0. -1.
</event>
<event>
 7    1  0.3434711E-013  0.7246155E+02  0.7816164E-02  0.1226708E+00
        -11   -1    0    0    0    0  0.00000000000E+00  0.00000000000E+00  0.45593999997E+02  0.45594000000E+02  0.51100000000E-03 0. -1.
         11   -1    0    0    0    0 -0.00000000000E+00 -0.00000000000E+00 -0.45593999997E+02  0.45594000000E+02  0.51100000000E-03 0.  1.
    9900012    2    1    2    0    0  0.18712648781E+02  0.59676256537E+00 -0.40050757554E+00  0.72461554628E+02  0.69999979591E+02 0.  0.
         12    1    1    2    0    0 -0.18712648781E+02 -0.59676256537E+00  0.40050757554E+00  0.18726445372E+02  0.00000000000E+00 0. -1.
         11    1    3    3    0    0  0.80476227788E+01  0.27893696261E+02  0.13359050278E+02  0.31957577319E+02  0.51100000000E-03 0.  1.
        -11    1    3    3    0    0 -0.79527560924E+01 -0.79959174963E+01 -0.41921487669E+01  0.12031422926E+02  0.51100000000E-03 0. -1.
        -12    1    3    3    0    0  0.18617782095E+02 -0.19301016200E+02 -0.95674090869E+01  0.28472554383E+02  0.00000000000E+00 0.  1.
</event>
<event>
 7    1  0.3964419E-013  0.7246157E+02  0.7816164E-02  0.1226708E+00
        -11   -1    0    0    0    0  0.00000000000E+00  0.00000000000E+00  0.45593999997E+02  0.45594000000E+02  0.51100000000E-03 0. -1.
         11   -1    0    0    0    0 -0.00000000000E+00 -0.00000000000E+00 -0.45593999997E+02  0.45594000000E+02  0.51100000000E-03 0.  1.
    9900012    2    1    2    0    0 -0.13599296054E+02 -0.11426756927E+02 -0.59302118753E+01  0.72461573755E+02  0.70000004508E+02 0.  0.
         12    1    1    2    0    0  0.13599296054E+02  0.11426756927E+02  0.59302118753E+01  0.18726426245E+02  0.00000000000E+00 0. -1.
         11    1    3    3    0    0 -0.59987135397E+01  0.72074843617E+01 -0.85271468080E+01  0.12674566182E+02  0.51100000000E-03 0. -1.
        -11    1    3    3    0    0  0.11671463235E+02 -0.48299625403E+01 -0.22162104923E+02  0.25509027561E+02  0.51100000000E-03 0.  1.
         12    1    3    3    0    0 -0.19272045749E+02 -0.13804278748E+02  0.24759039856E+02  0.34277980012E+02  0.00000000000E+00 0. -1.
</event>
<event>
 7    1  0.3434711E-013  0.7246156E+02  0.7816164E-02  0.1226708E+00
        -11   -1    0    0    0    0  0.00000000000E+00  0.00000000000E+00  0.45593999997E+02  0.45594000000E+02  0.51100000000E-03 0.  1.
         11   -1    0    0    0    0 -0.00000000000E+00 -0.00000000000E+00 -0.45593999997E+02  0.45594000000E+02  0.51100000000E-03 0. -1.
    9900012    2    1    2    0    0 -0.83127320820E+01  0.13119236491E+02  0.10462491705E+02  0.72461558441E+02  0.69999984559E+02 0.  0.
         12    1    1    2    0    0  0.83127320820E+01 -0.13119236491E+02 -0.10462491705E+02  0.18726441559E+02  0.00000000000E+00 0. -1.
         11    1    3    3    0    0 -0.36074093179E+01  0.58681460479E+01  0.83207429642E+01  0.10802004618E+02  0.51100000000E-03 0. -1.
        -11    1    3    3    0    0 -0.59214578996E+00  0.12683601063E+02  0.30213227496E+02  0.32772907844E+02  0.51100000000E-03 0.  1.
         12    1    3    3    0    0 -0.41131769742E+01 -0.54325106202E+01 -0.28071478755E+02  0.28886645980E+02  0.00000000000E+00 0. -1.
</event>
<event>
 7    1  0.3434711E-013  0.7246159E+02  0.7816164E-02  0.1226708E+00
        -11   -1    0    0    0    0  0.00000000000E+00  0.00000000000E+00  0.45593999997E+02  0.45594000000E+02  0.51100000000E-03 0.  1.
         11   -1    0    0    0    0 -0.00000000000E+00 -0.00000000000E+00 -0.45593999997E+02  0.45594000000E+02  0.51100000000E-03 0. -1.
    9900012    2    1    2    0    0  0.18242229326E+02 -0.42187986733E+01 -0.31847023762E+00  0.72461585065E+02  0.70000019242E+02 0.  0.
         12    1    1    2    0    0 -0.18242229326E+02  0.42187986733E+01  0.31847023762E+00  0.18726414935E+02  0.00000000000E+00 0. -1.
         11    1    3    3    0    0 -0.12213324240E+02 -0.12588134828E+01 -0.11673490565E+02  0.16941672957E+02  0.51100000000E-03 0. -1.
        -11    1    3    3    0    0  0.16671527586E+02  0.19834852648E+02 -0.14754553184E+01  0.25952614132E+02  0.51100000000E-03 0.  1.
        -12    1    3    3    0    0  0.13784025980E+02 -0.22794837839E+02  0.12830475645E+02  0.29567297976E+02  0.00000000000E+00 0.  1.
</event>
<event>
 7    1  0.3434711E-013  0.7246152E+02  0.7816164E-02  0.1226708E+00
        -11   -1    0    0    0    0  0.00000000000E+00  0.00000000000E+00  0.45593999997E+02  0.45594000000E+02  0.51100000000E-03 0.  1.
         11   -1    0    0    0    0 -0.00000000000E+00 -0.00000000000E+00 -0.45593999997E+02  0.45594000000E+02  0.51100000000E-03 0. -1.
    9900012    2    1    2    0    0 -0.97843785579E+01  0.79531428719E+01  0.13845372891E+02  0.72461524203E+02  0.69999939957E+02 0.  0.
         12    1    1    2    0    0  0.97843785579E+01 -0.79531428719E+01 -0.13845372891E+02  0.18726475797E+02  0.00000000000E+00 0. -1.
         11    1    3    3    0    0  0.46218612871E+01 -0.21428423949E+02 -0.37898825090E+01  0.22246396660E+02  0.51100000000E-03 0. -1.
        -11    1    3    3    0    0  0.92204525660E+01  0.81184630055E-01  0.51348678651E+01  0.10554155803E+02  0.51100000000E-03 0.  1.
         12    1    3    3    0    0 -0.23626692411E+02  0.29300382190E+02  0.12500387534E+02  0.39660971739E+02  0.00000000000E+00 0. -1.
</event>
<event>
 7    1  0.3434711E-013  0.7246158E+02  0.7816164E-02  0.1226708E+00
        -11   -1    0    0    0    0  0.00000000000E+00  0.00000000000E+00  0.45593999997E+02  0.45594000000E+02  0.51100000000E-03 0.  1.
         11   -1    0    0    0    0 -0.00000000000E+00 -0.00000000000E+00 -0.45593999997E+02  0.45594000000E+02  0.51100000000E-03 0. -1.
    9900012    2    1    2    0    0 -0.70331966773E+01  0.53471431073E+01  0.16511243677E+02  0.72461575817E+02  0.70000007195E+02 0.  0.
         12    1    1    2    0    0  0.70331966773E+01 -0.53471431073E+01 -0.16511243677E+02  0.18726424183E+02  0.00000000000E+00 0. -1.
         11    1    3    3    0    0  0.19105149148E+01  0.13118160429E+01  0.18045972602E+02  0.18194176431E+02  0.51100000000E-03 0. -1.
        -11    1    3    3    0    0  0.13515532901E+02  0.21221497383E+02 -0.53743492644E+01  0.25727518556E+02  0.51100000000E-03 0.  1.
         12    1    3    3    0    0 -0.22459244493E+02 -0.17186170319E+02  0.38396203392E+01  0.28539880830E+02  0.00000000000E+00 0. -1.
</event>
<event>
 7    1  0.7016413E-013  0.7246159E+02  0.7816164E-02  0.1226708E+00
        -11   -1    0    0    0    0  0.00000000000E+00  0.00000000000E+00  0.45593999997E+02  0.45594000000E+02  0.51100000000E-03 0. -1.
         11   -1    0    0    0    0 -0.00000000000E+00 -0.00000000000E+00 -0.45593999997E+02  0.45594000000E+02  0.51100000000E-03 0.  1.
    9900012    2    1    2    0    0  0.56787482686E+01  0.58209027653E+01 -0.16868529040E+02  0.72461591832E+02  0.70000028057E+02 0.  0.
         12    1    1    2    0    0 -0.56787482686E+01 -0.58209027653E+01  0.16868529040E+02  0.18726408168E+02  0.00000000000E+00 0. -1.
         11    1    3    3    0    0  0.15688280604E+02  0.13336686942E+01  0.13269805256E+01  0.15800686633E+02  0.51100000000E-03 0. -1.
        -11    1    3    3    0    0 -0.93785955577E+01 -0.19354047911E+02 -0.23886273177E+02  0.32141737223E+02  0.51100000000E-03 0.  1.
         12    1    3    3    0    0 -0.63093677786E+00  0.23841281982E+02  0.56907636111E+01  0.24519167976E+02  0.00000000000E+00 0. -1.
</event>
<event>
 7    1  0.3434711E-013  0.7246157E+02  0.7816164E-02  0.1226708E+00
        -11   -1    0    0    0    0  0.00000000000E+00  0.00000000000E+00  0.45593999997E+02  0.45594000000E+02  0.51100000000E-03 0. -1.
         11   -1    0    0    0    0 -0.00000000000E+00 -0.00000000000E+00 -0.45593999997E+02  0.45594000000E+02  0.51100000000E-03 0.  1.
    9900012    2    1    2    0    0  0.16731287850E+01  0.16330579795E+01 -0.18579904110E+02  0.72461572817E+02  0.70000003287E+02 0.  0.
         12    1    1    2    0    0 -0.16731287850E+01 -0.16330579795E+01  0.18579904110E+02  0.18726427183E+02  0.00000000000E+00 0. -1.
         11    1    3    3    0    0 -0.90629311096E+01  0.11324383119E+02  0.26706717179E+01  0.14748249422E+02  0.51100000000E-03 0. -1.
        -11    1    3    3    0    0 -0.12673575100E+02  0.14608717384E+02 -0.37389724228E+01  0.19698072100E+02  0.51100000000E-03 0.  1.
        -12    1    3    3    0    0  0.23409634995E+02 -0.24300042523E+02 -0.17511603405E+02  0.38015251295E+02  0.00000000000E+00 0.  1.
</event>
<event>
 7    1  0.3434711E-013  0.7246148E+02  0.7816164E-02  0.1226708E+00
        -11   -1    0    0    0    0  0.00000000000E+00  0.00000000000E+00  0.45593999997E+02  0.45594000000E+02  0.51100000000E-03 0.  1.
         11   -1    0    0    0    0 -0.00000000000E+00 -0.00000000000E+00 -0.45593999997E+02  0.45594000000E+02  0.51100000000E-03 0. -1.
    9900012    2    1    2    0    0  0.20969851714E+01  0.14225139128E+02  0.11997101772E+02  0.72461484549E+02  0.69999888301E+02 0.  0.
         12    1    1    2    0    0 -0.20969851714E+01 -0.14225139128E+02 -0.11997101772E+02  0.18726515451E+02  0.00000000000E+00 0. -1.
         11    1    3    3    0    0 -0.14011187821E+02  0.16769702274E+01  0.31037507934E+02  0.34094757842E+02  0.51100000000E-03 0. -1.
        -11    1    3    3    0    0 -0.40110344195E+01 -0.10226677361E+01  0.33669893296E+01  0.53358095749E+01  0.51100000000E-03 0.  1.
         12    1    3    3    0    0  0.20119207412E+02  0.13570836636E+02 -0.22407395492E+02  0.33030917133E+02  0.00000000000E+00 0. -1.
</event>
<event>
 7    1  0.3434711E-013  0.7246150E+02  0.7816164E-02  0.1226708E+00
        -11   -1    0    0    0    0  0.00000000000E+00  0.00000000000E+00  0.45593999997E+02  0.45594000000E+02  0.51100000000E-03 0.  1.
         11   -1    0    0    0    0 -0.00000000000E+00 -0.00000000000E+00 -0.45593999997E+02  0.45594000000E+02  0.51100000000E-03 0. -1.
    9900012    2    1    2    0    0  0.82843936872E+01 -0.31785959261E+01  0.16490824606E+02  0.72461496135E+02  0.69999903393E+02 0.  0.
         12    1    1    2    0    0 -0.82843936872E+01  0.31785959261E+01 -0.16490824606E+02  0.18726503865E+02  0.00000000000E+00 0. -1.
         11    1    3    3    0    0  0.11715971436E+02  0.22658062363E+02 -0.95818923689E+01  0.27248200644E+02  0.51100000000E-03 0. -1.
        -11    1    3    3    0    0  0.64503808848E+00  0.14788878398E+00 -0.46915106674E+01  0.47379550263E+01  0.51100000000E-03 0.  1.
        -12    1    3    3    0    0 -0.40766158375E+01 -0.25984547073E+02  0.30764227642E+02  0.40475340464E+02  0.00000000000E+00 0.  1.
</event>
<event>
 7    1  0.3434711E-013  0.7246155E+02  0.7816164E-02  0.1226708E+00
        -11   -1    0    0    0    0  0.00000000000E+00  0.00000000000E+00  0.45593999997E+02  0.45594000000E+02  0.51100000000E-03 0.  1.
         11   -1    0    0    0    0 -0.00000000000E+00 -0.00000000000E+00 -0.45593999997E+02  0.45594000000E+02  0.51100000000E-03 0. -1.
    9900012    2    1    2    0    0 -0.55371579781E+00 -0.18201316808E+02 -0.43686824540E+01  0.72461550226E+02  0.69999973858E+02 0.  0.
         12    1    1    2    0    0  0.55371579781E+00  0.18201316808E+02  0.43686824540E+01  0.18726449774E+02  0.00000000000E+00 0. -1.
         11    1    3    3    0    0  0.49659083462E+01 -0.75363836084E+01 -0.15081782749E+02  0.17576048895E+02  0.51100000000E-03 0. -1.
        -11    1    3    3    0    0 -0.40716675294E+01 -0.32076973892E+02  0.54757162713E+01  0.32794728227E+02  0.51100000000E-03 0.  1.
         12    1    3    3    0    0 -0.14479566146E+01  0.21412040692E+02  0.52373840238E+01  0.22090773105E+02  0.00000000000E+00 0. -1.
</event>
<event>
 7    1  0.3434711E-013  0.7246153E+02  0.7816164E-02  0.1226708E+00
        -11   -1    0    0    0    0  0.00000000000E+00  0.00000000000E+00  0.45593999997E+02  0.45594000000E+02  0.51100000000E-03 0. -1.
         11   -1    0    0    0    0 -0.00000000000E+00 -0.00000000000E+00 -0.45593999997E+02  0.45594000000E+02  0.51100000000E-03 0.  1.
    9900012    2    1    2    0    0 -0.78721147375E+01 -0.13735043301E+02 -0.10002946188E+02  0.72461533773E+02  0.69999952424E+02 0.  0.
         12    1    1    2    0    0  0.78721147375E+01  0.13735043301E+02  0.10002946188E+02  0.18726466227E+02  0.00000000000E+00 0. -1.
         11    1    3    3    0    0  0.23455069070E+02 -0.14027073363E+02 -0.37157775040E+01  0.27580900183E+02  0.51100000000E-03 0. -1.
        -11    1    3    3    0    0  0.17377241815E+00  0.10508079007E+02 -0.52509615863E+01  0.11748298563E+02  0.51100000000E-03 0.  1.
        -12    1    3    3    0    0 -0.31500956226E+02 -0.10216048946E+02 -0.10362070972E+01  0.33132335027E+02  0.00000000000E+00 0.  1.
</event>
<event>
 7    1  0.3434711E-013  0.7246173E+02  0.7816164E-02  0.1226708E+00
        -11   -1    0    0    0    0  0.00000000000E+00  0.00000000000E+00  0.45593999997E+02  0.45594000000E+02  0.51100000000E-03 0.  1.
         11   -1    0    0    0    0 -0.00000000000E+00 -0.00000000000E+00 -0.45593999997E+02  0.45594000000E+02  0.51100000000E-03 0. -1.
    9900012    2    1    2    0    0 -0.14945658054E+02  0.87532187183E+01  0.71191168020E+01  0.72461725500E+02  0.70000202184E+02 0.  0.
         12    1    1    2    0    0  0.14945658054E+02 -0.87532187183E+01 -0.71191168020E+01  0.18726274500E+02  0.00000000000E+00 0. -1.
         11    1    3    3    0    0 -0.23631187873E+01  0.18347605683E+02  0.27984027052E+01  0.18709623798E+02  0.51100000000E-03 0. -1.
        -11    1    3    3    0    0  0.10494722094E+02  0.90368695777E+01  0.16628360657E+02  0.21640392371E+02  0.51100000000E-03 0.  1.
         12    1    3    3    0    0 -0.23077261360E+02 -0.18631256543E+02 -0.12307646560E+02  0.32111709330E+02  0.00000000000E+00 0. -1.
</event>
<event>
 7    1  0.3434711E-013  0.7246159E+02  0.7816164E-02  0.1226708E+00
        -11   -1    0    0    0    0  0.00000000000E+00  0.00000000000E+00  0.45593999997E+02  0.45594000000E+02  0.51100000000E-03 0.  1.
         11   -1    0    0    0    0 -0.00000000000E+00 -0.00000000000E+00 -0.45593999997E+02  0.45594000000E+02  0.51100000000E-03 0. -1.
    9900012    2    1    2    0    0  0.12336305092E+02  0.86064724301E+01  0.11154483454E+02  0.72461593721E+02  0.70000030517E+02 0.  0.
         12    1    1    2    0    0 -0.12336305092E+02 -0.86064724301E+01 -0.11154483454E+02  0.18726406279E+02  0.00000000000E+00 0. -1.
         11    1    3    3    0    0  0.24763367265E+02 -0.43546780139E+01  0.16241269595E+02  0.29932698128E+02  0.51100000000E-03 0. -1.
        -11    1    3    3    0    0  0.60817021409E+01  0.16429257143E+02 -0.13289464721E+02  0.21989030539E+02  0.51100000000E-03 0.  1.
        -12    1    3    3    0    0 -0.18508764315E+02 -0.34681066990E+01  0.82026785804E+01  0.20539865054E+02  0.00000000000E+00 0.  1.
</event>
<event>
 7    1  0.3434711E-013  0.7246153E+02  0.7816164E-02  0.1226708E+00
        -11   -1    0    0    0    0  0.00000000000E+00  0.00000000000E+00  0.45593999997E+02  0.45594000000E+02  0.51100000000E-03 0. -1.
         11   -1    0    0    0    0 -0.00000000000E+00 -0.00000000000E+00 -0.45593999997E+02  0.45594000000E+02  0.51100000000E-03 0.  1.
    9900012    2    1    2    0    0  0.10318446952E+02 -0.57019403189E+01 -0.14549854330E+02  0.72461528578E+02  0.69999945657E+02 0.  0.
         12    1    1    2    0    0 -0.10318446952E+02  0.57019403189E+01  0.14549854330E+02  0.18726471422E+02  0.00000000000E+00 0. -1.
         11    1    3    3    0    0 -0.14128457004E+02 -0.22346856292E+02 -0.74972121312E+01  0.27480965657E+02  0.51100000000E-03 0. -1.
        -11    1    3    3    0    0  0.17565672283E+01  0.11303100844E+02  0.10712774541E+02  0.15671922528E+02  0.51100000000E-03 0.  1.
        -12    1    3    3    0    0  0.22690336728E+02  0.53418151292E+01 -0.17765416739E+02  0.29308640392E+02  0.00000000000E+00 0.  1.
</event>
<event>
 7    1  0.3434711E-013  0.7246153E+02  0.7816164E-02  0.1226708E+00
        -11   -1    0    0    0    0  0.00000000000E+00  0.00000000000E+00  0.45593999997E+02  0.45594000000E+02  0.51100000000E-03 0.  1.
         11   -1    0    0    0    0 -0.00000000000E+00 -0.00000000000E+00 -0.45593999997E+02  0.45594000000E+02  0.51100000000E-03 0. -1.
    9900012    2    1    2    0    0 -0.22527677299E+01  0.18489117188E+02  0.19386502349E+01  0.72461527253E+02  0.69999943930E+02 0.  0.
         12    1    1    2    0    0  0.22527677299E+01 -0.18489117188E+02 -0.19386502349E+01  0.18726472747E+02  0.00000000000E+00 0. -1.
         11    1    3    3    0    0  0.17177650602E+02  0.14532797355E+02 -0.18946009831E+02  0.29414710060E+02  0.51100000000E-03 0. -1.
        -11    1    3    3    0    0  0.56603430777E+01 -0.41046326338E+01 -0.28786194235E+01  0.75613453077E+01  0.51100000000E-03 0.  1.
        -12    1    3    3    0    0 -0.25090761409E+02  0.80609524665E+01  0.23763279490E+02  0.35485471885E+02  0.00000000000E+00 0.  1.
</event>
<event>
 7    1  0.3434711E-013  0.7246200E+02  0.7816164E-02  0.1226707E+00
        -11   -1    0    0    0    0  0.00000000000E+00  0.00000000000E+00  0.45593999997E+02  0.45594000000E+02  0.51100000000E-03 0. -1.
         11   -1    0    0    0    0 -0.00000000000E+00 -0.00000000000E+00 -0.45593999997E+02  0.45594000000E+02  0.51100000000E-03 0.  1.
    9900012    2    1    2    0    0 -0.65173626366E+01  0.16643078386E+02 -0.55852536956E+01  0.72461998485E+02  0.70000557796E+02 0.  0.
         12    1    1    2    0    0  0.65173626366E+01 -0.16643078386E+02  0.55852536956E+01  0.18726001515E+02  0.00000000000E+00 0. -1.
         11    1    3    3    0    0  0.61749853221E+01 -0.12213641628E+02  0.19231466889E+02  0.23604084488E+02  0.51100000000E-03 0. -1.
        -11    1    3    3    0    0 -0.40718521767E+00 -0.56415051626E+00  0.50938554444E+01  0.51411505674E+01  0.51100000000E-03 0.  1.
        -12    1    3    3    0    0 -0.12285162741E+02  0.29420870530E+02 -0.29910576030E+02  0.43716763429E+02  0.00000000000E+00 0.  1.
</event>
<event>
 7    1  0.3434711E-013  0.7246156E+02  0.7816164E-02  0.1226708E+00
        -11   -1    0    0    0    0  0.00000000000E+00  0.00000000000E+00  0.45593999997E+02  0.45594000000E+02  0.51100000000E-03 0. -1.
         11   -1    0    0    0    0 -0.00000000000E+00 -0.00000000000E+00 -0.45593999997E+02  0.45594000000E+02  0.51100000000E-03 0.  1.
    9900012    2    1    2    0    0 -0.97641630986E+01  0.11309926929E+02 -0.11288320665E+02  0.72461561161E+02  0.69999988102E+02 0.  0.
         12    1    1    2    0    0  0.97641630986E+01 -0.11309926929E+02  0.11288320665E+02  0.18726438839E+02  0.00000000000E+00 0. -1.
         11    1    3    3    0    0 -0.27304323572E+02  0.61626293933E+00 -0.71028228477E+01  0.28219779560E+02  0.51100000000E-03 0. -1.
        -11    1    3    3    0    0 -0.94491531021E+00  0.20643647372E+02  0.51027186752E+01  0.21285929153E+02  0.51100000000E-03 0.  1.
         12    1    3    3    0    0  0.18485075784E+02 -0.99499833822E+01 -0.92882164925E+01  0.22955852449E+02  0.00000000000E+00 0. -1.
</event>
<event>
 7    1  0.3434711E-013  0.7246154E+02  0.7816164E-02  0.1226708E+00
        -11   -1    0    0    0    0  0.00000000000E+00  0.00000000000E+00  0.45593999997E+02  0.45594000000E+02  0.51100000000E-03 0. -1.
         11   -1    0    0    0    0 -0.00000000000E+00 -0.00000000000E+00 -0.45593999997E+02  0.45594000000E+02  0.51100000000E-03 0.  1.
    9900012    2    1    2    0    0 -0.52874125055E+01 -0.66131101581E+01 -0.16702998947E+02  0.72461544629E+02  0.69999966566E+02 0.  0.
         12    1    1    2    0    0  0.52874125055E+01  0.66131101581E+01  0.16702998947E+02  0.18726455371E+02  0.00000000000E+00 0. -1.
         11    1    3    3    0    0  0.33778452829E+01  0.17892083711E+02  0.82597523546E+00  0.18226868454E+02  0.51100000000E-03 0. -1.
        -11    1    3    3    0    0 -0.10341685564E+01 -0.11279660438E+02  0.14708163806E+02  0.18564221691E+02  0.51100000000E-03 0.  1.
         12    1    3    3    0    0 -0.76310892319E+01 -0.13225533431E+02 -0.32237137988E+02  0.35670454484E+02  0.00000000000E+00 0. -1.
</event>
<event>
 7    1  0.3693372E-013  0.7246165E+02  0.7816164E-02  0.1226708E+00
        -11   -1    0    0    0    0  0.00000000000E+00  0.00000000000E+00  0.45593999997E+02  0.45594000000E+02  0.51100000000E-03 0.  1.
         11   -1    0    0    0    0 -0.00000000000E+00 -0.00000000000E+00 -0.45593999997E+02  0.45594000000E+02  0.51100000000E-03 0. -1.
    9900012    2    1    2    0    0  0.79648801263E+01  0.13548364193E+02  0.10182275854E+02  0.72461648799E+02  0.70000102267E+02 0.  0.
         12    1    1    2    0    0 -0.79648801263E+01 -0.13548364193E+02 -0.10182275854E+02  0.18726351201E+02  0.00000000000E+00 0. -1.
         11    1    3    3    0    0  0.45486942989E+01 -0.12841063842E+02  0.43268985863E+01  0.14293550716E+02  0.51100000000E-03 0. -1.
        -11    1    3    3    0    0 -0.23100074460E+02  0.14214982129E+02  0.95544016993E+01  0.28757012172E+02  0.51100000000E-03 0.  1.
         12    1    3    3    0    0  0.26516260287E+02  0.12174445906E+02 -0.36990244319E+01  0.29411085911E+02  0.00000000000E+00 0. -1.
</event>
<event>
 7    1  0.3434711E-013  0.7246174E+02  0.7816164E-02  0.1226708E+00
        -11   -1    0    0    0    0  0.00000000000E+00  0.00000000000E+00  0.45593999997E+02  0.45594000000E+02  0.51100000000E-03 0. -1.
         11   -1    0    0    0    0 -0.00000000000E+00 -0.00000000000E+00 -0.45593999997E+02  0.45594000000E+02  0.51100000000E-03 0.  1.
    9900012    2    1    2    0    0 -0.12350222900E+02 -0.98776594773E+01 -0.10028790230E+02  0.72461740472E+02  0.70000221688E+02 0.  0.
         12    1    1    2    0    0  0.12350222900E+02  0.98776594773E+01  0.10028790230E+02  0.18726259528E+02  0.00000000000E+00 0. -1.
         11    1    3    3    0    0 -0.31154759626E+01  0.32420069893E+00  0.23639694925E+01  0.39242385999E+01  0.51100000000E-03 0. -1.
        -11    1    3    3    0    0 -0.23820589637E+02  0.20622101833E+02  0.18962240964E+01  0.31564018134E+02  0.51100000000E-03 0.  1.
         12    1    3    3    0    0  0.14585842699E+02 -0.30823962009E+02 -0.14288983818E+02  0.36973483739E+02  0.00000000000E+00 0. -1.
</event>
<event>
 7    1  0.3434711E-013  0.7246117E+02  0.7816164E-02  0.1226709E+00
        -11   -1    0    0    0    0  0.00000000000E+00  0.00000000000E+00  0.45593999997E+02  0.45594000000E+02  0.51100000000E-03 0.  1.
         11   -1    0    0    0    0 -0.00000000000E+00 -0.00000000000E+00 -0.45593999997E+02  0.45594000000E+02  0.51100000000E-03 0. -1.
    9900012    2    1    2    0    0  0.18062091668E+02 -0.48886372791E+01 -0.74579372172E+00  0.72461170633E+02  0.69999479364E+02 0.  0.
         12    1    1    2    0    0 -0.18062091668E+02  0.48886372791E+01  0.74579372172E+00  0.18726829367E+02  0.00000000000E+00 0. -1.
         11    1    3    3    0    0  0.81679734225E+01 -0.99298707239E+01  0.84208435945E+01  0.15369734205E+02  0.51100000000E-03 0. -1.
        -11    1    3    3    0    0  0.22363778263E+02 -0.88212058993E+01  0.13633978768E+02  0.27637612578E+02  0.51100000000E-03 0.  1.
         12    1    3    3    0    0 -0.12469660017E+02  0.13862439344E+02 -0.22800616084E+02  0.29453823849E+02  0.00000000000E+00 0. -1.
</event>
<event>
 7    1  0.3434711E-013  0.7246157E+02  0.7816164E-02  0.1226708E+00
        -11   -1    0    0    0    0  0.00000000000E+00  0.00000000000E+00  0.45593999997E+02  0.45594000000E+02  0.51100000000E-03 0.  1.
         11   -1    0    0    0    0 -0.00000000000E+00 -0.00000000000E+00 -0.45593999997E+02  0.45594000000E+02  0.51100000000E-03 0. -1.
    9900012    2    1    2    0    0 -0.99102708293E+01  0.13555986098E+01  0.15831235908E+02  0.72461570926E+02  0.70000000822E+02 0.  0.
         12    1    1    2    0    0  0.99102708293E+01 -0.13555986098E+01 -0.15831235908E+02  0.18726429074E+02  0.00000000000E+00 0. -1.
         11    1    3    3    0    0 -0.31929073864E+01  0.20618224373E+02  0.19073732823E+02  0.28268588892E+02  0.51100000000E-03 0. -1.
        -11    1    3    3    0    0 -0.18375981689E+02  0.15587852618E+01 -0.75795631797E+01  0.19938813726E+02  0.51100000000E-03 0.  1.
        -12    1    3    3    0    0  0.11658618246E+02 -0.20821411025E+02  0.43370662643E+01  0.24254168307E+02  0.00000000000E+00 0.  1.
</event>
<event>
 7    1  0.3434711E-013  0.7246149E+02  0.7816164E-02  0.1226708E+00
        -11   -1    0    0    0    0  0.00000000000E+00  0.00000000000E+00  0.45593999997E+02  0.45594000000E+02  0.51100000000E-03 0.  1.
         11   -1    0    0    0    0 -0.00000000000E+00 -0.00000000000E+00 -0.45593999997E+02  0.45594000000E+02  0.51100000000E-03 0. -1.
    9900012    2    1    2    0    0 -0.91604517771E+01 -0.75808116260E+01  0.14467191427E+02  0.72461489128E+02  0.69999894265E+02 0.  0.
         12    1    1    2    0    0  0.91604517771E+01  0.75808116260E+01 -0.14467191427E+02  0.18726510872E+02  0.00000000000E+00 0. -1.
         11    1    3    3    0    0 -0.19567274201E+02 -0.28918721971E+02  0.13463328280E+02  0.37422345046E+02  0.51100000000E-03 0. -1.
        -11    1    3    3    0    0  0.62740837096E+01 -0.45885886219E+01 -0.32826112407E+01  0.84377016275E+01  0.51100000000E-03 0.  1.
        -12    1    3    3    0    0  0.41327387144E+01  0.25926498967E+02  0.42864743880E+01  0.26601442454E+02  0.00000000000E+00 0.  1.
</event>
<event>
 7    1  0.3434711E-013  0.7246158E+02  0.7816164E-02  0.1226708E+00
        -11   -1    0    0    0    0  0.00000000000E+00  0.00000000000E+00  0.45593999997E+02  0.45594000000E+02  0.51100000000E-03 0. -1.
         11   -1    0    0    0    0 -0.00000000000E+00 -0.00000000000E+00 -0.45593999997E+02  0.45594000000E+02  0.51100000000E-03 0.  1.
    9900012    2    1    2    0    0  0.41611456989E+01 -0.17958612761E+02  0.32942216540E+01  0.72461580104E+02  0.70000012779E+02 0.  0.
         12    1    1    2    0    0 -0.41611456989E+01  0.17958612761E+02 -0.32942216540E+01  0.18726419896E+02  0.00000000000E+00 0. -1.
         11    1    3    3    0    0 -0.17500939954E+01 -0.59479298936E+01  0.12024763602E+02  0.13529066448E+02  0.51100000000E-03 0. -1.
        -11    1    3    3    0    0 -0.21548235058E+02 -0.19119982722E+02  0.13238748204E+01  0.28838391394E+02  0.51100000000E-03 0.  1.
         12    1    3    3    0    0  0.27459474752E+02  0.71092998551E+01 -0.10054416769E+02  0.30094122261E+02  0.00000000000E+00 0. -1.
</event>
<event>
 7    1  0.3434711E-013  0.7246155E+02  0.7816164E-02  0.1226708E+00
        -11   -1    0    0    0    0  0.00000000000E+00  0.00000000000E+00  0.45593999997E+02  0.45594000000E+02  0.51100000000E-03 0. -1.
         11   -1    0    0    0    0 -0.00000000000E+00 -0.00000000000E+00 -0.45593999997E+02  0.45594000000E+02  0.51100000000E-03 0.  1.
    9900012    2    1    2    0    0 -0.15979755661E+02  0.56939714699E+01 -0.79313414039E+01  0.72461546023E+02  0.69999968382E+02 0.  0.
         12    1    1    2    0    0  0.15979755661E+02 -0.56939714699E+01  0.79313414039E+01  0.18726453977E+02  0.00000000000E+00 0. -1.
         11    1    3    3    0    0  0.54994469818E+01 -0.49811489684E+01 -0.12731074617E+02  0.14735536072E+02  0.51100000000E-03 0. -1.
        -11    1    3    3    0    0  0.82162767847E+01 -0.41306339785E+01 -0.16078255857E+02  0.18522409480E+02  0.51100000000E-03 0.  1.
        -12    1    3    3    0    0 -0.29695479428E+02  0.14805754417E+02  0.20877989070E+02  0.39203600471E+02  0.00000000000E+00 0.  1.
</event>
<event>
 7    1  0.3434711E-013  0.7246157E+02  0.7816164E-02  0.1226708E+00
        -11   -1    0    0    0    0  0.00000000000E+00  0.00000000000E+00  0.45593999997E+02  0.45594000000E+02  0.51100000000E-03 0.  1.
         11   -1    0    0    0    0 -0.00000000000E+00 -0.00000000000E+00 -0.45593999997E+02  0.45594000000E+02  0.51100000000E-03 0. -1.
    9900012    2    1    2    0    0 -0.13528316673E+02  0.10815314659E+02  0.71198989419E+01  0.72461565632E+02  0.69999993927E+02 0.  0.
         12    1    1    2    0    0  0.13528316673E+02 -0.10815314659E+02 -0.71198989419E+01  0.18726434368E+02  0.00000000000E+00 0. -1.
         11    1    3    3    0    0 -0.48263742428E+01 -0.18499489642E+02 -0.10501021289E+02  0.21812758967E+02  0.51100000000E-03 0. -1.
        -11    1    3    3    0    0 -0.22452506521E+02  0.12454982710E+02  0.83459434422E+01  0.26998081702E+02  0.51100000000E-03 0.  1.
         12    1    3    3    0    0  0.13750564090E+02  0.16859821591E+02  0.92749767891E+01  0.23650724964E+02  0.00000000000E+00 0. -1.
</event>
<event>
 7    1  0.3434711E-013  0.7246159E+02  0.7816164E-02  0.1226708E+00
        -11   -1    0    0    0    0  0.00000000000E+00  0.00000000000E+00  0.45593999997E+02  0.45594000000E+02  0.51100000000E-03 0.  1.
         11   -1    0    0    0    0 -0.00000000000E+00 -0.00000000000E+00 -0.45593999997E+02  0.45594000000E+02  0.51100000000E-03 0. -1.
    9900012    2    1    2    0    0 -0.17814138666E+02 -0.49967251058E+01 -0.28926677964E+01  0.72461592838E+02  0.70000029368E+02 0.  0.
         12    1    1    2    0    0  0.17814138666E+02  0.49967251058E+01  0.28926677964E+01  0.18726407162E+02  0.00000000000E+00 0. -1.
         11    1    3    3    0    0 -0.82801588219E+01  0.20798226267E+02 -0.13518528022E+02  0.26151058222E+02  0.51100000000E-03 0. -1.
        -11    1    3    3    0    0 -0.68716634713E+01  0.80859799659E+01 -0.28917885509E+00  0.10615387678E+02  0.51100000000E-03 0.  1.
        -12    1    3    3    0    0 -0.26623163729E+01 -0.33880931339E+02  0.10915039081E+02  0.35695146939E+02  0.00000000000E+00 0.  1.
</event>
<event>
 7    1  0.4143425E-013  0.7246164E+02  0.7816164E-02  0.1226708E+00
        -11   -1    0    0    0    0  0.00000000000E+00  0.00000000000E+00  0.45593999997E+02  0.45594000000E+02  0.51100000000E-03 0. -1.
         11   -1    0    0    0    0 -0.00000000000E+00 -0.00000000000E+00 -0.45593999997E+02  0.45594000000E+02  0.51100000000E-03 0.  1.
    9900012    2    1    2    0    0 -0.91009736480E+01  0.22746325879E+01 -0.16207246428E+02  0.72461641264E+02  0.70000092451E+02 0.  0.
         12    1    1    2    0    0  0.91009736480E+01 -0.22746325879E+01  0.16207246428E+02  0.18726358736E+02  0.00000000000E+00 0. -1.
         11    1    3    3    0    0  0.76567545888E+01  0.57476105843E+01 -0.10404145642E+02  0.14138853032E+02  0.51100000000E-03 0. -1.
        -11    1    3    3    0    0  0.70855533093E+01 -0.76094621027E+01 -0.25231147733E+02  0.27289554693E+02  0.51100000000E-03 0.  1.
         12    1    3    3    0    0 -0.23843281546E+02  0.41364841063E+01  0.19428046947E+02  0.31033233538E+02  0.00000000000E+00 0. -1.
</event>
<event>
 7    1  0.3434711E-013  0.7246157E+02  0.7816164E-02  0.1226708E+00
        -11   -1    0    0    0    0  0.00000000000E+00  0.00000000000E+00  0.45593999997E+02  0.45594000000E+02  0.51100000000E-03 0. -1.
         11   -1    0    0    0    0 -0.00000000000E+00 -0.00000000000E+00 -0.45593999997E+02  0.45594000000E+02  0.51100000000E-03 0.  1.
    9900012    2    1    2    0    0 -0.12529299499E+02  0.50571166756E+01  0.12966166002E+02  0.72461568525E+02  0.69999997695E+02 0.  0.
         12    1    1    2    0    0  0.12529299499E+02 -0.50571166756E+01 -0.12966166002E+02  0.18726431475E+02  0.00000000000E+00 0. -1.
         11    1    3    3    0    0  0.70959628486E+01 -0.38339733490E+01 -0.20819729493E+01  0.83298650657E+01  0.51100000000E-03 0. -1.
        -11    1    3    3    0    0  0.40192413548E+01  0.12676635993E+02 -0.18580247194E+02  0.22849004076E+02  0.51100000000E-03 0.  1.
         12    1    3    3    0    0 -0.23644503702E+02 -0.37855459689E+01  0.33628386146E+02  0.41282699383E+02  0.00000000000E+00 0. -1.
</event>
<event>
 7    1  0.3434711E-013  0.7246157E+02  0.7816164E-02  0.1226708E+00
        -11   -1    0    0    0    0  0.00000000000E+00  0.00000000000E+00  0.45593999997E+02  0.45594000000E+02  0.51100000000E-03 0.  1.
         11   -1    0    0    0    0 -0.00000000000E+00 -0.00000000000E+00 -0.45593999997E+02  0.45594000000E+02  0.51100000000E-03 0. -1.
    9900012    2    1    2    0    0 -0.16473496451E+02 -0.13813534637E+01  0.87974455621E+01  0.72461567581E+02  0.69999996466E+02 0.  0.
         12    1    1    2    0    0  0.16473496451E+02  0.13813534637E+01 -0.87974455621E+01  0.18726432419E+02  0.00000000000E+00 0. -1.
         11    1    3    3    0    0  0.13548310022E+02 -0.17340366154E+02 -0.70516168859E+01  0.23107797467E+02  0.51100000000E-03 0. -1.
        -11    1    3    3    0    0  0.61821043632E+01  0.35633728485E+01  0.71682871336E+01  0.10114365087E+02  0.51100000000E-03 0.  1.
        -12    1    3    3    0    0 -0.36203910836E+02  0.12395639842E+02  0.86807753144E+01  0.39239405028E+02  0.00000000000E+00 0.  1.
</event>
<event>
 7    1  0.3434711E-013  0.7246155E+02  0.7816164E-02  0.1226708E+00
        -11   -1    0    0    0    0  0.00000000000E+00  0.00000000000E+00  0.45593999997E+02  0.45594000000E+02  0.51100000000E-03 0. -1.
         11   -1    0    0    0    0 -0.00000000000E+00 -0.00000000000E+00 -0.45593999997E+02  0.45594000000E+02  0.51100000000E-03 0.  1.
    9900012    2    1    2    0    0  0.32688209963E+01  0.14040501537E+02 -0.11952370751E+02  0.72461547034E+02  0.69999969700E+02 0.  0.
         12    1    1    2    0    0 -0.32688209963E+01 -0.14040501537E+02  0.11952370751E+02  0.18726452966E+02  0.00000000000E+00 0. -1.
         11    1    3    3    0    0  0.18298633172E+02 -0.15359928519E+02  0.41587211092E+01  0.24249996734E+02  0.51100000000E-03 0. -1.
        -11    1    3    3    0    0  0.68257399948E+01 -0.18973144651E+01 -0.99460551371E+00  0.71540037074E+01  0.51100000000E-03 0.  1.
        -12    1    3    3    0    0 -0.21855552171E+02  0.31297744521E+02 -0.15116486346E+02  0.41057546593E+02  0.00000000000E+00 0.  1.
</event>
<event>
 7    1  0.3434711E-013  0.7246159E+02  0.7816164E-02  0.1226708E+00
        -11   -1    0    0    0    0  0.00000000000E+00  0.00000000000E+00  0.45593999997E+02  0.45594000000E+02  0.51100000000E-03 0.  1.
         11   -1    0    0    0    0 -0.00000000000E+00 -0.00000000000E+00 -0.45593999997E+02  0.45594000000E+02  0.51100000000E-03 0. -1.
    9900012    2    1    2    0    0 -0.10771519389E+02 -0.58190433885E+01  0.14170093014E+02  0.72461589988E+02  0.70000025655E+02 0.  0.
         12    1    1    2    0    0  0.10771519389E+02  0.58190433885E+01 -0.14170093014E+02  0.18726410012E+02  0.00000000000E+00 0. -1.
         11    1    3    3    0    0 -0.12181263394E+02 -0.15286149127E+02  0.38970046803E+01  0.19930784700E+02  0.51100000000E-03 0. -1.
        -11    1    3    3    0    0 -0.13405125541E+02 -0.14957542402E+02 -0.41806028515E+01  0.20515918355E+02  0.51100000000E-03 0.  1.
         12    1    3    3    0    0  0.14814869546E+02  0.24424648141E+02  0.14453691186E+02  0.32014886934E+02  0.00000000000E+00 0. -1.
</event>
<event>
 7    1  0.3434711E-013  0.7246161E+02  0.7816164E-02  0.1226708E+00
        -11   -1    0    0    0    0  0.00000000000E+00  0.00000000000E+00  0.45593999997E+02  0.45594000000E+02  0.51100000000E-03 0.  1.
         11   -1    0    0    0    0 -0.00000000000E+00 -0.00000000000E+00 -0.45593999997E+02  0.45594000000E+02  0.51100000000E-03 0. -1.
    9900012    2    1    2    0    0 -0.10358819224E+02 -0.14181334088E+02  0.65009586904E+01  0.72461605896E+02  0.70000046378E+02 0.  0.
         12    1    1    2    0    0  0.10358819224E+02  0.14181334088E+02 -0.65009586904E+01  0.18726394104E+02  0.00000000000E+00 0. -1.
         11    1    3    3    0    0  0.93273622086E+01 -0.96851576291E+01  0.17665195495E+01  0.13561805029E+02  0.51100000000E-03 0. -1.
        -11    1    3    3    0    0  0.22055265441E+01 -0.81453352511E+01  0.26501950573E+02  0.27813022456E+02  0.51100000000E-03 0.  1.
         12    1    3    3    0    0 -0.21891707977E+02  0.36491587920E+01 -0.21767511432E+02  0.31086778411E+02  0.00000000000E+00 0. -1.
</event>
<event>
 7    1  0.3434711E-013  0.7246153E+02  0.7816164E-02  0.1226708E+00
        -11   -1    0    0    0    0  0.00000000000E+00  0.00000000000E+00  0.45593999997E+02  0.45594000000E+02  0.51100000000E-03 0.  1.
         11   -1    0    0    0    0 -0.00000000000E+00 -0.00000000000E+00 -0.45593999997E+02  0.45594000000E+02  0.51100000000E-03 0. -1.
    9900012    2    1    2    0    0  0.66544051706E+01  0.15836176988E+02  0.74575607067E+01  0.72461526187E+02  0.69999942542E+02 0.  0.
         12    1    1    2    0    0 -0.66544051706E+01 -0.15836176988E+02 -0.74575607067E+01  0.18726473813E+02  0.00000000000E+00 0. -1.
         11    1    3    3    0    0 -0.10836233765E+02  0.26317322555E+02  0.79311014393E+01  0.29545351563E+02  0.51100000000E-03 0. -1.
        -11    1    3    3    0    0  0.94687108406E+01 -0.11106244692E+02  0.17759257598E+02  0.22986874229E+02  0.51100000000E-03 0.  1.
         12    1    3    3    0    0  0.80219280947E+01  0.62509912540E+00 -0.18232798331E+02  0.19929300395E+02  0.00000000000E+00 0. -1.
</event>
<event>
 7    1  0.3434711E-013  0.7246154E+02  0.7816164E-02  0.1226708E+00
        -11   -1    0    0    0    0  0.00000000000E+00  0.00000000000E+00  0.45593999997E+02  0.45594000000E+02  0.51100000000E-03 0.  1.
         11   -1    0    0    0    0 -0.00000000000E+00 -0.00000000000E+00 -0.45593999997E+02  0.45594000000E+02  0.51100000000E-03 0. -1.
    9900012    2    1    2    0    0 -0.63713285394E+01 -0.17267033695E+02 -0.34548821214E+01  0.72461535025E+02  0.69999954055E+02 0.  0.
         12    1    1    2    0    0  0.63713285394E+01  0.17267033695E+02  0.34548821214E+01  0.18726464975E+02  0.00000000000E+00 0. -1.
         11    1    3    3    0    0  0.50334789710E+01 -0.10972594113E+02  0.14529276546E+02  0.18890039950E+02  0.51100000000E-03 0. -1.
        -11    1    3    3    0    0  0.12265804767E+02 -0.18405144773E+02 -0.12462044846E+01  0.22152930880E+02  0.51100000000E-03 0.  1.
         12    1    3    3    0    0 -0.23670612278E+02  0.12110705191E+02 -0.16737954182E+02  0.31418564194E+02  0.00000000000E+00 0. -1.
</event>
<event>
 7    1  0.3434711E-013  0.7246156E+02  0.7816164E-02  0.1226708E+00
        -11   -1    0    0    0    0  0.00000000000E+00  0.00000000000E+00  0.45593999997E+02  0.45594000000E+02  0.51100000000E-03 0.  1.
         11   -1    0    0    0    0 -0.00000000000E+00 -0.00000000000E+00 -0.45593999997E+02  0.45594000000E+02  0.51100000000E-03 0. -1.
    9900012    2    1    2    0    0 -0.38378084385E+01 -0.17704414701E+02  0.47438892450E+01  0.72461559904E+02  0.69999986464E+02 0.  0.
         12    1    1    2    0    0  0.38378084385E+01  0.17704414701E+02 -0.47438892450E+01  0.18726440096E+02  0.00000000000E+00 0. -1.
         11    1    3    3    0    0 -0.20818819098E+02  0.85279821382E+01 -0.11487637927E+02  0.25260948782E+02  0.51100000000E-03 0. -1.
        -11    1    3    3    0    0  0.93637420591E+01  0.56793886899E+00  0.16901921512E+02  0.19330731258E+02  0.51100000000E-03 0.  1.
        -12    1    3    3    0    0  0.76172686003E+01 -0.26800335708E+02 -0.67039434053E+00  0.27869879863E+02  0.00000000000E+00 0.  1.
</event>
<event>
 7    1  0.3434711E-013  0.7246151E+02  0.7816164E-02  0.1226708E+00
        -11   -1    0    0    0    0  0.00000000000E+00  0.00000000000E+00  0.45593999997E+02  0.45594000000E+02  0.51100000000E-03 0. -1.
         11   -1    0    0    0    0 -0.00000000000E+00 -0.00000000000E+00 -0.45593999997E+02  0.45594000000E+02  0.51100000000E-03 0.  1.
    9900012    2    1    2    0    0 -0.16092882881E+02 -0.63111584780E+01 -0.72020784431E+01  0.72461507145E+02  0.69999917736E+02 0.  0.
         12    1    1    2    0    0  0.16092882881E+02  0.63111584780E+01  0.72020784431E+01  0.18726492855E+02  0.00000000000E+00 0. -1.
         11    1    3    3    0    0  0.45316891823E+01 -0.77827318154E+01  0.87949018379E+01  0.12587987129E+02  0.51100000000E-03 0. -1.
        -11    1    3    3    0    0  0.56973678865E+01 -0.21267314635E+02 -0.11381440334E+02  0.24784992575E+02  0.51100000000E-03 0.  1.
        -12    1    3    3    0    0 -0.26321939950E+02  0.22738887973E+02 -0.46155399470E+01  0.35088527441E+02  0.00000000000E+00 0.  1.
</event>
<event>
 7    1  0.3434711E-013  0.7246151E+02  0.7816164E-02  0.1226708E+00
        -11   -1    0    0    0    0  0.00000000000E+00  0.00000000000E+00  0.45593999997E+02  0.45594000000E+02  0.51100000000E-03 0. -1.
         11   -1    0    0    0    0 -0.00000000000E+00 -0.00000000000E+00 -0.45593999997E+02  0.45594000000E+02  0.51100000000E-03 0.  1.
    9900012    2    1    2    0    0 -0.11359299888E+02  0.39143798158E+01 -0.14364030483E+02  0.72461509806E+02  0.69999921202E+02 0.  0.
         12    1    1    2    0    0  0.11359299888E+02 -0.39143798158E+01  0.14364030483E+02  0.18726490194E+02  0.00000000000E+00 0. -1.
         11    1    3    3    0    0  0.22178936685E+02 -0.96522017759E+01 -0.15705348265E+02  0.28839698265E+02  0.51100000000E-03 0. -1.
        -11    1    3    3    0    0 -0.20399837765E+01  0.10618254842E+02 -0.40185157897E+01  0.11535048292E+02  0.51100000000E-03 0.  1.
        -12    1    3    3    0    0 -0.31498252797E+02  0.29483267501E+01  0.53598335725E+01  0.32086763249E+02  0.00000000000E+00 0.  1.
</event>
<event>
 7    1  0.3434711E-013  0.7246164E+02  0.7816164E-02  0.1226708E+00
        -11   -1    0    0    0    0  0.00000000000E+00  0.00000000000E+00  0.45593999997E+02  0.45594000000E+02  0.51100000000E-03 0.  1.
         11   -1    0    0    0    0 -0.00000000000E+00 -0.00000000000E+00 -0.45593999997E+02  0.45594000000E+02  0.51100000000E-03 0. -1.
    9900012    2    1    2    0    0  0.15013474646E+02  0.56396818773E+01  0.96677787060E+01  0.72461644836E+02  0.70000097104E+02 0.  0.
         12    1    1    2    0    0 -0.15013474646E+02 -0.56396818773E+01 -0.96677787060E+01  0.18726355164E+02  0.00000000000E+00 0. -1.
         11    1    3    3    0    0  0.21066202269E+02  0.27111522298E+01 -0.76252988079E-01  0.21240080961E+02  0.51100000000E-03 0. -1.
        -11    1    3    3    0    0  0.15406905424E+02  0.29612682949E+00  0.21623417004E+02  0.26552449775E+02  0.51100000000E-03 0.  1.
         12    1    3    3    0    0 -0.21459633048E+02  0.26324028181E+01 -0.11879385310E+02  0.24669114100E+02  0.00000000000E+00 0. -1.
</event>
<event>
 7    1  0.3434711E-013  0.7246158E+02  0.7816164E-02  0.1226708E+00
        -11   -1    0    0    0    0  0.00000000000E+00  0.00000000000E+00  0.45593999997E+02  0.45594000000E+02  0.51100000000E-03 0. -1.
         11   -1    0    0    0    0 -0.00000000000E+00 -0.00000000000E+00 -0.45593999997E+02  0.45594000000E+02  0.51100000000E-03 0.  1.
    9900012    2    1    2    0    0 -0.16217815340E+02  0.40908892643E+00 -0.93538176526E+01  0.72461580352E+02  0.70000013102E+02 0.  0.
         12    1    1    2    0    0  0.16217815340E+02 -0.40908892643E+00  0.93538176526E+01  0.18726419648E+02  0.00000000000E+00 0. -1.
         11    1    3    3    0    0  0.34251941812E+01 -0.61863393324E+01  0.18825232242E+02  0.20109503195E+02  0.51100000000E-03 0. -1.
        -11    1    3    3    0    0 -0.89688405618E+01  0.19717219844E+02 -0.27841060547E+01  0.21839416342E+02  0.51100000000E-03 0.  1.
        -12    1    3    3    0    0 -0.10674168959E+02 -0.13121791585E+02 -0.25394943840E+02  0.30512660815E+02  0.00000000000E+00 0.  1.
</event>
<event>
 7    1  0.3434711E-013  0.7246157E+02  0.7816164E-02  0.1226708E+00
        -11   -1    0    0    0    0  0.00000000000E+00  0.00000000000E+00  0.45593999997E+02  0.45594000000E+02  0.51100000000E-03 0.  1.
         11   -1    0    0    0    0 -0.00000000000E+00 -0.00000000000E+00 -0.45593999997E+02  0.45594000000E+02  0.51100000000E-03 0. -1.
    9900012    2    1    2    0    0  0.18168372539E+02 -0.28929858993E+01  0.34957292515E+01  0.72461568115E+02  0.69999997161E+02 0.  0.
         12    1    1    2    0    0 -0.18168372539E+02  0.28929858993E+01 -0.34957292515E+01  0.18726431885E+02  0.00000000000E+00 0. -1.
         11    1    3    3    0    0  0.26216641531E+02 -0.70627266776E+01 -0.16598252557E+02  0.31822890967E+02  0.51100000000E-03 0. -1.
        -11    1    3    3    0    0  0.18666109690E+01 -0.13835408767E+02  0.12459508955E+02  0.18712085290E+02  0.51100000000E-03 0.  1.
        -12    1    3    3    0    0 -0.99148799602E+01  0.18005149545E+02  0.76344728534E+01  0.21926591858E+02  0.00000000000E+00 0.  1.
</event>
<event>
 7    1  0.3434711E-013  0.7246158E+02  0.7816164E-02  0.1226708E+00
        -11   -1    0    0    0    0  0.00000000000E+00  0.00000000000E+00  0.45593999997E+02  0.45594000000E+02  0.51100000000E-03 0. -1.
         11   -1    0    0    0    0 -0.00000000000E+00 -0.00000000000E+00 -0.45593999997E+02  0.45594000000E+02  0.51100000000E-03 0.  1.
    9900012    2    1    2    0    0  0.22209963853E+01 -0.18401066713E+02  0.26733207944E+01  0.72461582158E+02  0.70000015454E+02 0.  0.
         12    1    1    2    0    0 -0.22209963853E+01  0.18401066713E+02 -0.26733207944E+01  0.18726417842E+02  0.00000000000E+00 0. -1.
         11    1    3    3    0    0 -0.28387194029E+02 -0.66020642722E+01  0.70305679981E+01  0.29980809264E+02  0.51100000000E-03 0. -1.
        -11    1    3    3    0    0 -0.99850955613E+00 -0.59021007853E+01 -0.81431362895E+01  0.10106556481E+02  0.51100000000E-03 0.  1.
        -12    1    3    3    0    0  0.31606699970E+02 -0.58969016559E+01  0.37858890859E+01  0.32374216413E+02  0.00000000000E+00 0.  1.
</event>
<event>
 7    1  0.3434711E-013  0.7246116E+02  0.7816164E-02  0.1226709E+00
        -11   -1    0    0    0    0  0.00000000000E+00  0.00000000000E+00  0.45593999997E+02  0.45594000000E+02  0.51100000000E-03 0.  1.
         11   -1    0    0    0    0 -0.00000000000E+00 -0.00000000000E+00 -0.45593999997E+02  0.45594000000E+02  0.51100000000E-03 0. -1.
    9900012    2    1    2    0    0 -0.56841921176E+01 -0.15765770465E+02  0.83561410654E+01  0.72461156916E+02  0.69999461495E+02 0.  0.
         12    1    1    2    0    0  0.56841921176E+01  0.15765770465E+02 -0.83561410654E+01  0.18726843084E+02  0.00000000000E+00 0. -1.
         11    1    3    3    0    0  0.87528534449E+01  0.63078584740E+01  0.63515991437E+01  0.12519757741E+02  0.51100000000E-03 0. -1.
        -11    1    3    3    0    0  0.12634887398E+02 -0.11971275676E+02  0.19518992813E+02  0.26152302032E+02  0.51100000000E-03 0.  1.
         12    1    3    3    0    0 -0.27071932961E+02 -0.10102353263E+02 -0.17514450891E+02  0.33789097142E+02  0.00000000000E+00 0. -1.
</event>
<event>
 7    1  0.3434711E-013  0.7246158E+02  0.7816164E-02  0.1226708E+00
        -11   -1    0    0    0    0  0.00000000000E+00  0.00000000000E+00  0.45593999997E+02  0.45594000000E+02  0.51100000000E-03 0. -1.
         11   -1    0    0    0    0 -0.00000000000E+00 -0.00000000000E+00 -0.45593999997E+02  0.45594000000E+02  0.51100000000E-03 0.  1.
    9900012    2    1    2    0    0 -0.37566150949E+01  0.12093487140E+02 -0.13795442142E+02  0.72461579838E+02  0.70000012433E+02 0.  0.
         12    1    1    2    0    0  0.37566150949E+01 -0.12093487140E+02  0.13795442142E+02  0.18726420162E+02  0.00000000000E+00 0. -1.
         11    1    3    3    0    0 -0.51849028332E+01 -0.23391608633E+02  0.37172431088E+01  0.24245999019E+02  0.51100000000E-03 0. -1.
        -11    1    3    3    0    0 -0.78506439366E+01 -0.38650453712E+00 -0.26756477391E+01  0.83030769635E+01  0.51100000000E-03 0.  1.
        -12    1    3    3    0    0  0.92789316749E+01  0.35871600311E+02 -0.14837037512E+02  0.39912503855E+02  0.00000000000E+00 0.  1.
</event>
<event>
 7    1  0.3434711E-013  0.7246162E+02  0.7816164E-02  0.1226708E+00
        -11   -1    0    0    0    0  0.00000000000E+00  0.00000000000E+00  0.45593999997E+02  0.45594000000E+02  0.51100000000E-03 0. -1.
         11   -1    0    0    0    0 -0.00000000000E+00 -0.00000000000E+00 -0.45593999997E+02  0.45594000000E+02  0.51100000000E-03 0.  1.
    9900012    2    1    2    0    0 -0.14448510546E+02 -0.11660654456E+02 -0.24386655915E+01  0.72461617295E+02  0.70000061228E+02 0.  0.
         12    1    1    2    0    0  0.14448510546E+02  0.11660654456E+02  0.24386655915E+01  0.18726382705E+02  0.00000000000E+00 0. -1.
         11    1    3    3    0    0  0.82657288226E+01  0.17846646928E+02  0.15143003277E+02  0.24822079447E+02  0.51100000000E-03 0. -1.
        -11    1    3    3    0    0 -0.12297582929E+02 -0.65852538659E+01  0.39631889430E+01  0.14501826824E+02  0.51100000000E-03 0.  1.
         12    1    3    3    0    0 -0.10416656439E+02 -0.22922047518E+02 -0.21544857812E+02  0.33137711024E+02  0.00000000000E+00 0. -1.
</event>
<event>
 7    1  0.4468714E-013  0.7246160E+02  0.7816164E-02  0.1226708E+00
        -11   -1    0    0    0    0  0.00000000000E+00  0.00000000000E+00  0.45593999997E+02  0.45594000000E+02  0.51100000000E-03 0.  1.
         11   -1    0    0    0    0 -0.00000000000E+00 -0.00000000000E+00 -0.45593999997E+02  0.45594000000E+02  0.51100000000E-03 0. -1.
    9900012    2    1    2    0    0 -0.86576001259E+01  0.35515712858E+01 -0.16220681869E+02  0.72461595678E+02  0.70000033067E+02 0.  0.
         12    1    1    2    0    0  0.86576001259E+01 -0.35515712858E+01  0.16220681869E+02  0.18726404322E+02  0.00000000000E+00 0. -1.
         11    1    3    3    0    0  0.28065584824E+01  0.19476096303E+01  0.12956845483E+02  0.13399619358E+02  0.51100000000E-03 0. -1.
        -11    1    3    3    0    0 -0.17902198667E+02  0.21927123717E+02 -0.24028963116E+02  0.37130560733E+02  0.51100000000E-03 0.  1.
         12    1    3    3    0    0  0.64380400582E+01 -0.20323162062E+02 -0.51485642364E+01  0.21931415588E+02  0.00000000000E+00 0. -1.
</event>
<event>
 7    1  0.3434711E-013  0.7246163E+02  0.7816164E-02  0.1226708E+00
        -11   -1    0    0    0    0  0.00000000000E+00  0.00000000000E+00  0.45593999997E+02  0.45594000000E+02  0.51100000000E-03 0.  1.
         11   -1    0    0    0    0 -0.00000000000E+00 -0.00000000000E+00 -0.45593999997E+02  0.45594000000E+02  0.51100000000E-03 0. -1.
    9900012    2    1    2    0    0  0.18021485669E+01  0.11435876059E+02  0.14719032239E+02  0.72461630604E+02  0.70000078565E+02 0.  0.
         12    1    1    2    0    0 -0.18021485669E+01 -0.11435876059E+02 -0.14719032239E+02  0.18726369396E+02  0.00000000000E+00 0. -1.
         11    1    3    3    0    0 -0.21831499889E+01  0.72098890155E+01 -0.89409117236E+01  0.11691387694E+02  0.51100000000E-03 0. -1.
        -11    1    3    3    0    0 -0.21576619665E+02  0.34155803243E+01  0.27271088123E+02  0.34941793784E+02  0.51100000000E-03 0.  1.
         12    1    3    3    0    0  0.25561918221E+02  0.81040671900E+00 -0.36111441608E+01  0.25828449127E+02  0.00000000000E+00 0. -1.
</event>
<event>
 7    1  0.3434711E-013  0.7246157E+02  0.7816164E-02  0.1226708E+00
        -11   -1    0    0    0    0  0.00000000000E+00  0.00000000000E+00  0.45593999997E+02  0.45594000000E+02  0.51100000000E-03 0.  1.
         11   -1    0    0    0    0 -0.00000000000E+00 -0.00000000000E+00 -0.45593999997E+02  0.45594000000E+02  0.51100000000E-03 0. -1.
    9900012    2    1    2    0    0 -0.13743015106E+02  0.12284485501E+02 -0.33015321599E+01  0.72461570473E+02  0.70000000233E+02 0.  0.
         12    1    1    2    0    0  0.13743015106E+02 -0.12284485501E+02  0.33015321599E+01  0.18726429527E+02  0.00000000000E+00 0. -1.
         11    1    3    3    0    0  0.90183092329E+01 -0.11607426907E+02 -0.11992543932E+02  0.18970592269E+02  0.51100000000E-03 0. -1.
        -11    1    3    3    0    0  0.65037387393E+01  0.13438544275E+00 -0.95974505127E+01  0.11594297462E+02  0.51100000000E-03 0.  1.
         12    1    3    3    0    0 -0.29265063078E+02  0.23757526966E+02  0.18288462284E+02  0.41896680742E+02  0.00000000000E+00 0. -1.
</event>
<event>
 7    1  0.3434711E-013  0.7246158E+02  0.7816164E-02  0.1226708E+00
        -11   -1    0    0    0    0  0.00000000000E+00  0.00000000000E+00  0.45593999997E+02  0.45594000000E+02  0.51100000000E-03 0. -1.
         11   -1    0    0    0    0 -0.00000000000E+00 -0.00000000000E+00 -0.45593999997E+02  0.45594000000E+02  0.51100000000E-03 0.  1.
    9900012    2    1    2    0    0  0.17248720347E+02 -0.10017136430E+01 -0.72219733891E+01  0.72461583272E+02  0.70000016906E+02 0.  0.
         12    1    1    2    0    0 -0.17248720347E+02  0.10017136430E+01  0.72219733891E+01  0.18726416728E+02  0.00000000000E+00 0. -1.
         11    1    3    3    0    0  0.27973418933E+02  0.15675633893E+02  0.18568878823E+02  0.37054566868E+02  0.51100000000E-03 0. -1.
        -11    1    3    3    0    0 -0.62065282157E+01 -0.45019995568E+00 -0.25996038609E+01  0.67440057078E+01  0.51100000000E-03 0.  1.
        -12    1    3    3    0    0 -0.45181703701E+01 -0.16227147580E+02 -0.23191248352E+02  0.28663010697E+02  0.00000000000E+00 0.  1.
</event>
<event>
 7    1  0.3434711E-013  0.7246157E+02  0.7816164E-02  0.1226708E+00
        -11   -1    0    0    0    0  0.00000000000E+00  0.00000000000E+00  0.45593999997E+02  0.45594000000E+02  0.51100000000E-03 0.  1.
         11   -1    0    0    0    0 -0.00000000000E+00 -0.00000000000E+00 -0.45593999997E+02  0.45594000000E+02  0.51100000000E-03 0. -1.
    9900012    2    1    2    0    0 -0.12670538842E+02  0.11754203282E+02 -0.72093982991E+01  0.72461567527E+02  0.69999996395E+02 0.  0.
         12    1    1    2    0    0  0.12670538842E+02 -0.11754203282E+02  0.72093982991E+01  0.18726432473E+02  0.00000000000E+00 0. -1.
         11    1    3    3    0    0  0.19775592807E+02  0.22959986811E+01  0.79433490888E+00  0.19924272861E+02  0.51100000000E-03 0. -1.
        -11    1    3    3    0    0 -0.24908229194E+01  0.10741746926E+02 -0.17848208420E+02  0.20979701378E+02  0.51100000000E-03 0.  1.
        -12    1    3    3    0    0 -0.29955308729E+02 -0.12835423252E+01  0.98444752118E+01  0.31557593289E+02  0.00000000000E+00 0.  1.
</event>
<event>
 7    1  0.3434711E-013  0.7246088E+02  0.7816164E-02  0.1226710E+00
        -11   -1    0    0    0    0  0.00000000000E+00  0.00000000000E+00  0.45593999997E+02  0.45594000000E+02  0.51100000000E-03 0.  1.
         11   -1    0    0    0    0 -0.00000000000E+00 -0.00000000000E+00 -0.45593999997E+02  0.45594000000E+02  0.51100000000E-03 0. -1.
    9900012    2    1    2    0    0 -0.63956627523E+01  0.17461086548E+02  0.22161072022E+01  0.72460875912E+02  0.69999095432E+02 0.  0.
         12    1    1    2    0    0  0.63956627523E+01 -0.17461086548E+02 -0.22161072022E+01  0.18727124088E+02  0.00000000000E+00 0. -1.
         11    1    3    3    0    0 -0.11948658982E+02 -0.90039457190E+01 -0.85042467877E+01  0.17209407418E+02  0.51100000000E-03 0. -1.
        -11    1    3    3    0    0 -0.43214879392E+01  0.21346686343E+02 -0.15525054274E+02  0.26746655610E+02  0.51100000000E-03 0.  1.
        -12    1    3    3    0    0  0.98744841693E+01  0.51183459240E+01  0.26245408264E+02  0.28504812884E+02  0.00000000000E+00 0.  1.
</event>
<event>
 7    1  0.3434711E-013  0.7246168E+02  0.7816164E-02  0.1226708E+00
        -11   -1    0    0    0    0  0.00000000000E+00  0.00000000000E+00  0.45593999997E+02  0.45594000000E+02  0.51100000000E-03 0.  1.
         11   -1    0    0    0    0 -0.00000000000E+00 -0.00000000000E+00 -0.45593999997E+02  0.45594000000E+02  0.51100000000E-03 0. -1.
    9900012    2    1    2    0    0  0.10854152227E+02 -0.11870425085E+02  0.95893348607E+01  0.72461682814E+02  0.70000146578E+02 0.  0.
         12    1    1    2    0    0 -0.10854152227E+02  0.11870425085E+02 -0.95893348607E+01  0.18726317186E+02  0.00000000000E+00 0. -1.
         11    1    3    3    0    0  0.14006306130E+02 -0.69135531833E+01  0.56208332323E+01  0.16600228779E+02  0.51100000000E-03 0.  1.
        -11    1    3    3    0    0  0.22754232269E+02  0.73313952581E+00 -0.11130218145E+02  0.25341158930E+02  0.51100000000E-03 0. -1.
         12    1    3    3    0    0 -0.25906386171E+02 -0.56900114278E+01  0.15098719773E+02  0.30520295105E+02  0.00000000000E+00 0. -1.
</event>
<event>
 7    1  0.3434711E-013  0.7246146E+02  0.7816164E-02  0.1226708E+00
        -11   -1    0    0    0    0  0.00000000000E+00  0.00000000000E+00  0.45593999997E+02  0.45594000000E+02  0.51100000000E-03 0. -1.
         11   -1    0    0    0    0 -0.00000000000E+00 -0.00000000000E+00 -0.45593999997E+02  0.45594000000E+02  0.51100000000E-03 0.  1.
    9900012    2    1    2    0    0  0.12029795384E+02  0.11005738968E+02  0.92109224123E+01  0.72461458437E+02  0.69999854285E+02 0.  0.
         12    1    1    2    0    0 -0.12029795384E+02 -0.11005738968E+02 -0.92109224123E+01  0.18726541563E+02  0.00000000000E+00 0. -1.
         11    1    3    3    0    0 -0.31511453444E+01 -0.12209241666E+02 -0.20222015471E+02  0.23831181444E+02  0.51100000000E-03 0. -1.
        -11    1    3    3    0    0  0.40081468957E+01  0.13611703536E+02 -0.15982707126E+01  0.14279292147E+02  0.51100000000E-03 0.  1.
         12    1    3    3    0    0  0.11172793833E+02  0.96032770981E+01  0.31031208596E+02  0.34350984847E+02  0.00000000000E+00 0. -1.
</event>
<event>
 7    1  0.3434711E-013  0.7246154E+02  0.7816164E-02  0.1226708E+00
        -11   -1    0    0    0    0  0.00000000000E+00  0.00000000000E+00  0.45593999997E+02  0.45594000000E+02  0.51100000000E-03 0.  1.
         11   -1    0    0    0    0 -0.00000000000E+00 -0.00000000000E+00 -0.45593999997E+02  0.45594000000E+02  0.51100000000E-03 0. -1.
    9900012    2    1    2    0    0  0.16502040855E+02 -0.28622290395E+01  0.83767816579E+01  0.72461543357E+02  0.69999964909E+02 0.  0.
         12    1    1    2    0    0 -0.16502040855E+02  0.28622290395E+01 -0.83767816579E+01  0.18726456643E+02  0.00000000000E+00 0. -1.
         11    1    3    3    0    0  0.21091705707E+02 -0.13288220327E+02 -0.17743383961E+02  0.30598439890E+02  0.51100000000E-03 0. -1.
        -11    1    3    3    0    0 -0.12488644869E+02 -0.64352389563E+01  0.10140731729E+02  0.17326655515E+02  0.51100000000E-03 0.  1.
        -12    1    3    3    0    0  0.78989800168E+01  0.16861230244E+02  0.15979433890E+02  0.24536447951E+02  0.00000000000E+00 0.  1.
</event>
<event>
 7    1  0.3434711E-013  0.7246154E+02  0.7816164E-02  0.1226708E+00
        -11   -1    0    0    0    0  0.00000000000E+00  0.00000000000E+00  0.45593999997E+02  0.45594000000E+02  0.51100000000E-03 0.  1.
         11   -1    0    0    0    0 -0.00000000000E+00 -0.00000000000E+00 -0.45593999997E+02  0.45594000000E+02  0.51100000000E-03 0. -1.
    9900012    2    1    2    0    0  0.21616517685E+01 -0.53012609324E+01  0.17829868565E+02  0.72461539606E+02  0.69999960023E+02 0.  0.
         12    1    1    2    0    0 -0.21616517685E+01  0.53012609324E+01 -0.17829868565E+02  0.18726460394E+02  0.00000000000E+00 0. -1.
         11    1    3    3    0    0  0.57076418526E+01  0.35999851503E+01 -0.51300862291E+01  0.84767242245E+01  0.51100000000E-03 0. -1.
        -11    1    3    3    0    0 -0.21911777466E+02 -0.24703480935E+02  0.40864924219E+01  0.33272922663E+02  0.51100000000E-03 0.  1.
         12    1    3    3    0    0  0.18365787382E+02  0.15802234852E+02  0.18873462372E+02  0.30711892719E+02  0.00000000000E+00 0. -1.
</event>
<event>
 7    1  0.3434711E-013  0.7246152E+02  0.7816164E-02  0.1226708E+00
        -11   -1    0    0    0    0  0.00000000000E+00  0.00000000000E+00  0.45593999997E+02  0.45594000000E+02  0.51100000000E-03 0.  1.
         11   -1    0    0    0    0 -0.00000000000E+00 -0.00000000000E+00 -0.45593999997E+02  0.45594000000E+02  0.51100000000E-03 0. -1.
    9900012    2    1    2    0    0  0.60638757812E+01  0.67468946266E+01  0.16382604051E+02  0.72461524301E+02  0.69999940086E+02 0.  0.
         12    1    1    2    0    0 -0.60638757812E+01 -0.67468946266E+01 -0.16382604051E+02  0.18726475699E+02  0.00000000000E+00 0. -1.
         11    1    3    3    0    0 -0.84849359213E+01  0.21687425919E+01 -0.20907929825E+02  0.22668019584E+02  0.51100000000E-03 0. -1.
        -11    1    3    3    0    0 -0.52682869987E+00  0.13421259723E+02  0.78542885593E+01  0.15559486176E+02  0.51100000000E-03 0.  1.
        -12    1    3    3    0    0  0.15075640402E+02 -0.88431076881E+01  0.29436245317E+02  0.34234018542E+02  0.00000000000E+00 0.  1.
</event>
<event>
 7    1  0.3434711E-013  0.7246158E+02  0.7816164E-02  0.1226708E+00
        -11   -1    0    0    0    0  0.00000000000E+00  0.00000000000E+00  0.45593999997E+02  0.45594000000E+02  0.51100000000E-03 0.  1.
         11   -1    0    0    0    0 -0.00000000000E+00 -0.00000000000E+00 -0.45593999997E+02  0.45594000000E+02  0.51100000000E-03 0. -1.
    9900012    2    1    2    0    0  0.14918512447E+02  0.67551588191E+01  0.90821053682E+01  0.72461579567E+02  0.70000012079E+02 0.  0.
         12    1    1    2    0    0 -0.14918512447E+02 -0.67551588191E+01 -0.90821053682E+01  0.18726420433E+02  0.00000000000E+00 0. -1.
         11    1    3    3    0    0  0.78909893490E+01 -0.62840635436E+01  0.83960929406E+01  0.13124463587E+02  0.51100000000E-03 0. -1.
        -11    1    3    3    0    0 -0.17356908469E+02  0.19142535085E+02  0.15527171467E+02  0.30146176791E+02  0.51100000000E-03 0.  1.
         12    1    3    3    0    0  0.24384431568E+02 -0.61033127226E+01 -0.14841159039E+02  0.29190939188E+02  0.00000000000E+00 0. -1.
</event>
<event>
 7    1  0.3434711E-013  0.7246161E+02  0.7816164E-02  0.1226708E+00
        -11   -1    0    0    0    0  0.00000000000E+00  0.00000000000E+00  0.45593999997E+02  0.45594000000E+02  0.51100000000E-03 0.  1.
         11   -1    0    0    0    0 -0.00000000000E+00 -0.00000000000E+00 -0.45593999997E+02  0.45594000000E+02  0.51100000000E-03 0. -1.
    9900012    2    1    2    0    0  0.13779668180E+02  0.92076327904E+01  0.87188362418E+01  0.72461605201E+02  0.70000045472E+02 0.  0.
         12    1    1    2    0    0 -0.13779668180E+02 -0.92076327904E+01 -0.87188362418E+01  0.18726394799E+02  0.00000000000E+00 0. -1.
         11    1    3    3    0    0  0.24946153310E+01  0.43258271571E+01 -0.23432690424E+02  0.23958857798E+02  0.51100000000E-03 0. -1.
        -11    1    3    3    0    0 -0.92442232494E+01  0.96339489560E+01  0.52882857308E+01  0.14360870524E+02  0.51100000000E-03 0.  1.
        -12    1    3    3    0    0  0.20529276099E+02 -0.47521433227E+01  0.26863240935E+02  0.34141876879E+02  0.00000000000E+00 0.  1.
</event>
<event>
 7    1  0.3434711E-013  0.7246151E+02  0.7816164E-02  0.1226708E+00
        -11   -1    0    0    0    0  0.00000000000E+00  0.00000000000E+00  0.45593999997E+02  0.45594000000E+02  0.51100000000E-03 0. -1.
         11   -1    0    0    0    0 -0.00000000000E+00 -0.00000000000E+00 -0.45593999997E+02  0.45594000000E+02  0.51100000000E-03 0.  1.
    9900012    2    1    2    0    0 -0.66866750604E+01  0.17453011749E+02 -0.11671981468E+01  0.72461505561E+02  0.69999915673E+02 0.  0.
         12    1    1    2    0    0  0.66866750604E+01 -0.17453011749E+02  0.11671981468E+01  0.18726494439E+02  0.00000000000E+00 0. -1.
         11    1    3    3    0    0  0.23057116881E+01  0.28120539120E+01 -0.10498174188E+02  0.11110158195E+02  0.51100000000E-03 0. -1.
        -11    1    3    3    0    0 -0.22635937274E+02  0.14013718151E+02 -0.17071070962E+02  0.31625803022E+02  0.51100000000E-03 0.  1.
         12    1    3    3    0    0  0.13643550526E+02  0.62723968544E+00  0.26402047003E+02  0.29725544344E+02  0.00000000000E+00 0. -1.
</event>
<event>
 7    1  0.3434711E-013  0.7246159E+02  0.7816164E-02  0.1226708E+00
        -11   -1    0    0    0    0  0.00000000000E+00  0.00000000000E+00  0.45593999997E+02  0.45594000000E+02  0.51100000000E-03 0.  1.
         11   -1    0    0    0    0 -0.00000000000E+00 -0.00000000000E+00 -0.45593999997E+02  0.45594000000E+02  0.51100000000E-03 0. -1.
    9900012    2    1    2    0    0 -0.89057611539E+00  0.18577246532E+02 -0.21842779772E+01  0.72461593917E+02  0.70000030773E+02 0.  0.
         12    1    1    2    0    0  0.89057611539E+00 -0.18577246532E+02  0.21842779772E+01  0.18726406083E+02  0.00000000000E+00 0. -1.
         11    1    3    3    0    0 -0.47692514729E+01 -0.35591666229E+01 -0.15831293070E+02  0.16912813698E+02  0.51100000000E-03 0. -1.
        -11    1    3    3    0    0 -0.58613075788E+01 -0.12297440335E+02 -0.58171908761E+01  0.14812888823E+02  0.51100000000E-03 0.  1.
         12    1    3    3    0    0  0.97399829364E+01  0.34433853490E+02  0.19464205969E+02  0.40735891395E+02  0.00000000000E+00 0. -1.
</event>
<event>
 7    1  0.3434711E-013  0.7246155E+02  0.7816164E-02  0.1226708E+00
        -11   -1    0    0    0    0  0.00000000000E+00  0.00000000000E+00  0.45593999997E+02  0.45594000000E+02  0.51100000000E-03 0.  1.
         11   -1    0    0    0    0 -0.00000000000E+00 -0.00000000000E+00 -0.45593999997E+02  0.45594000000E+02  0.51100000000E-03 0. -1.
    9900012    2    1    2    0    0 -0.12934985708E+01  0.11162027365E+02  0.14980514425E+02  0.72461553303E+02  0.69999977866E+02 0.  0.
         12    1    1    2    0    0  0.12934985708E+01 -0.11162027365E+02 -0.14980514425E+02  0.18726446697E+02  0.00000000000E+00 0. -1.
         11    1    3    3    0    0 -0.17763701269E+02  0.20573787918E+01  0.60340667777E+01  0.18873045658E+02  0.51100000000E-03 0. -1.
        -11    1    3    3    0    0 -0.16314038223E+02 -0.50724974572E+01  0.37918122159E+01  0.17500168963E+02  0.51100000000E-03 0.  1.
        -12    1    3    3    0    0  0.32784240922E+02  0.14177146030E+02  0.51546354316E+01  0.36088338682E+02  0.00000000000E+00 0.  1.
</event>
<event>
 7    1  0.3434711E-013  0.7246152E+02  0.7816164E-02  0.1226708E+00
        -11   -1    0    0    0    0  0.00000000000E+00  0.00000000000E+00  0.45593999997E+02  0.45594000000E+02  0.51100000000E-03 0.  1.
         11   -1    0    0    0    0 -0.00000000000E+00 -0.00000000000E+00 -0.45593999997E+02  0.45594000000E+02  0.51100000000E-03 0. -1.
    9900012    2    1    2    0    0 -0.11375275286E+01  0.17437388490E+02  0.67323660218E+01  0.72461515053E+02  0.69999928038E+02 0.  0.
         12    1    1    2    0    0  0.11375275286E+01 -0.17437388490E+02 -0.67323660218E+01  0.18726484947E+02  0.00000000000E+00 0. -1.
         11    1    3    3    0    0  0.11142945295E+02  0.15779198620E+02 -0.50095736296E+01  0.19956055902E+02  0.51100000000E-03 0. -1.
        -11    1    3    3    0    0  0.15245994584E+02  0.14280212724E+02  0.44723261084E+01  0.21362736889E+02  0.51100000000E-03 0.  1.
         12    1    3    3    0    0 -0.27526467408E+02 -0.12622022854E+02  0.72696135430E+01  0.31142722263E+02  0.00000000000E+00 0. -1.
</event>
<event>
 7    1  0.3434711E-013  0.7246157E+02  0.7816164E-02  0.1226708E+00
        -11   -1    0    0    0    0  0.00000000000E+00  0.00000000000E+00  0.45593999997E+02  0.45594000000E+02  0.51100000000E-03 0.  1.
         11   -1    0    0    0    0 -0.00000000000E+00 -0.00000000000E+00 -0.45593999997E+02  0.45594000000E+02  0.51100000000E-03 0. -1.
    9900012    2    1    2    0    0  0.10507755643E+02  0.12476897159E+02  0.91974684362E+01  0.72461566356E+02  0.69999994870E+02 0.  0.
         12    1    1    2    0    0 -0.10507755643E+02 -0.12476897159E+02 -0.91974684362E+01  0.18726433644E+02  0.00000000000E+00 0. -1.
         11    1    3    3    0    0  0.27390469651E+02  0.17563940027E+02 -0.65772181619E+01  0.33196228942E+02  0.51100000000E-03 0. -1.
        -11    1    3    3    0    0 -0.75868364157E+01 -0.10327155301E+02 -0.66455363277E+01  0.14435143808E+02  0.51100000000E-03 0.  1.
        -12    1    3    3    0    0 -0.92958775920E+01  0.52401124329E+01  0.22420222926E+02  0.24830193607E+02  0.00000000000E+00 0.  1.
</event>
<event>
 7    1  0.3434711E-013  0.7246158E+02  0.7816164E-02  0.1226708E+00
        -11   -1    0    0    0    0  0.00000000000E+00  0.00000000000E+00  0.45593999997E+02  0.45594000000E+02  0.51100000000E-03 0.  1.
         11   -1    0    0    0    0 -0.00000000000E+00 -0.00000000000E+00 -0.45593999997E+02  0.45594000000E+02  0.51100000000E-03 0. -1.
    9900012    2    1    2    0    0  0.79502798221E+01  0.11455983338E+02  0.12499293834E+02  0.72461578830E+02  0.70000011119E+02 0.  0.
         12    1    1    2    0    0 -0.79502798221E+01 -0.11455983338E+02 -0.12499293834E+02  0.18726421170E+02  0.00000000000E+00 0. -1.
         11    1    3    3    0    0 -0.23515729760E+02  0.74206242391E+01  0.22981358122E+02  0.33707536719E+02  0.51100000000E-03 0. -1.
        -11    1    3    3    0    0  0.57926263310E+01  0.15559740484E+00 -0.11383495956E+02  0.12773515992E+02  0.51100000000E-03 0.  1.
        -12    1    3    3    0    0  0.25673383251E+02  0.38797616942E+01  0.90143166787E+00  0.25980526119E+02  0.00000000000E+00 0.  1.
</event>
<event>
 7    1  0.3434711E-013  0.7246157E+02  0.7816164E-02  0.1226708E+00
        -11   -1    0    0    0    0  0.00000000000E+00  0.00000000000E+00  0.45593999997E+02  0.45594000000E+02  0.51100000000E-03 0.  1.
         11   -1    0    0    0    0 -0.00000000000E+00 -0.00000000000E+00 -0.45593999997E+02  0.45594000000E+02  0.51100000000E-03 0. -1.
    9900012    2    1    2    0    0 -0.32295621137E+00  0.18363259146E+02  0.36559032649E+01  0.72461569057E+02  0.69999998388E+02 0.  0.
         12    1    1    2    0    0  0.32295621137E+00 -0.18363259146E+02 -0.36559032649E+01  0.18726430943E+02  0.00000000000E+00 0. -1.
         11    1    3    3    0    0 -0.14165235337E+02 -0.21482653433E+02 -0.36396050245E+00  0.25735010359E+02  0.51100000000E-03 0.  1.
        -11    1    3    3    0    0  0.10320239130E+02  0.11090550396E+02 -0.56744036155E+01  0.16177345284E+02  0.51100000000E-03 0. -1.
        -12    1    3    3    0    0  0.35220399952E+01  0.28755362184E+02  0.96942673828E+01  0.30549213413E+02  0.00000000000E+00 0.  1.
</event>
<event>
 7    1  0.3434711E-013  0.7246158E+02  0.7816164E-02  0.1226708E+00
        -11   -1    0    0    0    0  0.00000000000E+00  0.00000000000E+00  0.45593999997E+02  0.45594000000E+02  0.51100000000E-03 0.  1.
         11   -1    0    0    0    0 -0.00000000000E+00 -0.00000000000E+00 -0.45593999997E+02  0.45594000000E+02  0.51100000000E-03 0. -1.
    9900012    2    1    2    0    0  0.10515170226E+02 -0.21734856777E+01  0.15342298605E+02  0.72461575585E+02  0.70000006893E+02 0.  0.
         12    1    1    2    0    0 -0.10515170226E+02  0.21734856777E+01 -0.15342298605E+02  0.18726424415E+02  0.00000000000E+00 0. -1.
         11    1    3    3    0    0 -0.16860517332E+02  0.71161830026E+00  0.67207052041E+01  0.18164562313E+02  0.51100000000E-03 0. -1.
        -11    1    3    3    0    0 -0.12060552292E+02  0.43513972416E+01 -0.15971203393E+01  0.12920618143E+02  0.51100000000E-03 0.  1.
        -12    1    3    3    0    0  0.39436239851E+02 -0.72365012195E+01  0.10218713740E+02  0.41376395130E+02  0.00000000000E+00 0.  1.
</event>
<event>
 7    1  0.3434711E-013  0.7246165E+02  0.7816164E-02  0.1226708E+00
        -11   -1    0    0    0    0  0.00000000000E+00  0.00000000000E+00  0.45593999997E+02  0.45594000000E+02  0.51100000000E-03 0.  1.
         11   -1    0    0    0    0 -0.00000000000E+00 -0.00000000000E+00 -0.45593999997E+02  0.45594000000E+02  0.51100000000E-03 0. -1.
    9900012    2    1    2    0    0  0.90528190625E+01  0.16392753681E+02  0.14758861320E-01  0.72461651609E+02  0.70000105928E+02 0.  0.
         12    1    1    2    0    0 -0.90528190625E+01 -0.16392753681E+02 -0.14758861320E-01  0.18726348391E+02  0.00000000000E+00 0. -1.
         11    1    3    3    0    0 -0.88873417162E+00  0.39499693221E+01  0.36938291927E+00  0.40655319548E+01  0.51100000000E-03 0. -1.
        -11    1    3    3    0    0  0.37431624017E+02  0.11366147056E+01 -0.65915124426E+01  0.38024550044E+02  0.51100000000E-03 0.  1.
         12    1    3    3    0    0 -0.27490070783E+02  0.11306169653E+02  0.62368883847E+01  0.30371569610E+02  0.00000000000E+00 0. -1.
</event>
<event>
 7    1  0.3434711E-013  0.7246164E+02  0.7816164E-02  0.1226708E+00
        -11   -1    0    0    0    0  0.00000000000E+00  0.00000000000E+00  0.45593999997E+02  0.45594000000E+02  0.51100000000E-03 0.  1.
         11   -1    0    0    0    0 -0.00000000000E+00 -0.00000000000E+00 -0.45593999997E+02  0.45594000000E+02  0.51100000000E-03 0. -1.
    9900012    2    1    2    0    0 -0.13968467832E+02  0.12340542736E+02  0.18081750580E+01  0.72461639285E+02  0.70000089873E+02 0.  0.
         12    1    1    2    0    0  0.13968467832E+02 -0.12340542736E+02 -0.18081750580E+01  0.18726360715E+02  0.00000000000E+00 0. -1.
         11    1    3    3    0    0 -0.29003617094E+02  0.37806714925E+01  0.19154466781E+02  0.34962792786E+02  0.51100000000E-03 0.  1.
        -11    1    3    3    0    0 -0.12316370683E+01  0.15263391385E+02 -0.10747353178E+02  0.18708117143E+02  0.51100000000E-03 0. -1.
        -12    1    3    3    0    0  0.16266786330E+02 -0.67035201412E+01 -0.65989385443E+01  0.18790729356E+02  0.00000000000E+00 0.  1.
</event>
<event>
 7    1  0.3434711E-013  0.7246157E+02  0.7816164E-02  0.1226708E+00
        -11   -1    0    0    0    0  0.00000000000E+00  0.00000000000E+00  0.45593999997E+02  0.45594000000E+02  0.51100000000E-03 0.  1.
         11   -1    0    0    0    0 -0.00000000000E+00 -0.00000000000E+00 -0.45593999997E+02  0.45594000000E+02  0.51100000000E-03 0. -1.
    9900012    2    1    2    0    0 -0.96069143324E+01 -0.13939737584E+02  0.80043859435E+01  0.72461567312E+02  0.69999996115E+02 0.  0.
         12    1    1    2    0    0  0.96069143324E+01  0.13939737584E+02 -0.80043859435E+01  0.18726432688E+02  0.00000000000E+00 0. -1.
         11    1    3    3    0    0  0.34832094401E+01  0.40160349344E+01 -0.72580103466E+01  0.89966659964E+01  0.51100000000E-03 0. -1.
        -11    1    3    3    0    0 -0.10042609250E+02 -0.38838815223E+02  0.13327762707E+02  0.42272175571E+02  0.51100000000E-03 0.  1.
         12    1    3    3    0    0 -0.30475145229E+01  0.20883042705E+02  0.19346335835E+01  0.21192725744E+02  0.00000000000E+00 0. -1.
</event>
<event>
 7    1  0.3434711E-013  0.7246157E+02  0.7816164E-02  0.1226708E+00
        -11   -1    0    0    0    0  0.00000000000E+00  0.00000000000E+00  0.45593999997E+02  0.45594000000E+02  0.51100000000E-03 0.  1.
         11   -1    0    0    0    0 -0.00000000000E+00 -0.00000000000E+00 -0.45593999997E+02  0.45594000000E+02  0.51100000000E-03 0. -1.
    9900012    2    1    2    0    0 -0.89922796401E+00  0.12373177179E+02  0.14027657792E+02  0.72461566609E+02  0.69999995199E+02 0.  0.
         12    1    1    2    0    0  0.89922796401E+00 -0.12373177179E+02 -0.14027657792E+02  0.18726433391E+02  0.00000000000E+00 0. -1.
         11    1    3    3    0    0 -0.98285150136E+00  0.91405451168E+01 -0.56926067247E+01  0.10813016863E+02  0.51100000000E-03 0. -1.
        -11    1    3    3    0    0 -0.16129057569E+02 -0.16427573605E+02 -0.76425706006E+01  0.24257381521E+02  0.51100000000E-03 0.  1.
         12    1    3    3    0    0  0.16212681106E+02  0.19660205666E+02  0.27362835118E+02  0.37391168224E+02  0.00000000000E+00 0. -1.
</event>
<event>
 7    1  0.3434711E-013  0.7246158E+02  0.7816164E-02  0.1226708E+00
        -11   -1    0    0    0    0  0.00000000000E+00  0.00000000000E+00  0.45593999997E+02  0.45594000000E+02  0.51100000000E-03 0.  1.
         11   -1    0    0    0    0 -0.00000000000E+00 -0.00000000000E+00 -0.45593999997E+02  0.45594000000E+02  0.51100000000E-03 0. -1.
    9900012    2    1    2    0    0  0.33141750672E+01  0.16137572675E+02  0.89035860612E+01  0.72461578746E+02  0.70000011010E+02 0.  0.
         12    1    1    2    0    0 -0.33141750672E+01 -0.16137572675E+02 -0.89035860612E+01  0.18726421254E+02  0.00000000000E+00 0. -1.
         11    1    3    3    0    0 -0.56467957031E+00 -0.62592212789E+01 -0.52823186782E+01  0.82097262387E+01  0.51100000000E-03 0. -1.
        -11    1    3    3    0    0  0.20826641179E+02 -0.11508175241E+02  0.43603415129E-01  0.23794725922E+02  0.51100000000E-03 0.  1.
        -12    1    3    3    0    0 -0.16947786541E+02  0.33904969196E+02  0.14142301324E+02  0.40457126585E+02  0.00000000000E+00 0.  1.
</event>
<event>
 7    1  0.3434711E-013  0.7246163E+02  0.7816164E-02  0.1226708E+00
        -11   -1    0    0    0    0  0.00000000000E+00  0.00000000000E+00  0.45593999997E+02  0.45594000000E+02  0.51100000000E-03 0.  1.
         11   -1    0    0    0    0 -0.00000000000E+00 -0.00000000000E+00 -0.45593999997E+02  0.45594000000E+02  0.51100000000E-03 0. -1.
    9900012    2    1    2    0    0  0.28053011289E+01  0.14883325152E+02  0.11013354776E+02  0.72461626474E+02  0.70000073184E+02 0.  0.
         12    1    1    2    0    0 -0.28053011289E+01 -0.14883325152E+02 -0.11013354776E+02  0.18726373526E+02  0.00000000000E+00 0. -1.
         11    1    3    3    0    0 -0.78367949439E+01 -0.72610790390E+01  0.67844036928E+01  0.12655700594E+02  0.51100000000E-03 0. -1.
        -11    1    3    3    0    0 -0.12604140744E+02 -0.10931857764E+02 -0.66164105134E+01  0.17948447465E+02  0.51100000000E-03 0.  1.
        -12    1    3    3    0    0  0.23246236817E+02  0.33076261955E+02  0.10845361597E+02  0.41857478415E+02  0.00000000000E+00 0.  1.
</event>
<event>
 7    1  0.3434711E-013  0.7246155E+02  0.7816164E-02  0.1226708E+00
        -11   -1    0    0    0    0  0.00000000000E+00  0.00000000000E+00  0.45593999997E+02  0.45594000000E+02  0.51100000000E-03 0.  1.
         11   -1    0    0    0    0 -0.00000000000E+00 -0.00000000000E+00 -0.45593999997E+02  0.45594000000E+02  0.51100000000E-03 0. -1.
    9900012    2    1    2    0    0 -0.17716325701E+02 -0.25907336760E+01 -0.54863184105E+01  0.72461553807E+02  0.69999978522E+02 0.  0.
         12    1    1    2    0    0  0.17716325701E+02  0.25907336760E+01  0.54863184105E+01  0.18726446193E+02  0.00000000000E+00 0. -1.
         11    1    3    3    0    0  0.13704564463E+02 -0.54204146981E+01 -0.42652114569E+01  0.15342360042E+02  0.51100000000E-03 0. -1.
        -11    1    3    3    0    0  0.11859933505E+01 -0.15742800584E+02  0.90713396205E+01  0.18208007943E+02  0.51100000000E-03 0.  1.
        -12    1    3    3    0    0 -0.32606883515E+02  0.18572481606E+02 -0.10292446574E+02  0.38911185822E+02  0.00000000000E+00 0.  1.
</event>
<event>
 7    1  0.3434711E-013  0.7246151E+02  0.7816164E-02  0.1226708E+00
        -11   -1    0    0    0    0  0.00000000000E+00  0.00000000000E+00  0.45593999997E+02  0.45594000000E+02  0.51100000000E-03 0.  1.
         11   -1    0    0    0    0 -0.00000000000E+00 -0.00000000000E+00 -0.45593999997E+02  0.45594000000E+02  0.51100000000E-03 0. -1.
    9900012    2    1    2    0    0  0.72247933963E+01 -0.92772817864E+01  0.14574491114E+02  0.72461511056E+02  0.69999922831E+02 0.  0.
         12    1    1    2    0    0 -0.72247933963E+01  0.92772817864E+01 -0.14574491114E+02  0.18726488944E+02  0.00000000000E+00 0. -1.
         11    1    3    3    0    0  0.89667439597E+01  0.61446935242E+01 -0.27200475772E+01  0.11205285129E+02  0.51100000000E-03 0. -1.
        -11    1    3    3    0    0  0.15734115696E+02 -0.30425922232E+02  0.35576838217E+01  0.34437715587E+02  0.51100000000E-03 0.  1.
         12    1    3    3    0    0 -0.17476066259E+02  0.15003946921E+02  0.13736854869E+02  0.26818510339E+02  0.00000000000E+00 0. -1.
</event>
<event>
 7    1  0.3434711E-013  0.7246159E+02  0.7816164E-02  0.1226708E+00
        -11   -1    0    0    0    0  0.00000000000E+00  0.00000000000E+00  0.45593999997E+02  0.45594000000E+02  0.51100000000E-03 0.  1.
         11   -1    0    0    0    0 -0.00000000000E+00 -0.00000000000E+00 -0.45593999997E+02  0.45594000000E+02  0.51100000000E-03 0. -1.
    9900012    2    1    2    0    0  0.11105433879E+02 -0.71906842530E+01 -0.13252999112E+02  0.72461585844E+02  0.70000020256E+02 0.  0.
         12    1    1    2    0    0 -0.11105433879E+02  0.71906842530E+01  0.13252999112E+02  0.18726414156E+02  0.00000000000E+00 0. -1.
         11    1    3    3    0    0  0.21297913024E+02 -0.17805340540E+02 -0.19449889691E+01  0.27828299144E+02  0.51100000000E-03 0. -1.
        -11    1    3    3    0    0  0.74102935486E+01  0.57379477332E+01  0.11869372221E+02  0.15123441799E+02  0.51100000000E-03 0.  1.
        -12    1    3    3    0    0 -0.17602772694E+02  0.48767085536E+01 -0.23177382364E+02  0.29509844901E+02  0.00000000000E+00 0.  1.
</event>
<event>
 7    1  0.3434711E-013  0.7246154E+02  0.7816164E-02  0.1226708E+00
        -11   -1    0    0    0    0  0.00000000000E+00  0.00000000000E+00  0.45593999997E+02  0.45594000000E+02  0.51100000000E-03 0.  1.
         11   -1    0    0    0    0 -0.00000000000E+00 -0.00000000000E+00 -0.45593999997E+02  0.45594000000E+02  0.51100000000E-03 0. -1.
    9900012    2    1    2    0    0 -0.13461133083E+02 -0.13013923950E+02 -0.34052949587E+00  0.72461540623E+02  0.69999961348E+02 0.  0.
         12    1    1    2    0    0  0.13461133083E+02  0.13013923950E+02  0.34052949587E+00  0.18726459377E+02  0.00000000000E+00 0. -1.
         11    1    3    3    0    0  0.48596241934E+01  0.60761135951E+01 -0.13053393287E+02  0.15196255470E+02  0.51100000000E-03 0. -1.
        -11    1    3    3    0    0  0.40219761094E+01 -0.39934484683E+01 -0.16537786425E+02  0.17482056589E+02  0.51100000000E-03 0.  1.
        -12    1    3    3    0    0 -0.22342733386E+02 -0.15096589077E+02  0.29250650216E+02  0.39783228564E+02  0.00000000000E+00 0.  1.
</event>
<event>
 7    1  0.3434711E-013  0.7246164E+02  0.7816164E-02  0.1226708E+00
        -11   -1    0    0    0    0  0.00000000000E+00  0.00000000000E+00  0.45593999997E+02  0.45594000000E+02  0.51100000000E-03 0. -1.
         11   -1    0    0    0    0 -0.00000000000E+00 -0.00000000000E+00 -0.45593999997E+02  0.45594000000E+02  0.51100000000E-03 0.  1.
    9900012    2    1    2    0    0  0.16684199295E+02 -0.13692313943E+01 -0.83928004849E+01  0.72461644223E+02  0.70000096306E+02 0.  0.
         12    1    1    2    0    0 -0.16684199295E+02  0.13692313943E+01  0.83928004849E+01  0.18726355777E+02  0.00000000000E+00 0. -1.
         11    1    3    3    0    0  0.16011281298E+02  0.14566674321E+02 -0.96224884823E+01  0.23688423637E+02  0.51100000000E-03 0. -1.
        -11    1    3    3    0    0 -0.15373007468E+02  0.98806620896E+01 -0.94337709717E+00  0.18298819704E+02  0.51100000000E-03 0.  1.
         12    1    3    3    0    0  0.16045925464E+02 -0.25816567804E+02  0.21730650946E+01  0.30474400882E+02  0.00000000000E+00 0. -1.
</event>
<event>
 7    1  0.3434711E-013  0.7246140E+02  0.7816164E-02  0.1226708E+00
        -11   -1    0    0    0    0  0.00000000000E+00  0.00000000000E+00  0.45593999997E+02  0.45594000000E+02  0.51100000000E-03 0.  1.
         11   -1    0    0    0    0 -0.00000000000E+00 -0.00000000000E+00 -0.45593999997E+02  0.45594000000E+02  0.51100000000E-03 0. -1.
    9900012    2    1    2    0    0  0.28260236405E+01 -0.18502127670E+02  0.60861827025E+00  0.72461399825E+02  0.69999777932E+02 0.  0.
         12    1    1    2    0    0 -0.28260236405E+01  0.18502127670E+02 -0.60861827025E+00  0.18726600175E+02  0.00000000000E+00 0. -1.
         11    1    3    3    0    0  0.21983054399E+02 -0.16799057495E+02 -0.19125248217E+02  0.33633883704E+02  0.51100000000E-03 0. -1.
        -11    1    3    3    0    0 -0.18914624383E+01 -0.11768300268E+02  0.19547106566E+01  0.12078551874E+02  0.51100000000E-03 0.  1.
        -12    1    3    3    0    0 -0.17265568320E+02  0.10065230094E+02  0.17779155830E+02  0.26748964247E+02  0.00000000000E+00 0.  1.
</event>
<event>
 7    1  0.3434711E-013  0.7246156E+02  0.7816164E-02  0.1226708E+00
        -11   -1    0    0    0    0  0.00000000000E+00  0.00000000000E+00  0.45593999997E+02  0.45594000000E+02  0.51100000000E-03 0. -1.
         11   -1    0    0    0    0 -0.00000000000E+00 -0.00000000000E+00 -0.45593999997E+02  0.45594000000E+02  0.51100000000E-03 0.  1.
    9900012    2    1    2    0    0  0.42159263413E+01 -0.17288686515E+02 -0.58315273449E+01  0.72461563406E+02  0.69999991027E+02 0.  0.
         12    1    1    2    0    0 -0.42159263413E+01  0.17288686515E+02  0.58315273449E+01  0.18726436594E+02  0.00000000000E+00 0. -1.
         11    1    3    3    0    0 -0.19095730139E+01  0.11967065901E+02  0.25315833703E+02  0.28066858957E+02  0.51100000000E-03 0. -1.
        -11    1    3    3    0    0  0.51166021440E+00 -0.10998250071E+02 -0.18360663450E+02  0.21408812750E+02  0.51100000000E-03 0.  1.
        -12    1    3    3    0    0  0.56138391408E+01 -0.18257502345E+02 -0.12786697598E+02  0.22985891700E+02  0.00000000000E+00 0.  1.
</event>
<event>
 7    1  0.3434711E-013  0.7246156E+02  0.7816164E-02  0.1226708E+00
        -11   -1    0    0    0    0  0.00000000000E+00  0.00000000000E+00  0.45593999997E+02  0.45594000000E+02  0.51100000000E-03 0.  1.
         11   -1    0    0    0    0 -0.00000000000E+00 -0.00000000000E+00 -0.45593999997E+02  0.45594000000E+02  0.51100000000E-03 0. -1.
    9900012    2    1    2    0    0  0.12836513473E+02 -0.10147585702E+02 -0.91065840840E+01  0.72461562875E+02  0.69999990335E+02 0.  0.
         12    1    1    2    0    0 -0.12836513473E+02  0.10147585702E+02  0.91065840840E+01  0.18726437125E+02  0.00000000000E+00 0. -1.
         11    1    3    3    0    0  0.54386821674E+00  0.17126892777E+02  0.49599708126E+00  0.17142702885E+02  0.51100000000E-03 0. -1.
        -11    1    3    3    0    0  0.58843924360E+01  0.12558632845E+02 -0.98320044877E-01  0.13869210518E+02  0.51100000000E-03 0.  1.
         12    1    3    3    0    0  0.64082528200E+01 -0.39833111324E+02 -0.95042611204E+01  0.41449649473E+02  0.00000000000E+00 0. -1.
</event>
<event>
 7    1  0.3434711E-013  0.7246157E+02  0.7816164E-02  0.1226708E+00
        -11   -1    0    0    0    0  0.00000000000E+00  0.00000000000E+00  0.45593999997E+02  0.45594000000E+02  0.51100000000E-03 0. -1.
         11   -1    0    0    0    0 -0.00000000000E+00 -0.00000000000E+00 -0.45593999997E+02  0.45594000000E+02  0.51100000000E-03 0.  1.
    9900012    2    1    2    0    0 -0.13099062908E+02 -0.54629562359E-01 -0.13382478461E+02  0.72461570463E+02  0.70000000220E+02 0.  0.
         12    1    1    2    0    0  0.13099062908E+02  0.54629562359E-01  0.13382478461E+02  0.18726429537E+02  0.00000000000E+00 0. -1.
         11    1    3    3    0    0 -0.61710677382E+01  0.21931888638E+02  0.32151214294E+01  0.23009276875E+02  0.51100000000E-03 0. -1.
        -11    1    3    3    0    0 -0.15763702139E+00 -0.10675844573E+02  0.13135833159E+02  0.16927747038E+02  0.51100000000E-03 0.  1.
        -12    1    3    3    0    0 -0.67703581482E+01 -0.11310673628E+02 -0.29733433049E+02  0.32524546549E+02  0.00000000000E+00 0.  1.
</event>
<event>
 7    1  0.3434711E-013  0.7246161E+02  0.7816164E-02  0.1226708E+00
        -11   -1    0    0    0    0  0.00000000000E+00  0.00000000000E+00  0.45593999997E+02  0.45594000000E+02  0.51100000000E-03 0. -1.
         11   -1    0    0    0    0 -0.00000000000E+00 -0.00000000000E+00 -0.45593999997E+02  0.45594000000E+02  0.51100000000E-03 0.  1.
    9900012    2    1    2    0    0 -0.16533183175E+02  0.16193808467E+01 -0.86434357985E+01  0.72461614267E+02  0.70000057282E+02 0.  0.
         12    1    1    2    0    0  0.16533183175E+02 -0.16193808467E+01  0.86434357985E+01  0.18726385733E+02  0.00000000000E+00 0. -1.
         11    1    3    3    0    0 -0.18119194487E+02 -0.23203974133E+02  0.52338569783E+01  0.29901887625E+02  0.51100000000E-03 0. -1.
        -11    1    3    3    0    0 -0.74165300649E+01 -0.40359644463E+01  0.16052586614E+01  0.85948113910E+01  0.51100000000E-03 0.  1.
        -12    1    3    3    0    0  0.90025413766E+01  0.28859319426E+02 -0.15482551438E+02  0.33964915251E+02  0.00000000000E+00 0.  1.
</event>
<event>
 7    1  0.3434711E-013  0.7246164E+02  0.7816164E-02  0.1226708E+00
        -11   -1    0    0    0    0  0.00000000000E+00  0.00000000000E+00  0.45593999997E+02  0.45594000000E+02  0.51100000000E-03 0.  1.
         11   -1    0    0    0    0 -0.00000000000E+00 -0.00000000000E+00 -0.45593999997E+02  0.45594000000E+02  0.51100000000E-03 0. -1.
    9900012    2    1    2    0    0 -0.53080963710E+00 -0.11980125964E+02  0.14383025960E+02  0.72461638561E+02  0.70000088929E+02 0.  0.
         12    1    1    2    0    0  0.53080963710E+00  0.11980125964E+02 -0.14383025960E+02  0.18726361439E+02  0.00000000000E+00 0. -1.
         11    1    3    3    0    0 -0.18364586827E+01  0.39672971186E+00  0.14419461978E+02  0.14541349970E+02  0.51100000000E-03 0. -1.
        -11    1    3    3    0    0 -0.27229514179E+02 -0.10734987254E+02 -0.14285589975E+01  0.29304047073E+02  0.51100000000E-03 0.  1.
         12    1    3    3    0    0  0.28535163225E+02 -0.16418684225E+01  0.13921229796E+01  0.28616241517E+02  0.00000000000E+00 0. -1.
</event>
<event>
 7    1  0.3434711E-013  0.7246158E+02  0.7816164E-02  0.1226708E+00
        -11   -1    0    0    0    0  0.00000000000E+00  0.00000000000E+00  0.45593999997E+02  0.45594000000E+02  0.51100000000E-03 0.  1.
         11   -1    0    0    0    0 -0.00000000000E+00 -0.00000000000E+00 -0.45593999997E+02  0.45594000000E+02  0.51100000000E-03 0. -1.
    9900012    2    1    2    0    0  0.47738244162E+01  0.15201370558E+02 -0.98390915152E+01  0.72461580475E+02  0.70000013262E+02 0.  0.
         12    1    1    2    0    0 -0.47738244162E+01 -0.15201370558E+02  0.98390915152E+01  0.18726419525E+02  0.00000000000E+00 0. -1.
         11    1    3    3    0    0 -0.74667180859E+01  0.18075283063E+02 -0.31991093465E+02  0.37495303682E+02  0.51100000000E-03 0. -1.
        -11    1    3    3    0    0  0.17471859253E+01  0.87668363780E+01  0.15370083358E+01  0.90704174999E+01  0.51100000000E-03 0.  1.
        -12    1    3    3    0    0  0.10493356577E+02 -0.11640748883E+02  0.20614993614E+02  0.25895859293E+02  0.00000000000E+00 0.  1.
</event>
<event>
 7    1  0.3434711E-013  0.7246172E+02  0.7816164E-02  0.1226708E+00
        -11   -1    0    0    0    0  0.00000000000E+00  0.00000000000E+00  0.45593999997E+02  0.45594000000E+02  0.51100000000E-03 0. -1.
         11   -1    0    0    0    0 -0.00000000000E+00 -0.00000000000E+00 -0.45593999997E+02  0.45594000000E+02  0.51100000000E-03 0.  1.
    9900012    2    1    2    0    0 -0.33939825509E+01  0.17463251237E+02  0.58471722064E+01  0.72461716756E+02  0.70000190793E+02 0.  0.
         12    1    1    2    0    0  0.33939825509E+01 -0.17463251237E+02 -0.58471722064E+01  0.18726283244E+02  0.00000000000E+00 0. -1.
         11    1    3    3    0    0 -0.53119119514E+01  0.15613776252E+02  0.51384453334E+01  0.17274548855E+02  0.51100000000E-03 0. -1.
        -11    1    3    3    0    0 -0.17379224741E+02  0.20425440904E+02 -0.61987686312E+01  0.27525639348E+02  0.51100000000E-03 0.  1.
         12    1    3    3    0    0  0.19297154141E+02 -0.18575965919E+02  0.69074955042E+01  0.27661528553E+02  0.00000000000E+00 0. -1.
</event>
<event>
 7    1  0.3434711E-013  0.7246158E+02  0.7816164E-02  0.1226708E+00
        -11   -1    0    0    0    0  0.00000000000E+00  0.00000000000E+00  0.45593999997E+02  0.45594000000E+02  0.51100000000E-03 0.  1.
         11   -1    0    0    0    0 -0.00000000000E+00 -0.00000000000E+00 -0.45593999997E+02  0.45594000000E+02  0.51100000000E-03 0. -1.
    9900012    2    1    2    0    0  0.17071598115E+02  0.52972488187E+00  0.76784558530E+01  0.72461581364E+02  0.70000014420E+02 0.  0.
         12    1    1    2    0    0 -0.17071598115E+02 -0.52972488187E+00 -0.76784558530E+01  0.18726418636E+02  0.00000000000E+00 0. -1.
         11    1    3    3    0    0  0.50625752610E+01 -0.16176324104E+02  0.91041563436E+01  0.19240290871E+02  0.51100000000E-03 0. -1.
        -11    1    3    3    0    0  0.16599551922E+02 -0.93154851465E+01  0.13063277989E+02  0.23086199766E+02  0.51100000000E-03 0.  1.
         12    1    3    3    0    0 -0.45905290682E+01  0.26021534133E+02 -0.14488978480E+02  0.30135090727E+02  0.00000000000E+00 0. -1.
</event>
<event>
 7    1  0.3434711E-013  0.7246148E+02  0.7816164E-02  0.1226708E+00
        -11   -1    0    0    0    0  0.00000000000E+00  0.00000000000E+00  0.45593999997E+02  0.45594000000E+02  0.51100000000E-03 0.  1.
         11   -1    0    0    0    0 -0.00000000000E+00 -0.00000000000E+00 -0.45593999997E+02  0.45594000000E+02  0.51100000000E-03 0. -1.
    9900012    2    1    2    0    0 -0.26702176612E+01 -0.17313328896E+02  0.66182293324E+01  0.72461484592E+02  0.69999888357E+02 0.  0.
         12    1    1    2    0    0  0.26702176612E+01  0.17313328896E+02 -0.66182293324E+01  0.18726515408E+02  0.00000000000E+00 0. -1.
         11    1    3    3    0    0 -0.40226680045E+01  0.81727030551E+01  0.31805344076E+01  0.96483538741E+01  0.51100000000E-03 0. -1.
        -11    1    3    3    0    0 -0.26493922153E+02 -0.18603495311E+02  0.89860787959E+01  0.33597136206E+02  0.51100000000E-03 0.  1.
         12    1    3    3    0    0  0.27846372496E+02 -0.68825366398E+01 -0.55483838712E+01  0.29215994513E+02  0.00000000000E+00 0. -1.
</event>
<event>
 7    1  0.3434711E-013  0.7246166E+02  0.7816164E-02  0.1226708E+00
        -11   -1    0    0    0    0  0.00000000000E+00  0.00000000000E+00  0.45593999997E+02  0.45594000000E+02  0.51100000000E-03 0.  1.
         11   -1    0    0    0    0 -0.00000000000E+00 -0.00000000000E+00 -0.45593999997E+02  0.45594000000E+02  0.51100000000E-03 0. -1.
    9900012    2    1    2    0    0 -0.10145418523E+02 -0.15442012921E+02  0.30480147821E+01  0.72461663621E+02  0.70000121576E+02 0.  0.
         12    1    1    2    0    0  0.10145418523E+02  0.15442012921E+02 -0.30480147821E+01  0.18726336379E+02  0.00000000000E+00 0. -1.
         11    1    3    3    0    0 -0.25442375433E+02  0.63341836139E+01 -0.39537817094E+01  0.26515443421E+02  0.51100000000E-03 0. -1.
        -11    1    3    3    0    0  0.97344025979E+01  0.86231185870E+01 -0.32170270391E+01  0.13396493248E+02  0.51100000000E-03 0.  1.
        -12    1    3    3    0    0  0.55625543123E+01 -0.30399315122E+02  0.10218823531E+02  0.32549726953E+02  0.00000000000E+00 0.  1.
</event>
<event>
 7    1  0.3434711E-013  0.7246154E+02  0.7816164E-02  0.1226708E+00
        -11   -1    0    0    0    0  0.00000000000E+00  0.00000000000E+00  0.45593999997E+02  0.45594000000E+02  0.51100000000E-03 0. -1.
         11   -1    0    0    0    0 -0.00000000000E+00 -0.00000000000E+00 -0.45593999997E+02  0.45594000000E+02  0.51100000000E-03 0.  1.
    9900012    2    1    2    0    0  0.15535959094E+02 -0.94909992608E+01  0.43858103852E+01  0.72461536782E+02  0.69999956344E+02 0.  0.
         12    1    1    2    0    0 -0.15535959094E+02  0.94909992608E+01 -0.43858103852E+01  0.18726463218E+02  0.00000000000E+00 0. -1.
         11    1    3    3    0    0  0.27847733378E+02  0.13770917030E+01  0.25041021060E+01  0.27993984416E+02  0.51100000000E-03 0. -1.
        -11    1    3    3    0    0 -0.34965882658E-01  0.74943616246E+01 -0.14932425307E+02  0.16707603197E+02  0.51100000000E-03 0.  1.
        -12    1    3    3    0    0 -0.12276808402E+02 -0.18362452588E+02  0.16814133586E+02  0.27759949169E+02  0.00000000000E+00 0.  1.
</event>
<event>
 7    1  0.3434711E-013  0.7246155E+02  0.7816164E-02  0.1226708E+00
        -11   -1    0    0    0    0  0.00000000000E+00  0.00000000000E+00  0.45593999997E+02  0.45594000000E+02  0.51100000000E-03 0. -1.
         11   -1    0    0    0    0 -0.00000000000E+00 -0.00000000000E+00 -0.45593999997E+02  0.45594000000E+02  0.51100000000E-03 0.  1.
    9900012    2    1    2    0    0 -0.75916582086E+01  0.80530154385E+01 -0.15106140224E+02  0.72461553341E+02  0.69999977915E+02 0.  0.
         12    1    1    2    0    0  0.75916582086E+01 -0.80530154385E+01  0.15106140224E+02  0.18726446659E+02  0.00000000000E+00 0. -1.
         11    1    3    3    0    0 -0.26901756186E+01 -0.22616006061E+01 -0.25770983484E+02  0.26009526566E+02  0.51100000000E-03 0. -1.
        -11    1    3    3    0    0 -0.10788892915E+02  0.55310981899E+01 -0.15231382484E+02  0.19467621071E+02  0.51100000000E-03 0.  1.
         12    1    3    3    0    0  0.58874103246E+01  0.47835178547E+01  0.25896225745E+02  0.26984405705E+02  0.00000000000E+00 0. -1.
</event>
<event>
 7    1  0.5631397E-013  0.7246163E+02  0.7816164E-02  0.1226708E+00
        -11   -1    0    0    0    0  0.00000000000E+00  0.00000000000E+00  0.45593999997E+02  0.45594000000E+02  0.51100000000E-03 0. -1.
         11   -1    0    0    0    0 -0.00000000000E+00 -0.00000000000E+00 -0.45593999997E+02  0.45594000000E+02  0.51100000000E-03 0.  1.
    9900012    2    1    2    0    0  0.13725423678E+01  0.61067341908E+01 -0.17649382290E+02  0.72461634356E+02  0.70000083452E+02 0.  0.
         12    1    1    2    0    0 -0.13725423678E+01 -0.61067341908E+01  0.17649382290E+02  0.18726365644E+02  0.00000000000E+00 0. -1.
         11    1    3    3    0    0 -0.73631327046E+01  0.75849173113E+01 -0.19482269210E+02  0.22165412418E+02  0.51100000000E-03 0.  1.
        -11    1    3    3    0    0 -0.37815904706E+01 -0.18907208071E+02 -0.13830860906E+02  0.23729215268E+02  0.51100000000E-03 0. -1.
         12    1    3    3    0    0  0.12517265543E+02  0.17429024951E+02  0.15663747827E+02  0.26567006670E+02  0.00000000000E+00 0. -1.
</event>
<event>
 7    1  0.3434711E-013  0.7246145E+02  0.7816164E-02  0.1226708E+00
        -11   -1    0    0    0    0  0.00000000000E+00  0.00000000000E+00  0.45593999997E+02  0.45594000000E+02  0.51100000000E-03 0.  1.
         11   -1    0    0    0    0 -0.00000000000E+00 -0.00000000000E+00 -0.45593999997E+02  0.45594000000E+02  0.51100000000E-03 0. -1.
    9900012    2    1    2    0    0 -0.11146036252E+02 -0.11430713614E+02  0.97871550338E+01  0.72461448222E+02  0.69999840977E+02 0.  0.
         12    1    1    2    0    0  0.11146036252E+02  0.11430713614E+02 -0.97871550338E+01  0.18726551778E+02  0.00000000000E+00 0. -1.
         11    1    3    3    0    0 -0.72293649459E+01 -0.12587278007E+02  0.70182349590E+01  0.16123241217E+02  0.51100000000E-03 0. -1.
        -11    1    3    3    0    0  0.87761986950E+01 -0.51533780608E+01  0.26672275115E+02  0.28548016202E+02  0.51100000000E-03 0.  1.
         12    1    3    3    0    0 -0.12692870001E+02  0.63099424538E+01 -0.23903355041E+02  0.27790190802E+02  0.00000000000E+00 0. -1.
</event>
<event>
 7    1  0.3434711E-013  0.7246163E+02  0.7816164E-02  0.1226708E+00
        -11   -1    0    0    0    0  0.00000000000E+00  0.00000000000E+00  0.45593999997E+02  0.45594000000E+02  0.51100000000E-03 0. -1.
         11   -1    0    0    0    0 -0.00000000000E+00 -0.00000000000E+00 -0.45593999997E+02  0.45594000000E+02  0.51100000000E-03 0.  1.
    9900012    2    1    2    0    0  0.80642771936E+01 -0.14705830232E+02 -0.83296444509E+01  0.72461628591E+02  0.70000075942E+02 0.  0.
         12    1    1    2    0    0 -0.80642771936E+01  0.14705830232E+02  0.83296444509E+01  0.18726371409E+02  0.00000000000E+00 0. -1.
         11    1    3    3    0    0 -0.27624458353E+02 -0.22871106182E+01 -0.64136502283E+00  0.27726393989E+02  0.51100000000E-03 0. -1.
        -11    1    3    3    0    0  0.62033912004E+01  0.64104297894E+01 -0.31360185430E+01  0.94557011921E+01  0.51100000000E-03 0.  1.
        -12    1    3    3    0    0  0.29485344346E+02 -0.18829149403E+02 -0.45522608850E+01  0.35279533410E+02  0.00000000000E+00 0.  1.
</event>
<event>
 7    1  0.3434711E-013  0.7246157E+02  0.7816164E-02  0.1226708E+00
        -11   -1    0    0    0    0  0.00000000000E+00  0.00000000000E+00  0.45593999997E+02  0.45594000000E+02  0.51100000000E-03 0. -1.
         11   -1    0    0    0    0 -0.00000000000E+00 -0.00000000000E+00 -0.45593999997E+02  0.45594000000E+02  0.51100000000E-03 0.  1.
    9900012    2    1    2    0    0  0.12435591214E+02 -0.13409010229E+02 -0.40291101779E+01  0.72461569134E+02  0.69999998488E+02 0.  0.
         12    1    1    2    0    0 -0.12435591214E+02  0.13409010229E+02  0.40291101779E+01  0.18726430866E+02  0.00000000000E+00 0. -1.
         11    1    3    3    0    0 -0.23299379159E+02  0.41050639292E+01 -0.33110178942E+01  0.23888814512E+02  0.51100000000E-03 0. -1.
        -11    1    3    3    0    0  0.68319771672E+01 -0.14271179989E+02 -0.91671360665E+01  0.18286029482E+02  0.51100000000E-03 0.  1.
        -12    1    3    3    0    0  0.28902993206E+02 -0.32428941691E+01  0.84490437828E+01  0.30286725140E+02  0.00000000000E+00 0.  1.
</event>
<event>
 7    1  0.3434711E-013  0.7246161E+02  0.7816164E-02  0.1226708E+00
        -11   -1    0    0    0    0  0.00000000000E+00  0.00000000000E+00  0.45593999997E+02  0.45594000000E+02  0.51100000000E-03 0. -1.
         11   -1    0    0    0    0 -0.00000000000E+00 -0.00000000000E+00 -0.45593999997E+02  0.45594000000E+02  0.51100000000E-03 0.  1.
    9900012    2    1    2    0    0  0.12667592619E+02  0.39088553486E+01 -0.13226137638E+02  0.72461607669E+02  0.70000048688E+02 0.  0.
         12    1    1    2    0    0 -0.12667592619E+02 -0.39088553486E+01  0.13226137638E+02  0.18726392331E+02  0.00000000000E+00 0. -1.
         11    1    3    3    0    0 -0.47619492040E+01 -0.10370838522E+02 -0.22421719047E+00  0.11414058238E+02  0.51100000000E-03 0. -1.
        -11    1    3    3    0    0 -0.11838324961E+02  0.16134922237E+02 -0.22603273197E+02  0.30189230082E+02  0.51100000000E-03 0.  1.
        -12    1    3    3    0    0  0.29267866784E+02 -0.18552283667E+01  0.96013527499E+01  0.30858319349E+02  0.00000000000E+00 0.  1.
</event>
<event>
 7    1  0.3434711E-013  0.7246160E+02  0.7816164E-02  0.1226708E+00
        -11   -1    0    0    0    0  0.00000000000E+00  0.00000000000E+00  0.45593999997E+02  0.45594000000E+02  0.51100000000E-03 0. -1.
         11   -1    0    0    0    0 -0.00000000000E+00 -0.00000000000E+00 -0.45593999997E+02  0.45594000000E+02  0.51100000000E-03 0.  1.
    9900012    2    1    2    0    0 -0.10163773000E+02 -0.42413390894E+01 -0.15145520186E+02  0.72461600972E+02  0.70000039964E+02 0.  0.
         12    1    1    2    0    0  0.10163773000E+02  0.42413390894E+01  0.15145520186E+02  0.18726399028E+02  0.00000000000E+00 0. -1.
         11    1    3    3    0    0 -0.77529699819E+01  0.25086390668E+02 -0.15620389260E+02  0.30552121058E+02  0.51100000000E-03 0.  1.
        -11    1    3    3    0    0 -0.11258254817E+02 -0.16120715397E+01  0.50758309268E+01  0.12454362129E+02  0.51100000000E-03 0. -1.
        -12    1    3    3    0    0  0.88474517995E+01 -0.27715658217E+02 -0.46009618525E+01  0.29455117785E+02  0.00000000000E+00 0.  1.
</event>
<event>
 7    1  0.3434711E-013  0.7246154E+02  0.7816164E-02  0.1226708E+00
        -11   -1    0    0    0    0  0.00000000000E+00  0.00000000000E+00  0.45593999997E+02  0.45594000000E+02  0.51100000000E-03 0. -1.
         11   -1    0    0    0    0 -0.00000000000E+00 -0.00000000000E+00 -0.45593999997E+02  0.45594000000E+02  0.51100000000E-03 0.  1.
    9900012    2    1    2    0    0 -0.15972264874E+01  0.16708172108E+02 -0.83045779948E+01  0.72461543760E+02  0.69999965434E+02 0.  0.
         12    1    1    2    0    0  0.15972264874E+01 -0.16708172108E+02  0.83045779948E+01  0.18726456240E+02  0.00000000000E+00 0. -1.
         11    1    3    3    0    0  0.14690587073E+02  0.23863182162E+02  0.38865834640E+01  0.28290817286E+02  0.51100000000E-03 0. -1.
        -11    1    3    3    0    0 -0.54836639783E+01 -0.95514118804E+01  0.12771755494E+02  0.16864690279E+02  0.51100000000E-03 0.  1.
        -12    1    3    3    0    0 -0.10804149582E+02  0.23964018265E+01 -0.24962916953E+02  0.27306036195E+02  0.00000000000E+00 0.  1.
</event>
<event>
 7    1  0.3434711E-013  0.7246159E+02  0.7816164E-02  0.1226708E+00
        -11   -1    0    0    0    0  0.00000000000E+00  0.00000000000E+00  0.45593999997E+02  0.45594000000E+02  0.51100000000E-03 0. -1.
         11   -1    0    0    0    0 -0.00000000000E+00 -0.00000000000E+00 -0.45593999997E+02  0.45594000000E+02  0.51100000000E-03 0.  1.
    9900012    2    1    2    0    0  0.15486825667E+02 -0.10472872707E+02 -0.10749067535E+01  0.72461594672E+02  0.70000031756E+02 0.  0.
         12    1    1    2    0    0 -0.15486825667E+02  0.10472872707E+02  0.10749067535E+01  0.18726405328E+02  0.00000000000E+00 0. -1.
         11    1    3    3    0    0  0.85526007492E+00  0.33272695074E+01 -0.14614917215E+02  0.15013260727E+02  0.51100000000E-03 0. -1.
        -11    1    3    3    0    0  0.21148667237E+02 -0.17432580357E+02 -0.12672069093E+02  0.30195071107E+02  0.51100000000E-03 0.  1.
         12    1    3    3    0    0 -0.65171016445E+01  0.36324381428E+01  0.26212079555E+02  0.27253262838E+02  0.00000000000E+00 0. -1.
</event>
<event>
 7    1  0.3434711E-013  0.7246155E+02  0.7816164E-02  0.1226708E+00
        -11   -1    0    0    0    0  0.00000000000E+00  0.00000000000E+00  0.45593999997E+02  0.45594000000E+02  0.51100000000E-03 0. -1.
         11   -1    0    0    0    0 -0.00000000000E+00 -0.00000000000E+00 -0.45593999997E+02  0.45594000000E+02  0.51100000000E-03 0.  1.
    9900012    2    1    2    0    0  0.81891757223E+01  0.14550095492E+02 -0.84800909947E+01  0.72461552896E+02  0.69999977336E+02 0.  0.
         12    1    1    2    0    0 -0.81891757223E+01 -0.14550095492E+02  0.84800909947E+01  0.18726447104E+02  0.00000000000E+00 0. -1.
         11    1    3    3    0    0 -0.36351152285E+01 -0.41244427489E+01  0.45773575154E+01  0.71538306381E+01  0.51100000000E-03 0. -1.
        -11    1    3    3    0    0 -0.12340171706E+02  0.17402537662E+02 -0.29241436734E+02  0.36196543721E+02  0.51100000000E-03 0.  1.
         12    1    3    3    0    0  0.24164462657E+02  0.12720005791E+01  0.16183988224E+02  0.29111178537E+02  0.00000000000E+00 0. -1.
</event>
<event>
 7    1  0.3434711E-013  0.7246162E+02  0.7816164E-02  0.1226708E+00
        -11   -1    0    0    0    0  0.00000000000E+00  0.00000000000E+00  0.45593999997E+02  0.45594000000E+02  0.51100000000E-03 0.  1.
         11   -1    0    0    0    0 -0.00000000000E+00 -0.00000000000E+00 -0.45593999997E+02  0.45594000000E+02  0.51100000000E-03 0. -1.
    9900012    2    1    2    0    0  0.16931920051E+02  0.79506281072E+01 -0.88028452820E+00  0.72461620084E+02  0.70000064860E+02 0.  0.
         12    1    1    2    0    0 -0.16931920051E+02 -0.79506281072E+01  0.88028452820E+00  0.18726379916E+02  0.00000000000E+00 0. -1.
         11    1    3    3    0    0 -0.20313812301E+02 -0.67556870449E+01 -0.14699670588E+02  0.25968646351E+02  0.51100000000E-03 0. -1.
        -11    1    3    3    0    0  0.85759647876E+01 -0.42886960034E+01  0.57047467368E+01  0.11157249708E+02  0.51100000000E-03 0.  1.
        -12    1    3    3    0    0  0.28669767565E+02  0.18995011156E+02  0.81146393234E+01  0.35335724025E+02  0.00000000000E+00 0.  1.
</event>
<event>
 7    1  0.3434711E-013  0.7246156E+02  0.7816164E-02  0.1226708E+00
        -11   -1    0    0    0    0  0.00000000000E+00  0.00000000000E+00  0.45593999997E+02  0.45594000000E+02  0.51100000000E-03 0. -1.
         11   -1    0    0    0    0 -0.00000000000E+00 -0.00000000000E+00 -0.45593999997E+02  0.45594000000E+02  0.51100000000E-03 0.  1.
    9900012    2    1    2    0    0 -0.16515764959E+02  0.72790014880E+01 -0.49925306516E+01  0.72461555672E+02  0.69999980952E+02 0.  0.
         12    1    1    2    0    0  0.16515764959E+02 -0.72790014880E+01  0.49925306516E+01  0.18726444328E+02  0.00000000000E+00 0. -1.
         11    1    3    3    0    0 -0.57181573060E+01  0.85652981503E+01  0.28641309778E+02  0.30436594445E+02  0.51100000000E-03 0. -1.
        -11    1    3    3    0    0 -0.37150502772E+01 -0.10169958735E+02 -0.65492727571E+01  0.12653957213E+02  0.51100000000E-03 0.  1.
        -12    1    3    3    0    0 -0.70825573760E+01  0.88836620726E+01 -0.27084567672E+02  0.29371004014E+02  0.00000000000E+00 0.  1.
</event>
<event>
 7    1  0.3434711E-013  0.7246159E+02  0.7816164E-02  0.1226708E+00
        -11   -1    0    0    0    0  0.00000000000E+00  0.00000000000E+00  0.45593999997E+02  0.45594000000E+02  0.51100000000E-03 0.  1.
         11   -1    0    0    0    0 -0.00000000000E+00 -0.00000000000E+00 -0.45593999997E+02  0.45594000000E+02  0.51100000000E-03 0. -1.
    9900012    2    1    2    0    0  0.84078506512E+01  0.11040918873E+01  0.16696330543E+02  0.72461590171E+02  0.70000025893E+02 0.  0.
         12    1    1    2    0    0 -0.84078506512E+01 -0.11040918873E+01 -0.16696330543E+02  0.18726409829E+02  0.00000000000E+00 0. -1.
         11    1    3    3    0    0 -0.13371802792E+02  0.91082755230E+01 -0.84774516199E+01  0.18265622879E+02  0.51100000000E-03 0. -1.
        -11    1    3    3    0    0 -0.69000766731E+01  0.97773428733E+01 -0.21171665403E+00  0.11968805954E+02  0.51100000000E-03 0.  1.
         12    1    3    3    0    0  0.28679730116E+02 -0.17781526509E+02  0.25385498817E+02  0.42227161339E+02  0.00000000000E+00 0. -1.
</event>
<event>
 7    1  0.3434711E-013  0.7246164E+02  0.7816164E-02  0.1226708E+00
        -11   -1    0    0    0    0  0.00000000000E+00  0.00000000000E+00  0.45593999997E+02  0.45594000000E+02  0.51100000000E-03 0. -1.
         11   -1    0    0    0    0 -0.00000000000E+00 -0.00000000000E+00 -0.45593999997E+02  0.45594000000E+02  0.51100000000E-03 0.  1.
    9900012    2    1    2    0    0 -0.10773582409E+02  0.35989984321E+01 -0.14888036020E+02  0.72461641994E+02  0.70000093402E+02 0.  0.
         12    1    1    2    0    0  0.10773582409E+02 -0.35989984321E+01  0.14888036020E+02  0.18726358006E+02  0.00000000000E+00 0. -1.
         11    1    3    3    0    0 -0.66695807641E+01  0.96441375696E+01  0.18264531037E+02  0.21704510851E+02  0.51100000000E-03 0. -1.
        -11    1    3    3    0    0 -0.11036791940E+02 -0.45095921847E+01  0.42720588470E+01  0.12664820767E+02  0.51100000000E-03 0.  1.
         12    1    3    3    0    0  0.69327902952E+01 -0.15355469528E+01 -0.37424625904E+02  0.38092310376E+02  0.00000000000E+00 0. -1.
</event>
<event>
 7    1  0.3434711E-013  0.7246156E+02  0.7816164E-02  0.1226708E+00
        -11   -1    0    0    0    0  0.00000000000E+00  0.00000000000E+00  0.45593999997E+02  0.45594000000E+02  0.51100000000E-03 0. -1.
         11   -1    0    0    0    0 -0.00000000000E+00 -0.00000000000E+00 -0.45593999997E+02  0.45594000000E+02  0.51100000000E-03 0.  1.
    9900012    2    1    2    0    0  0.77719840376E+01 -0.14821432070E+01 -0.16972889960E+02  0.72461562059E+02  0.69999989272E+02 0.  0.
         12    1    1    2    0    0 -0.77719840376E+01  0.14821432070E+01  0.16972889960E+02  0.18726437941E+02  0.00000000000E+00 0. -1.
         11    1    3    3    0    0 -0.47231736903E+01 -0.92122578333E+01  0.33365462170E+01  0.10876883975E+02  0.51100000000E-03 0. -1.
        -11    1    3    3    0    0  0.31900138989E+02 -0.30177098957E+01 -0.22707446361E+02  0.39272809436E+02  0.51100000000E-03 0.  1.
         12    1    3    3    0    0 -0.19404981261E+02  0.10747824522E+02  0.23980101839E+01  0.22311868647E+02  0.00000000000E+00 0. -1.
</event>
<event>
 7    1  0.3434711E-013  0.7246151E+02  0.7816164E-02  0.1226708E+00
        -11   -1    0    0    0    0  0.00000000000E+00  0.00000000000E+00  0.45593999997E+02  0.45594000000E+02  0.51100000000E-03 0.  1.
         11   -1    0    0    0    0 -0.00000000000E+00 -0.00000000000E+00 -0.45593999997E+02  0.45594000000E+02  0.51100000000E-03 0. -1.
    9900012    2    1    2    0    0  0.14949081720E+02 -0.86912743919E+01 -0.71880501773E+01  0.72461511803E+02  0.69999923804E+02 0.  0.
         12    1    1    2    0    0 -0.14949081720E+02  0.86912743919E+01  0.71880501773E+01  0.18726488197E+02  0.00000000000E+00 0. -1.
         11    1    3    3    0    0  0.21548567086E+02 -0.12081856377E+01  0.14435263545E+02  0.25964924223E+02  0.51100000000E-03 0. -1.
        -11    1    3    3    0    0  0.16069237206E+02  0.25093194559E+01 -0.10357042026E+02  0.19281737171E+02  0.51100000000E-03 0.  1.
         12    1    3    3    0    0 -0.22668722572E+02 -0.99924082101E+01 -0.11266271697E+02  0.27214850410E+02  0.00000000000E+00 0. -1.
</event>
<event>
 7    1  0.3434711E-013  0.7246159E+02  0.7816164E-02  0.1226708E+00
        -11   -1    0    0    0    0  0.00000000000E+00  0.00000000000E+00  0.45593999997E+02  0.45594000000E+02  0.51100000000E-03 0.  1.
         11   -1    0    0    0    0 -0.00000000000E+00 -0.00000000000E+00 -0.45593999997E+02  0.45594000000E+02  0.51100000000E-03 0. -1.
    9900012    2    1    2    0    0 -0.45073747430E+01 -0.10539204745E+01  0.18145279203E+02  0.72461592636E+02  0.70000029104E+02 0.  0.
         12    1    1    2    0    0  0.45073747430E+01  0.10539204745E+01 -0.18145279203E+02  0.18726407364E+02  0.00000000000E+00 0. -1.
         11    1    3    3    0    0  0.13181780764E+02  0.18922389588E+02  0.13839385107E+02  0.26895069292E+02  0.51100000000E-03 0. -1.
        -11    1    3    3    0    0 -0.17903582672E+02 -0.25139610147E+01  0.16331058680E+02  0.24363122754E+02  0.51100000000E-03 0.  1.
         12    1    3    3    0    0  0.21442716492E+00 -0.17462349047E+02 -0.12025164584E+02  0.21203400589E+02  0.00000000000E+00 0. -1.
</event>
<event>
 7    1  0.3434711E-013  0.7246155E+02  0.7816164E-02  0.1226708E+00
        -11   -1    0    0    0    0  0.00000000000E+00  0.00000000000E+00  0.45593999997E+02  0.45594000000E+02  0.51100000000E-03 0. -1.
         11   -1    0    0    0    0 -0.00000000000E+00 -0.00000000000E+00 -0.45593999997E+02  0.45594000000E+02  0.51100000000E-03 0.  1.
    9900012    2    1    2    0    0 -0.96474374117E+01  0.10251434960E+02 -0.12349696565E+02  0.72461548852E+02  0.69999972068E+02 0.  0.
         12    1    1    2    0    0  0.96474374117E+01 -0.10251434960E+02  0.12349696565E+02  0.18726451148E+02  0.00000000000E+00 0. -1.
         11    1    3    3    0    0  0.51267253096E+01 -0.12634076676E+02  0.75327511625E+01  0.15577084008E+02  0.51100000000E-03 0. -1.
        -11    1    3    3    0    0 -0.47252636732E+01  0.19084609584E+02  0.12140579954E+02  0.23107230938E+02  0.51100000000E-03 0.  1.
        -12    1    3    3    0    0 -0.10048899048E+02  0.38009020525E+01 -0.32023027681E+02  0.33777233906E+02  0.00000000000E+00 0.  1.
</event>
<event>
 7    1  0.3434711E-013  0.7246156E+02  0.7816164E-02  0.1226708E+00
        -11   -1    0    0    0    0  0.00000000000E+00  0.00000000000E+00  0.45593999997E+02  0.45594000000E+02  0.51100000000E-03 0. -1.
         11   -1    0    0    0    0 -0.00000000000E+00 -0.00000000000E+00 -0.45593999997E+02  0.45594000000E+02  0.51100000000E-03 0.  1.
    9900012    2    1    2    0    0  0.15988475446E+01  0.14417462106E+02 -0.11843143691E+02  0.72461559347E+02  0.69999985739E+02 0.  0.
         12    1    1    2    0    0 -0.15988475446E+01 -0.14417462106E+02  0.11843143691E+02  0.18726440653E+02  0.00000000000E+00 0. -1.
         11    1    3    3    0    0 -0.24203771770E+02 -0.75814841880E+01  0.32343217193E+01  0.25568776029E+02  0.51100000000E-03 0. -1.
        -11    1    3    3    0    0 -0.33451692843E+01  0.11485670299E+02  0.96237171032E+00  0.12001539040E+02  0.51100000000E-03 0.  1.
         12    1    3    3    0    0  0.29147788599E+02  0.10513275994E+02 -0.16039837121E+02  0.34891244277E+02  0.00000000000E+00 0. -1.
</event>
<event>
 7    1  0.3434711E-013  0.7246194E+02  0.7816164E-02  0.1226707E+00
        -11   -1    0    0    0    0  0.00000000000E+00  0.00000000000E+00  0.45593999997E+02  0.45594000000E+02  0.51100000000E-03 0.  1.
         11   -1    0    0    0    0 -0.00000000000E+00 -0.00000000000E+00 -0.45593999997E+02  0.45594000000E+02  0.51100000000E-03 0. -1.
    9900012    2    1    2    0    0 -0.86594018504E+01  0.15151535076E+02  0.67905035363E+01  0.72461943452E+02  0.70000486106E+02 0.  0.
         12    1    1    2    0    0  0.86594018504E+01 -0.15151535076E+02 -0.67905035363E+01  0.18726056548E+02  0.00000000000E+00 0. -1.
         11    1    3    3    0    0 -0.16536353261E+02  0.22816132193E+02  0.13061747771E+02  0.31058591767E+02  0.51100000000E-03 0. -1.
        -11    1    3    3    0    0 -0.55811465334E+01 -0.18564515968E+02  0.58681605452E+01  0.20254030665E+02  0.51100000000E-03 0.  1.
         12    1    3    3    0    0  0.13458097944E+02  0.10899918850E+02 -0.12139404779E+02  0.21149321020E+02  0.00000000000E+00 0. -1.
</event>
<event>
 7    1  0.3434711E-013  0.7246155E+02  0.7816164E-02  0.1226708E+00
        -11   -1    0    0    0    0  0.00000000000E+00  0.00000000000E+00  0.45593999997E+02  0.45594000000E+02  0.51100000000E-03 0.  1.
         11   -1    0    0    0    0 -0.00000000000E+00 -0.00000000000E+00 -0.45593999997E+02  0.45594000000E+02  0.51100000000E-03 0. -1.
    9900012    2    1    2    0    0 -0.11348499935E+01  0.26728728235E+01  0.18499945455E+02  0.72461545037E+02  0.69999967098E+02 0.  0.
         12    1    1    2    0    0  0.11348499935E+01 -0.26728728235E+01 -0.18499945455E+02  0.18726454963E+02  0.00000000000E+00 0. -1.
         11    1    3    3    0    0 -0.23259005011E+02  0.11776903293E+02 -0.19290001186E+01  0.26141878414E+02  0.51100000000E-03 0. -1.
        -11    1    3    3    0    0  0.10427667102E+02  0.10834698222E+02  0.17413208079E+02  0.23007536648E+02  0.51100000000E-03 0.  1.
         12    1    3    3    0    0  0.11696487915E+02 -0.19938728691E+02  0.30157374940E+01  0.23312129975E+02  0.00000000000E+00 0. -1.
</event>
<event>
 7    1  0.3434711E-013  0.7246153E+02  0.7816164E-02  0.1226708E+00
        -11   -1    0    0    0    0  0.00000000000E+00  0.00000000000E+00  0.45593999997E+02  0.45594000000E+02  0.51100000000E-03 0. -1.
         11   -1    0    0    0    0 -0.00000000000E+00 -0.00000000000E+00 -0.45593999997E+02  0.45594000000E+02  0.51100000000E-03 0.  1.
    9900012    2    1    2    0    0  0.16045859499E+02  0.90049992143E+01 -0.34815481177E+01  0.72461526888E+02  0.69999943455E+02 0.  0.
         12    1    1    2    0    0 -0.16045859499E+02 -0.90049992143E+01  0.34815481177E+01  0.18726473112E+02  0.00000000000E+00 0. -1.
         11    1    3    3    0    0 -0.43557948324E+01  0.10162800752E+02 -0.26389980652E+01  0.11367487796E+02  0.51100000000E-03 0. -1.
        -11    1    3    3    0    0 -0.60687338396E+01 -0.12277459845E+02 -0.21662429389E+02  0.25628624582E+02  0.51100000000E-03 0.  1.
         12    1    3    3    0    0  0.26470388171E+02  0.11119658308E+02  0.20819879336E+02  0.35465414510E+02  0.00000000000E+00 0. -1.
</event>
<event>
 7    1  0.3434711E-013  0.7246157E+02  0.7816164E-02  0.1226708E+00
        -11   -1    0    0    0    0  0.00000000000E+00  0.00000000000E+00  0.45593999997E+02  0.45594000000E+02  0.51100000000E-03 0. -1.
         11   -1    0    0    0    0 -0.00000000000E+00 -0.00000000000E+00 -0.45593999997E+02  0.45594000000E+02  0.51100000000E-03 0.  1.
    9900012    2    1    2    0    0 -0.14829236956E+02  0.85653584610E+01 -0.75767665366E+01  0.72461574142E+02  0.70000005012E+02 0.  0.
         12    1    1    2    0    0  0.14829236956E+02 -0.85653584610E+01  0.75767665366E+01  0.18726425858E+02  0.00000000000E+00 0. -1.
         11    1    3    3    0    0 -0.22363299040E+02 -0.51947776202E+01 -0.49633726292E+01  0.23489102294E+02  0.51100000000E-03 0. -1.
        -11    1    3    3    0    0 -0.37608296967E+01 -0.14853355182E+02  0.68558072799E+01  0.16785949300E+02  0.51100000000E-03 0.  1.
        -12    1    3    3    0    0  0.11294891781E+02  0.28613491263E+02 -0.94692011873E+01  0.32186522548E+02  0.00000000000E+00 0.  1.
</event>
<event>
 7    1  0.3434711E-013  0.7246172E+02  0.7816164E-02  0.1226708E+00
        -11   -1    0    0    0    0  0.00000000000E+00  0.00000000000E+00  0.45593999997E+02  0.45594000000E+02  0.51100000000E-03 0. -1.
         11   -1    0    0    0    0 -0.00000000000E+00 -0.00000000000E+00 -0.45593999997E+02  0.45594000000E+02  0.51100000000E-03 0.  1.
    9900012    2    1    2    0    0 -0.16017758062E+02 -0.45111460470E+01 -0.85880556359E+01  0.72461716023E+02  0.70000189838E+02 0.  0.
         12    1    1    2    0    0  0.16017758062E+02  0.45111460470E+01  0.85880556359E+01  0.18726283977E+02  0.00000000000E+00 0. -1.
         11    1    3    3    0    0 -0.59452631582E+01  0.19669235942E+02  0.11874040797E+02  0.23732211057E+02  0.51100000000E-03 0. -1.
        -11    1    3    3    0    0 -0.11888371627E+02 -0.49970575939E+00 -0.21912853899E+02  0.24935040647E+02  0.51100000000E-03 0.  1.
        -12    1    3    3    0    0  0.18158767230E+01 -0.23680676230E+02  0.14507574669E+01  0.23794464319E+02  0.00000000000E+00 0.  1.
</event>
<event>
 7    1  0.3434711E-013  0.7246152E+02  0.7816164E-02  0.1226708E+00
        -11   -1    0    0    0    0  0.00000000000E+00  0.00000000000E+00  0.45593999997E+02  0.45594000000E+02  0.51100000000E-03 0. -1.
         11   -1    0    0    0    0 -0.00000000000E+00 -0.00000000000E+00 -0.45593999997E+02  0.45594000000E+02  0.51100000000E-03 0.  1.
    9900012    2    1    2    0    0 -0.10596108155E+02  0.11498242204E+02  0.10305044115E+02  0.72461520993E+02  0.69999935776E+02 0.  0.
         12    1    1    2    0    0  0.10596108155E+02 -0.11498242204E+02 -0.10305044115E+02  0.18726479007E+02  0.00000000000E+00 0. -1.
         11    1    3    3    0    0 -0.12411622534E+02  0.23491442524E+02  0.99296182201E+00  0.26587256708E+02  0.51100000000E-03 0. -1.
        -11    1    3    3    0    0 -0.21445778149E+01  0.16153135616E+02  0.54901440490E+01  0.17194902912E+02  0.51100000000E-03 0.  1.
         12    1    3    3    0    0  0.39600921940E+01 -0.28146335936E+02  0.38219382436E+01  0.28679361373E+02  0.00000000000E+00 0. -1.
</event>
<event>
 7    1  0.3434711E-013  0.7246156E+02  0.7816164E-02  0.1226708E+00
        -11   -1    0    0    0    0  0.00000000000E+00  0.00000000000E+00  0.45593999997E+02  0.45594000000E+02  0.51100000000E-03 0. -1.
         11   -1    0    0    0    0 -0.00000000000E+00 -0.00000000000E+00 -0.45593999997E+02  0.45594000000E+02  0.51100000000E-03 0.  1.
    9900012    2    1    2    0    0  0.15569837342E+02  0.83354090367E+01  0.62274009257E+01  0.72461564115E+02  0.69999991950E+02 0.  0.
         12    1    1    2    0    0 -0.15569837342E+02 -0.83354090367E+01 -0.62274009257E+01  0.18726435885E+02  0.00000000000E+00 0. -1.
         11    1    3    3    0    0  0.34969632719E+01 -0.51528913552E+00 -0.60971187303E+01  0.70476330843E+01  0.51100000000E-03 0. -1.
        -11    1    3    3    0    0  0.36003058236E+02 -0.52060673434E+01  0.88976242606E+01  0.37449847226E+02  0.51100000000E-03 0.  1.
         12    1    3    3    0    0 -0.23930184166E+02  0.14056765516E+02  0.34268953954E+01  0.27964083804E+02  0.00000000000E+00 0. -1.
</event>
<event>
 7    1  0.3434711E-013  0.7246154E+02  0.7816164E-02  0.1226708E+00
        -11   -1    0    0    0    0  0.00000000000E+00  0.00000000000E+00  0.45593999997E+02  0.45594000000E+02  0.51100000000E-03 0.  1.
         11   -1    0    0    0    0 -0.00000000000E+00 -0.00000000000E+00 -0.45593999997E+02  0.45594000000E+02  0.51100000000E-03 0. -1.
    9900012    2    1    2    0    0  0.10561701008E+00 -0.18256041808E+02  0.41696497581E+01  0.72461542872E+02  0.69999964278E+02 0.  0.
         12    1    1    2    0    0 -0.10561701008E+00  0.18256041808E+02 -0.41696497581E+01  0.18726457128E+02  0.00000000000E+00 0. -1.
         11    1    3    3    0    0 -0.26875607312E+02 -0.24992889675E+02  0.14495521770E+01  0.36729334386E+02  0.51100000000E-03 0. -1.
        -11    1    3    3    0    0 -0.16614491661E+01 -0.39040447850E+01  0.29643633801E+01  0.51758506088E+01  0.51100000000E-03 0.  1.
        -12    1    3    3    0    0  0.28642673488E+02  0.10640892652E+02 -0.24426579895E+00  0.30556357877E+02  0.00000000000E+00 0.  1.
</event>
<event>
 7    1  0.3434711E-013  0.7246151E+02  0.7816164E-02  0.1226708E+00
        -11   -1    0    0    0    0  0.00000000000E+00  0.00000000000E+00  0.45593999997E+02  0.45594000000E+02  0.51100000000E-03 0. -1.
         11   -1    0    0    0    0 -0.00000000000E+00 -0.00000000000E+00 -0.45593999997E+02  0.45594000000E+02  0.51100000000E-03 0.  1.
    9900012    2    1    2    0    0 -0.12857558286E+02  0.10344778815E+02 -0.88515600360E+01  0.72461511571E+02  0.69999923502E+02 0.  0.
         12    1    1    2    0    0  0.12857558286E+02 -0.10344778815E+02  0.88515600360E+01  0.18726488429E+02  0.00000000000E+00 0. -1.
         11    1    3    3    0    0 -0.93412829489E+01 -0.43454220037E+00  0.14129040195E+02  0.16943381337E+02  0.51100000000E-03 0. -1.
        -11    1    3    3    0    0 -0.89642891283E+01 -0.12886204578E+02  0.67865136859E+01  0.17101740153E+02  0.51100000000E-03 0.  1.
        -12    1    3    3    0    0  0.54480137917E+01  0.23665525594E+02 -0.29767113917E+02  0.38416390081E+02  0.00000000000E+00 0.  1.
</event>
<event>
 7    1  0.3434711E-013  0.7246154E+02  0.7816164E-02  0.1226708E+00
        -11   -1    0    0    0    0  0.00000000000E+00  0.00000000000E+00  0.45593999997E+02  0.45594000000E+02  0.51100000000E-03 0. -1.
         11   -1    0    0    0    0 -0.00000000000E+00 -0.00000000000E+00 -0.45593999997E+02  0.45594000000E+02  0.51100000000E-03 0.  1.
    9900012    2    1    2    0    0 -0.11902738341E+02 -0.80521049048E+01 -0.12007035511E+02  0.72461535433E+02  0.69999954587E+02 0.  0.
         12    1    1    2    0    0  0.11902738341E+02  0.80521049048E+01  0.12007035511E+02  0.18726464567E+02  0.00000000000E+00 0. -1.
         11    1    3    3    0    0 -0.23779966130E+02 -0.16515796959E+02  0.32559820435E+01  0.29135197916E+02  0.51100000000E-03 0. -1.
        -11    1    3    3    0    0 -0.13032069994E+02  0.85185263411E+01 -0.71176492086E+01  0.17119026546E+02  0.51100000000E-03 0.  1.
        -12    1    3    3    0    0  0.24909297783E+02 -0.54834287208E-01 -0.81453683459E+01  0.26207310971E+02  0.00000000000E+00 0.  1.
</event>
<event>
 7    1  0.3434711E-013  0.7246158E+02  0.7816164E-02  0.1226708E+00
        -11   -1    0    0    0    0  0.00000000000E+00  0.00000000000E+00  0.45593999997E+02  0.45594000000E+02  0.51100000000E-03 0.  1.
         11   -1    0    0    0    0 -0.00000000000E+00 -0.00000000000E+00 -0.45593999997E+02  0.45594000000E+02  0.51100000000E-03 0. -1.
    9900012    2    1    2    0    0  0.78167067184E+01 -0.15732752243E+02  0.64852539772E+01  0.72461577058E+02  0.70000008810E+02 0.  0.
         12    1    1    2    0    0 -0.78167067184E+01  0.15732752243E+02 -0.64852539772E+01  0.18726422942E+02  0.00000000000E+00 0. -1.
         11    1    3    3    0    0  0.53028200438E+01  0.20881177005E+02 -0.17267614459E+02  0.27610033736E+02  0.51100000000E-03 0. -1.
        -11    1    3    3    0    0  0.55026833600E+00  0.26535356138E+00 -0.39370793215E+00  0.72678329032E+00  0.51100000000E-03 0.  1.
        -12    1    3    3    0    0  0.19636183386E+01 -0.36879282810E+02  0.24146576368E+02  0.44124760031E+02  0.00000000000E+00 0.  1.
</event>
<event>
 7    1  0.3434711E-013  0.7246160E+02  0.7816164E-02  0.1226708E+00
        -11   -1    0    0    0    0  0.00000000000E+00  0.00000000000E+00  0.45593999997E+02  0.45594000000E+02  0.51100000000E-03 0. -1.
         11   -1    0    0    0    0 -0.00000000000E+00 -0.00000000000E+00 -0.45593999997E+02  0.45594000000E+02  0.51100000000E-03 0.  1.
    9900012    2    1    2    0    0 -0.15862009222E+02 -0.61751509443E+01 -0.78065540675E+01  0.72461598526E+02  0.70000036777E+02 0.  0.
         12    1    1    2    0    0  0.15862009222E+02  0.61751509443E+01  0.78065540675E+01  0.18726401474E+02  0.00000000000E+00 0. -1.
         11    1    3    3    0    0  0.26136646875E+00  0.24392303297E+01 -0.21137908360E+01  0.32382509155E+01  0.51100000000E-03 0. -1.
        -11    1    3    3    0    0 -0.28134651649E+02  0.16002526796E+02 -0.20274515639E+02  0.38192872004E+02  0.51100000000E-03 0.  1.
         12    1    3    3    0    0  0.12011275958E+02 -0.24616908070E+02  0.14581752408E+02  0.31030475606E+02  0.00000000000E+00 0. -1.
</event>
<event>
 7    1  0.3434711E-013  0.7246194E+02  0.7816164E-02  0.1226707E+00
        -11   -1    0    0    0    0  0.00000000000E+00  0.00000000000E+00  0.45593999997E+02  0.45594000000E+02  0.51100000000E-03 0.  1.
         11   -1    0    0    0    0 -0.00000000000E+00 -0.00000000000E+00 -0.45593999997E+02  0.45594000000E+02  0.51100000000E-03 0. -1.
    9900012    2    1    2    0    0  0.54861183353E+01 -0.93363622857E+01  0.15277439671E+02  0.72461940136E+02  0.70000481786E+02 0.  0.
         12    1    1    2    0    0 -0.54861183353E+01  0.93363622857E+01 -0.15277439671E+02  0.18726059864E+02  0.00000000000E+00 0. -1.
         11    1    3    3    0    0 -0.74261744591E+01  0.87784033213E+01 -0.40970848749E+01  0.12206331828E+02  0.51100000000E-03 0. -1.
        -11    1    3    3    0    0 -0.73085576814E+01  0.13847371070E+02  0.15834725630E+02  0.22268884952E+02  0.51100000000E-03 0.  1.
         12    1    3    3    0    0  0.20220850476E+02 -0.31962136677E+02  0.35397989160E+01  0.37986723356E+02  0.00000000000E+00 0. -1.
</event>
<event>
 7    1  0.3434711E-013  0.7246178E+02  0.7816164E-02  0.1226707E+00
        -11   -1    0    0    0    0  0.00000000000E+00  0.00000000000E+00  0.45593999997E+02  0.45594000000E+02  0.51100000000E-03 0.  1.
         11   -1    0    0    0    0 -0.00000000000E+00 -0.00000000000E+00 -0.45593999997E+02  0.45594000000E+02  0.51100000000E-03 0. -1.
    9900012    2    1    2    0    0  0.91332332844E+01  0.12844200517E+02  0.10113444176E+02  0.72461783344E+02  0.70000277536E+02 0.  0.
         12    1    1    2    0    0 -0.91332332844E+01 -0.12844200517E+02 -0.10113444176E+02  0.18726216656E+02  0.00000000000E+00 0. -1.
         11    1    3    3    0    0  0.79641595751E+01  0.72020262773E+01 -0.18972237183E+02  0.21800064317E+02  0.51100000000E-03 0. -1.
        -11    1    3    3    0    0  0.13953062753E+02 -0.78762836865E+01 -0.13163918955E+00  0.16023143700E+02  0.51100000000E-03 0.  1.
        -12    1    3    3    0    0 -0.12783989044E+02  0.13518457926E+02  0.29217320549E+02  0.34638575326E+02  0.00000000000E+00 0.  1.
</event>
<event>
 7    1  0.3434711E-013  0.7246179E+02  0.7816164E-02  0.1226707E+00
        -11   -1    0    0    0    0  0.00000000000E+00  0.00000000000E+00  0.45593999997E+02  0.45594000000E+02  0.51100000000E-03 0.  1.
         11   -1    0    0    0    0 -0.00000000000E+00 -0.00000000000E+00 -0.45593999997E+02  0.45594000000E+02  0.51100000000E-03 0. -1.
    9900012    2    1    2    0    0  0.18545708156E+02  0.11486185076E+01 -0.23255826601E+01  0.72461789753E+02  0.70000285886E+02 0.  0.
         12    1    1    2    0    0 -0.18545708156E+02 -0.11486185076E+01  0.23255826601E+01  0.18726210247E+02  0.00000000000E+00 0. -1.
         11    1    3    3    0    0  0.10630672908E+02 -0.19844760803E+01 -0.15097948521E+02  0.18571413560E+02  0.51100000000E-03 0. -1.
        -11    1    3    3    0    0 -0.11663280460E+02  0.83541343856E+01 -0.14179523742E+02  0.20171330304E+02  0.51100000000E-03 0.  1.
        -12    1    3    3    0    0  0.19578315708E+02 -0.52210397977E+01  0.26951889603E+02  0.33719045890E+02  0.00000000000E+00 0.  1.
</event>
<event>
 7    1  0.3434711E-013  0.7246159E+02  0.7816164E-02  0.1226708E+00
        -11   -1    0    0    0    0  0.00000000000E+00  0.00000000000E+00  0.45593999997E+02  0.45594000000E+02  0.51100000000E-03 0.  1.
         11   -1    0    0    0    0 -0.00000000000E+00 -0.00000000000E+00 -0.45593999997E+02  0.45594000000E+02  0.51100000000E-03 0. -1.
    9900012    2    1    2    0    0 -0.80634333304E+01  0.30237004148E+01  0.16628788784E+02  0.72461592504E+02  0.70000028932E+02 0.  0.
         12    1    1    2    0    0  0.80634333304E+01 -0.30237004148E+01 -0.16628788784E+02  0.18726407496E+02  0.00000000000E+00 0. -1.
         11    1    3    3    0    0 -0.11500870724E+02 -0.80119960516E+01 -0.45954804817E+01  0.14750611826E+02  0.51100000000E-03 0. -1.
        -11    1    3    3    0    0 -0.23845835796E+02  0.18473037708E+01  0.15077671823E+02  0.28273178171E+02  0.51100000000E-03 0.  1.
        -12    1    3    3    0    0  0.27283273190E+02  0.91883926957E+01  0.61465974433E+01  0.29437802506E+02  0.00000000000E+00 0.  1.
</event>
<event>
 7    1  0.3434711E-013  0.7246162E+02  0.7816164E-02  0.1226708E+00
        -11   -1    0    0    0    0  0.00000000000E+00  0.00000000000E+00  0.45593999997E+02  0.45594000000E+02  0.51100000000E-03 0.  1.
         11   -1    0    0    0    0 -0.00000000000E+00 -0.00000000000E+00 -0.45593999997E+02  0.45594000000E+02  0.51100000000E-03 0. -1.
    9900012    2    1    2    0    0  0.18142889847E+02 -0.34894201097E+01 -0.30556230453E+01  0.72461619226E+02  0.70000063743E+02 0.  0.
         12    1    1    2    0    0 -0.18142889847E+02  0.34894201097E+01  0.30556230453E+01  0.18726380774E+02  0.00000000000E+00 0. -1.
         11    1    3    3    0    0  0.15191731044E+02 -0.13417340775E+01  0.17833253400E+02  0.23465162892E+02  0.51100000000E-03 0. -1.
        -11    1    3    3    0    0  0.99696386312E+01 -0.88359040528E+01  0.99771745566E+01  0.16643644651E+02  0.51100000000E-03 0.  1.
         12    1    3    3    0    0 -0.70184798279E+01  0.66882180206E+01 -0.30866051002E+02  0.32352811684E+02  0.00000000000E+00 0. -1.
</event>
<event>
 7    1  0.3434711E-013  0.7246157E+02  0.7816164E-02  0.1226708E+00
        -11   -1    0    0    0    0  0.00000000000E+00  0.00000000000E+00  0.45593999997E+02  0.45594000000E+02  0.51100000000E-03 0.  1.
         11   -1    0    0    0    0 -0.00000000000E+00 -0.00000000000E+00 -0.45593999997E+02  0.45594000000E+02  0.51100000000E-03 0. -1.
    9900012    2    1    2    0    0  0.11658321637E+02 -0.21051885263E+01  0.14502785940E+02  0.72461572627E+02  0.70000003039E+02 0.  0.
         12    1    1    2    0    0 -0.11658321637E+02  0.21051885263E+01 -0.14502785940E+02  0.18726427373E+02  0.00000000000E+00 0. -1.
         11    1    3    3    0    0 -0.52742001246E+01  0.23577700097E+02  0.20606291188E+01  0.24248119957E+02  0.51100000000E-03 0. -1.
        -11    1    3    3    0    0  0.77024219456E+01  0.68221025372E+01  0.99793737376E+01  0.14333746451E+02  0.51100000000E-03 0.  1.
         12    1    3    3    0    0  0.92300998160E+01 -0.32504991161E+02  0.24627830840E+01  0.33879706219E+02  0.00000000000E+00 0. -1.
</event>
<event>
 7    1  0.3434711E-013  0.7246158E+02  0.7816164E-02  0.1226708E+00
        -11   -1    0    0    0    0  0.00000000000E+00  0.00000000000E+00  0.45593999997E+02  0.45594000000E+02  0.51100000000E-03 0.  1.
         11   -1    0    0    0    0 -0.00000000000E+00 -0.00000000000E+00 -0.45593999997E+02  0.45594000000E+02  0.51100000000E-03 0. -1.
    9900012    2    1    2    0    0  0.18368110315E+02 -0.66277651631E+00  0.35850000585E+01  0.72461575497E+02  0.70000006778E+02 0.  0.
         12    1    1    2    0    0 -0.18368110315E+02  0.66277651631E+00 -0.35850000585E+01  0.18726424503E+02  0.00000000000E+00 0. -1.
         11    1    3    3    0    0  0.44432673474E+01  0.70082074525E+01  0.21914242491E+02  0.23432704083E+02  0.51100000000E-03 0. -1.
        -11    1    3    3    0    0 -0.45816853538E+01  0.25215570778E+01  0.11408428440E+02  0.12549993247E+02  0.51100000000E-03 0.  1.
         12    1    3    3    0    0  0.18506528321E+02 -0.10192541047E+02 -0.29737670872E+02  0.36478878168E+02  0.00000000000E+00 0. -1.
</event>
<event>
 7    1  0.3434711E-013  0.7246155E+02  0.7816164E-02  0.1226708E+00
        -11   -1    0    0    0    0  0.00000000000E+00  0.00000000000E+00  0.45593999997E+02  0.45594000000E+02  0.51100000000E-03 0.  1.
         11   -1    0    0    0    0 -0.00000000000E+00 -0.00000000000E+00 -0.45593999997E+02  0.45594000000E+02  0.51100000000E-03 0. -1.
    9900012    2    1    2    0    0  0.83411574114E+01  0.29764991493E+01  0.16499864001E+02  0.72461549023E+02  0.69999972289E+02 0.  0.
         12    1    1    2    0    0 -0.83411574114E+01 -0.29764991493E+01 -0.16499864001E+02  0.18726450977E+02  0.00000000000E+00 0. -1.
         11    1    3    3    0    0 -0.42123832374E+01  0.37198976391E+01  0.10107770113E+02  0.11564982832E+02  0.51100000000E-03 0. -1.
        -11    1    3    3    0    0  0.26600715931E+01  0.19885382909E+02  0.24537863609E+02  0.31695601983E+02  0.51100000000E-03 0.  1.
         12    1    3    3    0    0  0.98934690556E+01 -0.20628781399E+02 -0.18145769720E+02  0.29200964208E+02  0.00000000000E+00 0. -1.
</event>
<event>
 7    1  0.3434711E-013  0.7246160E+02  0.7816164E-02  0.1226708E+00
        -11   -1    0    0    0    0  0.00000000000E+00  0.00000000000E+00  0.45593999997E+02  0.45594000000E+02  0.51100000000E-03 0. -1.
         11   -1    0    0    0    0 -0.00000000000E+00 -0.00000000000E+00 -0.45593999997E+02  0.45594000000E+02  0.51100000000E-03 0.  1.
    9900012    2    1    2    0    0 -0.16581607092E+02  0.54782609698E+01 -0.67614457421E+01  0.72461596567E+02  0.70000034225E+02 0.  0.
         12    1    1    2    0    0  0.16581607092E+02 -0.54782609698E+01  0.67614457421E+01  0.18726403433E+02  0.00000000000E+00 0. -1.
         11    1    3    3    0    0  0.20864905556E+02  0.13758171287E+02  0.11464237173E+02  0.27496550606E+02  0.51100000000E-03 0. -1.
        -11    1    3    3    0    0 -0.61171254113E+01 -0.71007074126E+01 -0.17017614540E+01  0.95255058325E+01  0.51100000000E-03 0.  1.
        -12    1    3    3    0    0 -0.31329387236E+02 -0.11792029041E+01 -0.16523921461E+02  0.35439540129E+02  0.00000000000E+00 0.  1.
</event>
<event>
 7    1  0.3434711E-013  0.7246155E+02  0.7816164E-02  0.1226708E+00
        -11   -1    0    0    0    0  0.00000000000E+00  0.00000000000E+00  0.45593999997E+02  0.45594000000E+02  0.51100000000E-03 0.  1.
         11   -1    0    0    0    0 -0.00000000000E+00 -0.00000000000E+00 -0.45593999997E+02  0.45594000000E+02  0.51100000000E-03 0. -1.
    9900012    2    1    2    0    0 -0.56791376312E+01 -0.13990319851E+02  0.11076932618E+02  0.72461545718E+02  0.69999967985E+02 0.  0.
         12    1    1    2    0    0  0.56791376312E+01  0.13990319851E+02 -0.11076932618E+02  0.18726454282E+02  0.00000000000E+00 0. -1.
         11    1    3    3    0    0  0.35399349172E+01 -0.21213759893E+01  0.72946777689E+01  0.83811514316E+01  0.51100000000E-03 0. -1.
        -11    1    3    3    0    0  0.18822776822E+02 -0.14864699588E+02  0.20278867116E+02  0.31408417230E+02  0.51100000000E-03 0.  1.
         12    1    3    3    0    0 -0.28041849370E+02  0.29957557263E+01 -0.16496612267E+02  0.32671977056E+02  0.00000000000E+00 0. -1.
</event>
<event>
 7    1  0.3434711E-013  0.7246150E+02  0.7816164E-02  0.1226708E+00
        -11   -1    0    0    0    0  0.00000000000E+00  0.00000000000E+00  0.45593999997E+02  0.45594000000E+02  0.51100000000E-03 0. -1.
         11   -1    0    0    0    0 -0.00000000000E+00 -0.00000000000E+00 -0.45593999997E+02  0.45594000000E+02  0.51100000000E-03 0.  1.
    9900012    2    1    2    0    0  0.11384966756E+02  0.76013454949E+01 -0.12778255939E+02  0.72461501496E+02  0.69999910378E+02 0.  0.
         12    1    1    2    0    0 -0.11384966756E+02 -0.76013454949E+01  0.12778255939E+02  0.18726498504E+02  0.00000000000E+00 0. -1.
         11    1    3    3    0    0  0.14551438332E+02 -0.35643471749E+01  0.11348483374E+00  0.14982049505E+02  0.51100000000E-03 0. -1.
        -11    1    3    3    0    0  0.49535165249E+00  0.26423524434E+02  0.11220317949E+02  0.28711383664E+02  0.51100000000E-03 0.  1.
         12    1    3    3    0    0 -0.36618232280E+01 -0.15257831764E+02 -0.24112058722E+02  0.28768068327E+02  0.00000000000E+00 0. -1.
</event>
<event>
 7    1  0.3434711E-013  0.7246168E+02  0.7816164E-02  0.1226708E+00
        -11   -1    0    0    0    0  0.00000000000E+00  0.00000000000E+00  0.45593999997E+02  0.45594000000E+02  0.51100000000E-03 0.  1.
         11   -1    0    0    0    0 -0.00000000000E+00 -0.00000000000E+00 -0.45593999997E+02  0.45594000000E+02  0.51100000000E-03 0. -1.
    9900012    2    1    2    0    0 -0.34707231851E+01 -0.18236414086E+02 -0.24621480067E+01  0.72461684533E+02  0.70000148817E+02 0.  0.
         12    1    1    2    0    0  0.34707231851E+01  0.18236414086E+02  0.24621480067E+01  0.18726315467E+02  0.00000000000E+00 0. -1.
         11    1    3    3    0    0 -0.83724931320E+01  0.13823020554E+02 -0.55022648385E+01  0.17071890847E+02  0.51100000000E-03 0. -1.
        -11    1    3    3    0    0 -0.15904582903E+02 -0.16070822878E+02 -0.11525238744E+02  0.25378302419E+02  0.51100000000E-03 0.  1.
         12    1    3    3    0    0  0.20806352850E+02 -0.15988611763E+02  0.14565355576E+02  0.30011491267E+02  0.00000000000E+00 0. -1.
</event>
<event>
 7    1  0.3434711E-013  0.7246132E+02  0.7816164E-02  0.1226709E+00
        -11   -1    0    0    0    0  0.00000000000E+00  0.00000000000E+00  0.45593999997E+02  0.45594000000E+02  0.51100000000E-03 0.  1.
         11   -1    0    0    0    0 -0.00000000000E+00 -0.00000000000E+00 -0.45593999997E+02  0.45594000000E+02  0.51100000000E-03 0. -1.
    9900012    2    1    2    0    0 -0.68440348471E+01 -0.89978498046E+01  0.14929383370E+02  0.72461318449E+02  0.69999671924E+02 0.  0.
         12    1    1    2    0    0  0.68440348471E+01  0.89978498046E+01 -0.14929383370E+02  0.18726681551E+02  0.00000000000E+00 0. -1.
         11    1    3    3    0    0  0.87411956033E+01 -0.23348965451E+02 -0.63735993675E+01  0.25733353014E+02  0.51100000000E-03 0. -1.
        -11    1    3    3    0    0  0.57615385838E+01 -0.70826091797E+01  0.12001865688E+02  0.15079902516E+02  0.51100000000E-03 0.  1.
        -12    1    3    3    0    0 -0.21346769034E+02  0.21433724826E+02  0.93011170492E+01  0.31648062918E+02  0.00000000000E+00 0.  1.
</event>
<event>
 7    1  0.3434711E-013  0.7246165E+02  0.7816164E-02  0.1226708E+00
        -11   -1    0    0    0    0  0.00000000000E+00  0.00000000000E+00  0.45593999997E+02  0.45594000000E+02  0.51100000000E-03 0. -1.
         11   -1    0    0    0    0 -0.00000000000E+00 -0.00000000000E+00 -0.45593999997E+02  0.45594000000E+02  0.51100000000E-03 0.  1.
    9900012    2    1    2    0    0  0.15564048997E+02  0.93048363333E+01 -0.46751147118E+01  0.72461646967E+02  0.70000099880E+02 0.  0.
         12    1    1    2    0    0 -0.15564048997E+02 -0.93048363333E+01  0.46751147118E+01  0.18726353033E+02  0.00000000000E+00 0. -1.
         11    1    3    3    0    0 -0.62180138720E+01  0.69351538945E+01  0.12279378194E+02  0.15412436055E+02  0.51100000000E-03 0. -1.
        -11    1    3    3    0    0  0.74884480115E+01  0.19610892435E+02 -0.25543879074E+02  0.33062875164E+02  0.51100000000E-03 0.  1.
         12    1    3    3    0    0  0.14293614857E+02 -0.17241209997E+02  0.85893861678E+01  0.23986335747E+02  0.00000000000E+00 0. -1.
</event>
<event>
 7    1  0.3434711E-013  0.7246162E+02  0.7816164E-02  0.1226708E+00
        -11   -1    0    0    0    0  0.00000000000E+00  0.00000000000E+00  0.45593999997E+02  0.45594000000E+02  0.51100000000E-03 0.  1.
         11   -1    0    0    0    0 -0.00000000000E+00 -0.00000000000E+00 -0.45593999997E+02  0.45594000000E+02  0.51100000000E-03 0. -1.
    9900012    2    1    2    0    0 -0.33719756128E+00  0.15888169136E+02 -0.99060484127E+01  0.72461617118E+02  0.70000060996E+02 0.  0.
         12    1    1    2    0    0  0.33719756128E+00 -0.15888169136E+02  0.99060484127E+01  0.18726382882E+02  0.00000000000E+00 0. -1.
         11    1    3    3    0    0  0.20887896580E+02 -0.13054451440E+02  0.10719200161E+02  0.26863063457E+02  0.51100000000E-03 0. -1.
        -11    1    3    3    0    0 -0.62357745083E+01  0.20756381005E+01 -0.11942268726E+02  0.13631248653E+02  0.51100000000E-03 0.  1.
        -12    1    3    3    0    0 -0.14989319633E+02  0.26866982476E+02 -0.86829798470E+01  0.31967305008E+02  0.00000000000E+00 0.  1.
</event>
<event>
 7    1  0.3434711E-013  0.7246151E+02  0.7816164E-02  0.1226708E+00
        -11   -1    0    0    0    0  0.00000000000E+00  0.00000000000E+00  0.45593999997E+02  0.45594000000E+02  0.51100000000E-03 0.  1.
         11   -1    0    0    0    0 -0.00000000000E+00 -0.00000000000E+00 -0.45593999997E+02  0.45594000000E+02  0.51100000000E-03 0. -1.
    9900012    2    1    2    0    0  0.15427110257E+02 -0.11664526040E+01  0.10551075540E+02  0.72461507066E+02  0.69999917633E+02 0.  0.
         12    1    1    2    0    0 -0.15427110257E+02  0.11664526040E+01 -0.10551075540E+02  0.18726492934E+02  0.00000000000E+00 0. -1.
         11    1    3    3    0    0  0.13632680542E+02 -0.93735419862E+01  0.90682058383E+01  0.18866521288E+02  0.51100000000E-03 0. -1.
        -11    1    3    3    0    0  0.22765912896E+02  0.16793746220E+01  0.15451467295E+02  0.27565466275E+02  0.51100000000E-03 0.  1.
         12    1    3    3    0    0 -0.20971483182E+02  0.65277147602E+01 -0.13968597593E+02  0.26029519503E+02  0.00000000000E+00 0. -1.
</event>
<event>
 7    1  0.3434711E-013  0.7246158E+02  0.7816164E-02  0.1226708E+00
        -11   -1    0    0    0    0  0.00000000000E+00  0.00000000000E+00  0.45593999997E+02  0.45594000000E+02  0.51100000000E-03 0.  1.
         11   -1    0    0    0    0 -0.00000000000E+00 -0.00000000000E+00 -0.45593999997E+02  0.45594000000E+02  0.51100000000E-03 0. -1.
    9900012    2    1    2    0    0 -0.75494799652E+01  0.81696465563E+01  0.15064567462E+02  0.72461575744E+02  0.70000007099E+02 0.  0.
         12    1    1    2    0    0  0.75494799652E+01 -0.81696465563E+01 -0.15064567462E+02  0.18726424256E+02  0.00000000000E+00 0. -1.
         11    1    3    3    0    0 -0.75515629940E+01 -0.33076705395E+01  0.21327222527E+00  0.82469553990E+01  0.51100000000E-03 0. -1.
        -11    1    3    3    0    0  0.69572419673E+01 -0.23032135132E+02  0.16166229110E+02  0.28986711239E+02  0.51100000000E-03 0.  1.
         12    1    3    3    0    0 -0.69551589385E+01  0.34509452228E+02 -0.13149338738E+01  0.35227909106E+02  0.00000000000E+00 0. -1.
</event>
<event>
 7    1  0.3434711E-013  0.7246156E+02  0.7816164E-02  0.1226708E+00
        -11   -1    0    0    0    0  0.00000000000E+00  0.00000000000E+00  0.45593999997E+02  0.45594000000E+02  0.51100000000E-03 0.  1.
         11   -1    0    0    0    0 -0.00000000000E+00 -0.00000000000E+00 -0.45593999997E+02  0.45594000000E+02  0.51100000000E-03 0. -1.
    9900012    2    1    2    0    0  0.13404126464E+02 -0.25068983991E+01  0.12834493840E+02  0.72461564729E+02  0.69999992750E+02 0.  0.
         12    1    1    2    0    0 -0.13404126464E+02  0.25068983991E+01 -0.12834493840E+02  0.18726435271E+02  0.00000000000E+00 0. -1.
         11    1    3    3    0    0 -0.13096613102E+02 -0.20827744326E+02 -0.28485680715E+01  0.24767530131E+02  0.51100000000E-03 0. -1.
        -11    1    3    3    0    0 -0.71817528511E+01  0.17314403204E+01  0.13775631690E+01  0.75148612857E+01  0.51100000000E-03 0.  1.
        -12    1    3    3    0    0  0.33682492417E+02  0.16589405607E+02  0.14305498742E+02  0.40179173312E+02  0.00000000000E+00 0.  1.
</event>
<event>
 7    1  0.3506426E-013  0.7246153E+02  0.7816164E-02  0.1226708E+00
        -11   -1    0    0    0    0  0.00000000000E+00  0.00000000000E+00  0.45593999997E+02  0.45594000000E+02  0.51100000000E-03 0.  1.
         11   -1    0    0    0    0 -0.00000000000E+00 -0.00000000000E+00 -0.45593999997E+02  0.45594000000E+02  0.51100000000E-03 0. -1.
    9900012    2    1    2    0    0  0.13384993861E+02 -0.12436228515E+02 -0.41064329421E+01  0.72461531250E+02  0.69999949137E+02 0.  0.
         12    1    1    2    0    0 -0.13384993861E+02  0.12436228515E+02  0.41064329421E+01  0.18726468750E+02  0.00000000000E+00 0. -1.
         11    1    3    3    0    0  0.13574292756E+02 -0.88366001823E+01 -0.14509576698E+02  0.21745683315E+02  0.51100000000E-03 0.  1.
        -11    1    3    3    0    0 -0.70473556191E+01 -0.23903378098E+02  0.14593692180E+02  0.28879275570E+02  0.51100000000E-03 0. -1.
         12    1    3    3    0    0  0.68580567242E+01  0.20303749765E+02 -0.41905484240E+01  0.21836572365E+02  0.00000000000E+00 0. -1.
</event>
<event>
 7    1  0.3434711E-013  0.7246144E+02  0.7816164E-02  0.1226708E+00
        -11   -1    0    0    0    0  0.00000000000E+00  0.00000000000E+00  0.45593999997E+02  0.45594000000E+02  0.51100000000E-03 0.  1.
         11   -1    0    0    0    0 -0.00000000000E+00 -0.00000000000E+00 -0.45593999997E+02  0.45594000000E+02  0.51100000000E-03 0. -1.
    9900012    2    1    2    0    0  0.13639559911E+02  0.10365011617E+02 -0.75639272154E+01  0.72461439843E+02  0.69999830063E+02 0.  0.
         12    1    1    2    0    0 -0.13639559911E+02 -0.10365011617E+02  0.75639272154E+01  0.18726560157E+02  0.00000000000E+00 0. -1.
         11    1    3    3    0    0  0.26675825340E+02  0.13060460159E+02 -0.25856968954E+02  0.39379666338E+02  0.51100000000E-03 0. -1.
        -11    1    3    3    0    0  0.61522354001E+01 -0.53433808776E+01  0.62902249783E+01  0.10294107546E+02  0.51100000000E-03 0.  1.
        -12    1    3    3    0    0 -0.19188500829E+02  0.26479323360E+01  0.12002816760E+02  0.22787665960E+02  0.00000000000E+00 0.  1.
</event>
<event>
 7    1  0.3434711E-013  0.7246110E+02  0.7816164E-02  0.1226709E+00
        -11   -1    0    0    0    0  0.00000000000E+00  0.00000000000E+00  0.45593999997E+02  0.45594000000E+02  0.51100000000E-03 0. -1.
         11   -1    0    0    0    0 -0.00000000000E+00 -0.00000000000E+00 -0.45593999997E+02  0.45594000000E+02  0.51100000000E-03 0.  1.
    9900012    2    1    2    0    0  0.19816775585E+00 -0.89454634737E+01 -0.16451026677E+02  0.72461097801E+02  0.69999384487E+02 0.  0.
         12    1    1    2    0    0 -0.19816775585E+00  0.89454634737E+01  0.16451026677E+02  0.18726902199E+02  0.00000000000E+00 0. -1.
         11    1    3    3    0    0 -0.20512864596E+01  0.94425871987E+01 -0.71741465745E+01  0.12034891295E+02  0.51100000000E-03 0. -1.
        -11    1    3    3    0    0  0.17818953911E+02  0.10356264455E+02 -0.17137668517E+02  0.26804235008E+02  0.51100000000E-03 0.  1.
         12    1    3    3    0    0 -0.15569499696E+02 -0.28744315128E+02  0.78607884135E+01  0.33621971498E+02  0.00000000000E+00 0. -1.
</event>
<event>
 7    1  0.3434711E-013  0.7246156E+02  0.7816164E-02  0.1226708E+00
        -11   -1    0    0    0    0  0.00000000000E+00  0.00000000000E+00  0.45593999997E+02  0.45594000000E+02  0.51100000000E-03 0. -1.
         11   -1    0    0    0    0 -0.00000000000E+00 -0.00000000000E+00 -0.45593999997E+02  0.45594000000E+02  0.51100000000E-03 0.  1.
    9900012    2    1    2    0    0  0.11746296244E+02  0.95305964827E+01  0.11039555421E+02  0.72461560705E+02  0.69999987508E+02 0.  0.
         12    1    1    2    0    0 -0.11746296244E+02 -0.95305964827E+01 -0.11039555421E+02  0.18726439295E+02  0.00000000000E+00 0. -1.
         11    1    3    3    0    0  0.20592918318E+01  0.37060049855E+01 -0.28505536807E+01  0.51088954138E+01  0.51100000000E-03 0. -1.
        -11    1    3    3    0    0 -0.20926228846E+02 -0.16092182422E+02  0.13613540579E+02  0.29701748706E+02  0.51100000000E-03 0.  1.
         12    1    3    3    0    0  0.30613233259E+02  0.21916773919E+02  0.27656852284E+00  0.37650916585E+02  0.00000000000E+00 0. -1.
</event>
<event>
 7    1  0.3434711E-013  0.7246151E+02  0.7816164E-02  0.1226708E+00
        -11   -1    0    0    0    0  0.00000000000E+00  0.00000000000E+00  0.45593999997E+02  0.45594000000E+02  0.51100000000E-03 0. -1.
         11   -1    0    0    0    0 -0.00000000000E+00 -0.00000000000E+00 -0.45593999997E+02  0.45594000000E+02  0.51100000000E-03 0.  1.
    9900012    2    1    2    0    0 -0.10545748403E+02  0.15429366969E+02 -0.11845767160E+01  0.72461510835E+02  0.69999922543E+02 0.  0.
         12    1    1    2    0    0  0.10545748403E+02 -0.15429366969E+02  0.11845767160E+01  0.18726489165E+02  0.00000000000E+00 0. -1.
         11    1    3    3    0    0  0.14373604449E+02  0.84539447823E+01  0.56239266813E+00  0.16684902547E+02  0.51100000000E-03 0. -1.
        -11    1    3    3    0    0 -0.50952497763E+00 -0.37643792298E+01  0.20622167336E+02  0.20969119023E+02  0.51100000000E-03 0.  1.
        -12    1    3    3    0    0 -0.24409827874E+02  0.10739801417E+02 -0.22369136720E+02  0.34807489265E+02  0.00000000000E+00 0.  1.
</event>
<event>
 7    1  0.3434711E-013  0.7246161E+02  0.7816164E-02  0.1226708E+00
        -11   -1    0    0    0    0  0.00000000000E+00  0.00000000000E+00  0.45593999997E+02  0.45594000000E+02  0.51100000000E-03 0.  1.
         11   -1    0    0    0    0 -0.00000000000E+00 -0.00000000000E+00 -0.45593999997E+02  0.45594000000E+02  0.51100000000E-03 0. -1.
    9900012    2    1    2    0    0  0.40668580337E+00 -0.11641045431E+02  0.14662826673E+02  0.72461606377E+02  0.70000047004E+02 0.  0.
         12    1    1    2    0    0 -0.40668580337E+00  0.11641045431E+02 -0.14662826673E+02  0.18726393623E+02  0.00000000000E+00 0. -1.
         11    1    3    3    0    0 -0.50689529478E+01  0.10736590776E+02  0.65235643025E+01  0.13547160475E+02  0.51100000000E-03 0. -1.
        -11    1    3    3    0    0 -0.87983888664E+01  0.12853867510E+02  0.13389298001E+02  0.20540371414E+02  0.51100000000E-03 0.  1.
         12    1    3    3    0    0  0.14274027618E+02 -0.35231503718E+02 -0.52500356306E+01  0.38374074487E+02  0.00000000000E+00 0. -1.
</event>
<event>
 7    1  0.3620812E-013  0.7246154E+02  0.7816164E-02  0.1226708E+00
        -11   -1    0    0    0    0  0.00000000000E+00  0.00000000000E+00  0.45593999997E+02  0.45594000000E+02  0.51100000000E-03 0. -1.
         11   -1    0    0    0    0 -0.00000000000E+00 -0.00000000000E+00 -0.45593999997E+02  0.45594000000E+02  0.51100000000E-03 0.  1.
    9900012    2    1    2    0    0 -0.11051118538E+01 -0.55157355702E+01 -0.17861573017E+02  0.72461537394E+02  0.69999957142E+02 0.  0.
         12    1    1    2    0    0  0.11051118538E+01  0.55157355702E+01  0.17861573017E+02  0.18726462606E+02  0.00000000000E+00 0. -1.
         11    1    3    3    0    0  0.18676055705E+02 -0.17180984314E+01 -0.25720064475E+01  0.18930455260E+02  0.51100000000E-03 0. -1.
        -11    1    3    3    0    0 -0.18729195358E+02 -0.14481621140E+02 -0.28147733824E+02  0.36780362006E+02  0.51100000000E-03 0.  1.
         12    1    3    3    0    0 -0.10519722013E+01  0.10683984001E+02  0.12858167255E+02  0.16750720128E+02  0.00000000000E+00 0. -1.
</event>
<event>
 7    1  0.3434711E-013  0.7246155E+02  0.7816164E-02  0.1226708E+00
        -11   -1    0    0    0    0  0.00000000000E+00  0.00000000000E+00  0.45593999997E+02  0.45594000000E+02  0.51100000000E-03 0.  1.
         11   -1    0    0    0    0 -0.00000000000E+00 -0.00000000000E+00 -0.45593999997E+02  0.45594000000E+02  0.51100000000E-03 0. -1.
    9900012    2    1    2    0    0  0.52020213187E+01 -0.30050845214E+01  0.17736635028E+02  0.72461553970E+02  0.69999978735E+02 0.  0.
         12    1    1    2    0    0 -0.52020213187E+01  0.30050845214E+01 -0.17736635028E+02  0.18726446030E+02  0.00000000000E+00 0. -1.
         11    1    3    3    0    0 -0.63137445113E+01  0.55926562341E+01 -0.21494169634E+01  0.87040890994E+01  0.51100000000E-03 0. -1.
        -11    1    3    3    0    0  0.12495526737E+02 -0.87295959425E+01 -0.19280704349E+02  0.24578234156E+02  0.51100000000E-03 0.  1.
         12    1    3    3    0    0 -0.97976090718E+00  0.13185518710E+00  0.39166756340E+02  0.39179230715E+02  0.00000000000E+00 0. -1.
</event>
<event>
 7    1  0.3434711E-013  0.7246156E+02  0.7816164E-02  0.1226708E+00
        -11   -1    0    0    0    0  0.00000000000E+00  0.00000000000E+00  0.45593999997E+02  0.45594000000E+02  0.51100000000E-03 0. -1.
         11   -1    0    0    0    0 -0.00000000000E+00 -0.00000000000E+00 -0.45593999997E+02  0.45594000000E+02  0.51100000000E-03 0.  1.
    9900012    2    1    2    0    0 -0.86799046134E+01  0.80476381109E+01 -0.14511180906E+02  0.72461558946E+02  0.69999985217E+02 0.  0.
         12    1    1    2    0    0  0.86799046134E+01 -0.80476381109E+01  0.14511180906E+02  0.18726441054E+02  0.00000000000E+00 0. -1.
         11    1    3    3    0    0 -0.27483521766E+02 -0.32586973513E+01  0.75489870805E+01  0.28687110054E+02  0.51100000000E-03 0. -1.
        -11    1    3    3    0    0  0.10498278124E+02 -0.95738597141E+01 -0.13873851633E+02  0.19858408617E+02  0.51100000000E-03 0.  1.
        -12    1    3    3    0    0  0.83053390285E+01  0.20880195176E+02 -0.81863163532E+01  0.23916040275E+02  0.00000000000E+00 0.  1.
</event>
<event>
 7    1  0.3434711E-013  0.7246190E+02  0.7816164E-02  0.1226707E+00
        -11   -1    0    0    0    0  0.00000000000E+00  0.00000000000E+00  0.45593999997E+02  0.45594000000E+02  0.51100000000E-03 0.  1.
         11   -1    0    0    0    0 -0.00000000000E+00 -0.00000000000E+00 -0.45593999997E+02  0.45594000000E+02  0.51100000000E-03 0. -1.
    9900012    2    1    2    0    0  0.83970325763E+00 -0.17977076303E+02  0.51755598971E+01  0.72461900721E+02  0.70000430440E+02 0.  0.
         12    1    1    2    0    0 -0.83970325763E+00  0.17977076303E+02 -0.51755598971E+01  0.18726099279E+02  0.00000000000E+00 0. -1.
         11    1    3    3    0    0 -0.98194885981E+01  0.14190551395E+02  0.18647275723E+01  0.17357168962E+02  0.51100000000E-03 0. -1.
        -11    1    3    3    0    0  0.26030755413E+02 -0.10422070642E+02  0.47355948108E+01  0.28436695348E+02  0.51100000000E-03 0.  1.
         12    1    3    3    0    0 -0.15371563557E+02 -0.21745557056E+02 -0.14247624861E+01  0.26668036410E+02  0.00000000000E+00 0. -1.
</event>
<event>
 7    1  0.3434711E-013  0.7246159E+02  0.7816164E-02  0.1226708E+00
        -11   -1    0    0    0    0  0.00000000000E+00  0.00000000000E+00  0.45593999997E+02  0.45594000000E+02  0.51100000000E-03 0. -1.
         11   -1    0    0    0    0 -0.00000000000E+00 -0.00000000000E+00 -0.45593999997E+02  0.45594000000E+02  0.51100000000E-03 0.  1.
    9900012    2    1    2    0    0 -0.55775395412E+01  0.12760522735E+02 -0.12519523525E+02  0.72461591986E+02  0.70000028258E+02 0.  0.
         12    1    1    2    0    0  0.55775395412E+01 -0.12760522735E+02  0.12519523525E+02  0.18726408014E+02  0.00000000000E+00 0. -1.
         11    1    3    3    0    0 -0.16921758650E+02  0.15734201348E+02 -0.29061387552E+01  0.23288551922E+02  0.51100000000E-03 0. -1.
        -11    1    3    3    0    0  0.22477222319E+01 -0.72855295428E+01 -0.27560379431E+02  0.28595554035E+02  0.51100000000E-03 0.  1.
        -12    1    3    3    0    0  0.90964968774E+01  0.43118509297E+01  0.17946994661E+02  0.20577486029E+02  0.00000000000E+00 0.  1.
</event>
<event>
 7    1  0.3434711E-013  0.7246161E+02  0.7816164E-02  0.1226708E+00
        -11   -1    0    0    0    0  0.00000000000E+00  0.00000000000E+00  0.45593999997E+02  0.45594000000E+02  0.51100000000E-03 0.  1.
         11   -1    0    0    0    0 -0.00000000000E+00 -0.00000000000E+00 -0.45593999997E+02  0.45594000000E+02  0.51100000000E-03 0. -1.
    9900012    2    1    2    0    0 -0.74011042379E+01 -0.94517960744E+01  0.14372368707E+02  0.72461607523E+02  0.70000048497E+02 0.  0.
         12    1    1    2    0    0  0.74011042379E+01  0.94517960744E+01 -0.14372368707E+02  0.18726392477E+02  0.00000000000E+00 0. -1.
         11    1    3    3    0    0  0.33126571376E+01  0.76137953846E+01  0.29953504629E+02  0.31083050321E+02  0.51100000000E-03 0. -1.
        -11    1    3    3    0    0  0.41950974467E+01  0.11366730984E+00  0.77380010888E+01  0.88027509311E+01  0.51100000000E-03 0.  1.
         12    1    3    3    0    0 -0.14908858822E+02 -0.17179258769E+02 -0.23319137011E+02  0.32575806270E+02  0.00000000000E+00 0. -1.
</event>
<event>
 7    1  0.3434711E-013  0.7246144E+02  0.7816164E-02  0.1226708E+00
        -11   -1    0    0    0    0  0.00000000000E+00  0.00000000000E+00  0.45593999997E+02  0.45594000000E+02  0.51100000000E-03 0.  1.
         11   -1    0    0    0    0 -0.00000000000E+00 -0.00000000000E+00 -0.45593999997E+02  0.45594000000E+02  0.51100000000E-03 0. -1.
    9900012    2    1    2    0    0 -0.12092800498E+00  0.12986011855E+02  0.13491960008E+02  0.72461438320E+02  0.69999828079E+02 0.  0.
         12    1    1    2    0    0  0.12092800498E+00 -0.12986011855E+02 -0.13491960008E+02  0.18726561680E+02  0.00000000000E+00 0. -1.
         11    1    3    3    0    0 -0.86295536088E+01 -0.11095693860E+01  0.83042591647E+01  0.12027512638E+02  0.51100000000E-03 0. -1.
        -11    1    3    3    0    0 -0.19123987480E+02 -0.73767137271E+01  0.13399771839E+02  0.24488705318E+02  0.51100000000E-03 0.  1.
         12    1    3    3    0    0  0.27632613084E+02  0.21472294968E+02 -0.82120709955E+01  0.35945220365E+02  0.00000000000E+00 0. -1.
</event>
<event>
 7    1  0.3434711E-013  0.7246164E+02  0.7816164E-02  0.1226708E+00
        -11   -1    0    0    0    0  0.00000000000E+00  0.00000000000E+00  0.45593999997E+02  0.45594000000E+02  0.51100000000E-03 0. -1.
         11   -1    0    0    0    0 -0.00000000000E+00 -0.00000000000E+00 -0.45593999997E+02  0.45594000000E+02  0.51100000000E-03 0.  1.
    9900012    2    1    2    0    0  0.13667093677E+02  0.11867847071E+02 -0.48001312403E+01  0.72461641475E+02  0.70000092726E+02 0.  0.
         12    1    1    2    0    0 -0.13667093677E+02 -0.11867847071E+02  0.48001312403E+01  0.18726358525E+02  0.00000000000E+00 0. -1.
         11    1    3    3    0    0 -0.17719211870E+01 -0.12271056486E+02  0.48695191530E+01  0.13320313398E+02  0.51100000000E-03 0.  1.
        -11    1    3    3    0    0  0.31343002046E+02  0.16046066039E+02  0.56014090112E+01  0.35654393779E+02  0.51100000000E-03 0. -1.
        -12    1    3    3    0    0 -0.15903987182E+02  0.80928375179E+01 -0.15271059404E+02  0.23486934298E+02  0.00000000000E+00 0.  1.
</event>
<event>
 7    1  0.3434711E-013  0.7246158E+02  0.7816164E-02  0.1226708E+00
        -11   -1    0    0    0    0  0.00000000000E+00  0.00000000000E+00  0.45593999997E+02  0.45594000000E+02  0.51100000000E-03 0.  1.
         11   -1    0    0    0    0 -0.00000000000E+00 -0.00000000000E+00 -0.45593999997E+02  0.45594000000E+02  0.51100000000E-03 0. -1.
    9900012    2    1    2    0    0 -0.17674008014E+00 -0.63461319003E+01  0.17617434606E+02  0.72461584720E+02  0.70000018792E+02 0.  0.
         12    1    1    2    0    0  0.17674008014E+00  0.63461319003E+01 -0.17617434606E+02  0.18726415280E+02  0.00000000000E+00 0. -1.
         11    1    3    3    0    0  0.16920906217E+02 -0.28774562071E+02  0.70150166754E+01  0.34110159026E+02  0.51100000000E-03 0. -1.
        -11    1    3    3    0    0  0.14046004952E+01  0.95924316624E+01  0.12424187248E+02  0.15759063322E+02  0.51100000000E-03 0.  1.
        -12    1    3    3    0    0 -0.18502246793E+02  0.12835998508E+02 -0.18217693173E+01  0.22592362371E+02  0.00000000000E+00 0.  1.
</event>
<event>
 7    1  0.3434711E-013  0.7246179E+02  0.7816164E-02  0.1226707E+00
        -11   -1    0    0    0    0  0.00000000000E+00  0.00000000000E+00  0.45593999997E+02  0.45594000000E+02  0.51100000000E-03 0. -1.
         11   -1    0    0    0    0 -0.00000000000E+00 -0.00000000000E+00 -0.45593999997E+02  0.45594000000E+02  0.51100000000E-03 0.  1.
    9900012    2    1    2    0    0 -0.12597664539E+02 -0.80434312731E+00 -0.13831952267E+02  0.72461787804E+02  0.70000283346E+02 0.  0.
         12    1    1    2    0    0  0.12597664539E+02  0.80434312731E+00  0.13831952267E+02  0.18726212196E+02  0.00000000000E+00 0. -1.
         11    1    3    3    0    0 -0.48292040811E+01 -0.15590982329E+01 -0.58043943200E+01  0.77099282124E+01  0.51100000000E-03 0. -1.
        -11    1    3    3    0    0 -0.31015092807E+02 -0.33532533803E+01 -0.21200955386E+02  0.37718175984E+02  0.51100000000E-03 0.  1.
         12    1    3    3    0    0  0.23246632349E+02  0.41080084859E+01  0.13173397439E+02  0.27033683607E+02  0.00000000000E+00 0. -1.
</event>
<event>
 7    1  0.3434711E-013  0.7246158E+02  0.7816164E-02  0.1226708E+00
        -11   -1    0    0    0    0  0.00000000000E+00  0.00000000000E+00  0.45593999997E+02  0.45594000000E+02  0.51100000000E-03 0. -1.
         11   -1    0    0    0    0 -0.00000000000E+00 -0.00000000000E+00 -0.45593999997E+02  0.45594000000E+02  0.51100000000E-03 0.  1.
    9900012    2    1    2    0    0 -0.49400313077E+01  0.16652314086E+02 -0.69982288628E+01  0.72461583339E+02  0.70000016993E+02 0.  0.
         12    1    1    2    0    0  0.49400313077E+01 -0.16652314086E+02  0.69982288628E+01  0.18726416661E+02  0.00000000000E+00 0. -1.
         11    1    3    3    0    0  0.63953905387E+01  0.11723137120E+02 -0.85194386565E+01  0.15840258816E+02  0.51100000000E-03 0. -1.
        -11    1    3    3    0    0  0.13595690160E+01  0.25005360751E+02 -0.13566918746E+02  0.28481182888E+02  0.51100000000E-03 0.  1.
         12    1    3    3    0    0 -0.12694990862E+02 -0.20076183785E+02  0.15088128539E+02  0.28140141634E+02  0.00000000000E+00 0. -1.
</event>
<event>
 7    1  0.3434711E-013  0.7246156E+02  0.7816164E-02  0.1226708E+00
        -11   -1    0    0    0    0  0.00000000000E+00  0.00000000000E+00  0.45593999997E+02  0.45594000000E+02  0.51100000000E-03 0. -1.
         11   -1    0    0    0    0 -0.00000000000E+00 -0.00000000000E+00 -0.45593999997E+02  0.45594000000E+02  0.51100000000E-03 0.  1.
    9900012    2    1    2    0    0 -0.53059586351E+00 -0.13903493626E+02  0.12533592502E+02  0.72461558587E+02  0.69999984749E+02 0.  0.
         12    1    1    2    0    0  0.53059586351E+00  0.13903493626E+02 -0.12533592502E+02  0.18726441413E+02  0.00000000000E+00 0. -1.
         11    1    3    3    0    0 -0.65061235562E+01  0.19676885405E+01  0.71167840030E+01  0.98412426414E+01  0.51100000000E-03 0. -1.
        -11    1    3    3    0    0 -0.12270105274E+02 -0.34313897550E+02  0.33315362688E+01  0.36593690476E+02  0.51100000000E-03 0.  1.
        -12    1    3    3    0    0  0.18245632967E+02  0.18442715383E+02  0.20852722306E+01  0.26026625469E+02  0.00000000000E+00 0.  1.
</event>
<event>
 7    1  0.3434711E-013  0.7246151E+02  0.7816164E-02  0.1226708E+00
        -11   -1    0    0    0    0  0.00000000000E+00  0.00000000000E+00  0.45593999997E+02  0.45594000000E+02  0.51100000000E-03 0.  1.
         11   -1    0    0    0    0 -0.00000000000E+00 -0.00000000000E+00 -0.45593999997E+02  0.45594000000E+02  0.51100000000E-03 0. -1.
    9900012    2    1    2    0    0 -0.16179902207E+02 -0.44773375786E+01  0.82973164809E+01  0.72461514798E+02  0.69999927706E+02 0.  0.
         12    1    1    2    0    0  0.16179902207E+02  0.44773375786E+01 -0.82973164809E+01  0.18726485202E+02  0.00000000000E+00 0. -1.
         11    1    3    3    0    0 -0.10655209010E+02 -0.69148861822E+01  0.15291003897E+01  0.12794032915E+02  0.51100000000E-03 0. -1.
        -11    1    3    3    0    0 -0.16248361460E+02 -0.12892222961E+02  0.25717187147E+02  0.33039255107E+02  0.51100000000E-03 0.  1.
         12    1    3    3    0    0  0.10723668263E+02  0.15329771564E+02 -0.18948971055E+02  0.26628226777E+02  0.00000000000E+00 0. -1.
</event>
<event>
 7    1  0.3434711E-013  0.7246156E+02  0.7816164E-02  0.1226708E+00
        -11   -1    0    0    0    0  0.00000000000E+00  0.00000000000E+00  0.45593999997E+02  0.45594000000E+02  0.51100000000E-03 0.  1.
         11   -1    0    0    0    0 -0.00000000000E+00 -0.00000000000E+00 -0.45593999997E+02  0.45594000000E+02  0.51100000000E-03 0. -1.
    9900012    2    1    2    0    0  0.12804332558E+02 -0.68024404749E+01  0.11851381529E+02  0.72461564867E+02  0.69999992929E+02 0.  0.
         12    1    1    2    0    0 -0.12804332558E+02  0.68024404749E+01 -0.11851381529E+02  0.18726435133E+02  0.00000000000E+00 0. -1.
         11    1    3    3    0    0  0.21791026601E+02 -0.34304858466E+01 -0.15607995548E+02  0.27022705245E+02  0.51100000000E-03 0. -1.
        -11    1    3    3    0    0  0.72909762979E+01  0.42650831289E+01 -0.38897887876E+01  0.92994476473E+01  0.51100000000E-03 0.  1.
        -12    1    3    3    0    0 -0.16277670341E+02 -0.76370377572E+01  0.31349165864E+02  0.36139411974E+02  0.00000000000E+00 0.  1.
</event>
<event>
 7    1  0.3434711E-013  0.7246150E+02  0.7816164E-02  0.1226708E+00
        -11   -1    0    0    0    0  0.00000000000E+00  0.00000000000E+00  0.45593999997E+02  0.45594000000E+02  0.51100000000E-03 0.  1.
         11   -1    0    0    0    0 -0.00000000000E+00 -0.00000000000E+00 -0.45593999997E+02  0.45594000000E+02  0.51100000000E-03 0. -1.
    9900012    2    1    2    0    0  0.66833621950E+01 -0.35073633725E+00  0.17489751302E+02  0.72461501480E+02  0.69999910357E+02 0.  0.
         12    1    1    2    0    0 -0.66833621950E+01  0.35073633725E+00 -0.17489751302E+02  0.18726498520E+02  0.00000000000E+00 0. -1.
         11    1    3    3    0    0 -0.27146231040E+02 -0.18307139055E+01 -0.39396686663E+01  0.27491641685E+02  0.51100000000E-03 0. -1.
        -11    1    3    3    0    0  0.30865131660E+01  0.61859810704E+00  0.12578563474E+02  0.12966475484E+02  0.51100000000E-03 0.  1.
        -12    1    3    3    0    0  0.30743080069E+02  0.86137946126E+00  0.88508564941E+01  0.32003384311E+02  0.00000000000E+00 0.  1.
</event>
<event>
 7    1  0.3434711E-013  0.7246156E+02  0.7816164E-02  0.1226708E+00
        -11   -1    0    0    0    0  0.00000000000E+00  0.00000000000E+00  0.45593999997E+02  0.45594000000E+02  0.51100000000E-03 0.  1.
         11   -1    0    0    0    0 -0.00000000000E+00 -0.00000000000E+00 -0.45593999997E+02  0.45594000000E+02  0.51100000000E-03 0. -1.
    9900012    2    1    2    0    0 -0.60101098699E+01  0.35792161647E+01  0.17370871213E+02  0.72461564790E+02  0.69999992829E+02 0.  0.
         12    1    1    2    0    0  0.60101098699E+01 -0.35792161647E+01 -0.17370871213E+02  0.18726435210E+02  0.00000000000E+00 0. -1.
         11    1    3    3    0    0 -0.44028289481E+01  0.22174349550E+02 -0.16362293107E+02  0.27907191129E+02  0.51100000000E-03 0. -1.
        -11    1    3    3    0    0  0.18948667305E+01  0.46221666875E+00 -0.26753608821E+01  0.33108488769E+01  0.51100000000E-03 0.  1.
        -12    1    3    3    0    0 -0.35021476524E+01 -0.19057350054E+02  0.36408525202E+02  0.41243524784E+02  0.00000000000E+00 0.  1.
</event>
<event>
 7    1  0.3434711E-013  0.7246155E+02  0.7816164E-02  0.1226708E+00
        -11   -1    0    0    0    0  0.00000000000E+00  0.00000000000E+00  0.45593999997E+02  0.45594000000E+02  0.51100000000E-03 0. -1.
         11   -1    0    0    0    0 -0.00000000000E+00 -0.00000000000E+00 -0.45593999997E+02  0.45594000000E+02  0.51100000000E-03 0.  1.
    9900012    2    1    2    0    0  0.79835910404E-01 -0.13138064895E+02 -0.13344087044E+02  0.72461553941E+02  0.69999978697E+02 0.  0.
         12    1    1    2    0    0 -0.79835910404E-01  0.13138064895E+02  0.13344087044E+02  0.18726446059E+02  0.00000000000E+00 0. -1.
         11    1    3    3    0    0 -0.77587100593E+01 -0.23169822411E+02 -0.18895073181E+02  0.30887894767E+02  0.51100000000E-03 0. -1.
        -11    1    3    3    0    0 -0.69444490384E+01 -0.10222381299E+02 -0.62632779687E+01  0.13854641931E+02  0.51100000000E-03 0.  1.
         12    1    3    3    0    0  0.14782995008E+02  0.20254138815E+02  0.11814264106E+02  0.27719017243E+02  0.00000000000E+00 0. -1.
</event>
<event>
 7    1  0.3434711E-013  0.7246161E+02  0.7816164E-02  0.1226708E+00
        -11   -1    0    0    0    0  0.00000000000E+00  0.00000000000E+00  0.45593999997E+02  0.45594000000E+02  0.51100000000E-03 0. -1.
         11   -1    0    0    0    0 -0.00000000000E+00 -0.00000000000E+00 -0.45593999997E+02  0.45594000000E+02  0.51100000000E-03 0.  1.
    9900012    2    1    2    0    0  0.86503778486E+01  0.30585406006E+01  0.16324637904E+02  0.72461614598E+02  0.70000057714E+02 0.  0.
         12    1    1    2    0    0 -0.86503778486E+01 -0.30585406006E+01 -0.16324637904E+02  0.18726385402E+02  0.00000000000E+00 0. -1.
         11    1    3    3    0    0  0.49476626125E+00  0.54577048312E+01  0.36370744201E+02  0.36781277434E+02  0.51100000000E-03 0. -1.
        -11    1    3    3    0    0  0.38816906988E+01 -0.50334350258E+00  0.71145422037E+01  0.81201963272E+01  0.51100000000E-03 0.  1.
        -12    1    3    3    0    0  0.42739208885E+01 -0.18958207280E+01 -0.27160648501E+02  0.27560140837E+02  0.00000000000E+00 0.  1.
</event>
<event>
 7    1  0.3434711E-013  0.7246157E+02  0.7816164E-02  0.1226708E+00
        -11   -1    0    0    0    0  0.00000000000E+00  0.00000000000E+00  0.45593999997E+02  0.45594000000E+02  0.51100000000E-03 0.  1.
         11   -1    0    0    0    0 -0.00000000000E+00 -0.00000000000E+00 -0.45593999997E+02  0.45594000000E+02  0.51100000000E-03 0. -1.
    9900012    2    1    2    0    0 -0.15160662220E+02 -0.97999546881E+01  0.49794135626E+01  0.72461565468E+02  0.69999993713E+02 0.  0.
         12    1    1    2    0    0  0.15160662220E+02  0.97999546881E+01 -0.49794135626E+01  0.18726434532E+02  0.00000000000E+00 0. -1.
         11    1    3    3    0    0 -0.88668746727E+01  0.11565689518E+02 -0.15868379677E+01  0.14659628081E+02  0.51100000000E-03 0. -1.
        -11    1    3    3    0    0 -0.23347919446E+02 -0.16934377268E+02  0.20460190377E+02  0.35362662038E+02  0.51100000000E-03 0.  1.
         12    1    3    3    0    0  0.17054131899E+02 -0.44312669380E+01 -0.13893938847E+02  0.22439275348E+02  0.00000000000E+00 0. -1.
</event>
<event>
 7    1  0.3434711E-013  0.7246159E+02  0.7816164E-02  0.1226708E+00
        -11   -1    0    0    0    0  0.00000000000E+00  0.00000000000E+00  0.45593999997E+02  0.45594000000E+02  0.51100000000E-03 0.  1.
         11   -1    0    0    0    0 -0.00000000000E+00 -0.00000000000E+00 -0.45593999997E+02  0.45594000000E+02  0.51100000000E-03 0. -1.
    9900012    2    1    2    0    0 -0.24300356977E+01 -0.18398258217E+02 -0.25054495024E+01  0.72461594682E+02  0.70000031769E+02 0.  0.
         12    1    1    2    0    0  0.24300356977E+01  0.18398258217E+02  0.25054495024E+01  0.18726405318E+02  0.00000000000E+00 0. -1.
         11    1    3    3    0    0  0.33212767913E+01 -0.59918179584E+01  0.41225007349E+01  0.79954846346E+01  0.51100000000E-03 0. -1.
        -11    1    3    3    0    0  0.10894138875E+02 -0.21232217560E+02  0.20484618538E+02  0.31450102087E+02  0.51100000000E-03 0.  1.
         12    1    3    3    0    0 -0.16645451363E+02  0.88257773015E+01 -0.27112568775E+02  0.33016007961E+02  0.00000000000E+00 0. -1.
</event>
<event>
 7    1  0.3434711E-013  0.7246159E+02  0.7816164E-02  0.1226708E+00
        -11   -1    0    0    0    0  0.00000000000E+00  0.00000000000E+00  0.45593999997E+02  0.45594000000E+02  0.51100000000E-03 0. -1.
         11   -1    0    0    0    0 -0.00000000000E+00 -0.00000000000E+00 -0.45593999997E+02  0.45594000000E+02  0.51100000000E-03 0.  1.
    9900012    2    1    2    0    0 -0.33117083710E+01  0.18404812024E+02  0.98686767841E+00  0.72461590152E+02  0.70000025869E+02 0.  0.
         12    1    1    2    0    0  0.33117083710E+01 -0.18404812024E+02 -0.98686767841E+00  0.18726409848E+02  0.00000000000E+00 0. -1.
         11    1    3    3    0    0  0.28484637509E+01  0.16862402654E+02  0.25313014069E+02  0.30548372306E+02  0.51100000000E-03 0. -1.
        -11    1    3    3    0    0  0.70983810653E+01 -0.92041888647E+01  0.67405485560E+00  0.11642957383E+02  0.51100000000E-03 0.  1.
        -12    1    3    3    0    0 -0.13258553187E+02  0.10746598234E+02 -0.25000201246E+02  0.30270260464E+02  0.00000000000E+00 0.  1.
</event>
<event>
 7    1  0.3434711E-013  0.7246155E+02  0.7816164E-02  0.1226708E+00
        -11   -1    0    0    0    0  0.00000000000E+00  0.00000000000E+00  0.45593999997E+02  0.45594000000E+02  0.51100000000E-03 0.  1.
         11   -1    0    0    0    0 -0.00000000000E+00 -0.00000000000E+00 -0.45593999997E+02  0.45594000000E+02  0.51100000000E-03 0. -1.
    9900012    2    1    2    0    0 -0.12734560826E+02  0.71441469143E+01 -0.11724852055E+02  0.72461547312E+02  0.69999970061E+02 0.  0.
         12    1    1    2    0    0  0.12734560826E+02 -0.71441469143E+01  0.11724852055E+02  0.18726452688E+02  0.00000000000E+00 0. -1.
         11    1    3    3    0    0 -0.23429708057E+01  0.74498661144E+01  0.96988806934E+01  0.12452240934E+02  0.51100000000E-03 0. -1.
        -11    1    3    3    0    0 -0.51182032845E+01 -0.89217798342E+01  0.17224971546E+02  0.20062248261E+02  0.51100000000E-03 0.  1.
         12    1    3    3    0    0 -0.52733867358E+01  0.86160606341E+01 -0.38648704295E+02  0.39947058116E+02  0.00000000000E+00 0. -1.
</event>
<event>
 7    1  0.3434711E-013  0.7246166E+02  0.7816164E-02  0.1226708E+00
        -11   -1    0    0    0    0  0.00000000000E+00  0.00000000000E+00  0.45593999997E+02  0.45594000000E+02  0.51100000000E-03 0. -1.
         11   -1    0    0    0    0 -0.00000000000E+00 -0.00000000000E+00 -0.45593999997E+02  0.45594000000E+02  0.51100000000E-03 0.  1.
    9900012    2    1    2    0    0  0.68680097896E+01 -0.21111166955E+01 -0.17293044319E+02  0.72461661490E+02  0.70000118799E+02 0.  0.
         12    1    1    2    0    0 -0.68680097896E+01  0.21111166955E+01  0.17293044319E+02  0.18726338510E+02  0.00000000000E+00 0. -1.
         11    1    3    3    0    0 -0.84412403735E+01  0.13160372032E+02  0.19242598981E+02  0.24793699741E+02  0.51100000000E-03 0. -1.
        -11    1    3    3    0    0  0.46584412990E+01  0.32333571541E+01 -0.38583759753E+00  0.56837087130E+01  0.51100000000E-03 0.  1.
        -12    1    3    3    0    0  0.10650808864E+02 -0.18504845881E+02 -0.36149805703E+02  0.41984253035E+02  0.00000000000E+00 0.  1.
</event>
<event>
 7    1  0.3434711E-013  0.7246157E+02  0.7816164E-02  0.1226708E+00
        -11   -1    0    0    0    0  0.00000000000E+00  0.00000000000E+00  0.45593999997E+02  0.45594000000E+02  0.51100000000E-03 0.  1.
         11   -1    0    0    0    0 -0.00000000000E+00 -0.00000000000E+00 -0.45593999997E+02  0.45594000000E+02  0.51100000000E-03 0. -1.
    9900012    2    1    2    0    0  0.13613909293E+02  0.36208296578E+01  0.12338165697E+02  0.72461567707E+02  0.69999996629E+02 0.  0.
         12    1    1    2    0    0 -0.13613909293E+02 -0.36208296578E+01 -0.12338165697E+02  0.18726432293E+02  0.00000000000E+00 0. -1.
         11    1    3    3    0    0  0.15905751337E+02  0.31994189792E+01  0.11280205813E+02  0.19760370717E+02  0.51100000000E-03 0. -1.
        -11    1    3    3    0    0  0.16694888577E+02 -0.19092447719E+02  0.21465114875E+01  0.25452865778E+02  0.51100000000E-03 0.  1.
         12    1    3    3    0    0 -0.18986730621E+02  0.19513858397E+02 -0.10885516038E+01  0.27248331212E+02  0.00000000000E+00 0. -1.
</event>
<event>
 7    1  0.3434711E-013  0.7246196E+02  0.7816164E-02  0.1226707E+00
        -11   -1    0    0    0    0  0.00000000000E+00  0.00000000000E+00  0.45593999997E+02  0.45594000000E+02  0.51100000000E-03 0.  1.
         11   -1    0    0    0    0 -0.00000000000E+00 -0.00000000000E+00 -0.45593999997E+02  0.45594000000E+02  0.51100000000E-03 0. -1.
    9900012    2    1    2    0    0  0.30693593903E+01 -0.15670092534E+02  0.97822128920E+01  0.72461963149E+02  0.70000511764E+02 0.  0.
         12    1    1    2    0    0 -0.30693593903E+01  0.15670092534E+02 -0.97822128920E+01  0.18726036851E+02  0.00000000000E+00 0. -1.
         11    1    3    3    0    0 -0.10840907378E+02 -0.36535656287E+02 -0.80122620567E+01  0.38943238137E+02  0.51100000000E-03 0. -1.
        -11    1    3    3    0    0  0.83283590753E+01  0.27832550568E+01  0.23447161753E+01  0.90887715233E+01  0.51100000000E-03 0.  1.
        -12    1    3    3    0    0  0.55819076933E+01  0.18082308696E+02  0.15449758773E+02  0.24429953488E+02  0.00000000000E+00 0.  1.
</event>
<event>
 7    1  0.3837675E-013  0.7246159E+02  0.7816164E-02  0.1226708E+00
        -11   -1    0    0    0    0  0.00000000000E+00  0.00000000000E+00  0.45593999997E+02  0.45594000000E+02  0.51100000000E-03 0.  1.
         11   -1    0    0    0    0 -0.00000000000E+00 -0.00000000000E+00 -0.45593999997E+02  0.45594000000E+02  0.51100000000E-03 0. -1.
    9900012    2    1    2    0    0 -0.70230980781E+01 -0.13884213036E+02  0.10420316501E+02  0.72461594199E+02  0.70000031140E+02 0.  0.
         12    1    1    2    0    0  0.70230980781E+01  0.13884213036E+02 -0.10420316501E+02  0.18726405801E+02  0.00000000000E+00 0. -1.
         11    1    3    3    0    0  0.91730487782E+01 -0.42782231336E+00  0.10900462033E+02  0.14252997180E+02  0.51100000000E-03 0. -1.
        -11    1    3    3    0    0 -0.10195159352E+02 -0.15971107048E+02  0.25306425864E+02  0.31613805921E+02  0.51100000000E-03 0.  1.
         12    1    3    3    0    0 -0.60009875045E+01  0.25147163258E+01 -0.25786571395E+02  0.26594791098E+02  0.00000000000E+00 0. -1.
</event>
<event>
 7    1  0.3434711E-013  0.7246149E+02  0.7816164E-02  0.1226708E+00
        -11   -1    0    0    0    0  0.00000000000E+00  0.00000000000E+00  0.45593999997E+02  0.45594000000E+02  0.51100000000E-03 0. -1.
         11   -1    0    0    0    0 -0.00000000000E+00 -0.00000000000E+00 -0.45593999997E+02  0.45594000000E+02  0.51100000000E-03 0.  1.
    9900012    2    1    2    0    0 -0.14473341402E+02 -0.11876132716E+02 -0.40261859828E+00  0.72461488275E+02  0.69999893155E+02 0.  0.
         12    1    1    2    0    0  0.14473341402E+02  0.11876132716E+02  0.40261859828E+00  0.18726511725E+02  0.00000000000E+00 0. -1.
         11    1    3    3    0    0 -0.14218705749E+02  0.59249369998E+01  0.74296260217E+01  0.17101924299E+02  0.51100000000E-03 0. -1.
        -11    1    3    3    0    0  0.53775548080E+01 -0.18720750759E+02 -0.28163389059E+02  0.34242679338E+02  0.51100000000E-03 0.  1.
         12    1    3    3    0    0 -0.56321904613E+01  0.91968104249E+00  0.20331144439E+02  0.21116884638E+02  0.00000000000E+00 0. -1.
</event>
<event>
 7    1  0.3434711E-013  0.7246160E+02  0.7816164E-02  0.1226708E+00
        -11   -1    0    0    0    0  0.00000000000E+00  0.00000000000E+00  0.45593999997E+02  0.45594000000E+02  0.51100000000E-03 0. -1.
         11   -1    0    0    0    0 -0.00000000000E+00 -0.00000000000E+00 -0.45593999997E+02  0.45594000000E+02  0.51100000000E-03 0.  1.
    9900012    2    1    2    0    0  0.65204627170E+01  0.15037120172E+02 -0.90579632966E+01  0.72461598419E+02  0.70000036637E+02 0.  0.
         12    1    1    2    0    0 -0.65204627170E+01 -0.15037120172E+02  0.90579632966E+01  0.18726401581E+02  0.00000000000E+00 0. -1.
         11    1    3    3    0    0 -0.15037208956E+02  0.40990567760E+01  0.67022589324E+01  0.16965853787E+02  0.51100000000E-03 0. -1.
        -11    1    3    3    0    0 -0.13957989533E+02  0.94740511332E+01 -0.67989110376E+00  0.16883286672E+02  0.51100000000E-03 0.  1.
        -12    1    3    3    0    0  0.35515661207E+02  0.14640122626E+01 -0.15080331125E+02  0.38612457960E+02  0.00000000000E+00 0.  1.
</event>
<event>
 7    1  0.3434711E-013  0.7246153E+02  0.7816164E-02  0.1226708E+00
        -11   -1    0    0    0    0  0.00000000000E+00  0.00000000000E+00  0.45593999997E+02  0.45594000000E+02  0.51100000000E-03 0. -1.
         11   -1    0    0    0    0 -0.00000000000E+00 -0.00000000000E+00 -0.45593999997E+02  0.45594000000E+02  0.51100000000E-03 0.  1.
    9900012    2    1    2    0    0 -0.71332667853E+01 -0.11125737684E+02  0.13267074165E+02  0.72461527002E+02  0.69999943603E+02 0.  0.
         12    1    1    2    0    0  0.71332667853E+01  0.11125737684E+02 -0.13267074165E+02  0.18726472998E+02  0.00000000000E+00 0. -1.
         11    1    3    3    0    0  0.31241048846E+01 -0.10690772335E+02 -0.70148967265E+01  0.13162880414E+02  0.51100000000E-03 0. -1.
        -11    1    3    3    0    0 -0.26214394309E+02 -0.10758567395E+02 -0.38334015587E+01  0.28594338761E+02  0.51100000000E-03 0.  1.
         12    1    3    3    0    0  0.15957022640E+02  0.10323602046E+02  0.24115372450E+02  0.30704307827E+02  0.00000000000E+00 0. -1.
</event>
<event>
 7    1  0.3434711E-013  0.7246160E+02  0.7816164E-02  0.1226708E+00
        -11   -1    0    0    0    0  0.00000000000E+00  0.00000000000E+00  0.45593999997E+02  0.45594000000E+02  0.51100000000E-03 0.  1.
         11   -1    0    0    0    0 -0.00000000000E+00 -0.00000000000E+00 -0.45593999997E+02  0.45594000000E+02  0.51100000000E-03 0. -1.
    9900012    2    1    2    0    0  0.25100883237E+00  0.12589266258E+01  0.18682351188E+02  0.72461597580E+02  0.70000035544E+02 0.  0.
         12    1    1    2    0    0 -0.25100883237E+00 -0.12589266258E+01 -0.18682351188E+02  0.18726402420E+02  0.00000000000E+00 0. -1.
         11    1    3    3    0    0 -0.21707428683E+02 -0.30430639664E+01  0.98339230902E+01  0.24024544573E+02  0.51100000000E-03 0. -1.
        -11    1    3    3    0    0  0.33084304080E+01 -0.46371962540E+01 -0.15486452442E+02  0.16500894229E+02  0.51100000000E-03 0.  1.
        -12    1    3    3    0    0  0.18650007108E+02  0.89391868462E+01  0.24334880540E+02  0.31936158778E+02  0.00000000000E+00 0.  1.
</event>
<event>
 7    1  0.3434711E-013  0.7246157E+02  0.7816164E-02  0.1226708E+00
        -11   -1    0    0    0    0  0.00000000000E+00  0.00000000000E+00  0.45593999997E+02  0.45594000000E+02  0.51100000000E-03 0.  1.
         11   -1    0    0    0    0 -0.00000000000E+00 -0.00000000000E+00 -0.45593999997E+02  0.45594000000E+02  0.51100000000E-03 0. -1.
    9900012    2    1    2    0    0 -0.12550374560E+02  0.10986055624E+02  0.85131511637E+01  0.72461573151E+02  0.70000003722E+02 0.  0.
         12    1    1    2    0    0  0.12550374560E+02 -0.10986055624E+02 -0.85131511637E+01  0.18726426849E+02  0.00000000000E+00 0. -1.
         11    1    3    3    0    0  0.61526251622E+01  0.15122756063E-01  0.10383987540E+02  0.12069889087E+02  0.51100000000E-03 0. -1.
        -11    1    3    3    0    0  0.13313074696E+02 -0.76936685852E+01 -0.14603549595E+02  0.21205993379E+02  0.51100000000E-03 0.  1.
         12    1    3    3    0    0 -0.32016074418E+02  0.18664601453E+02  0.12732713219E+02  0.39185690685E+02  0.00000000000E+00 0. -1.
</event>
<event>
 7    1  0.3434711E-013  0.7246156E+02  0.7816164E-02  0.1226708E+00
        -11   -1    0    0    0    0  0.00000000000E+00  0.00000000000E+00  0.45593999997E+02  0.45594000000E+02  0.51100000000E-03 0.  1.
         11   -1    0    0    0    0 -0.00000000000E+00 -0.00000000000E+00 -0.45593999997E+02  0.45594000000E+02  0.51100000000E-03 0. -1.
    9900012    2    1    2    0    0 -0.82393273628E+01  0.10855429324E+02  0.12843389611E+02  0.72461560992E+02  0.69999987882E+02 0.  0.
         12    1    1    2    0    0  0.82393273628E+01 -0.10855429324E+02 -0.12843389611E+02  0.18726439008E+02  0.00000000000E+00 0. -1.
         11    1    3    3    0    0 -0.10801381897E+02  0.81350044132E+01  0.15269370010E+01  0.13608074241E+02  0.51100000000E-03 0. -1.
        -11    1    3    3    0    0 -0.69364828367E+01 -0.72525205005E+01  0.32261320644E+02  0.33786190340E+02  0.51100000000E-03 0.  1.
         12    1    3    3    0    0  0.94985373712E+01  0.99729454115E+01 -0.20944868034E+02  0.25067296410E+02  0.00000000000E+00 0. -1.
</event>
<event>
 7    1  0.3434711E-013  0.7246161E+02  0.7816164E-02  0.1226708E+00
        -11   -1    0    0    0    0  0.00000000000E+00  0.00000000000E+00  0.45593999997E+02  0.45594000000E+02  0.51100000000E-03 0.  1.
         11   -1    0    0    0    0 -0.00000000000E+00 -0.00000000000E+00 -0.45593999997E+02  0.45594000000E+02  0.51100000000E-03 0. -1.
    9900012    2    1    2    0    0  0.51727577945E+01  0.27799170021E+01  0.17781797636E+02  0.72461609827E+02  0.70000051499E+02 0.  0.
         12    1    1    2    0    0 -0.51727577945E+01 -0.27799170021E+01 -0.17781797636E+02  0.18726390173E+02  0.00000000000E+00 0. -1.
         11    1    3    3    0    0 -0.15902036554E+02  0.55097958425E+01 -0.24384417776E+01  0.17005252582E+02  0.51100000000E-03 0. -1.
        -11    1    3    3    0    0  0.12491961363E+02  0.16769668330E+02  0.26015077441E+02  0.33377464390E+02  0.51100000000E-03 0.  1.
         12    1    3    3    0    0  0.85828329858E+01 -0.19499547171E+02 -0.57948380274E+01  0.22078892855E+02  0.00000000000E+00 0. -1.
</event>
<event>
 7    1  0.3871635E-013  0.7246154E+02  0.7816164E-02  0.1226708E+00
        -11   -1    0    0    0    0  0.00000000000E+00  0.00000000000E+00  0.45593999997E+02  0.45594000000E+02  0.51100000000E-03 0. -1.
         11   -1    0    0    0    0 -0.00000000000E+00 -0.00000000000E+00 -0.45593999997E+02  0.45594000000E+02  0.51100000000E-03 0.  1.
    9900012    2    1    2    0    0 -0.95314023234E+01  0.11196027255E+02 -0.11596619166E+02  0.72461541909E+02  0.69999963023E+02 0.  0.
         12    1    1    2    0    0  0.95314023234E+01 -0.11196027255E+02  0.11596619166E+02  0.18726458091E+02  0.00000000000E+00 0. -1.
         11    1    3    3    0    0 -0.21853782778E+01  0.15806812947E+02 -0.87764146010E+00  0.15981284947E+02  0.51100000000E-03 0. -1.
        -11    1    3    3    0    0 -0.25774340649E+02  0.12605931235E+02 -0.12287078084E+02  0.31212151901E+02  0.51100000000E-03 0.  1.
         12    1    3    3    0    0  0.18428316604E+02 -0.17216716927E+02  0.15681003782E+01  0.25268105061E+02  0.00000000000E+00 0. -1.
</event>
<event>
 7    1  0.3434711E-013  0.7246131E+02  0.7816164E-02  0.1226709E+00
        -11   -1    0    0    0    0  0.00000000000E+00  0.00000000000E+00  0.45593999997E+02  0.45594000000E+02  0.51100000000E-03 0.  1.
         11   -1    0    0    0    0 -0.00000000000E+00 -0.00000000000E+00 -0.45593999997E+02  0.45594000000E+02  0.51100000000E-03 0. -1.
    9900012    2    1    2    0    0  0.17087151372E+02  0.71773732842E+01  0.26839554653E+01  0.72461306586E+02  0.69999656471E+02 0.  0.
         12    1    1    2    0    0 -0.17087151372E+02 -0.71773732842E+01 -0.26839554653E+01  0.18726693414E+02  0.00000000000E+00 0. -1.
         11    1    3    3    0    0  0.14220381135E+02  0.35194933706E+01  0.38374059445E+01  0.15143703572E+02  0.51100000000E-03 0. -1.
        -11    1    3    3    0    0  0.27458464825E+02  0.98870513766E+01  0.81438088631E+01  0.30299219438E+02  0.51100000000E-03 0.  1.
         12    1    3    3    0    0 -0.24591694588E+02 -0.62291714630E+01 -0.92972593422E+01  0.27018383577E+02  0.00000000000E+00 0. -1.
</event>
<event>
 7    1  0.3434711E-013  0.7246169E+02  0.7816164E-02  0.1226708E+00
        -11   -1    0    0    0    0  0.00000000000E+00  0.00000000000E+00  0.45593999997E+02  0.45594000000E+02  0.51100000000E-03 0.  1.
         11   -1    0    0    0    0 -0.00000000000E+00 -0.00000000000E+00 -0.45593999997E+02  0.45594000000E+02  0.51100000000E-03 0. -1.
    9900012    2    1    2    0    0 -0.15455853725E+02 -0.60173929727E+01 -0.86938035545E+01  0.72461690892E+02  0.70000157101E+02 0.  0.
         12    1    1    2    0    0  0.15455853725E+02  0.60173929727E+01  0.86938035545E+01  0.18726309108E+02  0.00000000000E+00 0. -1.
         11    1    3    3    0    0 -0.12684535309E+01  0.48292096107E+01  0.10549002963E+02  0.11670976977E+02  0.51100000000E-03 0.  1.
        -11    1    3    3    0    0 -0.28705704709E+02 -0.59342691557E+01  0.72390395646E+01  0.30193322562E+02  0.51100000000E-03 0. -1.
         12    1    3    3    0    0  0.14518304515E+02 -0.49123334278E+01 -0.26481846082E+02  0.30597391353E+02  0.00000000000E+00 0. -1.
</event>
<event>
 7    1  0.3434711E-013  0.7246158E+02  0.7816164E-02  0.1226708E+00
        -11   -1    0    0    0    0  0.00000000000E+00  0.00000000000E+00  0.45593999997E+02  0.45594000000E+02  0.51100000000E-03 0.  1.
         11   -1    0    0    0    0 -0.00000000000E+00 -0.00000000000E+00 -0.45593999997E+02  0.45594000000E+02  0.51100000000E-03 0. -1.
    9900012    2    1    2    0    0  0.15546629525E+02 -0.89136769547E+01 -0.54339234235E+01  0.72461578820E+02  0.70000011106E+02 0.  0.
         12    1    1    2    0    0 -0.15546629525E+02  0.89136769547E+01  0.54339234235E+01  0.18726421180E+02  0.00000000000E+00 0. -1.
         11    1    3    3    0    0 -0.37715714642E+01 -0.13318784742E+02  0.12928872480E+02  0.18941238665E+02  0.51100000000E-03 0. -1.
        -11    1    3    3    0    0  0.14393126678E+01 -0.13656140938E+02  0.88101708752E+01  0.16315051866E+02  0.51100000000E-03 0.  1.
         12    1    3    3    0    0  0.17878888322E+02  0.18061248725E+02 -0.27172966779E+02  0.37205288289E+02  0.00000000000E+00 0. -1.
</event>
<event>
 7    1  0.3434711E-013  0.7246161E+02  0.7816164E-02  0.1226708E+00
        -11   -1    0    0    0    0  0.00000000000E+00  0.00000000000E+00  0.45593999997E+02  0.45594000000E+02  0.51100000000E-03 0. -1.
         11   -1    0    0    0    0 -0.00000000000E+00 -0.00000000000E+00 -0.45593999997E+02  0.45594000000E+02  0.51100000000E-03 0.  1.
    9900012    2    1    2    0    0  0.93842007823E+01  0.12356771631E+02 -0.10484501384E+02  0.72461606895E+02  0.70000047679E+02 0.  0.
         12    1    1    2    0    0 -0.93842007823E+01 -0.12356771631E+02  0.10484501384E+02  0.18726393105E+02  0.00000000000E+00 0. -1.
         11    1    3    3    0    0 -0.84390207084E+00  0.36656119636E+01 -0.41450766523E+01  0.55973692470E+01  0.51100000000E-03 0. -1.
        -11    1    3    3    0    0  0.35739411176E+02 -0.59463235562E+01 -0.90001363324E+01  0.37331846047E+02  0.51100000000E-03 0.  1.
         12    1    3    3    0    0 -0.25511308323E+02  0.14637483223E+02  0.26607116007E+01  0.29532391601E+02  0.00000000000E+00 0. -1.
</event>
<event>
 7    1  0.3434711E-013  0.7246156E+02  0.7816164E-02  0.1226708E+00
        -11   -1    0    0    0    0  0.00000000000E+00  0.00000000000E+00  0.45593999997E+02  0.45594000000E+02  0.51100000000E-03 0.  1.
         11   -1    0    0    0    0 -0.00000000000E+00 -0.00000000000E+00 -0.45593999997E+02  0.45594000000E+02  0.51100000000E-03 0. -1.
    9900012    2    1    2    0    0  0.61012162280E+01 -0.14754768985E+02  0.97852672207E+01  0.72461561421E+02  0.69999988441E+02 0.  0.
         12    1    1    2    0    0 -0.61012162280E+01  0.14754768985E+02 -0.97852672207E+01  0.18726438579E+02  0.00000000000E+00 0. -1.
         11    1    3    3    0    0 -0.17735839398E+02  0.55423484900E+01  0.41326633568E+01  0.19035664754E+02  0.51100000000E-03 0. -1.
        -11    1    3    3    0    0  0.89273670270E+01 -0.25342157501E+02 -0.12300051406E+02  0.29550196170E+02  0.51100000000E-03 0.  1.
        -12    1    3    3    0    0  0.14909688599E+02  0.50450400264E+01  0.17952655270E+02  0.23875700497E+02  0.00000000000E+00 0.  1.
</event>
<event>
 7    1  0.3434711E-013  0.7246152E+02  0.7816164E-02  0.1226708E+00
        -11   -1    0    0    0    0  0.00000000000E+00  0.00000000000E+00  0.45593999997E+02  0.45594000000E+02  0.51100000000E-03 0.  1.
         11   -1    0    0    0    0 -0.00000000000E+00 -0.00000000000E+00 -0.45593999997E+02  0.45594000000E+02  0.51100000000E-03 0. -1.
    9900012    2    1    2    0    0  0.61794013913E+01 -0.16212155263E+02  0.70471213365E+01  0.72461524118E+02  0.69999939847E+02 0.  0.
         12    1    1    2    0    0 -0.61794013913E+01  0.16212155263E+02 -0.70471213365E+01  0.18726475882E+02  0.00000000000E+00 0. -1.
         11    1    3    3    0    0 -0.48926856508E+01  0.15069414282E+02 -0.23637688093E+01  0.16019145512E+02  0.51100000000E-03 0. -1.
        -11    1    3    3    0    0 -0.51766258798E+01  0.78145886345E+01  0.10519097058E+02  0.14089593826E+02  0.51100000000E-03 0.  1.
        -12    1    3    3    0    0  0.16248712922E+02 -0.39096158180E+02 -0.11082069118E+01  0.42352784780E+02  0.00000000000E+00 0.  1.
</event>
<event>
 7    1  0.3434711E-013  0.7246159E+02  0.7816164E-02  0.1226708E+00
        -11   -1    0    0    0    0  0.00000000000E+00  0.00000000000E+00  0.45593999997E+02  0.45594000000E+02  0.51100000000E-03 0.  1.
         11   -1    0    0    0    0 -0.00000000000E+00 -0.00000000000E+00 -0.45593999997E+02  0.45594000000E+02  0.51100000000E-03 0. -1.
    9900012    2    1    2    0    0  0.15134447007E+02 -0.10853225956E+02  0.19581581381E+01  0.72461591291E+02  0.70000027351E+02 0.  0.
         12    1    1    2    0    0 -0.15134447007E+02  0.10853225956E+02 -0.19581581381E+01  0.18726408709E+02  0.00000000000E+00 0. -1.
         11    1    3    3    0    0  0.92680087918E+01  0.15231394498E+01 -0.28476814813E+02  0.29985745328E+02  0.51100000000E-03 0. -1.
        -11    1    3    3    0    0  0.15757898654E+02 -0.74336763925E+01  0.12640798672E+02  0.21525814875E+02  0.51100000000E-03 0.  1.
        -12    1    3    3    0    0 -0.98914604385E+01 -0.49426890135E+01  0.17794174279E+02  0.20950031088E+02  0.00000000000E+00 0.  1.
</event>
<event>
 7    1  0.3434711E-013  0.7246156E+02  0.7816164E-02  0.1226708E+00
        -11   -1    0    0    0    0  0.00000000000E+00  0.00000000000E+00  0.45593999997E+02  0.45594000000E+02  0.51100000000E-03 0.  1.
         11   -1    0    0    0    0 -0.00000000000E+00 -0.00000000000E+00 -0.45593999997E+02  0.45594000000E+02  0.51100000000E-03 0. -1.
    9900012    2    1    2    0    0  0.71668844889E+01 -0.37062417248E+01  0.16899080110E+02  0.72461564953E+02  0.69999993042E+02 0.  0.
         12    1    1    2    0    0 -0.71668844889E+01  0.37062417248E+01 -0.16899080110E+02  0.18726435047E+02  0.00000000000E+00 0. -1.
         11    1    3    3    0    0  0.68692586062E+01  0.46922292530E+01 -0.10051846738E+02  0.13047733607E+02  0.51100000000E-03 0. -1.
        -11    1    3    3    0    0  0.20076864232E+02 -0.12986586850E+02  0.30548063092E+02  0.38793247793E+02  0.51100000000E-03 0.  1.
         12    1    3    3    0    0 -0.19779238349E+02  0.45881158720E+01 -0.35971362434E+01  0.20620583554E+02  0.00000000000E+00 0. -1.
</event>
<event>
 7    1  0.3434711E-013  0.7246157E+02  0.7816164E-02  0.1226708E+00
        -11   -1    0    0    0    0  0.00000000000E+00  0.00000000000E+00  0.45593999997E+02  0.45594000000E+02  0.51100000000E-03 0. -1.
         11   -1    0    0    0    0 -0.00000000000E+00 -0.00000000000E+00 -0.45593999997E+02  0.45594000000E+02  0.51100000000E-03 0.  1.
    9900012    2    1    2    0    0  0.12962239643E+02  0.12409703893E+02  0.53533839910E+01  0.72461571419E+02  0.70000001465E+02 0.  0.
         12    1    1    2    0    0 -0.12962239643E+02 -0.12409703893E+02 -0.53533839910E+01  0.18726428581E+02  0.00000000000E+00 0. -1.
         11    1    3    3    0    0 -0.12227651790E+00  0.29090608233E+02  0.16877017605E+02  0.33632010978E+02  0.51100000000E-03 0. -1.
        -11    1    3    3    0    0  0.82149692880E+01  0.82323369729E+01 -0.46994679557E+01  0.12543607606E+02  0.51100000000E-03 0.  1.
        -12    1    3    3    0    0  0.48695468728E+01 -0.24913241314E+02 -0.68241656581E+01  0.26285952835E+02  0.00000000000E+00 0.  1.
</event>
<event>
 7    1  0.3434711E-013  0.7246163E+02  0.7816164E-02  0.1226708E+00
        -11   -1    0    0    0    0  0.00000000000E+00  0.00000000000E+00  0.45593999997E+02  0.45594000000E+02  0.51100000000E-03 0. -1.
         11   -1    0    0    0    0 -0.00000000000E+00 -0.00000000000E+00 -0.45593999997E+02  0.45594000000E+02  0.51100000000E-03 0.  1.
    9900012    2    1    2    0    0 -0.10478221950E+02 -0.15225682739E+02 -0.30103485314E+01  0.72461634940E+02  0.70000084213E+02 0.  0.
         12    1    1    2    0    0  0.10478221950E+02  0.15225682739E+02  0.30103485314E+01  0.18726365060E+02  0.00000000000E+00 0. -1.
         11    1    3    3    0    0  0.10852377230E+02  0.18258318120E+02 -0.10385481157E+02  0.23643148928E+02  0.51100000000E-03 0. -1.
        -11    1    3    3    0    0 -0.55043464004E+01 -0.37102237458E+00 -0.74214139845E+01  0.92473170535E+01  0.51100000000E-03 0.  1.
         12    1    3    3    0    0 -0.15826252779E+02 -0.33112978484E+02  0.14796546610E+02  0.39571168958E+02  0.00000000000E+00 0. -1.
</event>
<event>
 7    1  0.3434711E-013  0.7246157E+02  0.7816164E-02  0.1226708E+00
        -11   -1    0    0    0    0  0.00000000000E+00  0.00000000000E+00  0.45593999997E+02  0.45594000000E+02  0.51100000000E-03 0.  1.
         11   -1    0    0    0    0 -0.00000000000E+00 -0.00000000000E+00 -0.45593999997E+02  0.45594000000E+02  0.51100000000E-03 0. -1.
    9900012    2    1    2    0    0  0.17324830786E+02  0.62751200830E+01 -0.33395018035E+01  0.72461570385E+02  0.70000000119E+02 0.  0.
         12    1    1    2    0    0 -0.17324830786E+02 -0.62751200830E+01  0.33395018035E+01  0.18726429615E+02  0.00000000000E+00 0. -1.
         11    1    3    3    0    0  0.24993097374E+02  0.11013983006E+02 -0.10407287857E+02  0.29227972541E+02  0.51100000000E-03 0. -1.
        -11    1    3    3    0    0  0.11525952281E+02 -0.83506750915E+01 -0.99194397303E+01  0.17348678200E+02  0.51100000000E-03 0.  1.
        -12    1    3    3    0    0 -0.19194218870E+02  0.36118121683E+01  0.16987225784E+02  0.25884919645E+02  0.00000000000E+00 0.  1.
</event>
<event>
 7    1  0.3434711E-013  0.7246155E+02  0.7816164E-02  0.1226708E+00
        -11   -1    0    0    0    0  0.00000000000E+00  0.00000000000E+00  0.45593999997E+02  0.45594000000E+02  0.51100000000E-03 0.  1.
         11   -1    0    0    0    0 -0.00000000000E+00 -0.00000000000E+00 -0.45593999997E+02  0.45594000000E+02  0.51100000000E-03 0. -1.
    9900012    2    1    2    0    0 -0.17045780666E+02  0.77074473996E+01  0.84655329086E+00  0.72461547148E+02  0.69999969848E+02 0.  0.
         12    1    1    2    0    0  0.17045780666E+02 -0.77074473996E+01 -0.84655329086E+00  0.18726452852E+02  0.00000000000E+00 0. -1.
         11    1    3    3    0    0 -0.26779181183E+01 -0.11965538281E+02  0.10768180662E+01  0.12308732234E+02  0.51100000000E-03 0. -1.
        -11    1    3    3    0    0 -0.35479981424E+02  0.14543764797E+02  0.13523704549E+01  0.38368985944E+02  0.51100000000E-03 0.  1.
         12    1    3    3    0    0  0.21112118876E+02  0.51292208835E+01 -0.15826352303E+01  0.21783828969E+02  0.00000000000E+00 0. -1.
</event>
<event>
 7    1  0.3434711E-013  0.7246169E+02  0.7816164E-02  0.1226708E+00
        -11   -1    0    0    0    0  0.00000000000E+00  0.00000000000E+00  0.45593999997E+02  0.45594000000E+02  0.51100000000E-03 0. -1.
         11   -1    0    0    0    0 -0.00000000000E+00 -0.00000000000E+00 -0.45593999997E+02  0.45594000000E+02  0.51100000000E-03 0.  1.
    9900012    2    1    2    0    0  0.98326843071E+01  0.15472329874E+02  0.38209993872E+01  0.72461689399E+02  0.70000155155E+02 0.  0.
         12    1    1    2    0    0 -0.98326843071E+01 -0.15472329874E+02 -0.38209993872E+01  0.18726310601E+02  0.00000000000E+00 0. -1.
         11    1    3    3    0    0  0.88494501578E+00  0.24117708340E+01  0.25923155507E+01  0.36496392167E+01  0.51100000000E-03 0. -1.
        -11    1    3    3    0    0  0.16135076420E+02  0.97790319829E+01  0.31942405246E+02  0.37098347817E+02  0.51100000000E-03 0.  1.
        -12    1    3    3    0    0 -0.71873371286E+01  0.32815270573E+01 -0.30713721410E+02  0.31713702365E+02  0.00000000000E+00 0.  1.
</event>
<event>
 7    1  0.3434711E-013  0.7246154E+02  0.7816164E-02  0.1226708E+00
        -11   -1    0    0    0    0  0.00000000000E+00  0.00000000000E+00  0.45593999997E+02  0.45594000000E+02  0.51100000000E-03 0.  1.
         11   -1    0    0    0    0 -0.00000000000E+00 -0.00000000000E+00 -0.45593999997E+02  0.45594000000E+02  0.51100000000E-03 0. -1.
    9900012    2    1    2    0    0  0.75835605270E+00 -0.16052536479E+02 -0.96136030800E+01  0.72461537560E+02  0.69999957358E+02 0.  0.
         12    1    1    2    0    0 -0.75835605270E+00  0.16052536479E+02  0.96136030800E+01  0.18726462440E+02  0.00000000000E+00 0. -1.
         11    1    3    3    0    0  0.94737266669E+01  0.11333385502E+02 -0.14176016894E+02  0.20473313829E+02  0.51100000000E-03 0. -1.
        -11    1    3    3    0    0 -0.75574733901E+01 -0.31409079926E+02 -0.12334703442E+02  0.34580205539E+02  0.51100000000E-03 0.  1.
         12    1    3    3    0    0 -0.11578972241E+01  0.40231579448E+01  0.16897117256E+02  0.17408018193E+02  0.00000000000E+00 0. -1.
</event>
<event>
 7    1  0.3434711E-013  0.7246156E+02  0.7816164E-02  0.1226708E+00
        -11   -1    0    0    0    0  0.00000000000E+00  0.00000000000E+00  0.45593999997E+02  0.45594000000E+02  0.51100000000E-03 0. -1.
         11   -1    0    0    0    0 -0.00000000000E+00 -0.00000000000E+00 -0.45593999997E+02  0.45594000000E+02  0.51100000000E-03 0.  1.
    9900012    2    1    2    0    0 -0.14359950664E+01 -0.63738590887E+01 -0.17549678724E+02  0.72461564545E+02  0.69999992511E+02 0.  0.
         12    1    1    2    0    0  0.14359950664E+01  0.63738590887E+01  0.17549678724E+02  0.18726435455E+02  0.00000000000E+00 0. -1.
         11    1    3    3    0    0  0.79488532620E+01 -0.96253192273E+00  0.10158665766E+02  0.12934806775E+02  0.51100000000E-03 0. -1.
        -11    1    3    3    0    0  0.37741658553E+01 -0.25674473375E+02 -0.23484705292E+02  0.34999347050E+02  0.51100000000E-03 0.  1.
         12    1    3    3    0    0 -0.13159014184E+02  0.20263146209E+02 -0.42236391984E+01  0.24527410721E+02  0.00000000000E+00 0. -1.
</event>
<event>
 7    1  0.3843360E-013  0.7246153E+02  0.7816164E-02  0.1226708E+00
        -11   -1    0    0    0    0  0.00000000000E+00  0.00000000000E+00  0.45593999997E+02  0.45594000000E+02  0.51100000000E-03 0.  1.
         11   -1    0    0    0    0 -0.00000000000E+00 -0.00000000000E+00 -0.45593999997E+02  0.45594000000E+02  0.51100000000E-03 0. -1.
    9900012    2    1    2    0    0  0.13111237590E+02 -0.29663664573E+01  0.13037515668E+02  0.72461529540E+02  0.69999946910E+02 0.  0.
         12    1    1    2    0    0 -0.13111237590E+02  0.29663664573E+01 -0.13037515668E+02  0.18726470460E+02  0.00000000000E+00 0. -1.
         11    1    3    3    0    0 -0.18342033475E+01 -0.17654581041E+02  0.77951850722E+00  0.17766715595E+02  0.51100000000E-03 0. -1.
        -11    1    3    3    0    0  0.29607328155E+02  0.16615265531E+02  0.18476165599E+02  0.38652679398E+02  0.51100000000E-03 0.  1.
         12    1    3    3    0    0 -0.14661887218E+02 -0.19270509468E+01 -0.62181684389E+01  0.16042134548E+02  0.00000000000E+00 0. -1.
</event>
<event>
 7    1  0.3434711E-013  0.7246164E+02  0.7816164E-02  0.1226708E+00
        -11   -1    0    0    0    0  0.00000000000E+00  0.00000000000E+00  0.45593999997E+02  0.45594000000E+02  0.51100000000E-03 0.  1.
         11   -1    0    0    0    0 -0.00000000000E+00 -0.00000000000E+00 -0.45593999997E+02  0.45594000000E+02  0.51100000000E-03 0. -1.
    9900012    2    1    2    0    0  0.98026973610E+01 -0.32828296311E+01  0.15614310510E+02  0.72461640540E+02  0.70000091508E+02 0.  0.
         12    1    1    2    0    0 -0.98026973610E+01  0.32828296311E+01 -0.15614310510E+02  0.18726359460E+02  0.00000000000E+00 0. -1.
         11    1    3    3    0    0 -0.71302387675E+01 -0.35009101659E+01 -0.13857065949E+02  0.15972318362E+02  0.51100000000E-03 0. -1.
        -11    1    3    3    0    0  0.18133507364E+02  0.16703442260E+02  0.23999763852E+01  0.24770727877E+02  0.51100000000E-03 0.  1.
         12    1    3    3    0    0 -0.12005712352E+01 -0.16485361725E+02  0.27071400073E+02  0.31718594301E+02  0.00000000000E+00 0. -1.
</event>
<event>
 7    1  0.3434711E-013  0.7246151E+02  0.7816164E-02  0.1226708E+00
        -11   -1    0    0    0    0  0.00000000000E+00  0.00000000000E+00  0.45593999997E+02  0.45594000000E+02  0.51100000000E-03 0.  1.
         11   -1    0    0    0    0 -0.00000000000E+00 -0.00000000000E+00 -0.45593999997E+02  0.45594000000E+02  0.51100000000E-03 0. -1.
    9900012    2    1    2    0    0 -0.16644112301E+02  0.65938793986E+01  0.54932308034E+01  0.72461513291E+02  0.69999925742E+02 0.  0.
         12    1    1    2    0    0  0.16644112301E+02 -0.65938793986E+01 -0.54932308034E+01  0.18726486709E+02  0.00000000000E+00 0. -1.
         11    1    3    3    0    0 -0.64476593874E+01 -0.43755297415E+01  0.94456490094E+01  0.12244911497E+02  0.51100000000E-03 0. -1.
        -11    1    3    3    0    0 -0.20815033447E+02 -0.15018433299E+02  0.11550851540E+02  0.28146778283E+02  0.51100000000E-03 0.  1.
         12    1    3    3    0    0  0.10618580534E+02  0.25987842439E+02 -0.15503269746E+02  0.32069823511E+02  0.00000000000E+00 0. -1.
</event>
<event>
 7    1  0.3434711E-013  0.7246135E+02  0.7816164E-02  0.1226709E+00
        -11   -1    0    0    0    0  0.00000000000E+00  0.00000000000E+00  0.45593999997E+02  0.45594000000E+02  0.51100000000E-03 0.  1.
         11   -1    0    0    0    0 -0.00000000000E+00 -0.00000000000E+00 -0.45593999997E+02  0.45594000000E+02  0.51100000000E-03 0. -1.
    9900012    2    1    2    0    0  0.11279691116E+02 -0.12463432164E+02  0.82534037687E+01  0.72461354632E+02  0.69999719059E+02 0.  0.
         12    1    1    2    0    0 -0.11279691116E+02  0.12463432164E+02 -0.82534037687E+01  0.18726645368E+02  0.00000000000E+00 0. -1.
         11    1    3    3    0    0  0.12006672953E+02 -0.21320207302E+02 -0.85792290148E+01  0.25929030170E+02  0.51100000000E-03 0. -1.
        -11    1    3    3    0    0 -0.16752386842E+02 -0.31579629461E+01 -0.41285873233E+01  0.17540251663E+02  0.51100000000E-03 0.  1.
        -12    1    3    3    0    0  0.16025405005E+02  0.12014738084E+02  0.20961220107E+02  0.28992072799E+02  0.00000000000E+00 0.  1.
</event>
<event>
 7    1  0.3434711E-013  0.7246157E+02  0.7816164E-02  0.1226708E+00
        -11   -1    0    0    0    0  0.00000000000E+00  0.00000000000E+00  0.45593999997E+02  0.45594000000E+02  0.51100000000E-03 0.  1.
         11   -1    0    0    0    0 -0.00000000000E+00 -0.00000000000E+00 -0.45593999997E+02  0.45594000000E+02  0.51100000000E-03 0. -1.
    9900012    2    1    2    0    0 -0.10644687967E+02  0.11180956500E+01  0.15366190185E+02  0.72461566260E+02  0.69999994745E+02 0.  0.
         12    1    1    2    0    0  0.10644687967E+02 -0.11180956500E+01 -0.15366190185E+02  0.18726433740E+02  0.00000000000E+00 0. -1.
         11    1    3    3    0    0  0.53024319140E+01 -0.27937385840E+02  0.20226943932E+02  0.34896168456E+02  0.51100000000E-03 0. -1.
        -11    1    3    3    0    0 -0.99324620195E+01  0.28500767517E+01 -0.68141339566E+00  0.10355726133E+02  0.51100000000E-03 0.  1.
        -12    1    3    3    0    0 -0.60146578616E+01  0.26205404739E+02 -0.41793403510E+01  0.27209671672E+02  0.00000000000E+00 0.  1.
</event>
<event>
 7    1  0.3434711E-013  0.7246159E+02  0.7816164E-02  0.1226708E+00
        -11   -1    0    0    0    0  0.00000000000E+00  0.00000000000E+00  0.45593999997E+02  0.45594000000E+02  0.51100000000E-03 0.  1.
         11   -1    0    0    0    0 -0.00000000000E+00 -0.00000000000E+00 -0.45593999997E+02  0.45594000000E+02  0.51100000000E-03 0. -1.
    9900012    2    1    2    0    0  0.11178448188E+02 -0.11504300377E+02  0.96629047881E+01  0.72461591909E+02  0.70000028157E+02 0.  0.
         12    1    1    2    0    0 -0.11178448188E+02  0.11504300377E+02 -0.96629047881E+01  0.18726408091E+02  0.00000000000E+00 0. -1.
         11    1    3    3    0    0 -0.15399217725E+02  0.11357378592E+02  0.39664929955E+00  0.19138528834E+02  0.51100000000E-03 0. -1.
        -11    1    3    3    0    0  0.24941204121E+01 -0.37049569213E+01 -0.14031629441E+02  0.14725283272E+02  0.51100000000E-03 0.  1.
        -12    1    3    3    0    0  0.24083545501E+02 -0.19156722048E+02  0.23297884929E+02  0.38597779802E+02  0.00000000000E+00 0.  1.
</event>
<event>
 7    1  0.3434711E-013  0.7246129E+02  0.7816164E-02  0.1226709E+00
        -11   -1    0    0    0    0  0.00000000000E+00  0.00000000000E+00  0.45593999997E+02  0.45594000000E+02  0.51100000000E-03 0. -1.
         11   -1    0    0    0    0 -0.00000000000E+00 -0.00000000000E+00 -0.45593999997E+02  0.45594000000E+02  0.51100000000E-03 0.  1.
    9900012    2    1    2    0    0  0.11223721789E+02 -0.20945814591E+01 -0.14843537184E+02  0.72461286502E+02  0.69999630307E+02 0.  0.
         12    1    1    2    0    0 -0.11223721789E+02  0.20945814591E+01  0.14843537184E+02  0.18726713498E+02  0.00000000000E+00 0. -1.
         11    1    3    3    0    0  0.50151007169E+01 -0.24605764227E+02  0.21413822137E+01  0.25202785292E+02  0.51100000000E-03 0. -1.
        -11    1    3    3    0    0 -0.11273916231E+02 -0.40843639946E+01 -0.70830582625E+01  0.13926698498E+02  0.51100000000E-03 0.  1.
        -12    1    3    3    0    0  0.17482537304E+02  0.26595546763E+02 -0.99018611352E+01  0.33331802713E+02  0.00000000000E+00 0.  1.
</event>
<event>
 7    1  0.3434711E-013  0.7246156E+02  0.7816164E-02  0.1226708E+00
        -11   -1    0    0    0    0  0.00000000000E+00  0.00000000000E+00  0.45593999997E+02  0.45594000000E+02  0.51100000000E-03 0. -1.
         11   -1    0    0    0    0 -0.00000000000E+00 -0.00000000000E+00 -0.45593999997E+02  0.45594000000E+02  0.51100000000E-03 0.  1.
    9900012    2    1    2    0    0 -0.79019419400E+01  0.10372865741E+02 -0.13440328113E+02  0.72461562809E+02  0.69999990248E+02 0.  0.
         12    1    1    2    0    0  0.79019419400E+01 -0.10372865741E+02  0.13440328113E+02  0.18726437191E+02  0.00000000000E+00 0. -1.
         11    1    3    3    0    0 -0.48768879623E+01  0.34069920455E+01 -0.20239530356E+02  0.21095739387E+02  0.51100000000E-03 0. -1.
        -11    1    3    3    0    0  0.19033256812E+02  0.14595942411E+02 -0.60297404146E+01  0.24731845250E+02  0.51100000000E-03 0.  1.
         12    1    3    3    0    0 -0.22058310790E+02 -0.76300687159E+01  0.12828942658E+02  0.26633978171E+02  0.00000000000E+00 0. -1.
</event>
<event>
 7    1  0.3434711E-013  0.7246162E+02  0.7816164E-02  0.1226708E+00
        -11   -1    0    0    0    0  0.00000000000E+00  0.00000000000E+00  0.45593999997E+02  0.45594000000E+02  0.51100000000E-03 0.  1.
         11   -1    0    0    0    0 -0.00000000000E+00 -0.00000000000E+00 -0.45593999997E+02  0.45594000000E+02  0.51100000000E-03 0. -1.
    9900012    2    1    2    0    0  0.12782438538E+01 -0.13746986954E+02  0.12651629647E+02  0.72461620467E+02  0.70000065360E+02 0.  0.
         12    1    1    2    0    0 -0.12782438538E+01  0.13746986954E+02 -0.12651629647E+02  0.18726379533E+02  0.00000000000E+00 0. -1.
         11    1    3    3    0    0  0.93594496831E+01  0.14149546445E+02  0.14937719470E+02  0.22604079857E+02  0.51100000000E-03 0. -1.
        -11    1    3    3    0    0 -0.10638434253E+02 -0.39817788994E+01  0.16015596833E+02  0.19634922682E+02  0.51100000000E-03 0.  1.
         12    1    3    3    0    0  0.25572284236E+01 -0.23914754499E+02 -0.18301686656E+02  0.30222617928E+02  0.00000000000E+00 0. -1.
</event>
<event>
 7    1  0.3434711E-013  0.7246153E+02  0.7816164E-02  0.1226708E+00
        -11   -1    0    0    0    0  0.00000000000E+00  0.00000000000E+00  0.45593999997E+02  0.45594000000E+02  0.51100000000E-03 0.  1.
         11   -1    0    0    0    0 -0.00000000000E+00 -0.00000000000E+00 -0.45593999997E+02  0.45594000000E+02  0.51100000000E-03 0. -1.
    9900012    2    1    2    0    0 -0.10858316323E+02 -0.27326817482E+01  0.15010338224E+02  0.72461525786E+02  0.69999942019E+02 0.  0.
         12    1    1    2    0    0  0.10858316323E+02  0.27326817482E+01 -0.15010338224E+02  0.18726474214E+02  0.00000000000E+00 0. -1.
         11    1    3    3    0    0  0.13203835115E+02 -0.50149320143E+01  0.39888062707E+00  0.14129752682E+02  0.51100000000E-03 0. -1.
        -11    1    3    3    0    0  0.20624660403E+01  0.12136493412E+02  0.25536676463E+02  0.28349075532E+02  0.51100000000E-03 0.  1.
        -12    1    3    3    0    0 -0.26124617478E+02 -0.98542431461E+01 -0.10925218866E+02  0.29982697571E+02  0.00000000000E+00 0.  1.
</event>
<event>
 7    1  0.3434711E-013  0.7246157E+02  0.7816164E-02  0.1226708E+00
        -11   -1    0    0    0    0  0.00000000000E+00  0.00000000000E+00  0.45593999997E+02  0.45594000000E+02  0.51100000000E-03 0.  1.
         11   -1    0    0    0    0 -0.00000000000E+00 -0.00000000000E+00 -0.45593999997E+02  0.45594000000E+02  0.51100000000E-03 0. -1.
    9900012    2    1    2    0    0 -0.17841147109E+02 -0.97039177356E+00  0.56063514342E+01  0.72461565028E+02  0.69999993140E+02 0.  0.
         12    1    1    2    0    0  0.17841147109E+02  0.97039177356E+00 -0.56063514342E+01  0.18726434972E+02  0.00000000000E+00 0. -1.
         11    1    3    3    0    0 -0.67183075216E+01  0.59624367340E+01 -0.21394631721E+02  0.23203805173E+02  0.51100000000E-03 0. -1.
        -11    1    3    3    0    0 -0.82606716037E+01  0.15065736222E+02  0.19143573310E+02  0.25723364916E+02  0.51100000000E-03 0.  1.
        -12    1    3    3    0    0 -0.28621679835E+01 -0.21998564729E+02  0.78574098445E+01  0.23534394940E+02  0.00000000000E+00 0.  1.
</event>
<event>
 7    1  0.3434711E-013  0.7246174E+02  0.7816164E-02  0.1226708E+00
        -11   -1    0    0    0    0  0.00000000000E+00  0.00000000000E+00  0.45593999997E+02  0.45594000000E+02  0.51100000000E-03 0.  1.
         11   -1    0    0    0    0 -0.00000000000E+00 -0.00000000000E+00 -0.45593999997E+02  0.45594000000E+02  0.51100000000E-03 0. -1.
    9900012    2    1    2    0    0 -0.48670399842E+01  0.10552648713E+01  0.18051897566E+02  0.72461743890E+02  0.70000226140E+02 0.  0.
         12    1    1    2    0    0  0.48670399842E+01 -0.10552648713E+01 -0.18051897566E+02  0.18726256110E+02  0.00000000000E+00 0. -1.
         11    1    3    3    0    0  0.35412176720E+01 -0.93832538434E+01 -0.56423084820E+01  0.11507446309E+02  0.51100000000E-03 0. -1.
        -11    1    3    3    0    0 -0.12783714067E+02  0.28312566865E+02  0.14141999374E+00  0.31065170009E+02  0.51100000000E-03 0.  1.
         12    1    3    3    0    0  0.43754564104E+01 -0.17874048150E+02  0.23552786055E+02  0.29889127572E+02  0.00000000000E+00 0. -1.
</event>
<event>
 7    1  0.3434711E-013  0.7246154E+02  0.7816164E-02  0.1226708E+00
        -11   -1    0    0    0    0  0.00000000000E+00  0.00000000000E+00  0.45593999997E+02  0.45594000000E+02  0.51100000000E-03 0.  1.
         11   -1    0    0    0    0 -0.00000000000E+00 -0.00000000000E+00 -0.45593999997E+02  0.45594000000E+02  0.51100000000E-03 0. -1.
    9900012    2    1    2    0    0  0.51056614788E+01  0.95066462758E+01  0.15304771011E+02  0.72461544963E+02  0.69999967001E+02 0.  0.
         12    1    1    2    0    0 -0.51056614788E+01 -0.95066462758E+01 -0.15304771011E+02  0.18726455037E+02  0.00000000000E+00 0. -1.
         11    1    3    3    0    0 -0.87919735426E+01  0.16375098706E+02 -0.36101444899E+01  0.18933457156E+02  0.51100000000E-03 0. -1.
        -11    1    3    3    0    0  0.55084411635E+01  0.32798621494E+01 -0.15449875087E+02  0.16727195229E+02  0.51100000000E-03 0.  1.
        -12    1    3    3    0    0  0.83891938580E+01 -0.10148314579E+02  0.34364790588E+02  0.36800892578E+02  0.00000000000E+00 0.  1.
</event>
<event>
 7    1  0.3434711E-013  0.7246159E+02  0.7816164E-02  0.1226708E+00
        -11   -1    0    0    0    0  0.00000000000E+00  0.00000000000E+00  0.45593999997E+02  0.45594000000E+02  0.51100000000E-03 0. -1.
         11   -1    0    0    0    0 -0.00000000000E+00 -0.00000000000E+00 -0.45593999997E+02  0.45594000000E+02  0.51100000000E-03 0.  1.
    9900012    2    1    2    0    0 -0.99065963355E+01 -0.11604062437E+02  0.10857425165E+02  0.72461585575E+02  0.70000019906E+02 0.  0.
         12    1    1    2    0    0  0.99065963355E+01  0.11604062437E+02 -0.10857425165E+02  0.18726414425E+02  0.00000000000E+00 0. -1.
         11    1    3    3    0    0 -0.24324853071E+02 -0.10746439361E+02  0.22129700775E+01  0.26684858491E+02  0.51100000000E-03 0.  1.
        -11    1    3    3    0    0 -0.13133744782E+02  0.82755945761E+01  0.11809166673E+00  0.15524002818E+02  0.51100000000E-03 0. -1.
        -12    1    3    3    0    0  0.27552001518E+02 -0.91332176519E+01  0.85263634209E+01  0.30252724266E+02  0.00000000000E+00 0.  1.
</event>
<event>
 7    1  0.3434711E-013  0.7246154E+02  0.7816164E-02  0.1226708E+00
        -11   -1    0    0    0    0  0.00000000000E+00  0.00000000000E+00  0.45593999997E+02  0.45594000000E+02  0.51100000000E-03 0.  1.
         11   -1    0    0    0    0 -0.00000000000E+00 -0.00000000000E+00 -0.45593999997E+02  0.45594000000E+02  0.51100000000E-03 0. -1.
    9900012    2    1    2    0    0  0.59127835272E+01  0.16817060045E+02 -0.57363414810E+01  0.72461544618E+02  0.69999966551E+02 0.  0.
         12    1    1    2    0    0 -0.59127835272E+01 -0.16817060045E+02  0.57363414810E+01  0.18726455382E+02  0.00000000000E+00 0. -1.
         11    1    3    3    0    0  0.68326013173E+01  0.14077295067E+02  0.38592655561E+01  0.16116718278E+02  0.51100000000E-03 0. -1.
        -11    1    3    3    0    0  0.46924728910E+01  0.96868519951E+01  0.21472150539E+02  0.24018901983E+02  0.51100000000E-03 0.  1.
         12    1    3    3    0    0 -0.56122906812E+01 -0.69470870165E+01 -0.31067757577E+02  0.32325924357E+02  0.00000000000E+00 0. -1.
</event>
<event>
 7    1  0.3434711E-013  0.7246159E+02  0.7816164E-02  0.1226708E+00
        -11   -1    0    0    0    0  0.00000000000E+00  0.00000000000E+00  0.45593999997E+02  0.45594000000E+02  0.51100000000E-03 0.  1.
         11   -1    0    0    0    0 -0.00000000000E+00 -0.00000000000E+00 -0.45593999997E+02  0.45594000000E+02  0.51100000000E-03 0. -1.
    9900012    2    1    2    0    0 -0.17763945034E+02  0.40505212083E+01  0.43259535392E+01  0.72461592463E+02  0.70000028879E+02 0.  0.
         12    1    1    2    0    0  0.17763945034E+02 -0.40505212083E+01 -0.43259535392E+01  0.18726407537E+02  0.00000000000E+00 0. -1.
         11    1    3    3    0    0 -0.51593245900E+01  0.36825387877E+01 -0.11204907657E+02  0.12873603924E+02  0.51100000000E-03 0. -1.
        -11    1    3    3    0    0  0.11189548158E+01  0.18176391798E+02 -0.13644169092E+02  0.22755145114E+02  0.51100000000E-03 0.  1.
         12    1    3    3    0    0 -0.13723575260E+02 -0.17808409378E+02  0.29175030287E+02  0.36832843425E+02  0.00000000000E+00 0. -1.
</event>
<event>
 7    1  0.3434711E-013  0.7246155E+02  0.7816164E-02  0.1226708E+00
        -11   -1    0    0    0    0  0.00000000000E+00  0.00000000000E+00  0.45593999997E+02  0.45594000000E+02  0.51100000000E-03 0.  1.
         11   -1    0    0    0    0 -0.00000000000E+00 -0.00000000000E+00 -0.45593999997E+02  0.45594000000E+02  0.51100000000E-03 0. -1.
    9900012    2    1    2    0    0  0.49260966852E+01  0.91179589113E+01  0.15597313313E+02  0.72461553839E+02  0.69999978564E+02 0.  0.
         12    1    1    2    0    0 -0.49260966852E+01 -0.91179589113E+01 -0.15597313313E+02  0.18726446161E+02  0.00000000000E+00 0. -1.
         11    1    3    3    0    0  0.48740232156E+01  0.51193653367E+01 -0.11549578488E+02  0.13540929336E+02  0.51100000000E-03 0. -1.
        -11    1    3    3    0    0 -0.18001721729E+02 -0.61971546982E+01 -0.58791118316E+01  0.19925628416E+02  0.51100000000E-03 0.  1.
         12    1    3    3    0    0  0.18053795199E+02  0.10195748273E+02  0.33026003632E+02  0.38994996087E+02  0.00000000000E+00 0. -1.
</event>
<event>
 7    1  0.3434711E-013  0.7246153E+02  0.7816164E-02  0.1226708E+00
        -11   -1    0    0    0    0  0.00000000000E+00  0.00000000000E+00  0.45593999997E+02  0.45594000000E+02  0.51100000000E-03 0. -1.
         11   -1    0    0    0    0 -0.00000000000E+00 -0.00000000000E+00 -0.45593999997E+02  0.45594000000E+02  0.51100000000E-03 0.  1.
    9900012    2    1    2    0    0 -0.42254707743E+01 -0.10996323690E+02 -0.14557021090E+02  0.72461532074E+02  0.69999950211E+02 0.  0.
         12    1    1    2    0    0  0.42254707743E+01  0.10996323690E+02  0.14557021090E+02  0.18726467926E+02  0.00000000000E+00 0. -1.
         11    1    3    3    0    0  0.74526976663E+01  0.95427072121E+01 -0.11935103569E+02  0.17001548779E+02  0.51100000000E-03 0. -1.
        -11    1    3    3    0    0  0.17865020533E+02 -0.10526637595E+02 -0.10563281799E+02  0.23271269418E+02  0.51100000000E-03 0.  1.
         12    1    3    3    0    0 -0.29543188974E+02 -0.10012393307E+02  0.79413642770E+01  0.32188713877E+02  0.00000000000E+00 0. -1.
</event>
<event>
 7    1  0.3434711E-013  0.7246159E+02  0.7816164E-02  0.1226708E+00
        -11   -1    0    0    0    0  0.00000000000E+00  0.00000000000E+00  0.45593999997E+02  0.45594000000E+02  0.51100000000E-03 0. -1.
         11   -1    0    0    0    0 -0.00000000000E+00 -0.00000000000E+00 -0.45593999997E+02  0.45594000000E+02  0.51100000000E-03 0.  1.
    9900012    2    1    2    0    0  0.44661369212E+01  0.68838123217E+01 -0.16832858777E+02  0.72461591223E+02  0.70000027263E+02 0.  0.
         12    1    1    2    0    0 -0.44661369212E+01 -0.68838123217E+01  0.16832858777E+02  0.18726408777E+02  0.00000000000E+00 0. -1.
         11    1    3    3    0    0  0.99119311594E+01  0.34122543007E+02 -0.17835258150E+02  0.39757901782E+02  0.51100000000E-03 0. -1.
        -11    1    3    3    0    0 -0.84253375293E+00  0.24413810080E+01 -0.50226583052E+00  0.26310597821E+01  0.51100000000E-03 0.  1.
        -12    1    3    3    0    0 -0.46032604852E+01 -0.29680111693E+02  0.15046652039E+01  0.30072629659E+02  0.00000000000E+00 0.  1.
</event>
<event>
 7    1  0.3434711E-013  0.7246171E+02  0.7816164E-02  0.1226708E+00
        -11   -1    0    0    0    0  0.00000000000E+00  0.00000000000E+00  0.45593999997E+02  0.45594000000E+02  0.51100000000E-03 0.  1.
         11   -1    0    0    0    0 -0.00000000000E+00 -0.00000000000E+00 -0.45593999997E+02  0.45594000000E+02  0.51100000000E-03 0. -1.
    9900012    2    1    2    0    0  0.20737726920E+01 -0.97860041592E+01  0.15830589851E+02  0.72461708707E+02  0.70000180307E+02 0.  0.
         12    1    1    2    0    0 -0.20737726920E+01  0.97860041592E+01 -0.15830589851E+02  0.18726291293E+02  0.00000000000E+00 0. -1.
         11    1    3    3    0    0  0.17192296662E+02  0.39031591561E+01 -0.15144049209E+01  0.17694720638E+02  0.51100000000E-03 0. -1.
        -11    1    3    3    0    0  0.33435353276E+01 -0.26316495883E+02  0.18545017030E+02  0.32367496674E+02  0.51100000000E-03 0.  1.
        -12    1    3    3    0    0 -0.18462059298E+02  0.12627332568E+02 -0.12000222579E+01  0.22399491394E+02  0.00000000000E+00 0.  1.
</event>
<event>
 7    1  0.5408293E-013  0.7246161E+02  0.7816164E-02  0.1226708E+00
        -11   -1    0    0    0    0  0.00000000000E+00  0.00000000000E+00  0.45593999997E+02  0.45594000000E+02  0.51100000000E-03 0. -1.
         11   -1    0    0    0    0 -0.00000000000E+00 -0.00000000000E+00 -0.45593999997E+02  0.45594000000E+02  0.51100000000E-03 0.  1.
    9900012    2    1    2    0    0 -0.65500006951E+01 -0.91008720152E+01 -0.14998309863E+02  0.72461610084E+02  0.70000051834E+02 0.  0.
         12    1    1    2    0    0  0.65500006951E+01  0.91008720152E+01  0.14998309863E+02  0.18726389916E+02  0.00000000000E+00 0. -1.
         11    1    3    3    0    0 -0.13166165553E+02 -0.70683107320E+01  0.38494134608E+01  0.15431361451E+02  0.51100000000E-03 0. -1.
        -11    1    3    3    0    0  0.18239822610E+02 -0.21055489337E+02 -0.30620738168E-01  0.27857237802E+02  0.51100000000E-03 0.  1.
         12    1    3    3    0    0 -0.11623657753E+02  0.19022928054E+02 -0.18817102585E+02  0.29173010832E+02  0.00000000000E+00 0. -1.
</event>
<event>
 7    1  0.3434711E-013  0.7246152E+02  0.7816164E-02  0.1226708E+00
        -11   -1    0    0    0    0  0.00000000000E+00  0.00000000000E+00  0.45593999997E+02  0.45594000000E+02  0.51100000000E-03 0. -1.
         11   -1    0    0    0    0 -0.00000000000E+00 -0.00000000000E+00 -0.45593999997E+02  0.45594000000E+02  0.51100000000E-03 0.  1.
    9900012    2    1    2    0    0 -0.13200916073E+02 -0.48226587102E+01 -0.12375732972E+02  0.72461521719E+02  0.69999936722E+02 0.  0.
         12    1    1    2    0    0  0.13200916073E+02  0.48226587102E+01  0.12375732972E+02  0.18726478281E+02  0.00000000000E+00 0. -1.
         11    1    3    3    0    0 -0.87687288042E+01  0.85799966996E+01 -0.21515286127E+01  0.12455361249E+02  0.51100000000E-03 0.  1.
        -11    1    3    3    0    0 -0.21230438615E+02 -0.25498474123E+02 -0.18175089737E+02  0.37831700908E+02  0.51100000000E-03 0. -1.
         12    1    3    3    0    0  0.16798251346E+02  0.12095818713E+02  0.79508853778E+01  0.22174459563E+02  0.00000000000E+00 0. -1.
</event>
<event>
 7    1  0.3434711E-013  0.7246154E+02  0.7816164E-02  0.1226708E+00
        -11   -1    0    0    0    0  0.00000000000E+00  0.00000000000E+00  0.45593999997E+02  0.45594000000E+02  0.51100000000E-03 0. -1.
         11   -1    0    0    0    0 -0.00000000000E+00 -0.00000000000E+00 -0.45593999997E+02  0.45594000000E+02  0.51100000000E-03 0.  1.
    9900012    2    1    2    0    0 -0.11279383896E+02  0.14568066169E+02 -0.33506984006E+01  0.72461541906E+02  0.69999963019E+02 0.  0.
         12    1    1    2    0    0  0.11279383896E+02 -0.14568066169E+02  0.33506984006E+01  0.18726458094E+02  0.00000000000E+00 0. -1.
         11    1    3    3    0    0 -0.54032866438E+00  0.76014285810E+00 -0.22332490846E+01  0.24201599049E+01  0.51100000000E-03 0. -1.
        -11    1    3    3    0    0 -0.33879585067E+02 -0.14703088464E+01 -0.17159930243E+02  0.38005937675E+02  0.51100000000E-03 0.  1.
         12    1    3    3    0    0  0.23140529835E+02  0.15278232157E+02  0.16042480927E+02  0.32035444326E+02  0.00000000000E+00 0. -1.
</event>
<event>
 7    1  0.3434711E-013  0.7246154E+02  0.7816164E-02  0.1226708E+00
        -11   -1    0    0    0    0  0.00000000000E+00  0.00000000000E+00  0.45593999997E+02  0.45594000000E+02  0.51100000000E-03 0. -1.
         11   -1    0    0    0    0 -0.00000000000E+00 -0.00000000000E+00 -0.45593999997E+02  0.45594000000E+02  0.51100000000E-03 0.  1.
    9900012    2    1    2    0    0 -0.13429399107E+02 -0.12757137419E+02 -0.27544331834E+01  0.72461542309E+02  0.69999963544E+02 0.  0.
         12    1    1    2    0    0  0.13429399107E+02  0.12757137419E+02  0.27544331834E+01  0.18726457691E+02  0.00000000000E+00 0. -1.
         11    1    3    3    0    0  0.55095290141E+00 -0.36120122666E+02  0.33118406684E+01  0.36275819762E+02  0.51100000000E-03 0. -1.
        -11    1    3    3    0    0  0.72967908495E+00 -0.18635132045E+01 -0.66839376269E+01  0.69771151268E+01  0.51100000000E-03 0.  1.
        -12    1    3    3    0    0 -0.14710031093E+02  0.25226498452E+02  0.61766377509E+00  0.29208607421E+02  0.00000000000E+00 0.  1.
</event>
<event>
 7    1  0.3434711E-013  0.7246152E+02  0.7816164E-02  0.1226708E+00
        -11   -1    0    0    0    0  0.00000000000E+00  0.00000000000E+00  0.45593999997E+02  0.45594000000E+02  0.51100000000E-03 0. -1.
         11   -1    0    0    0    0 -0.00000000000E+00 -0.00000000000E+00 -0.45593999997E+02  0.45594000000E+02  0.51100000000E-03 0.  1.
    9900012    2    1    2    0    0  0.12840907713E+02  0.11532857197E+02 -0.72653576843E+01  0.72461517995E+02  0.69999931870E+02 0.  0.
         12    1    1    2    0    0 -0.12840907713E+02 -0.11532857197E+02  0.72653576843E+01  0.18726482005E+02  0.00000000000E+00 0. -1.
         11    1    3    3    0    0  0.13785715714E+02  0.28523949175E+02  0.89321627925E+01  0.32915728258E+02  0.51100000000E-03 0. -1.
        -11    1    3    3    0    0 -0.75580143040E+01  0.63056542827E+01  0.92568040905E+00  0.98864422637E+01  0.51100000000E-03 0.  1.
        -12    1    3    3    0    0  0.66132063030E+01 -0.23296746261E+02 -0.17123200886E+02  0.29659347473E+02  0.00000000000E+00 0.  1.
</event>
<event>
 7    1  0.3434711E-013  0.7246184E+02  0.7816164E-02  0.1226707E+00
        -11   -1    0    0    0    0  0.00000000000E+00  0.00000000000E+00  0.45593999997E+02  0.45594000000E+02  0.51100000000E-03 0.  1.
         11   -1    0    0    0    0 -0.00000000000E+00 -0.00000000000E+00 -0.45593999997E+02  0.45594000000E+02  0.51100000000E-03 0. -1.
    9900012    2    1    2    0    0  0.11048236841E+02 -0.52675021356E+01 -0.14172473748E+02  0.72461838403E+02  0.70000349260E+02 0.  0.
         12    1    1    2    0    0 -0.11048236841E+02  0.52675021356E+01  0.14172473748E+02  0.18726161597E+02  0.00000000000E+00 0. -1.
         11    1    3    3    0    0  0.39827474098E+01 -0.17904178933E+02 -0.11848601011E+02  0.21836008023E+02  0.51100000000E-03 0. -1.
        -11    1    3    3    0    0 -0.11947588010E+02  0.18192904217E+02  0.13203530739E+02  0.25457019609E+02  0.51100000000E-03 0.  1.
         12    1    3    3    0    0  0.19013077441E+02 -0.55562274200E+01 -0.15527403476E+02  0.25168810771E+02  0.00000000000E+00 0. -1.
</event>
<event>
 7    1  0.3434711E-013  0.7246163E+02  0.7816164E-02  0.1226708E+00
        -11   -1    0    0    0    0  0.00000000000E+00  0.00000000000E+00  0.45593999997E+02  0.45594000000E+02  0.51100000000E-03 0.  1.
         11   -1    0    0    0    0 -0.00000000000E+00 -0.00000000000E+00 -0.45593999997E+02  0.45594000000E+02  0.51100000000E-03 0. -1.
    9900012    2    1    2    0    0  0.12945119960E+02 -0.12524326631E+02 -0.51227041201E+01  0.72461628599E+02  0.70000075953E+02 0.  0.
         12    1    1    2    0    0 -0.12945119960E+02  0.12524326631E+02  0.51227041201E+01  0.18726371401E+02  0.00000000000E+00 0. -1.
         11    1    3    3    0    0 -0.52790021703E+01  0.70050868653E+01  0.60924124342E+01  0.10679728247E+02  0.51100000000E-03 0. -1.
        -11    1    3    3    0    0  0.24211006485E+01  0.11953821687E+02  0.13919853432E+02  0.18507239154E+02  0.51100000000E-03 0.  1.
        -12    1    3    3    0    0  0.15803021482E+02 -0.31483235183E+02 -0.25134969986E+02  0.43274661198E+02  0.00000000000E+00 0.  1.
</event>
<event>
 7    1  0.3434711E-013  0.7246152E+02  0.7816164E-02  0.1226708E+00
        -11   -1    0    0    0    0  0.00000000000E+00  0.00000000000E+00  0.45593999997E+02  0.45594000000E+02  0.51100000000E-03 0.  1.
         11   -1    0    0    0    0 -0.00000000000E+00 -0.00000000000E+00 -0.45593999997E+02  0.45594000000E+02  0.51100000000E-03 0. -1.
    9900012    2    1    2    0    0 -0.11338813087E+02 -0.27307806831E+01  0.14651112908E+02  0.72461522627E+02  0.69999937905E+02 0.  0.
         12    1    1    2    0    0  0.11338813087E+02  0.27307806831E+01 -0.14651112908E+02  0.18726477373E+02  0.00000000000E+00 0. -1.
         11    1    3    3    0    0  0.72690296364E+01 -0.97884123687E+01  0.93892534655E-01  0.12192646334E+02  0.51100000000E-03 0. -1.
        -11    1    3    3    0    0  0.14799772871E+02  0.67206087229E+01  0.20679867462E+02  0.26303170477E+02  0.51100000000E-03 0.  1.
         12    1    3    3    0    0 -0.33407615595E+02  0.33702296265E+00 -0.61226470887E+01  0.33965705816E+02  0.00000000000E+00 0. -1.
</event>
<event>
 7    1  0.3434711E-013  0.7246157E+02  0.7816164E-02  0.1226708E+00
        -11   -1    0    0    0    0  0.00000000000E+00  0.00000000000E+00  0.45593999997E+02  0.45594000000E+02  0.51100000000E-03 0. -1.
         11   -1    0    0    0    0 -0.00000000000E+00 -0.00000000000E+00 -0.45593999997E+02  0.45594000000E+02  0.51100000000E-03 0.  1.
    9900012    2    1    2    0    0  0.76007413288E+01 -0.14907990999E+02 -0.84059356233E+01  0.72461568998E+02  0.69999998311E+02 0.  0.
         12    1    1    2    0    0 -0.76007413288E+01  0.14907990999E+02  0.84059356233E+01  0.18726431002E+02  0.00000000000E+00 0. -1.
         11    1    3    3    0    0  0.20134763307E+02 -0.16027783401E+01 -0.44917886480E+01  0.20691876603E+02  0.51100000000E-03 0. -1.
        -11    1    3    3    0    0  0.90944473948E+01 -0.16309850092E+02  0.14150470402E+02  0.23429809993E+02  0.51100000000E-03 0.  1.
        -12    1    3    3    0    0 -0.21628469373E+02  0.30046374324E+01 -0.18064617377E+02  0.28339882401E+02  0.00000000000E+00 0.  1.
</event>
<event>
 7    1  0.3434711E-013  0.7246157E+02  0.7816164E-02  0.1226708E+00
        -11   -1    0    0    0    0  0.00000000000E+00  0.00000000000E+00  0.45593999997E+02  0.45594000000E+02  0.51100000000E-03 0.  1.
         11   -1    0    0    0    0 -0.00000000000E+00 -0.00000000000E+00 -0.45593999997E+02  0.45594000000E+02  0.51100000000E-03 0. -1.
    9900012    2    1    2    0    0 -0.97466990795E+01  0.14612009843E+02  0.64938575855E+01  0.72461570524E+02  0.70000000299E+02 0.  0.
         12    1    1    2    0    0  0.97466990795E+01 -0.14612009843E+02 -0.64938575855E+01  0.18726429476E+02  0.00000000000E+00 0. -1.
         11    1    3    3    0    0 -0.38144968617E+01 -0.21415987087E+02  0.20917391113E+02  0.30178338928E+02  0.51100000000E-03 0. -1.
        -11    1    3    3    0    0  0.49014095524E+01  0.10733375581E+02 -0.15403414958E+01  0.11899656261E+02  0.51100000000E-03 0.  1.
        -12    1    3    3    0    0 -0.10833611770E+02  0.25294621349E+02 -0.12883192031E+02  0.30383575334E+02  0.00000000000E+00 0.  1.
</event>
<event>
 7    1  0.3434711E-013  0.7246155E+02  0.7816164E-02  0.1226708E+00
        -11   -1    0    0    0    0  0.00000000000E+00  0.00000000000E+00  0.45593999997E+02  0.45594000000E+02  0.51100000000E-03 0.  1.
         11   -1    0    0    0    0 -0.00000000000E+00 -0.00000000000E+00 -0.45593999997E+02  0.45594000000E+02  0.51100000000E-03 0. -1.
    9900012    2    1    2    0    0 -0.68160159200E+01  0.16044024412E+02  0.68418693633E+01  0.72461548955E+02  0.69999972202E+02 0.  0.
         12    1    1    2    0    0  0.68160159200E+01 -0.16044024412E+02 -0.68418693633E+01  0.18726451045E+02  0.00000000000E+00 0. -1.
         11    1    3    3    0    0 -0.17148793416E+02  0.21971661722E+02 -0.71543699689E+01  0.28775337433E+02  0.51100000000E-03 0. -1.
        -11    1    3    3    0    0  0.51754033570E+01  0.86865012757E+01 -0.10578059743E+02  0.14633367777E+02  0.51100000000E-03 0.  1.
        -12    1    3    3    0    0  0.51573741388E+01 -0.14614138586E+02  0.24574299075E+02  0.29052843745E+02  0.00000000000E+00 0.  1.
</event>
<event>
 7    1  0.3434711E-013  0.7246158E+02  0.7816164E-02  0.1226708E+00
        -11   -1    0    0    0    0  0.00000000000E+00  0.00000000000E+00  0.45593999997E+02  0.45594000000E+02  0.51100000000E-03 0. -1.
         11   -1    0    0    0    0 -0.00000000000E+00 -0.00000000000E+00 -0.45593999997E+02  0.45594000000E+02  0.51100000000E-03 0.  1.
    9900012    2    1    2    0    0 -0.10164543533E+02  0.48741216994E+00 -0.15720160679E+02  0.72461575685E+02  0.70000007022E+02 0.  0.
         12    1    1    2    0    0  0.10164543533E+02 -0.48741216994E+00  0.15720160679E+02  0.18726424315E+02  0.00000000000E+00 0. -1.
         11    1    3    3    0    0 -0.16901475698E+02  0.51361423702E+01  0.17654324510E+01  0.17752650259E+02  0.51100000000E-03 0. -1.
        -11    1    3    3    0    0  0.12578941985E+02  0.17536147112E+02 -0.22552595599E+02  0.31214833101E+02  0.51100000000E-03 0.  1.
        -12    1    3    3    0    0 -0.58420098199E+01 -0.22184877313E+02  0.50670024690E+01  0.23494092324E+02  0.00000000000E+00 0.  1.
</event>
<event>
 7    1  0.3434711E-013  0.7246168E+02  0.7816164E-02  0.1226708E+00
        -11   -1    0    0    0    0  0.00000000000E+00  0.00000000000E+00  0.45593999997E+02  0.45594000000E+02  0.51100000000E-03 0.  1.
         11   -1    0    0    0    0 -0.00000000000E+00 -0.00000000000E+00 -0.45593999997E+02  0.45594000000E+02  0.51100000000E-03 0. -1.
    9900012    2    1    2    0    0 -0.75907189726E+01 -0.17105650912E+02 -0.67290289369E+00  0.72461678793E+02  0.70000141340E+02 0.  0.
         12    1    1    2    0    0  0.75907189726E+01  0.17105650912E+02  0.67290289369E+00  0.18726321207E+02  0.00000000000E+00 0. -1.
         11    1    3    3    0    0 -0.35531155761E+01  0.99120905000E+01 -0.15568435389E+02  0.18794955416E+02  0.51100000000E-03 0. -1.
        -11    1    3    3    0    0 -0.20100338539E+02 -0.16606161578E+02 -0.44520913644E+01  0.26450129102E+02  0.51100000000E-03 0.  1.
         12    1    3    3    0    0  0.16062735143E+02 -0.10411579834E+02  0.19347623859E+02  0.27216594275E+02  0.00000000000E+00 0. -1.
</event>
<event>
 7    1  0.3434711E-013  0.7246161E+02  0.7816164E-02  0.1226708E+00
        -11   -1    0    0    0    0  0.00000000000E+00  0.00000000000E+00  0.45593999997E+02  0.45594000000E+02  0.51100000000E-03 0. -1.
         11   -1    0    0    0    0 -0.00000000000E+00 -0.00000000000E+00 -0.45593999997E+02  0.45594000000E+02  0.51100000000E-03 0.  1.
    9900012    2    1    2    0    0 -0.45487392812E+01  0.64216324570E+01 -0.16992619924E+02  0.72461614221E+02  0.70000057223E+02 0.  0.
         12    1    1    2    0    0  0.45487392812E+01 -0.64216324570E+01  0.16992619924E+02  0.18726385779E+02  0.00000000000E+00 0. -1.
         11    1    3    3    0    0  0.13628747309E+02 -0.53577908013E+01  0.13229022590E+01  0.14703698382E+02  0.51100000000E-03 0. -1.
        -11    1    3    3    0    0  0.46054535782E+01  0.10765061639E+02  0.13971382674E+02  0.18228995826E+02  0.51100000000E-03 0.  1.
        -12    1    3    3    0    0 -0.22782940168E+02  0.10143616198E+01 -0.32286904856E+02  0.39528920013E+02  0.00000000000E+00 0.  1.
</event>
<event>
 7    1  0.3434711E-013  0.7246160E+02  0.7816164E-02  0.1226708E+00
        -11   -1    0    0    0    0  0.00000000000E+00  0.00000000000E+00  0.45593999997E+02  0.45594000000E+02  0.51100000000E-03 0.  1.
         11   -1    0    0    0    0 -0.00000000000E+00 -0.00000000000E+00 -0.45593999997E+02  0.45594000000E+02  0.51100000000E-03 0. -1.
    9900012    2    1    2    0    0  0.25151848385E+00 -0.16251474974E+02  0.93007816158E+01  0.72461595138E+02  0.70000032364E+02 0.  0.
         12    1    1    2    0    0 -0.25151848385E+00  0.16251474974E+02 -0.93007816158E+01  0.18726404862E+02  0.00000000000E+00 0. -1.
         11    1    3    3    0    0  0.81917660029E+00 -0.13565963388E+02  0.76396638542E+01  0.15590730483E+02  0.51100000000E-03 0.  1.
        -11    1    3    3    0    0 -0.27403425899E+00 -0.29574526189E+02  0.41490354584E+01  0.29865401212E+02  0.51100000000E-03 0. -1.
        -12    1    3    3    0    0 -0.29362385744E+00  0.26889014603E+02 -0.24879176967E+01  0.27005463442E+02  0.00000000000E+00 0.  1.
</event>
<event>
 7    1  0.3434711E-013  0.7246156E+02  0.7816164E-02  0.1226708E+00
        -11   -1    0    0    0    0  0.00000000000E+00  0.00000000000E+00  0.45593999997E+02  0.45594000000E+02  0.51100000000E-03 0. -1.
         11   -1    0    0    0    0 -0.00000000000E+00 -0.00000000000E+00 -0.45593999997E+02  0.45594000000E+02  0.51100000000E-03 0.  1.
    9900012    2    1    2    0    0 -0.76761600345E+01  0.14635874868E+02 -0.88061017223E+01  0.72461556302E+02  0.69999981772E+02 0.  0.
         12    1    1    2    0    0  0.76761600345E+01 -0.14635874868E+02  0.88061017223E+01  0.18726443698E+02  0.00000000000E+00 0. -1.
         11    1    3    3    0    0  0.66324046720E+01 -0.35812326758E+01 -0.70342982387E+00  0.75702597703E+01  0.51100000000E-03 0. -1.
        -11    1    3    3    0    0 -0.32233582456E+02  0.70562688171E+00 -0.19155995816E+02  0.37502718877E+02  0.51100000000E-03 0.  1.
         12    1    3    3    0    0  0.17925017749E+02  0.17511480663E+02  0.11053323917E+02  0.27388577654E+02  0.00000000000E+00 0. -1.
</event>
<event>
 7    1  0.3434711E-013  0.7246162E+02  0.7816164E-02  0.1226708E+00
        -11   -1    0    0    0    0  0.00000000000E+00  0.00000000000E+00  0.45593999997E+02  0.45594000000E+02  0.51100000000E-03 0. -1.
         11   -1    0    0    0    0 -0.00000000000E+00 -0.00000000000E+00 -0.45593999997E+02  0.45594000000E+02  0.51100000000E-03 0.  1.
    9900012    2    1    2    0    0 -0.16249186065E+01  0.17943491589E+02 -0.51056880622E+01  0.72461620171E+02  0.70000064974E+02 0.  0.
         12    1    1    2    0    0  0.16249186065E+01 -0.17943491589E+02  0.51056880622E+01  0.18726379829E+02  0.00000000000E+00 0. -1.
         11    1    3    3    0    0 -0.27759094679E+02 -0.60130802763E+01 -0.34177174192E+00  0.28404951681E+02  0.51100000000E-03 0. -1.
        -11    1    3    3    0    0 -0.25988832249E+01  0.61179151713E+01 -0.76251674141E+01  0.10115644241E+02  0.51100000000E-03 0.  1.
        -12    1    3    3    0    0  0.28733059298E+02  0.17838656694E+02  0.28612510938E+01  0.33941024249E+02  0.00000000000E+00 0.  1.
</event>
<event>
 7    1  0.3939183E-013  0.7246117E+02  0.7816164E-02  0.1226709E+00
        -11   -1    0    0    0    0  0.00000000000E+00  0.00000000000E+00  0.45593999997E+02  0.45594000000E+02  0.51100000000E-03 0. -1.
         11   -1    0    0    0    0 -0.00000000000E+00 -0.00000000000E+00 -0.45593999997E+02  0.45594000000E+02  0.51100000000E-03 0.  1.
    9900012    2    1    2    0    0 -0.10570141267E+02  0.24523307526E+01 -0.15262772277E+02  0.72461173517E+02  0.69999483122E+02 0.  0.
         12    1    1    2    0    0  0.10570141267E+02 -0.24523307526E+01  0.15262772277E+02  0.18726826483E+02  0.00000000000E+00 0. -1.
         11    1    3    3    0    0  0.32535863088E+01  0.79014313300E+01  0.12548278695E+02  0.15181493320E+02  0.51100000000E-03 0. -1.
        -11    1    3    3    0    0 -0.70172847681E+01 -0.24555793909E+02 -0.37539064627E+01  0.25813196509E+02  0.51100000000E-03 0.  1.
         12    1    3    3    0    0 -0.68064428080E+01  0.19106693331E+02 -0.24057144510E+02  0.31466483689E+02  0.00000000000E+00 0. -1.
</event>
<event>
 7    1  0.3434711E-013  0.7246157E+02  0.7816164E-02  0.1226708E+00
        -11   -1    0    0    0    0  0.00000000000E+00  0.00000000000E+00  0.45593999997E+02  0.45594000000E+02  0.51100000000E-03 0.  1.
         11   -1    0    0    0    0 -0.00000000000E+00 -0.00000000000E+00 -0.45593999997E+02  0.45594000000E+02  0.51100000000E-03 0. -1.
    9900012    2    1    2    0    0  0.21096643477E+01 -0.56482430548E+01  0.17729239290E+02  0.72461567903E+02  0.69999996885E+02 0.  0.
         12    1    1    2    0    0 -0.21096643477E+01  0.56482430548E+01 -0.17729239290E+02  0.18726432097E+02  0.00000000000E+00 0. -1.
         11    1    3    3    0    0 -0.18574940173E+02  0.36354397595E+01  0.59589505299E+00  0.18936734561E+02  0.51100000000E-03 0. -1.
        -11    1    3    3    0    0  0.99159661920E+01 -0.15442886824E+00 -0.15253962933E+02  0.18194329315E+02  0.51100000000E-03 0.  1.
        -12    1    3    3    0    0  0.10768638328E+02 -0.91292539460E+01  0.32387307170E+02  0.35330504027E+02  0.00000000000E+00 0.  1.
</event>
<event>
 7    1  0.3434711E-013  0.7246160E+02  0.7816164E-02  0.1226708E+00
        -11   -1    0    0    0    0  0.00000000000E+00  0.00000000000E+00  0.45593999997E+02  0.45594000000E+02  0.51100000000E-03 0. -1.
         11   -1    0    0    0    0 -0.00000000000E+00 -0.00000000000E+00 -0.45593999997E+02  0.45594000000E+02  0.51100000000E-03 0.  1.
    9900012    2    1    2    0    0  0.16804493100E+02  0.52025023551E+01 -0.64203748907E+01  0.72461595304E+02  0.70000032579E+02 0.  0.
         12    1    1    2    0    0 -0.16804493100E+02 -0.52025023551E+01  0.64203748907E+01  0.18726404696E+02  0.00000000000E+00 0. -1.
         11    1    3    3    0    0  0.82686069062E+00 -0.27151020651E+00  0.11098018941E+02  0.11132090597E+02  0.51100000000E-03 0. -1.
        -11    1    3    3    0    0  0.28735474091E+02 -0.15731957821E+02 -0.36554391003E+01  0.32963376699E+02  0.51100000000E-03 0.  1.
         12    1    3    3    0    0 -0.12757841681E+02  0.21205970383E+02 -0.13862954731E+02  0.28366128007E+02  0.00000000000E+00 0. -1.
</event>
<event>
 7    1  0.3434711E-013  0.7246159E+02  0.7816164E-02  0.1226708E+00
        -11   -1    0    0    0    0  0.00000000000E+00  0.00000000000E+00  0.45593999997E+02  0.45594000000E+02  0.51100000000E-03 0.  1.
         11   -1    0    0    0    0 -0.00000000000E+00 -0.00000000000E+00 -0.45593999997E+02  0.45594000000E+02  0.51100000000E-03 0. -1.
    9900012    2    1    2    0    0 -0.13352124142E+02  0.12451391323E+02  0.41667870650E+01  0.72461588720E+02  0.70000024003E+02 0.  0.
         12    1    1    2    0    0  0.13352124142E+02 -0.12451391323E+02 -0.41667870650E+01  0.18726411280E+02  0.00000000000E+00 0. -1.
         11    1    3    3    0    0 -0.12806114459E+02 -0.41194823964E+01 -0.18801123938E+02  0.23118152269E+02  0.51100000000E-03 0. -1.
        -11    1    3    3    0    0  0.45111599041E+01 -0.72945107896E+01 -0.67360582206E+01  0.10905729318E+02  0.51100000000E-03 0.  1.
        -12    1    3    3    0    0 -0.50571695868E+01  0.23865384509E+02  0.29703969223E+02  0.38437707133E+02  0.00000000000E+00 0.  1.
</event>
<event>
 7    1  0.3434711E-013  0.7246157E+02  0.7816164E-02  0.1226708E+00
        -11   -1    0    0    0    0  0.00000000000E+00  0.00000000000E+00  0.45593999997E+02  0.45594000000E+02  0.51100000000E-03 0.  1.
         11   -1    0    0    0    0 -0.00000000000E+00 -0.00000000000E+00 -0.45593999997E+02  0.45594000000E+02  0.51100000000E-03 0. -1.
    9900012    2    1    2    0    0  0.13985040659E+01  0.71319867491E+01  0.17258565046E+02  0.72461571721E+02  0.70000001859E+02 0.  0.
         12    1    1    2    0    0 -0.13985040659E+01 -0.71319867491E+01 -0.17258565046E+02  0.18726428279E+02  0.00000000000E+00 0. -1.
         11    1    3    3    0    0  0.43523426048E+01  0.12096127250E+02  0.12230123673E+02  0.17743593377E+02  0.51100000000E-03 0. -1.
        -11    1    3    3    0    0  0.13366343018E+02 -0.14196405141E+02  0.22021201686E+02  0.29413098588E+02  0.51100000000E-03 0.  1.
         12    1    3    3    0    0 -0.16320181557E+02  0.92322646399E+01 -0.16992760312E+02  0.25304879756E+02  0.00000000000E+00 0. -1.
</event>
<event>
 7    1  0.3434711E-013  0.7246158E+02  0.7816164E-02  0.1226708E+00
        -11   -1    0    0    0    0  0.00000000000E+00  0.00000000000E+00  0.45593999997E+02  0.45594000000E+02  0.51100000000E-03 0.  1.
         11   -1    0    0    0    0 -0.00000000000E+00 -0.00000000000E+00 -0.45593999997E+02  0.45594000000E+02  0.51100000000E-03 0. -1.
    9900012    2    1    2    0    0 -0.36785468370E+01 -0.16860893298E+02  0.72702968435E+01  0.72461584277E+02  0.70000018215E+02 0.  0.
         12    1    1    2    0    0  0.36785468370E+01  0.16860893298E+02 -0.72702968435E+01  0.18726415723E+02  0.00000000000E+00 0. -1.
         11    1    3    3    0    0 -0.15075937189E+02  0.17207399353E+02 -0.43747028774E+01  0.23291983603E+02  0.51100000000E-03 0. -1.
        -11    1    3    3    0    0  0.21627688521E+01 -0.16787095904E+02 -0.10249954219E+02  0.19787514239E+02  0.51100000000E-03 0.  1.
        -12    1    3    3    0    0  0.92346215003E+01 -0.17281196747E+02  0.21894953940E+02  0.29382086435E+02  0.00000000000E+00 0.  1.
</event>
<event>
 7    1  0.3434711E-013  0.7246162E+02  0.7816164E-02  0.1226708E+00
        -11   -1    0    0    0    0  0.00000000000E+00  0.00000000000E+00  0.45593999997E+02  0.45594000000E+02  0.51100000000E-03 0. -1.
         11   -1    0    0    0    0 -0.00000000000E+00 -0.00000000000E+00 -0.45593999997E+02  0.45594000000E+02  0.51100000000E-03 0.  1.
    9900012    2    1    2    0    0  0.12098431413E+02 -0.42636509751E+01 -0.13642827096E+02  0.72461615045E+02  0.70000058297E+02 0.  0.
         12    1    1    2    0    0 -0.12098431413E+02  0.42636509751E+01  0.13642827096E+02  0.18726384955E+02  0.00000000000E+00 0. -1.
         11    1    3    3    0    0  0.18927260853E+02  0.12149777177E+02  0.10633421971E+02  0.24878262639E+02  0.51100000000E-03 0. -1.
        -11    1    3    3    0    0 -0.18506346630E+02  0.22036097038E+01 -0.82356195726E+01  0.20375627385E+02  0.51100000000E-03 0.  1.
        -12    1    3    3    0    0  0.11677517191E+02 -0.18617037856E+02 -0.16040629494E+02  0.27207725022E+02  0.00000000000E+00 0.  1.
</event>
<event>
 7    1  0.3434711E-013  0.7246168E+02  0.7816164E-02  0.1226708E+00
        -11   -1    0    0    0    0  0.00000000000E+00  0.00000000000E+00  0.45593999997E+02  0.45594000000E+02  0.51100000000E-03 0.  1.
         11   -1    0    0    0    0 -0.00000000000E+00 -0.00000000000E+00 -0.45593999997E+02  0.45594000000E+02  0.51100000000E-03 0. -1.
    9900012    2    1    2    0    0 -0.49214081983E+00 -0.14803844561E+02  0.11457701092E+02  0.72461683473E+02  0.70000147436E+02 0.  0.
         12    1    1    2    0    0  0.49214081983E+00  0.14803844561E+02 -0.11457701092E+02  0.18726316527E+02  0.00000000000E+00 0. -1.
         11    1    3    3    0    0  0.28499316489E+01 -0.28322556696E+02 -0.20240216581E+02  0.34927864173E+02  0.51100000000E-03 0. -1.
        -11    1    3    3    0    0 -0.24794805251E+01  0.21904009014E+01 -0.54032722497E+00  0.33522579785E+01  0.51100000000E-03 0.  1.
        -12    1    3    3    0    0 -0.86259194366E+00  0.11328311234E+02  0.32238244897E+02  0.34181561321E+02  0.00000000000E+00 0.  1.
</event>
<event>
 7    1  0.3434711E-013  0.7246158E+02  0.7816164E-02  0.1226708E+00
        -11   -1    0    0    0    0  0.00000000000E+00  0.00000000000E+00  0.45593999997E+02  0.45594000000E+02  0.51100000000E-03 0. -1.
         11   -1    0    0    0    0 -0.00000000000E+00 -0.00000000000E+00 -0.45593999997E+02  0.45594000000E+02  0.51100000000E-03 0.  1.
    9900012    2    1    2    0    0 -0.37108573059E+01 -0.18318584827E+02  0.11565977875E+01  0.72461582018E+02  0.70000015272E+02 0.  0.
         12    1    1    2    0    0  0.37108573059E+01  0.18318584827E+02 -0.11565977875E+01  0.18726417982E+02  0.00000000000E+00 0. -1.
         11    1    3    3    0    0  0.80382863919E+01  0.11261790731E+02  0.18792995036E+02  0.23337065824E+02  0.51100000000E-03 0. -1.
        -11    1    3    3    0    0  0.95864022960E+01 -0.11025491719E+02  0.19331861431E+01  0.14737631612E+02  0.51100000000E-03 0.  1.
        -12    1    3    3    0    0 -0.21335545994E+02 -0.18554883839E+02 -0.19569583391E+02  0.34386884582E+02  0.00000000000E+00 0.  1.
</event>
<event>
 7    1  0.3434711E-013  0.7246158E+02  0.7816164E-02  0.1226708E+00
        -11   -1    0    0    0    0  0.00000000000E+00  0.00000000000E+00  0.45593999997E+02  0.45594000000E+02  0.51100000000E-03 0.  1.
         11   -1    0    0    0    0 -0.00000000000E+00 -0.00000000000E+00 -0.45593999997E+02  0.45594000000E+02  0.51100000000E-03 0. -1.
    9900012    2    1    2    0    0  0.16305914045E+02 -0.87133707127E+01 -0.29788114379E+01  0.72461575365E+02  0.70000006606E+02 0.  0.
         12    1    1    2    0    0 -0.16305914045E+02  0.87133707127E+01  0.29788114379E+01  0.18726424635E+02  0.00000000000E+00 0. -1.
         11    1    3    3    0    0 -0.15547733732E+01  0.21927867209E+01  0.42659730196E+00  0.27216942085E+01  0.51100000000E-03 0. -1.
        -11    1    3    3    0    0 -0.12662953260E+02 -0.16151498975E+01  0.24322342002E+02  0.27468808040E+02  0.51100000000E-03 0.  1.
         12    1    3    3    0    0  0.30523640678E+02 -0.92910075361E+01 -0.27727750741E+02  0.42271073117E+02  0.00000000000E+00 0. -1.
</event>
<event>
 7    1  0.3434711E-013  0.7246154E+02  0.7816164E-02  0.1226708E+00
        -11   -1    0    0    0    0  0.00000000000E+00  0.00000000000E+00  0.45593999997E+02  0.45594000000E+02  0.51100000000E-03 0.  1.
         11   -1    0    0    0    0 -0.00000000000E+00 -0.00000000000E+00 -0.45593999997E+02  0.45594000000E+02  0.51100000000E-03 0. -1.
    9900012    2    1    2    0    0  0.11424392720E+02 -0.11516511334E+02  0.93559320590E+01  0.72461541525E+02  0.69999962523E+02 0.  0.
         12    1    1    2    0    0 -0.11424392720E+02  0.11516511334E+02 -0.93559320590E+01  0.18726458475E+02  0.00000000000E+00 0. -1.
         11    1    3    3    0    0 -0.14845931734E+01 -0.26461385846E+02  0.18342983841E+02  0.32231568597E+02  0.51100000000E-03 0. -1.
        -11    1    3    3    0    0  0.84634737864E+01 -0.23940502021E+01  0.10548232887E+02  0.13734157499E+02  0.51100000000E-03 0.  1.
         12    1    3    3    0    0  0.44455121068E+01  0.17338924714E+02 -0.19535284669E+02  0.26495815429E+02  0.00000000000E+00 0. -1.
</event>
<event>
 7    1  0.3434711E-013  0.7246157E+02  0.7816164E-02  0.1226708E+00
        -11   -1    0    0    0    0  0.00000000000E+00  0.00000000000E+00  0.45593999997E+02  0.45594000000E+02  0.51100000000E-03 0.  1.
         11   -1    0    0    0    0 -0.00000000000E+00 -0.00000000000E+00 -0.45593999997E+02  0.45594000000E+02  0.51100000000E-03 0. -1.
    9900012    2    1    2    0    0 -0.11179937902E+02 -0.78329027784E+01  0.12819271686E+02  0.72461572044E+02  0.70000002279E+02 0.  0.
         12    1    1    2    0    0  0.11179937902E+02  0.78329027784E+01 -0.12819271686E+02  0.18726427956E+02  0.00000000000E+00 0. -1.
         11    1    3    3    0    0  0.27228669386E+01  0.10372966700E+02 -0.99275210912E+01  0.14613969953E+02  0.51100000000E-03 0. -1.
        -11    1    3    3    0    0  0.14810269419E+02 -0.30872359126E+01 -0.41634369313E+01  0.15691058384E+02  0.51100000000E-03 0.  1.
        -12    1    3    3    0    0 -0.28713074260E+02 -0.15118633566E+02  0.26910229709E+02  0.42156543707E+02  0.00000000000E+00 0.  1.
</event>
<event>
 7    1  0.3434711E-013  0.7246159E+02  0.7816164E-02  0.1226708E+00
        -11   -1    0    0    0    0  0.00000000000E+00  0.00000000000E+00  0.45593999997E+02  0.45594000000E+02  0.51100000000E-03 0.  1.
         11   -1    0    0    0    0 -0.00000000000E+00 -0.00000000000E+00 -0.45593999997E+02  0.45594000000E+02  0.51100000000E-03 0. -1.
    9900012    2    1    2    0    0 -0.10202418164E+02 -0.15175607242E+02  0.40360732318E+01  0.72461594079E+02  0.70000030984E+02 0.  0.
         12    1    1    2    0    0  0.10202418164E+02  0.15175607242E+02 -0.40360732318E+01  0.18726405921E+02  0.00000000000E+00 0. -1.
         11    1    3    3    0    0  0.65997386502E+01 -0.80421332942E+01 -0.25937072914E+02  0.27945736880E+02  0.51100000000E-03 0. -1.
        -11    1    3    3    0    0  0.21033452798E+01  0.65251769929E+01  0.42097679069E+00  0.68687129707E+01  0.51100000000E-03 0.  1.
        -12    1    3    3    0    0 -0.18905502094E+02 -0.13658650941E+02  0.29552169355E+02  0.37647144228E+02  0.00000000000E+00 0.  1.
</event>
<event>
 7    1  0.3434711E-013  0.7246153E+02  0.7816164E-02  0.1226708E+00
        -11   -1    0    0    0    0  0.00000000000E+00  0.00000000000E+00  0.45593999997E+02  0.45594000000E+02  0.51100000000E-03 0.  1.
         11   -1    0    0    0    0 -0.00000000000E+00 -0.00000000000E+00 -0.45593999997E+02  0.45594000000E+02  0.51100000000E-03 0. -1.
    9900012    2    1    2    0    0 -0.38356262324E+01  0.12793942030E+02  0.13125688273E+02  0.72461530127E+02  0.69999947675E+02 0.  0.
         12    1    1    2    0    0  0.38356262324E+01 -0.12793942030E+02 -0.13125688273E+02  0.18726469873E+02  0.00000000000E+00 0. -1.
         11    1    3    3    0    0 -0.15520781423E+02  0.45610003323E+01  0.42688350077E+01  0.16730819842E+02  0.51100000000E-03 0. -1.
        -11    1    3    3    0    0 -0.19248529845E+02  0.13183430654E+02  0.69580634487E+01  0.24345911201E+02  0.51100000000E-03 0.  1.
         12    1    3    3    0    0  0.30933685035E+02 -0.49504889562E+01  0.18987898162E+01  0.31384799084E+02  0.00000000000E+00 0. -1.
</event>
<event>
 7    1  0.3434711E-013  0.7246152E+02  0.7816164E-02  0.1226708E+00
        -11   -1    0    0    0    0  0.00000000000E+00  0.00000000000E+00  0.45593999997E+02  0.45594000000E+02  0.51100000000E-03 0. -1.
         11   -1    0    0    0    0 -0.00000000000E+00 -0.00000000000E+00 -0.45593999997E+02  0.45594000000E+02  0.51100000000E-03 0.  1.
    9900012    2    1    2    0    0 -0.97902466379E+01 -0.13336844470E+02 -0.87727348748E+01  0.72461515363E+02  0.69999928442E+02 0.  0.
         12    1    1    2    0    0  0.97902466379E+01  0.13336844470E+02  0.87727348748E+01  0.18726484637E+02  0.00000000000E+00 0. -1.
         11    1    3    3    0    0 -0.16907181738E+02 -0.89033453200E+01  0.13525408950E+02  0.23410660813E+02  0.51100000000E-03 0. -1.
        -11    1    3    3    0    0 -0.89278975556E-01 -0.18675565032E+02  0.32206438753E+01  0.18951444463E+02  0.51100000000E-03 0.  1.
        -12    1    3    3    0    0  0.72062140756E+01  0.14242065882E+02 -0.25518787700E+02  0.30099410087E+02  0.00000000000E+00 0.  1.
</event>
<event>
 7    1  0.3434711E-013  0.7246156E+02  0.7816164E-02  0.1226708E+00
        -11   -1    0    0    0    0  0.00000000000E+00  0.00000000000E+00  0.45593999997E+02  0.45594000000E+02  0.51100000000E-03 0.  1.
         11   -1    0    0    0    0 -0.00000000000E+00 -0.00000000000E+00 -0.45593999997E+02  0.45594000000E+02  0.51100000000E-03 0. -1.
    9900012    2    1    2    0    0  0.29316463717E+01  0.18481203414E+02  0.72802565861E+00  0.72461562767E+02  0.69999990195E+02 0.  0.
         12    1    1    2    0    0 -0.29316463717E+01 -0.18481203414E+02 -0.72802565861E+00  0.18726437233E+02  0.00000000000E+00 0. -1.
         11    1    3    3    0    0  0.18478399802E+02 -0.62717330745E+01 -0.24835873423E+01  0.19671148958E+02  0.51100000000E-03 0. -1.
        -11    1    3    3    0    0  0.61176212602E+01  0.52036624495E+01  0.18267063428E+02  0.19954673621E+02  0.51100000000E-03 0.  1.
        -12    1    3    3    0    0 -0.21664374690E+02  0.19549274039E+02 -0.15055450427E+02  0.32835740188E+02  0.00000000000E+00 0.  1.
</event>
<event>
 7    1  0.3434711E-013  0.7246160E+02  0.7816164E-02  0.1226708E+00
        -11   -1    0    0    0    0  0.00000000000E+00  0.00000000000E+00  0.45593999997E+02  0.45594000000E+02  0.51100000000E-03 0.  1.
         11   -1    0    0    0    0 -0.00000000000E+00 -0.00000000000E+00 -0.45593999997E+02  0.45594000000E+02  0.51100000000E-03 0. -1.
    9900012    2    1    2    0    0 -0.99243471784E+01 -0.15871670246E+02 -0.52484859796E+00  0.72461600203E+02  0.70000038961E+02 0.  0.
         12    1    1    2    0    0  0.99243471784E+01  0.15871670246E+02  0.52484859796E+00  0.18726399797E+02  0.00000000000E+00 0. -1.
         11    1    3    3    0    0  0.15577985420E+02 -0.12940825785E+02  0.17981047106E+01  0.20331546487E+02  0.51100000000E-03 0. -1.
        -11    1    3    3    0    0 -0.32909285942E+02 -0.10337914629E+02 -0.13287911471E+02  0.36965689113E+02  0.51100000000E-03 0.  1.
         12    1    3    3    0    0  0.74069533434E+01  0.74070701676E+01  0.10964958162E+02  0.15164364603E+02  0.00000000000E+00 0. -1.
</event>
<event>
 7    1  0.3434711E-013  0.7246154E+02  0.7816164E-02  0.1226708E+00
        -11   -1    0    0    0    0  0.00000000000E+00  0.00000000000E+00  0.45593999997E+02  0.45594000000E+02  0.51100000000E-03 0. -1.
         11   -1    0    0    0    0 -0.00000000000E+00 -0.00000000000E+00 -0.45593999997E+02  0.45594000000E+02  0.51100000000E-03 0.  1.
    9900012    2    1    2    0    0  0.72985286494E+01 -0.14388126685E+02 -0.95075501423E+01  0.72461542255E+02  0.69999963474E+02 0.  0.
         12    1    1    2    0    0 -0.72985286494E+01  0.14388126685E+02  0.95075501423E+01  0.18726457745E+02  0.00000000000E+00 0. -1.
         11    1    3    3    0    0 -0.33677791681E+01 -0.10139232470E+02 -0.45362406938E+01  0.11607043185E+02  0.51100000000E-03 0. -1.
        -11    1    3    3    0    0 -0.23565547467E+02 -0.18849535210E+01 -0.10900115169E+02  0.26032683076E+02  0.51100000000E-03 0.  1.
         12    1    3    3    0    0  0.34231855284E+02 -0.23639406938E+01  0.59288057209E+01  0.34821815994E+02  0.00000000000E+00 0. -1.
</event>
<event>
 7    1  0.3434711E-013  0.7246160E+02  0.7816164E-02  0.1226708E+00
        -11   -1    0    0    0    0  0.00000000000E+00  0.00000000000E+00  0.45593999997E+02  0.45594000000E+02  0.51100000000E-03 0.  1.
         11   -1    0    0    0    0 -0.00000000000E+00 -0.00000000000E+00 -0.45593999997E+02  0.45594000000E+02  0.51100000000E-03 0. -1.
    9900012    2    1    2    0    0 -0.36160975852E+01 -0.13016129360E+02  0.12968509792E+02  0.72461600680E+02  0.70000039584E+02 0.  0.
         12    1    1    2    0    0  0.36160975852E+01  0.13016129360E+02 -0.12968509792E+02  0.18726399320E+02  0.00000000000E+00 0. -1.
         11    1    3    3    0    0  0.70084833164E+00 -0.18170841514E+02  0.15765070997E+01  0.18252562686E+02  0.51100000000E-03 0. -1.
        -11    1    3    3    0    0  0.76318416289E+01 -0.21368032285E+02  0.10760227057E+02  0.25112154367E+02  0.51100000000E-03 0.  1.
        -12    1    3    3    0    0 -0.11948787546E+02  0.26522744439E+02  0.63177563557E+00  0.29096883628E+02  0.00000000000E+00 0.  1.
</event>
<event>
 7    1  0.3434711E-013  0.7246161E+02  0.7816164E-02  0.1226708E+00
        -11   -1    0    0    0    0  0.00000000000E+00  0.00000000000E+00  0.45593999997E+02  0.45594000000E+02  0.51100000000E-03 0. -1.
         11   -1    0    0    0    0 -0.00000000000E+00 -0.00000000000E+00 -0.45593999997E+02  0.45594000000E+02  0.51100000000E-03 0.  1.
    9900012    2    1    2    0    0  0.17357963895E+02 -0.51226273518E+01 -0.48101453044E+01  0.72461609012E+02  0.70000050437E+02 0.  0.
         12    1    1    2    0    0 -0.17357963895E+02  0.51226273518E+01  0.48101453044E+01  0.18726390988E+02  0.00000000000E+00 0. -1.
         11    1    3    3    0    0  0.34310021572E+01 -0.59781515819E+01  0.34815965998E+01  0.77221491364E+01  0.51100000000E-03 0. -1.
        -11    1    3    3    0    0  0.23466324003E+02 -0.15058426783E+02 -0.26698822003E+02  0.38603778002E+02  0.51100000000E-03 0.  1.
         12    1    3    3    0    0 -0.95393622646E+01  0.15913951013E+02  0.18407080099E+02  0.26135681874E+02  0.00000000000E+00 0. -1.
</event>
<event>
 7    1  0.3434711E-013  0.7246164E+02  0.7816164E-02  0.1226708E+00
        -11   -1    0    0    0    0  0.00000000000E+00  0.00000000000E+00  0.45593999997E+02  0.45594000000E+02  0.51100000000E-03 0. -1.
         11   -1    0    0    0    0 -0.00000000000E+00 -0.00000000000E+00 -0.45593999997E+02  0.45594000000E+02  0.51100000000E-03 0.  1.
    9900012    2    1    2    0    0 -0.12034447234E+02 -0.62072275349E+00 -0.14333989687E+02  0.72461642177E+02  0.70000093640E+02 0.  0.
         12    1    1    2    0    0  0.12034447234E+02  0.62072275349E+00  0.14333989687E+02  0.18726357823E+02  0.00000000000E+00 0. -1.
         11    1    3    3    0    0  0.49020765607E+01  0.19700697116E+01  0.22763567362E+02  0.23368601340E+02  0.51100000000E-03 0. -1.
        -11    1    3    3    0    0  0.42028496974E+01  0.75562261264E+01 -0.87027766635E+01  0.12267796084E+02  0.51100000000E-03 0.  1.
         12    1    3    3    0    0 -0.21139373492E+02 -0.10147018591E+02 -0.28394780386E+02  0.36825244753E+02  0.00000000000E+00 0. -1.
</event>
<event>
 7    1  0.3434711E-013  0.7246156E+02  0.7816164E-02  0.1226708E+00
        -11   -1    0    0    0    0  0.00000000000E+00  0.00000000000E+00  0.45593999997E+02  0.45594000000E+02  0.51100000000E-03 0. -1.
         11   -1    0    0    0    0 -0.00000000000E+00 -0.00000000000E+00 -0.45593999997E+02  0.45594000000E+02  0.51100000000E-03 0.  1.
    9900012    2    1    2    0    0  0.37968530060E+01 -0.17072997598E+02 -0.66914907666E+01  0.72461564450E+02  0.69999992386E+02 0.  0.
         12    1    1    2    0    0 -0.37968530060E+01  0.17072997598E+02  0.66914907666E+01  0.18726435550E+02  0.00000000000E+00 0. -1.
         11    1    3    3    0    0 -0.13419910327E+01  0.17669847551E+02 -0.41207623868E+00  0.17725525648E+02  0.51100000000E-03 0. -1.
        -11    1    3    3    0    0  0.77309684878E+00 -0.99294316752E+01 -0.22613758727E+02  0.24709783005E+02  0.51100000000E-03 0.  1.
        -12    1    3    3    0    0  0.43657471899E+01 -0.24813413474E+02  0.16334344199E+02  0.30026255797E+02  0.00000000000E+00 0.  1.
</event>
<event>
 7    1  0.3434711E-013  0.7246161E+02  0.7816164E-02  0.1226708E+00
        -11   -1    0    0    0    0  0.00000000000E+00  0.00000000000E+00  0.45593999997E+02  0.45594000000E+02  0.51100000000E-03 0. -1.
         11   -1    0    0    0    0 -0.00000000000E+00 -0.00000000000E+00 -0.45593999997E+02  0.45594000000E+02  0.51100000000E-03 0.  1.
    9900012    2    1    2    0    0  0.24089729663E+01 -0.17420936841E+02 -0.64331684147E+01  0.72461605605E+02  0.70000045999E+02 0.  0.
         12    1    1    2    0    0 -0.24089729663E+01  0.17420936841E+02  0.64331684147E+01  0.18726394395E+02  0.00000000000E+00 0. -1.
         11    1    3    3    0    0  0.42428644958E+01 -0.13448709746E+02 -0.12821069327E+02  0.19059105748E+02  0.51100000000E-03 0. -1.
        -11    1    3    3    0    0 -0.15903475998E+02  0.10532864855E+02 -0.14784906355E+02  0.24134109618E+02  0.51100000000E-03 0.  1.
         12    1    3    3    0    0  0.14069584469E+02 -0.14505091950E+02  0.21172807267E+02  0.29268390239E+02  0.00000000000E+00 0. -1.
</event>
<event>
 7    1  0.3434711E-013  0.7246159E+02  0.7816164E-02  0.1226708E+00
        -11   -1    0    0    0    0  0.00000000000E+00  0.00000000000E+00  0.45593999997E+02  0.45594000000E+02  0.51100000000E-03 0.  1.
         11   -1    0    0    0    0 -0.00000000000E+00 -0.00000000000E+00 -0.45593999997E+02  0.45594000000E+02  0.51100000000E-03 0. -1.
    9900012    2    1    2    0    0 -0.98880394135E+01 -0.15260124602E+02  0.44759161126E+01  0.72461586799E+02  0.70000021500E+02 0.  0.
         12    1    1    2    0    0  0.98880394135E+01  0.15260124602E+02 -0.44759161126E+01  0.18726413201E+02  0.00000000000E+00 0. -1.
         11    1    3    3    0    0 -0.25074797763E+01 -0.78477831700E+01  0.37649594902E+01  0.90581496861E+01  0.51100000000E-03 0. -1.
        -11    1    3    3    0    0 -0.83826811366E+01 -0.19790536249E+02  0.26892516788E+02  0.34425893271E+02  0.51100000000E-03 0.  1.
         12    1    3    3    0    0  0.10021214994E+01  0.12378194816E+02 -0.26181560166E+02  0.28977543842E+02  0.00000000000E+00 0. -1.
</event>
<event>
 7    1  0.3434711E-013  0.7246160E+02  0.7816164E-02  0.1226708E+00
        -11   -1    0    0    0    0  0.00000000000E+00  0.00000000000E+00  0.45593999997E+02  0.45594000000E+02  0.51100000000E-03 0. -1.
         11   -1    0    0    0    0 -0.00000000000E+00 -0.00000000000E+00 -0.45593999997E+02  0.45594000000E+02  0.51100000000E-03 0.  1.
    9900012    2    1    2    0    0 -0.11885049859E+01  0.17254345698E+02 -0.71800592450E+01  0.72461595104E+02  0.70000032320E+02 0.  0.
         12    1    1    2    0    0  0.11885049859E+01 -0.17254345698E+02  0.71800592450E+01  0.18726404896E+02  0.00000000000E+00 0. -1.
         11    1    3    3    0    0 -0.77838066756E+01  0.26383461585E+01  0.27458034441E+02  0.28661684745E+02  0.51100000000E-03 0. -1.
        -11    1    3    3    0    0  0.75398782346E+01  0.15738746745E+02 -0.12151246653E+02  0.21265246492E+02  0.51100000000E-03 0.  1.
        -12    1    3    3    0    0 -0.94457654495E+00 -0.11227472057E+01 -0.22486847033E+02  0.22534663867E+02  0.00000000000E+00 0.  1.
</event>
<event>
 7    1  0.3434711E-013  0.7246153E+02  0.7816164E-02  0.1226708E+00
        -11   -1    0    0    0    0  0.00000000000E+00  0.00000000000E+00  0.45593999997E+02  0.45594000000E+02  0.51100000000E-03 0.  1.
         11   -1    0    0    0    0 -0.00000000000E+00 -0.00000000000E+00 -0.45593999997E+02  0.45594000000E+02  0.51100000000E-03 0. -1.
    9900012    2    1    2    0    0 -0.19108079043E+00  0.12120437470E+02  0.14273720378E+02  0.72461531839E+02  0.69999949905E+02 0.  0.
         12    1    1    2    0    0  0.19108079043E+00 -0.12120437470E+02 -0.14273720378E+02  0.18726468161E+02  0.00000000000E+00 0. -1.
         11    1    3    3    0    0  0.24840401124E+02 -0.27227854850E+01 -0.92208549955E+00  0.25006185849E+02  0.51100000000E-03 0. -1.
        -11    1    3    3    0    0  0.48987396517E+01  0.11513706625E+02 -0.21594421110E+01  0.12697491127E+02  0.51100000000E-03 0.  1.
        -12    1    3    3    0    0 -0.29930221566E+02  0.33295163293E+01  0.17355247989E+02  0.34757854864E+02  0.00000000000E+00 0.  1.
</event>
<event>
 7    1  0.3434711E-013  0.7246155E+02  0.7816164E-02  0.1226708E+00
        -11   -1    0    0    0    0  0.00000000000E+00  0.00000000000E+00  0.45593999997E+02  0.45594000000E+02  0.51100000000E-03 0.  1.
         11   -1    0    0    0    0 -0.00000000000E+00 -0.00000000000E+00 -0.45593999997E+02  0.45594000000E+02  0.51100000000E-03 0. -1.
    9900012    2    1    2    0    0 -0.10060494097E+02  0.13833053816E+02  0.76231774856E+01  0.72461554679E+02  0.69999979659E+02 0.  0.
         12    1    1    2    0    0  0.10060494097E+02 -0.13833053816E+02 -0.76231774856E+01  0.18726445321E+02  0.00000000000E+00 0. -1.
         11    1    3    3    0    0  0.49683048028E+00  0.25530019744E+01 -0.12591752781E+02  0.12857561898E+02  0.51100000000E-03 0. -1.
        -11    1    3    3    0    0 -0.28769908594E-01  0.32142031216E+02  0.75195853155E+01  0.33009925204E+02  0.51100000000E-03 0.  1.
         12    1    3    3    0    0 -0.10528554669E+02 -0.20861979374E+02  0.12695344951E+02  0.26594067576E+02  0.00000000000E+00 0. -1.
</event>
<event>
 7    1  0.3827500E-013  0.7246156E+02  0.7816164E-02  0.1226708E+00
        -11   -1    0    0    0    0  0.00000000000E+00  0.00000000000E+00  0.45593999997E+02  0.45594000000E+02  0.51100000000E-03 0. -1.
         11   -1    0    0    0    0 -0.00000000000E+00 -0.00000000000E+00 -0.45593999997E+02  0.45594000000E+02  0.51100000000E-03 0.  1.
    9900012    2    1    2    0    0  0.72632046042E+01 -0.10729715494E+02 -0.13520303725E+02  0.72461560175E+02  0.69999986818E+02 0.  0.
         12    1    1    2    0    0 -0.72632046042E+01  0.10729715494E+02  0.13520303725E+02  0.18726439825E+02  0.00000000000E+00 0. -1.
         11    1    3    3    0    0 -0.70091159781E+01 -0.47974783666E+01 -0.20708888901E+02  0.22383064697E+02  0.51100000000E-03 0. -1.
        -11    1    3    3    0    0  0.25949731259E+02 -0.96455365308E+01 -0.95930364451E+01  0.29299339172E+02  0.51100000000E-03 0.  1.
         12    1    3    3    0    0 -0.11677410677E+02  0.37132994036E+01  0.16781621621E+02  0.20779156307E+02  0.00000000000E+00 0. -1.
</event>
<event>
 7    1  0.3434711E-013  0.7246167E+02  0.7816164E-02  0.1226708E+00
        -11   -1    0    0    0    0  0.00000000000E+00  0.00000000000E+00  0.45593999997E+02  0.45594000000E+02  0.51100000000E-03 0.  1.
         11   -1    0    0    0    0 -0.00000000000E+00 -0.00000000000E+00 -0.45593999997E+02  0.45594000000E+02  0.51100000000E-03 0. -1.
    9900012    2    1    2    0    0 -0.20524272886E+01  0.10816378041E+02  0.15148236845E+02  0.72461666370E+02  0.70000125157E+02 0.  0.
         12    1    1    2    0    0  0.20524272886E+01 -0.10816378041E+02 -0.15148236845E+02  0.18726333630E+02  0.00000000000E+00 0. -1.
         11    1    3    3    0    0  0.32816824187E+01  0.60002968339E+01 -0.25916346116E+01  0.73136565283E+01  0.51100000000E-03 0. -1.
        -11    1    3    3    0    0 -0.16043644277E+02  0.27315558094E+02 -0.41893305509E+01  0.31954478973E+02  0.51100000000E-03 0.  1.
         12    1    3    3    0    0  0.10709534570E+02 -0.22499476887E+02  0.21929202007E+02  0.33193530869E+02  0.00000000000E+00 0. -1.
</event>
<event>
 7    1  0.3434711E-013  0.7246166E+02  0.7816164E-02  0.1226708E+00
        -11   -1    0    0    0    0  0.00000000000E+00  0.00000000000E+00  0.45593999997E+02  0.45594000000E+02  0.51100000000E-03 0. -1.
         11   -1    0    0    0    0 -0.00000000000E+00 -0.00000000000E+00 -0.45593999997E+02  0.45594000000E+02  0.51100000000E-03 0.  1.
    9900012    2    1    2    0    0 -0.24472136290E+01 -0.14121173580E+02 -0.12053183250E+02  0.72461664953E+02  0.70000123311E+02 0.  0.
         12    1    1    2    0    0  0.24472136290E+01  0.14121173580E+02  0.12053183250E+02  0.18726335047E+02  0.00000000000E+00 0. -1.
         11    1    3    3    0    0  0.13842364879E+02 -0.60477348509E+01  0.19717027218E+02  0.24838424364E+02  0.51100000000E-03 0. -1.
        -11    1    3    3    0    0 -0.20782581609E+02 -0.72801116080E+01 -0.80153493573E+01  0.23434196144E+02  0.51100000000E-03 0.  1.
        -12    1    3    3    0    0  0.44930031005E+01 -0.79332712134E+00 -0.23754861111E+02  0.24189044445E+02  0.00000000000E+00 0.  1.
</event>
<event>
 7    1  0.3434711E-013  0.7246158E+02  0.7816164E-02  0.1226708E+00
        -11   -1    0    0    0    0  0.00000000000E+00  0.00000000000E+00  0.45593999997E+02  0.45594000000E+02  0.51100000000E-03 0.  1.
         11   -1    0    0    0    0 -0.00000000000E+00 -0.00000000000E+00 -0.45593999997E+02  0.45594000000E+02  0.51100000000E-03 0. -1.
    9900012    2    1    2    0    0 -0.58372351723E+01  0.72249846316E+01  0.16260532248E+02  0.72461584797E+02  0.70000018892E+02 0.  0.
         12    1    1    2    0    0  0.58372351723E+01 -0.72249846316E+01 -0.16260532248E+02  0.18726415203E+02  0.00000000000E+00 0. -1.
         11    1    3    3    0    0  0.25909029514E+01  0.11650647347E+02 -0.19299560594E+02  0.22691923697E+02  0.51100000000E-03 0. -1.
        -11    1    3    3    0    0 -0.16524351692E+02  0.78975619960E+01  0.11737224850E+02  0.21752887895E+02  0.51100000000E-03 0.  1.
        -12    1    3    3    0    0  0.80962135685E+01 -0.12323224711E+02  0.23822867992E+02  0.28016773204E+02  0.00000000000E+00 0.  1.
</event>
<event>
 7    1  0.3434711E-013  0.7246155E+02  0.7816164E-02  0.1226708E+00
        -11   -1    0    0    0    0  0.00000000000E+00  0.00000000000E+00  0.45593999997E+02  0.45594000000E+02  0.51100000000E-03 0.  1.
         11   -1    0    0    0    0 -0.00000000000E+00 -0.00000000000E+00 -0.45593999997E+02  0.45594000000E+02  0.51100000000E-03 0. -1.
    9900012    2    1    2    0    0  0.13537955162E+02  0.12874362512E+02 -0.12862386974E+01  0.72461552124E+02  0.69999976330E+02 0.  0.
         12    1    1    2    0    0 -0.13537955162E+02 -0.12874362512E+02  0.12862386974E+01  0.18726447876E+02  0.00000000000E+00 0. -1.
         11    1    3    3    0    0  0.78721369097E+01  0.11174507906E+01 -0.62883420054E+01  0.10137183101E+02  0.51100000000E-03 0. -1.
        -11    1    3    3    0    0  0.18182649885E+02  0.19655659743E+02  0.25543804736E+02  0.37005941110E+02  0.51100000000E-03 0.  1.
         12    1    3    3    0    0 -0.12516831633E+02 -0.78987480215E+01 -0.20541701428E+02  0.25318427913E+02  0.00000000000E+00 0. -1.
</event>
<event>
 7    1  0.3434711E-013  0.7246156E+02  0.7816164E-02  0.1226708E+00
        -11   -1    0    0    0    0  0.00000000000E+00  0.00000000000E+00  0.45593999997E+02  0.45594000000E+02  0.51100000000E-03 0. -1.
         11   -1    0    0    0    0 -0.00000000000E+00 -0.00000000000E+00 -0.45593999997E+02  0.45594000000E+02  0.51100000000E-03 0.  1.
    9900012    2    1    2    0    0  0.49849277589E+01 -0.14727826023E+02 -0.10436537906E+02  0.72461556462E+02  0.69999981981E+02 0.  0.
         12    1    1    2    0    0 -0.49849277589E+01  0.14727826023E+02  0.10436537906E+02  0.18726443538E+02  0.00000000000E+00 0. -1.
         11    1    3    3    0    0  0.14657176542E+02 -0.60465240143E+01 -0.27449100703E+02  0.31699312398E+02  0.51100000000E-03 0. -1.
        -11    1    3    3    0    0  0.78847658287E+01  0.35445155881E+00 -0.63808566732E+01  0.10149408861E+02  0.51100000000E-03 0.  1.
         12    1    3    3    0    0 -0.17557014612E+02 -0.90357535674E+01  0.23393419471E+02  0.30612835203E+02  0.00000000000E+00 0. -1.
</event>
<event>
 7    1  0.3434711E-013  0.7246159E+02  0.7816164E-02  0.1226708E+00
        -11   -1    0    0    0    0  0.00000000000E+00  0.00000000000E+00  0.45593999997E+02  0.45594000000E+02  0.51100000000E-03 0. -1.
         11   -1    0    0    0    0 -0.00000000000E+00 -0.00000000000E+00 -0.45593999997E+02  0.45594000000E+02  0.51100000000E-03 0.  1.
    9900012    2    1    2    0    0  0.72328306794E+01  0.13873141793E+02  0.10290796827E+02  0.72461590782E+02  0.70000026690E+02 0.  0.
         12    1    1    2    0    0 -0.72328306794E+01 -0.13873141793E+02 -0.10290796827E+02  0.18726409218E+02  0.00000000000E+00 0. -1.
         11    1    3    3    0    0 -0.49821145356E+01  0.24647763942E+02  0.55330792519E+01  0.25747790174E+02  0.51100000000E-03 0. -1.
        -11    1    3    3    0    0 -0.35154677874E+01  0.15113684821E+02  0.53549793462E+01  0.16415169408E+02  0.51100000000E-03 0.  1.
        -12    1    3    3    0    0  0.15730413002E+02 -0.25888306970E+02 -0.59726177110E+00  0.30298631200E+02  0.00000000000E+00 0.  1.
</event>
<event>
 7    1  0.3434711E-013  0.7246154E+02  0.7816164E-02  0.1226708E+00
        -11   -1    0    0    0    0  0.00000000000E+00  0.00000000000E+00  0.45593999997E+02  0.45594000000E+02  0.51100000000E-03 0. -1.
         11   -1    0    0    0    0 -0.00000000000E+00 -0.00000000000E+00 -0.45593999997E+02  0.45594000000E+02  0.51100000000E-03 0.  1.
    9900012    2    1    2    0    0 -0.53886228489E+01  0.23201462499E+00 -0.17932907953E+02  0.72461540787E+02  0.69999961561E+02 0.  0.
         12    1    1    2    0    0  0.53886228489E+01 -0.23201462499E+00  0.17932907953E+02  0.18726459213E+02  0.00000000000E+00 0. -1.
         11    1    3    3    0    0 -0.25523913920E+01 -0.10347576549E+02  0.15724699553E+01  0.10773100959E+02  0.51100000000E-03 0. -1.
        -11    1    3    3    0    0  0.76415209305E+01 -0.22050610159E+02 -0.26212367418E+01  0.23483890922E+02  0.51100000000E-03 0.  1.
         12    1    3    3    0    0 -0.10477752387E+02  0.32630201333E+02 -0.16884141167E+02  0.38204548906E+02  0.00000000000E+00 0. -1.
</event>
<event>
 7    1  0.3434711E-013  0.7246157E+02  0.7816164E-02  0.1226708E+00
        -11   -1    0    0    0    0  0.00000000000E+00  0.00000000000E+00  0.45593999997E+02  0.45594000000E+02  0.51100000000E-03 0.  1.
         11   -1    0    0    0    0 -0.00000000000E+00 -0.00000000000E+00 -0.45593999997E+02  0.45594000000E+02  0.51100000000E-03 0. -1.
    9900012    2    1    2    0    0  0.84741816378E+01  0.82472883295E+01  0.14520657363E+02  0.72461574567E+02  0.70000005566E+02 0.  0.
         12    1    1    2    0    0 -0.84741816378E+01 -0.82472883295E+01 -0.14520657363E+02  0.18726425433E+02  0.00000000000E+00 0. -1.
         11    1    3    3    0    0  0.57282075451E+00  0.12159443728E+02  0.70655307028E+01  0.14074868375E+02  0.51100000000E-03 0. -1.
        -11    1    3    3    0    0  0.31513352182E+02  0.56621150837E+01  0.75975507119E+01  0.32907046207E+02  0.51100000000E-03 0.  1.
         12    1    3    3    0    0 -0.23611991299E+02 -0.95742704822E+01 -0.14242405123E+00  0.25479659986E+02  0.00000000000E+00 0. -1.
</event>
<event>
 7    1  0.3434711E-013  0.7246213E+02  0.7816164E-02  0.1226707E+00
        -11   -1    0    0    0    0  0.00000000000E+00  0.00000000000E+00  0.45593999997E+02  0.45594000000E+02  0.51100000000E-03 0. -1.
         11   -1    0    0    0    0 -0.00000000000E+00 -0.00000000000E+00 -0.45593999997E+02  0.45594000000E+02  0.51100000000E-03 0.  1.
    9900012    2    1    2    0    0 -0.15999332971E+02  0.55522873766E+01 -0.79907161794E+01  0.72462132979E+02  0.70000732997E+02 0.  0.
         12    1    1    2    0    0  0.15999332971E+02 -0.55522873766E+01  0.79907161794E+01  0.18725867021E+02  0.00000000000E+00 0. -1.
         11    1    3    3    0    0 -0.50008097867E+01 -0.36167719539E+01 -0.44334767481E+01  0.75990035022E+01  0.51100000000E-03 0. -1.
        -11    1    3    3    0    0 -0.22842719974E+02 -0.55694637272E+01 -0.26306360845E+02  0.35282196689E+02  0.51100000000E-03 0.  1.
         12    1    3    3    0    0  0.11844196789E+02  0.14738523058E+02  0.22749121414E+02  0.29580932788E+02  0.00000000000E+00 0. -1.
</event>
<event>
 7    1  0.3434711E-013  0.7246155E+02  0.7816164E-02  0.1226708E+00
        -11   -1    0    0    0    0  0.00000000000E+00  0.00000000000E+00  0.45593999997E+02  0.45594000000E+02  0.51100000000E-03 0. -1.
         11   -1    0    0    0    0 -0.00000000000E+00 -0.00000000000E+00 -0.45593999997E+02  0.45594000000E+02  0.51100000000E-03 0.  1.
    9900012    2    1    2    0    0  0.14672105245E+02  0.32391402716E+01 -0.11176645033E+02  0.72461545552E+02  0.69999967768E+02 0.  0.
         12    1    1    2    0    0 -0.14672105245E+02 -0.32391402716E+01  0.11176645033E+02  0.18726454448E+02  0.00000000000E+00 0. -1.
         11    1    3    3    0    0 -0.14620869237E+02  0.19264118640E+02 -0.93407404244E+01  0.25925383626E+02  0.51100000000E-03 0. -1.
        -11    1    3    3    0    0  0.39889018002E+01 -0.14851807674E+02 -0.11730050029E+02  0.19341189278E+02  0.51100000000E-03 0.  1.
         12    1    3    3    0    0  0.25304072681E+02 -0.11731706942E+01  0.98941454202E+01  0.27194972648E+02  0.00000000000E+00 0. -1.
</event>
<event>
 7    1  0.3434711E-013  0.7246157E+02  0.7816164E-02  0.1226708E+00
        -11   -1    0    0    0    0  0.00000000000E+00  0.00000000000E+00  0.45593999997E+02  0.45594000000E+02  0.51100000000E-03 0.  1.
         11   -1    0    0    0    0 -0.00000000000E+00 -0.00000000000E+00 -0.45593999997E+02  0.45594000000E+02  0.51100000000E-03 0. -1.
    9900012    2    1    2    0    0  0.76635897765E+01  0.12570979526E+02  0.11572332950E+02  0.72461574169E+02  0.70000005047E+02 0.  0.
         12    1    1    2    0    0 -0.76635897765E+01 -0.12570979526E+02 -0.11572332950E+02  0.18726425831E+02  0.00000000000E+00 0. -1.
         11    1    3    3    0    0 -0.70357894334E+01  0.24514263409E+02 -0.24323872947E+01  0.25619678992E+02  0.51100000000E-03 0. -1.
        -11    1    3    3    0    0 -0.82449841129E+01  0.95602161183E+01  0.54422546633E+00  0.12636205003E+02  0.51100000000E-03 0.  1.
         12    1    3    3    0    0  0.22944363323E+02 -0.21503500002E+02  0.13460494779E+02  0.34205690174E+02  0.00000000000E+00 0. -1.
</event>
<event>
 7    1  0.3434711E-013  0.7246158E+02  0.7816164E-02  0.1226708E+00
        -11   -1    0    0    0    0  0.00000000000E+00  0.00000000000E+00  0.45593999997E+02  0.45594000000E+02  0.51100000000E-03 0.  1.
         11   -1    0    0    0    0 -0.00000000000E+00 -0.00000000000E+00 -0.45593999997E+02  0.45594000000E+02  0.51100000000E-03 0. -1.
    9900012    2    1    2    0    0 -0.10572122128E+02  0.42354937997E+01  0.14865047304E+02  0.72461580017E+02  0.70000012666E+02 0.  0.
         12    1    1    2    0    0  0.10572122128E+02 -0.42354937997E+01 -0.14865047304E+02  0.18726419983E+02  0.00000000000E+00 0. -1.
         11    1    3    3    0    0  0.23356244441E+02  0.19774399235E+02  0.35041223656E+01  0.30802920207E+02  0.51100000000E-03 0. -1.
        -11    1    3    3    0    0 -0.13106831881E+02  0.12289615455E+01  0.19031936229E+01  0.13301185461E+02  0.51100000000E-03 0.  1.
        -12    1    3    3    0    0 -0.20821534687E+02 -0.16767866981E+02  0.94577313158E+01  0.28357474349E+02  0.00000000000E+00 0.  1.
</event>
<event>
 7    1  0.3434711E-013  0.7246156E+02  0.7816164E-02  0.1226708E+00
        -11   -1    0    0    0    0  0.00000000000E+00  0.00000000000E+00  0.45593999997E+02  0.45594000000E+02  0.51100000000E-03 0.  1.
         11   -1    0    0    0    0 -0.00000000000E+00 -0.00000000000E+00 -0.45593999997E+02  0.45594000000E+02  0.51100000000E-03 0. -1.
    9900012    2    1    2    0    0  0.34875194778E+01 -0.16644407992E+02 -0.78409350499E+01  0.72461564889E+02  0.69999992958E+02 0.  0.
         12    1    1    2    0    0 -0.34875194778E+01  0.16644407992E+02  0.78409350499E+01  0.18726435111E+02  0.00000000000E+00 0. -1.
         11    1    3    3    0    0 -0.25561131619E+02 -0.29700163664E+01  0.15407728325E+01  0.25779185946E+02  0.51100000000E-03 0. -1.
        -11    1    3    3    0    0 -0.33320624140E+01 -0.12248708993E+02 -0.61630569586E+01  0.14110874646E+02  0.51100000000E-03 0.  1.
        -12    1    3    3    0    0  0.32380713510E+02 -0.14256826326E+01 -0.32186509239E+01  0.32571504297E+02  0.00000000000E+00 0.  1.
</event>
<event>
 7    1  0.3434711E-013  0.7246158E+02  0.7816164E-02  0.1226708E+00
        -11   -1    0    0    0    0  0.00000000000E+00  0.00000000000E+00  0.45593999997E+02  0.45594000000E+02  0.51100000000E-03 0.  1.
         11   -1    0    0    0    0 -0.00000000000E+00 -0.00000000000E+00 -0.45593999997E+02  0.45594000000E+02  0.51100000000E-03 0. -1.
    9900012    2    1    2    0    0 -0.12405114993E+02 -0.57478135138E+01  0.12796658342E+02  0.72461582753E+02  0.70000016230E+02 0.  0.
         12    1    1    2    0    0  0.12405114993E+02  0.57478135138E+01 -0.12796658342E+02  0.18726417247E+02  0.00000000000E+00 0. -1.
         11    1    3    3    0    0 -0.98157526449E+01  0.26869249671E+00 -0.80335504420E+01  0.12686966880E+02  0.51100000000E-03 0. -1.
        -11    1    3    3    0    0  0.11276098290E+01 -0.26980709301E+02 -0.37410329499E+01  0.27262162535E+02  0.51100000000E-03 0.  1.
         12    1    3    3    0    0 -0.37169721774E+01  0.20964203290E+02  0.24571241733E+02  0.32512453338E+02  0.00000000000E+00 0. -1.
</event>
<event>
 7    1  0.3434711E-013  0.7246155E+02  0.7816164E-02  0.1226708E+00
        -11   -1    0    0    0    0  0.00000000000E+00  0.00000000000E+00  0.45593999997E+02  0.45594000000E+02  0.51100000000E-03 0. -1.
         11   -1    0    0    0    0 -0.00000000000E+00 -0.00000000000E+00 -0.45593999997E+02  0.45594000000E+02  0.51100000000E-03 0.  1.
    9900012    2    1    2    0    0  0.16856450192E+02  0.24813612700E+01  0.77706326459E+01  0.72461553499E+02  0.69999978121E+02 0.  0.
         12    1    1    2    0    0 -0.16856450192E+02 -0.24813612700E+01 -0.77706326459E+01  0.18726446501E+02  0.00000000000E+00 0. -1.
         11    1    3    3    0    0  0.28684546641E+02 -0.42336985879E+01 -0.83561841509E+01  0.30175374622E+02  0.51100000000E-03 0. -1.
        -11    1    3    3    0    0 -0.17421430375E+02 -0.73638706742E+00 -0.58691732524E+01  0.18398252557E+02  0.51100000000E-03 0.  1.
         12    1    3    3    0    0  0.55933339257E+01  0.74514469254E+01  0.21995990049E+02  0.23887926321E+02  0.00000000000E+00 0. -1.
</event>
<event>
 7    1  0.3434711E-013  0.7246148E+02  0.7816164E-02  0.1226708E+00
        -11   -1    0    0    0    0  0.00000000000E+00  0.00000000000E+00  0.45593999997E+02  0.45594000000E+02  0.51100000000E-03 0. -1.
         11   -1    0    0    0    0 -0.00000000000E+00 -0.00000000000E+00 -0.45593999997E+02  0.45594000000E+02  0.51100000000E-03 0.  1.
    9900012    2    1    2    0    0  0.48051839424E+01  0.68106090500E+01 -0.16769269844E+02  0.72461478714E+02  0.69999880700E+02 0.  0.
         12    1    1    2    0    0 -0.48051839424E+01 -0.68106090500E+01  0.16769269844E+02  0.18726521286E+02  0.00000000000E+00 0. -1.
         11    1    3    3    0    0 -0.45737562485E+01  0.17499904062E+02 -0.14853697194E+02  0.23405089382E+02  0.51100000000E-03 0. -1.
        -11    1    3    3    0    0  0.37611846606E+01  0.78916658600E+01 -0.20435767857E+02  0.22227134504E+02  0.51100000000E-03 0.  1.
        -12    1    3    3    0    0  0.56177555303E+01 -0.18580960872E+02  0.18520195207E+02  0.26829254828E+02  0.00000000000E+00 0.  1.
</event>
<event>
 7    1  0.3434711E-013  0.7246159E+02  0.7816164E-02  0.1226708E+00
        -11   -1    0    0    0    0  0.00000000000E+00  0.00000000000E+00  0.45593999997E+02  0.45594000000E+02  0.51100000000E-03 0. -1.
         11   -1    0    0    0    0 -0.00000000000E+00 -0.00000000000E+00 -0.45593999997E+02  0.45594000000E+02  0.51100000000E-03 0.  1.
    9900012    2    1    2    0    0  0.14322736897E+02  0.10997059867E+02 -0.49600841874E+01  0.72461586753E+02  0.70000021441E+02 0.  0.
         12    1    1    2    0    0 -0.14322736897E+02 -0.10997059867E+02  0.49600841874E+01  0.18726413247E+02  0.00000000000E+00 0. -1.
         11    1    3    3    0    0 -0.11192199558E+02  0.14865122371E+01  0.36139238643E+01  0.11854766785E+02  0.51100000000E-03 0. -1.
        -11    1    3    3    0    0 -0.36578718741E+01 -0.17262293823E+02 -0.11239756692E+02  0.20921255828E+02  0.51100000000E-03 0.  1.
        -12    1    3    3    0    0  0.29172808329E+02  0.26772841453E+02  0.26657486404E+01  0.39685564140E+02  0.00000000000E+00 0.  1.
</event>
<event>
 7    1  0.3434711E-013  0.7246156E+02  0.7816164E-02  0.1226708E+00
        -11   -1    0    0    0    0  0.00000000000E+00  0.00000000000E+00  0.45593999997E+02  0.45594000000E+02  0.51100000000E-03 0.  1.
         11   -1    0    0    0    0 -0.00000000000E+00 -0.00000000000E+00 -0.45593999997E+02  0.45594000000E+02  0.51100000000E-03 0. -1.
    9900012    2    1    2    0    0  0.11266250400E+02 -0.69737422901E+01  0.13233220613E+02  0.72461558602E+02  0.69999984769E+02 0.  0.
         12    1    1    2    0    0 -0.11266250400E+02  0.69737422901E+01 -0.13233220613E+02  0.18726441398E+02  0.00000000000E+00 0. -1.
         11    1    3    3    0    0  0.40553891131E+01 -0.60592846801E-02 -0.63685759524E+01  0.75501640708E+01  0.51100000000E-03 0. -1.
        -11    1    3    3    0    0 -0.55572322073E+01 -0.29923191588E+02  0.23373562505E+02  0.38374518226E+02  0.51100000000E-03 0.  1.
         12    1    3    3    0    0  0.12768093495E+02  0.22955508583E+02 -0.37717659391E+01  0.26536876306E+02  0.00000000000E+00 0. -1.
</event>
<event>
 7    1  0.3434711E-013  0.7246163E+02  0.7816164E-02  0.1226708E+00
        -11   -1    0    0    0    0  0.00000000000E+00  0.00000000000E+00  0.45593999997E+02  0.45594000000E+02  0.51100000000E-03 0. -1.
         11   -1    0    0    0    0 -0.00000000000E+00 -0.00000000000E+00 -0.45593999997E+02  0.45594000000E+02  0.51100000000E-03 0.  1.
    9900012    2    1    2    0    0 -0.77189568471E+01  0.63262965570E+01 -0.15845272617E+02  0.72461628561E+02  0.70000075904E+02 0.  0.
         12    1    1    2    0    0  0.77189568471E+01 -0.63262965570E+01  0.15845272617E+02  0.18726371439E+02  0.00000000000E+00 0. -1.
         11    1    3    3    0    0  0.16998914713E+02  0.10740815258E+02  0.11809297596E+01  0.20142562130E+02  0.51100000000E-03 0. -1.
        -11    1    3    3    0    0 -0.13660495953E+02  0.12809748443E+02 -0.24227270340E+02  0.30621225209E+02  0.51100000000E-03 0.  1.
        -12    1    3    3    0    0 -0.11057375606E+02 -0.17224267143E+02  0.72010679634E+01  0.21697841223E+02  0.00000000000E+00 0.  1.
</event>
<event>
 7    1  0.3434711E-013  0.7246160E+02  0.7816164E-02  0.1226708E+00
        -11   -1    0    0    0    0  0.00000000000E+00  0.00000000000E+00  0.45593999997E+02  0.45594000000E+02  0.51100000000E-03 0. -1.
         11   -1    0    0    0    0 -0.00000000000E+00 -0.00000000000E+00 -0.45593999997E+02  0.45594000000E+02  0.51100000000E-03 0.  1.
    9900012    2    1    2    0    0  0.17701158350E+02 -0.23842322934E-01 -0.61111800128E+01  0.72461598944E+02  0.70000037321E+02 0.  0.
         12    1    1    2    0    0 -0.17701158350E+02  0.23842322934E-01  0.61111800128E+01  0.18726401056E+02  0.00000000000E+00 0. -1.
         11    1    3    3    0    0  0.29461406974E+01  0.67667630444E+01 -0.13045938066E+02  0.14988840095E+02  0.51100000000E-03 0. -1.
        -11    1    3    3    0    0  0.86312531998E+01  0.71536698652E+01 -0.22046797961E+02  0.24733273639E+02  0.51100000000E-03 0.  1.
         12    1    3    3    0    0  0.61237644524E+01 -0.13944275233E+02  0.28981556014E+02  0.32739485210E+02  0.00000000000E+00 0. -1.
</event>
<event>
 7    1  0.3434711E-013  0.7246154E+02  0.7816164E-02  0.1226708E+00
        -11   -1    0    0    0    0  0.00000000000E+00  0.00000000000E+00  0.45593999997E+02  0.45594000000E+02  0.51100000000E-03 0.  1.
         11   -1    0    0    0    0 -0.00000000000E+00 -0.00000000000E+00 -0.45593999997E+02  0.45594000000E+02  0.51100000000E-03 0. -1.
    9900012    2    1    2    0    0  0.12060990727E+02  0.14311275342E+02 -0.63274142012E+00  0.72461535814E+02  0.69999955082E+02 0.  0.
         12    1    1    2    0    0 -0.12060990727E+02 -0.14311275342E+02  0.63274142012E+00  0.18726464186E+02  0.00000000000E+00 0. -1.
         11    1    3    3    0    0 -0.22098171733E+01 -0.17848124601E+01 -0.43372373196E+01  0.51846383948E+01  0.51100000000E-03 0. -1.
        -11    1    3    3    0    0 -0.19488467536E+02  0.21305217776E+02  0.13308672288E+02  0.31793606743E+02  0.51100000000E-03 0.  1.
         12    1    3    3    0    0  0.33759275436E+02 -0.52091299749E+01 -0.96041763883E+01  0.35483290676E+02  0.00000000000E+00 0. -1.
</event>
<event>
 7    1  0.3434711E-013  0.7246158E+02  0.7816164E-02  0.1226708E+00
        -11   -1    0    0    0    0  0.00000000000E+00  0.00000000000E+00  0.45593999997E+02  0.45594000000E+02  0.51100000000E-03 0.  1.
         11   -1    0    0    0    0 -0.00000000000E+00 -0.00000000000E+00 -0.45593999997E+02  0.45594000000E+02  0.51100000000E-03 0. -1.
    9900012    2    1    2    0    0 -0.73454526203E+01 -0.13914714197E+02  0.10154001523E+02  0.72461583036E+02  0.70000016598E+02 0.  0.
         12    1    1    2    0    0  0.73454526203E+01  0.13914714197E+02 -0.10154001523E+02  0.18726416964E+02  0.00000000000E+00 0. -1.
         11    1    3    3    0    0  0.40507080132E+01  0.87062998852E+01  0.21520195407E+02  0.23565370859E+02  0.51100000000E-03 0. -1.
        -11    1    3    3    0    0  0.11023644765E+02 -0.16612521329E+02  0.49274797238E+01  0.20537201988E+02  0.51100000000E-03 0.  1.
         12    1    3    3    0    0 -0.22419805398E+02 -0.60084927539E+01 -0.16293673608E+02  0.28359010189E+02  0.00000000000E+00 0. -1.
</event>
<event>
 7    1  0.3434711E-013  0.7246153E+02  0.7816164E-02  0.1226708E+00
        -11   -1    0    0    0    0  0.00000000000E+00  0.00000000000E+00  0.45593999997E+02  0.45594000000E+02  0.51100000000E-03 0. -1.
         11   -1    0    0    0    0 -0.00000000000E+00 -0.00000000000E+00 -0.45593999997E+02  0.45594000000E+02  0.51100000000E-03 0.  1.
    9900012    2    1    2    0    0  0.68049918759E+01 -0.17443378719E+02 -0.31850937284E+00  0.72461526125E+02  0.69999942461E+02 0.  0.
         12    1    1    2    0    0 -0.68049918759E+01  0.17443378719E+02  0.31850937284E+00  0.18726473875E+02  0.00000000000E+00 0. -1.
         11    1    3    3    0    0  0.13452431805E+02 -0.14339987970E+02 -0.87964645497E+01  0.21540217391E+02  0.51100000000E-03 0. -1.
        -11    1    3    3    0    0 -0.22767331801E+02 -0.13576329589E+02  0.15200016842E+02  0.30556646326E+02  0.51100000000E-03 0.  1.
         12    1    3    3    0    0  0.16119891873E+02  0.10472938839E+02 -0.67220616655E+01  0.20364662407E+02  0.00000000000E+00 0. -1.
</event>
<event>
 7    1  0.3434711E-013  0.7246163E+02  0.7816164E-02  0.1226708E+00
        -11   -1    0    0    0    0  0.00000000000E+00  0.00000000000E+00  0.45593999997E+02  0.45594000000E+02  0.51100000000E-03 0.  1.
         11   -1    0    0    0    0 -0.00000000000E+00 -0.00000000000E+00 -0.45593999997E+02  0.45594000000E+02  0.51100000000E-03 0. -1.
    9900012    2    1    2    0    0  0.50917193909E+01 -0.17988921784E+02  0.10723305154E+01  0.72461633400E+02  0.70000082207E+02 0.  0.
         12    1    1    2    0    0 -0.50917193909E+01  0.17988921784E+02 -0.10723305154E+01  0.18726366600E+02  0.00000000000E+00 0. -1.
         11    1    3    3    0    0 -0.70649064902E+01 -0.12435697413E+02 -0.20814142881E+02  0.25254465307E+02  0.51100000000E-03 0. -1.
        -11    1    3    3    0    0  0.94466052087E+01  0.11655469310E+02 -0.44333590763E+01  0.15644263733E+02  0.51100000000E-03 0.  1.
         12    1    3    3    0    0  0.27100206723E+01 -0.17208693681E+02  0.26319832472E+02  0.31562904360E+02  0.00000000000E+00 0. -1.
</event>
<event>
 7    1  0.3434711E-013  0.7246159E+02  0.7816164E-02  0.1226708E+00
        -11   -1    0    0    0    0  0.00000000000E+00  0.00000000000E+00  0.45593999997E+02  0.45594000000E+02  0.51100000000E-03 0. -1.
         11   -1    0    0    0    0 -0.00000000000E+00 -0.00000000000E+00 -0.45593999997E+02  0.45594000000E+02  0.51100000000E-03 0.  1.
    9900012    2    1    2    0    0 -0.14012042745E+01 -0.18389109254E+02 -0.32489418914E+01  0.72461592549E+02  0.70000028991E+02 0.  0.
         12    1    1    2    0    0  0.14012042745E+01  0.18389109254E+02  0.32489418914E+01  0.18726407451E+02  0.00000000000E+00 0. -1.
         11    1    3    3    0    0  0.20005814574E+02 -0.13779146396E+02  0.10099850530E+00  0.24292132330E+02  0.51100000000E-03 0. -1.
        -11    1    3    3    0    0 -0.85108021913E+00  0.61828836845E+01 -0.19113477680E+02  0.20106651075E+02  0.51100000000E-03 0.  1.
         12    1    3    3    0    0 -0.20555938629E+02 -0.10792846543E+02  0.15763537283E+02  0.28062809144E+02  0.00000000000E+00 0. -1.
</event>
<event>
 7    1  0.3434711E-013  0.7246153E+02  0.7816164E-02  0.1226708E+00
        -11   -1    0    0    0    0  0.00000000000E+00  0.00000000000E+00  0.45593999997E+02  0.45594000000E+02  0.51100000000E-03 0.  1.
         11   -1    0    0    0    0 -0.00000000000E+00 -0.00000000000E+00 -0.45593999997E+02  0.45594000000E+02  0.51100000000E-03 0. -1.
    9900012    2    1    2    0    0  0.35486000507E+01  0.17721915670E+02 -0.49011911171E+01  0.72461533924E+02  0.69999952621E+02 0.  0.
         12    1    1    2    0    0 -0.35486000507E+01 -0.17721915670E+02  0.49011911171E+01  0.18726466076E+02  0.00000000000E+00 0. -1.
         11    1    3    3    0    0  0.13205131872E+02  0.84406050441E+01 -0.94068187091E+01  0.18278609350E+02  0.51100000000E-03 0. -1.
        -11    1    3    3    0    0 -0.20500792159E+02  0.38416736508E+01  0.23640319102E+02  0.31526268778E+02  0.51100000000E-03 0.  1.
         12    1    3    3    0    0  0.10844260338E+02  0.54396369749E+01 -0.19134691510E+02  0.22656655796E+02  0.00000000000E+00 0. -1.
</event>
<event>
 7    1  0.3434711E-013  0.7246149E+02  0.7816164E-02  0.1226708E+00
        -11   -1    0    0    0    0  0.00000000000E+00  0.00000000000E+00  0.45593999997E+02  0.45594000000E+02  0.51100000000E-03 0. -1.
         11   -1    0    0    0    0 -0.00000000000E+00 -0.00000000000E+00 -0.45593999997E+02  0.45594000000E+02  0.51100000000E-03 0.  1.
    9900012    2    1    2    0    0 -0.12874462288E+02  0.97819939044E+01  0.94468566118E+01  0.72461487143E+02  0.69999891680E+02 0.  0.
         12    1    1    2    0    0  0.12874462288E+02 -0.97819939044E+01 -0.94468566118E+01  0.18726512857E+02  0.00000000000E+00 0. -1.
         11    1    3    3    0    0  0.31887155210E-01  0.26364899655E+02 -0.50002805584E+01  0.26834898109E+02  0.51100000000E-03 0. -1.
        -11    1    3    3    0    0 -0.19701383795E+02  0.16468322101E+00 -0.36642738250E+01  0.20039923826E+02  0.51100000000E-03 0.  1.
         12    1    3    3    0    0  0.67950343524E+01 -0.16747588972E+02  0.18111410995E+02  0.25586665208E+02  0.00000000000E+00 0. -1.
</event>
<event>
 7    1  0.3434711E-013  0.7246160E+02  0.7816164E-02  0.1226708E+00
        -11   -1    0    0    0    0  0.00000000000E+00  0.00000000000E+00  0.45593999997E+02  0.45594000000E+02  0.51100000000E-03 0. -1.
         11   -1    0    0    0    0 -0.00000000000E+00 -0.00000000000E+00 -0.45593999997E+02  0.45594000000E+02  0.51100000000E-03 0.  1.
    9900012    2    1    2    0    0 -0.89735207281E+01  0.65789847718E+01 -0.15062237574E+02  0.72461598434E+02  0.70000036657E+02 0.  0.
         12    1    1    2    0    0  0.89735207281E+01 -0.65789847718E+01  0.15062237574E+02  0.18726401566E+02  0.00000000000E+00 0. -1.
         11    1    3    3    0    0 -0.99922791086E+01  0.28203724498E+01 -0.10645387435E+02  0.14870252736E+02  0.51100000000E-03 0. -1.
        -11    1    3    3    0    0 -0.22310053068E+02 -0.62984699144E+01 -0.17471919439E+02  0.29028902155E+02  0.51100000000E-03 0.  1.
         12    1    3    3    0    0  0.23328811449E+02  0.10057082236E+02  0.13055069300E+02  0.28562443543E+02  0.00000000000E+00 0. -1.
</event>
<event>
 7    1  0.3434711E-013  0.7246156E+02  0.7816164E-02  0.1226708E+00
        -11   -1    0    0    0    0  0.00000000000E+00  0.00000000000E+00  0.45593999997E+02  0.45594000000E+02  0.51100000000E-03 0.  1.
         11   -1    0    0    0    0 -0.00000000000E+00 -0.00000000000E+00 -0.45593999997E+02  0.45594000000E+02  0.51100000000E-03 0. -1.
    9900012    2    1    2    0    0 -0.16579976731E+02  0.70096774919E+01  0.51622183286E+01  0.72461555997E+02  0.69999981375E+02 0.  0.
         12    1    1    2    0    0  0.16579976731E+02 -0.70096774919E+01 -0.51622183286E+01  0.18726444003E+02  0.00000000000E+00 0. -1.
         11    1    3    3    0    0  0.16992820349E+00  0.18550933243E+02 -0.98608981946E+01  0.21009600502E+02  0.51100000000E-03 0. -1.
        -11    1    3    3    0    0  0.49422562637E+01 -0.17005678354E+02 -0.79277089310E+01  0.19402772029E+02  0.51100000000E-03 0.  1.
         12    1    3    3    0    0 -0.21692161198E+02  0.54644226028E+01  0.22950825454E+02  0.32049183466E+02  0.00000000000E+00 0. -1.
</event>
<event>
 7    1  0.3434711E-013  0.7246158E+02  0.7816164E-02  0.1226708E+00
        -11   -1    0    0    0    0  0.00000000000E+00  0.00000000000E+00  0.45593999997E+02  0.45594000000E+02  0.51100000000E-03 0.  1.
         11   -1    0    0    0    0 -0.00000000000E+00 -0.00000000000E+00 -0.45593999997E+02  0.45594000000E+02  0.51100000000E-03 0. -1.
    9900012    2    1    2    0    0  0.51584041487E+01 -0.71130947388E+01  0.16537036215E+02  0.72461579709E+02  0.70000012264E+02 0.  0.
         12    1    1    2    0    0 -0.51584041487E+01  0.71130947388E+01 -0.16537036215E+02  0.18726420291E+02  0.00000000000E+00 0. -1.
         11    1    3    3    0    0  0.10725612924E+02  0.92569405087E+01 -0.15930292658E+01  0.14257189859E+02  0.51100000000E-03 0. -1.
        -11    1    3    3    0    0  0.23572132669E+02 -0.73288846374E+01  0.99677945356E+01  0.26621700110E+02  0.51100000000E-03 0.  1.
        -12    1    3    3    0    0 -0.29139341445E+02 -0.90411506101E+01  0.81622709455E+01  0.31582689739E+02  0.00000000000E+00 0.  1.
</event>
<event>
 7    1  0.3434711E-013  0.7246154E+02  0.7816164E-02  0.1226708E+00
        -11   -1    0    0    0    0  0.00000000000E+00  0.00000000000E+00  0.45593999997E+02  0.45594000000E+02  0.51100000000E-03 0.  1.
         11   -1    0    0    0    0 -0.00000000000E+00 -0.00000000000E+00 -0.45593999997E+02  0.45594000000E+02  0.51100000000E-03 0. -1.
    9900012    2    1    2    0    0 -0.40611506806E+01 -0.25128609830E+01  0.18107259861E+02  0.72461540782E+02  0.69999961555E+02 0.  0.
         12    1    1    2    0    0  0.40611506806E+01  0.25128609830E+01 -0.18107259861E+02  0.18726459218E+02  0.00000000000E+00 0. -1.
         11    1    3    3    0    0  0.62762133136E+00 -0.46763696309E+01 -0.14729107711E+02  0.15466381467E+02  0.51100000000E-03 0. -1.
        -11    1    3    3    0    0  0.16994269238E+02 -0.10983561632E+02  0.20469714135E+02  0.28782859658E+02  0.51100000000E-03 0.  1.
        -12    1    3    3    0    0 -0.21683041250E+02  0.13147070280E+02  0.12366653436E+02  0.28212299658E+02  0.00000000000E+00 0.  1.
</event>
<event>
 7    1  0.3434711E-013  0.7246189E+02  0.7816164E-02  0.1226707E+00
        -11   -1    0    0    0    0  0.00000000000E+00  0.00000000000E+00  0.45593999997E+02  0.45594000000E+02  0.51100000000E-03 0. -1.
         11   -1    0    0    0    0 -0.00000000000E+00 -0.00000000000E+00 -0.45593999997E+02  0.45594000000E+02  0.51100000000E-03 0.  1.
    9900012    2    1    2    0    0 -0.98402392812E+01 -0.13633721310E+02 -0.82436959135E+01  0.72461890201E+02  0.70000416737E+02 0.  0.
         12    1    1    2    0    0  0.98402392812E+01  0.13633721310E+02  0.82436959135E+01  0.18726109799E+02  0.00000000000E+00 0. -1.
         11    1    3    3    0    0  0.68128626618E+01 -0.11717966404E+02  0.25487488326E+02  0.28867592482E+02  0.51100000000E-03 0. -1.
        -11    1    3    3    0    0 -0.94237742963E+01 -0.33326261698E+01 -0.10014541677E+01  0.10045736901E+02  0.51100000000E-03 0.  1.
        -12    1    3    3    0    0 -0.72293276467E+01  0.14168712630E+01 -0.32729730072E+02  0.33548560818E+02  0.00000000000E+00 0.  1.
</event>
<event>
 7    1  0.3434711E-013  0.7246132E+02  0.7816164E-02  0.1226709E+00
        -11   -1    0    0    0    0  0.00000000000E+00  0.00000000000E+00  0.45593999997E+02  0.45594000000E+02  0.51100000000E-03 0. -1.
         11   -1    0    0    0    0 -0.00000000000E+00 -0.00000000000E+00 -0.45593999997E+02  0.45594000000E+02  0.51100000000E-03 0.  1.
    9900012    2    1    2    0    0  0.15104163406E+02 -0.26960821780E+01 -0.10737037749E+02  0.72461318742E+02  0.69999672305E+02 0.  0.
         12    1    1    2    0    0 -0.15104163406E+02  0.26960821780E+01  0.10737037749E+02  0.18726681258E+02  0.00000000000E+00 0. -1.
         11    1    3    3    0    0  0.18368377544E+01 -0.95007715274E+01 -0.10745968719E+02  0.14460791006E+02  0.51100000000E-03 0. -1.
        -11    1    3    3    0    0  0.28924367105E+02 -0.12680317616E+02  0.63471668041E+01  0.32213289090E+02  0.51100000000E-03 0.  1.
        -12    1    3    3    0    0 -0.15657041453E+02  0.19485006965E+02 -0.63382358342E+01  0.25787238646E+02  0.00000000000E+00 0.  1.
</event>
<event>
 7    1  0.3434711E-013  0.7246157E+02  0.7816164E-02  0.1226708E+00
        -11   -1    0    0    0    0  0.00000000000E+00  0.00000000000E+00  0.45593999997E+02  0.45594000000E+02  0.51100000000E-03 0.  1.
         11   -1    0    0    0    0 -0.00000000000E+00 -0.00000000000E+00 -0.45593999997E+02  0.45594000000E+02  0.51100000000E-03 0. -1.
    9900012    2    1    2    0    0  0.84977629968E+01  0.19074834963E+01  0.16577961822E+02  0.72461567147E+02  0.69999995900E+02 0.  0.
         12    1    1    2    0    0 -0.84977629968E+01 -0.19074834963E+01 -0.16577961822E+02  0.18726432853E+02  0.00000000000E+00 0. -1.
         11    1    3    3    0    0 -0.11016001921E+02  0.20381303783E+02 -0.82081686925E+01  0.24578931542E+02  0.51100000000E-03 0. -1.
        -11    1    3    3    0    0 -0.61272831315E+01  0.32009549436E+01  0.71983214180E+01  0.99802576430E+01  0.51100000000E-03 0.  1.
        -12    1    3    3    0    0  0.25641048049E+02 -0.21674775230E+02  0.17587809096E+02  0.37902377962E+02  0.00000000000E+00 0.  1.
</event>
<event>
 7    1  0.3434711E-013  0.7246158E+02  0.7816164E-02  0.1226708E+00
        -11   -1    0    0    0    0  0.00000000000E+00  0.00000000000E+00  0.45593999997E+02  0.45594000000E+02  0.51100000000E-03 0.  1.
         11   -1    0    0    0    0 -0.00000000000E+00 -0.00000000000E+00 -0.45593999997E+02  0.45594000000E+02  0.51100000000E-03 0. -1.
    9900012    2    1    2    0    0 -0.34390638076E+01 -0.17005746910E+02  0.70467133002E+01  0.72461581331E+02  0.70000014377E+02 0.  0.
         12    1    1    2    0    0  0.34390638076E+01  0.17005746910E+02 -0.70467133002E+01  0.18726418669E+02  0.00000000000E+00 0. -1.
         11    1    3    3    0    0 -0.22138009819E+02 -0.27439812970E+02 -0.11374519919E+02  0.37046113403E+02  0.51100000000E-03 0. -1.
        -11    1    3    3    0    0  0.91849892408E+01 -0.59313074084E+01  0.95192203082E+01  0.14496895891E+02  0.51100000000E-03 0.  1.
        -12    1    3    3    0    0  0.95139567710E+01  0.16365373469E+02  0.89020129113E+01  0.20918572037E+02  0.00000000000E+00 0.  1.
</event>
<event>
 7    1  0.3434711E-013  0.7246155E+02  0.7816164E-02  0.1226708E+00
        -11   -1    0    0    0    0  0.00000000000E+00  0.00000000000E+00  0.45593999997E+02  0.45594000000E+02  0.51100000000E-03 0.  1.
         11   -1    0    0    0    0 -0.00000000000E+00 -0.00000000000E+00 -0.45593999997E+02  0.45594000000E+02  0.51100000000E-03 0. -1.
    9900012    2    1    2    0    0  0.11513108433E+02 -0.14304114540E+02  0.36770264918E+01  0.72461551261E+02  0.69999975206E+02 0.  0.
         12    1    1    2    0    0 -0.11513108433E+02  0.14304114540E+02 -0.36770264918E+01  0.18726448739E+02  0.00000000000E+00 0. -1.
         11    1    3    3    0    0 -0.83261666719E+01  0.59174857113E+01  0.11654616802E+01  0.10281050033E+02  0.51100000000E-03 0. -1.
        -11    1    3    3    0    0  0.37448192689E+01  0.17478657749E+02 -0.84153790052E+01  0.19757169639E+02  0.51100000000E-03 0.  1.
         12    1    3    3    0    0  0.16094455836E+02 -0.37700258000E+02  0.10926943817E+02  0.42423331589E+02  0.00000000000E+00 0. -1.
</event>
<event>
 7    1  0.3434711E-013  0.7246155E+02  0.7816164E-02  0.1226708E+00
        -11   -1    0    0    0    0  0.00000000000E+00  0.00000000000E+00  0.45593999997E+02  0.45594000000E+02  0.51100000000E-03 0.  1.
         11   -1    0    0    0    0 -0.00000000000E+00 -0.00000000000E+00 -0.45593999997E+02  0.45594000000E+02  0.51100000000E-03 0. -1.
    9900012    2    1    2    0    0  0.14724723696E+02  0.11386772269E+02 -0.20503451597E+01  0.72461548497E+02  0.69999971605E+02 0.  0.
         12    1    1    2    0    0 -0.14724723696E+02 -0.11386772269E+02  0.20503451597E+01  0.18726451503E+02  0.00000000000E+00 0. -1.
         11    1    3    3    0    0 -0.24051107386E+01 -0.54341610152E+01 -0.10161565073E+02  0.11771663799E+02  0.51100000000E-03 0. -1.
        -11    1    3    3    0    0 -0.12571893414E+02  0.24661008058E+02  0.11105361355E+02  0.29825272396E+02  0.51100000000E-03 0.  1.
         12    1    3    3    0    0  0.29701727848E+02 -0.78400747732E+01 -0.29941414420E+01  0.30864612302E+02  0.00000000000E+00 0. -1.
</event>
<event>
 7    1  0.3434711E-013  0.7246164E+02  0.7816164E-02  0.1226708E+00
        -11   -1    0    0    0    0  0.00000000000E+00  0.00000000000E+00  0.45593999997E+02  0.45594000000E+02  0.51100000000E-03 0.  1.
         11   -1    0    0    0    0 -0.00000000000E+00 -0.00000000000E+00 -0.45593999997E+02  0.45594000000E+02  0.51100000000E-03 0. -1.
    9900012    2    1    2    0    0  0.17226458744E+02 -0.42416756563E+01  0.59944729083E+01  0.72461644276E+02  0.70000096375E+02 0.  0.
         12    1    1    2    0    0 -0.17226458744E+02  0.42416756563E+01 -0.59944729083E+01  0.18726355724E+02  0.00000000000E+00 0. -1.
         11    1    3    3    0    0  0.35700420750E+02 -0.18016817759E+02  0.19327281532E+01  0.40035749054E+02  0.51100000000E-03 0. -1.
        -11    1    3    3    0    0  0.12817548820E+00  0.10347556565E+02 -0.49526420219E+01  0.11472446081E+02  0.51100000000E-03 0.  1.
        -12    1    3    3    0    0 -0.18602137494E+02  0.34275855376E+01  0.90143867769E+01  0.20953449141E+02  0.00000000000E+00 0.  1.
</event>
<event>
 7    1  0.3434711E-013  0.7246158E+02  0.7816164E-02  0.1226708E+00
        -11   -1    0    0    0    0  0.00000000000E+00  0.00000000000E+00  0.45593999997E+02  0.45594000000E+02  0.51100000000E-03 0. -1.
         11   -1    0    0    0    0 -0.00000000000E+00 -0.00000000000E+00 -0.45593999997E+02  0.45594000000E+02  0.51100000000E-03 0.  1.
    9900012    2    1    2    0    0 -0.96708332353E+00 -0.11976939976E+02 -0.14363026744E+02  0.72461578063E+02  0.70000010119E+02 0.  0.
         12    1    1    2    0    0  0.96708332353E+00  0.11976939976E+02  0.14363026744E+02  0.18726421937E+02  0.00000000000E+00 0. -1.
         11    1    3    3    0    0  0.38526916115E+01  0.59499916682E+01 -0.81294825663E+00  0.71348804218E+01  0.51100000000E-03 0. -1.
        -11    1    3    3    0    0  0.26273910479E+02 -0.18848550700E+02 -0.10828715816E+02  0.34100547236E+02  0.51100000000E-03 0.  1.
         12    1    3    3    0    0 -0.31093685414E+02  0.92161905562E+00 -0.27213626711E+01  0.31226150404E+02  0.00000000000E+00 0. -1.
</event>
<event>
 7    1  0.3434711E-013  0.7246158E+02  0.7816164E-02  0.1226708E+00
        -11   -1    0    0    0    0  0.00000000000E+00  0.00000000000E+00  0.45593999997E+02  0.45594000000E+02  0.51100000000E-03 0.  1.
         11   -1    0    0    0    0 -0.00000000000E+00 -0.00000000000E+00 -0.45593999997E+02  0.45594000000E+02  0.51100000000E-03 0. -1.
    9900012    2    1    2    0    0 -0.45493581584E+01  0.18058907878E+02  0.19641976116E+01  0.72461577874E+02  0.70000009874E+02 0.  0.
         12    1    1    2    0    0  0.45493581584E+01 -0.18058907878E+02 -0.19641976116E+01  0.18726422126E+02  0.00000000000E+00 0. -1.
         11    1    3    3    0    0 -0.47117433265E+01  0.20991545802E+02 -0.16977807314E+02  0.27406047906E+02  0.51100000000E-03 0. -1.
        -11    1    3    3    0    0 -0.12522430868E+02 -0.11598218637E+02 -0.39189097541E+01  0.17512504228E+02  0.51100000000E-03 0.  1.
        -12    1    3    3    0    0  0.12684816037E+02  0.86655807119E+01  0.22860914680E+02  0.27543025741E+02  0.00000000000E+00 0.  1.
</event>
<event>
 7    1  0.3434711E-013  0.7246177E+02  0.7816164E-02  0.1226707E+00
        -11   -1    0    0    0    0  0.00000000000E+00  0.00000000000E+00  0.45593999997E+02  0.45594000000E+02  0.51100000000E-03 0.  1.
         11   -1    0    0    0    0 -0.00000000000E+00 -0.00000000000E+00 -0.45593999997E+02  0.45594000000E+02  0.51100000000E-03 0. -1.
    9900012    2    1    2    0    0 -0.10023290171E+02  0.82608028064E+01  0.13489416898E+02  0.72461773015E+02  0.70000264081E+02 0.  0.
         12    1    1    2    0    0  0.10023290171E+02 -0.82608028064E+01 -0.13489416898E+02  0.18726226985E+02  0.00000000000E+00 0. -1.
         11    1    3    3    0    0  0.14314956892E+02  0.45934011869E+01 -0.60535356677E+01  0.16206869519E+02  0.51100000000E-03 0. -1.
        -11    1    3    3    0    0  0.95863124738E+01  0.10874683146E+02 -0.31152148632E+01  0.14827699898E+02  0.51100000000E-03 0.  1.
        -12    1    3    3    0    0 -0.33924559536E+02 -0.72072815261E+01  0.22658167429E+02  0.41427203598E+02  0.00000000000E+00 0.  1.
</event>
<event>
 7    1  0.3434711E-013  0.7246157E+02  0.7816164E-02  0.1226708E+00
        -11   -1    0    0    0    0  0.00000000000E+00  0.00000000000E+00  0.45593999997E+02  0.45594000000E+02  0.51100000000E-03 0.  1.
         11   -1    0    0    0    0 -0.00000000000E+00 -0.00000000000E+00 -0.45593999997E+02  0.45594000000E+02  0.51100000000E-03 0. -1.
    9900012    2    1    2    0    0 -0.15620515431E+02 -0.69896456261E+01  0.76041715835E+01  0.72461572850E+02  0.70000003330E+02 0.  0.
         12    1    1    2    0    0  0.15620515431E+02  0.69896456261E+01 -0.76041715835E+01  0.18726427150E+02  0.00000000000E+00 0. -1.
         11    1    3    3    0    0  0.56427251770E+01 -0.81896075655E+01  0.13080755527E+02  0.16432169209E+02  0.51100000000E-03 0.  1.
        -11    1    3    3    0    0  0.48584042796E+01 -0.16688759105E+02  0.10766481815E+02  0.20445926331E+02  0.51100000000E-03 0. -1.
         12    1    3    3    0    0 -0.26121644888E+02  0.17888721044E+02 -0.16243065758E+02  0.35583477310E+02  0.00000000000E+00 0. -1.
</event>
<event>
 7    1  0.3434711E-013  0.7246195E+02  0.7816164E-02  0.1226707E+00
        -11   -1    0    0    0    0  0.00000000000E+00  0.00000000000E+00  0.45593999997E+02  0.45594000000E+02  0.51100000000E-03 0. -1.
         11   -1    0    0    0    0 -0.00000000000E+00 -0.00000000000E+00 -0.45593999997E+02  0.45594000000E+02  0.51100000000E-03 0.  1.
    9900012    2    1    2    0    0  0.84156836401E+01 -0.16548294015E+02 -0.24484857837E+01  0.72461952671E+02  0.70000498115E+02 0.  0.
         12    1    1    2    0    0 -0.84156836401E+01  0.16548294015E+02  0.24484857837E+01  0.18726047329E+02  0.00000000000E+00 0. -1.
         11    1    3    3    0    0 -0.11310261317E+02 -0.17389535806E+01 -0.71036102888E+01  0.13468750871E+02  0.51100000000E-03 0. -1.
        -11    1    3    3    0    0  0.19710420813E+02 -0.12956586974E+01 -0.21719296791E+02  0.29358257330E+02  0.51100000000E-03 0.  1.
         12    1    3    3    0    0  0.15524144374E-01 -0.13513681737E+02  0.26374421296E+02  0.29634944471E+02  0.00000000000E+00 0. -1.
</event>
<event>
 7    1  0.3434711E-013  0.7246144E+02  0.7816164E-02  0.1226708E+00
        -11   -1    0    0    0    0  0.00000000000E+00  0.00000000000E+00  0.45593999997E+02  0.45594000000E+02  0.51100000000E-03 0. -1.
         11   -1    0    0    0    0 -0.00000000000E+00 -0.00000000000E+00 -0.45593999997E+02  0.45594000000E+02  0.51100000000E-03 0.  1.
    9900012    2    1    2    0    0 -0.13431028613E+02 -0.11751370780E+02  0.56742172648E+01  0.72461441684E+02  0.69999832461E+02 0.  0.
         12    1    1    2    0    0  0.13431028613E+02  0.11751370780E+02 -0.56742172648E+01  0.18726558316E+02  0.00000000000E+00 0. -1.
         11    1    3    3    0    0  0.91600694299E+01 -0.25917345010E+02 -0.11922405535E+02  0.29962633368E+02  0.51100000000E-03 0. -1.
        -11    1    3    3    0    0 -0.29717018043E+01 -0.25111558903E+01 -0.62768608494E+01  0.73848424427E+01  0.51100000000E-03 0.  1.
        -12    1    3    3    0    0 -0.19619396238E+02  0.16677130120E+02  0.23873483649E+02  0.35113965873E+02  0.00000000000E+00 0.  1.
</event>
<event>
 7    1  0.3434711E-013  0.7246143E+02  0.7816164E-02  0.1226708E+00
        -11   -1    0    0    0    0  0.00000000000E+00  0.00000000000E+00  0.45593999997E+02  0.45594000000E+02  0.51100000000E-03 0.  1.
         11   -1    0    0    0    0 -0.00000000000E+00 -0.00000000000E+00 -0.45593999997E+02  0.45594000000E+02  0.51100000000E-03 0. -1.
    9900012    2    1    2    0    0 -0.98119620599E+01  0.15031714282E+02  0.53345411404E+01  0.72461431630E+02  0.69999819364E+02 0.  0.
         12    1    1    2    0    0  0.98119620599E+01 -0.15031714282E+02 -0.53345411404E+01  0.18726568370E+02  0.00000000000E+00 0. -1.
         11    1    3    3    0    0  0.27276694748E+01 -0.16483601443E+02 -0.75195847184E+01  0.18321939087E+02  0.51100000000E-03 0. -1.
        -11    1    3    3    0    0 -0.48930444304E+01 -0.90090413793E+01  0.71690808091E+01  0.12510013201E+02  0.51100000000E-03 0.  1.
        -12    1    3    3    0    0 -0.76465871043E+01  0.40524357105E+02  0.56850450497E+01  0.41629479343E+02  0.00000000000E+00 0.  1.
</event>
<event>
 7    1  0.3434711E-013  0.7246155E+02  0.7816164E-02  0.1226708E+00
        -11   -1    0    0    0    0  0.00000000000E+00  0.00000000000E+00  0.45593999997E+02  0.45594000000E+02  0.51100000000E-03 0.  1.
         11   -1    0    0    0    0 -0.00000000000E+00 -0.00000000000E+00 -0.45593999997E+02  0.45594000000E+02  0.51100000000E-03 0. -1.
    9900012    2    1    2    0    0  0.36685737756E+01  0.14920472852E+02  0.10705187353E+02  0.72461548656E+02  0.69999971812E+02 0.  0.
         12    1    1    2    0    0 -0.36685737756E+01 -0.14920472852E+02 -0.10705187353E+02  0.18726451344E+02  0.00000000000E+00 0. -1.
         11    1    3    3    0    0  0.76929368200E+01 -0.11057254694E+02 -0.35905806088E+01  0.13940460095E+02  0.51100000000E-03 0. -1.
        -11    1    3    3    0    0 -0.12442983315E+02 -0.81682614465E+01  0.17771424063E+02  0.23181282154E+02  0.51100000000E-03 0.  1.
        -12    1    3    3    0    0  0.84186202705E+01  0.34145988993E+02 -0.34756561008E+01  0.35339806407E+02  0.00000000000E+00 0.  1.
</event>
<event>
 7    1  0.3434711E-013  0.7246161E+02  0.7816164E-02  0.1226708E+00
        -11   -1    0    0    0    0  0.00000000000E+00  0.00000000000E+00  0.45593999997E+02  0.45594000000E+02  0.51100000000E-03 0.  1.
         11   -1    0    0    0    0 -0.00000000000E+00 -0.00000000000E+00 -0.45593999997E+02  0.45594000000E+02  0.51100000000E-03 0. -1.
    9900012    2    1    2    0    0  0.14182526552E+02  0.67604304345E+01  0.10189717961E+02  0.72461606028E+02  0.70000046550E+02 0.  0.
         12    1    1    2    0    0 -0.14182526552E+02 -0.67604304345E+01 -0.10189717961E+02  0.18726393972E+02  0.00000000000E+00 0. -1.
         11    1    3    3    0    0 -0.13604223433E+02 -0.46013883129E+01  0.39445877143E+01  0.14893201204E+02  0.51100000000E-03 0. -1.
        -11    1    3    3    0    0 -0.17732557140E+01  0.24494243208E+02  0.57323175151E+01  0.25218482320E+02  0.51100000000E-03 0.  1.
         12    1    3    3    0    0  0.29560005699E+02 -0.13132424461E+02  0.51281273187E+00  0.32349922504E+02  0.00000000000E+00 0. -1.
</event>
<event>
 7    1  0.3434711E-013  0.7246161E+02  0.7816164E-02  0.1226708E+00
        -11   -1    0    0    0    0  0.00000000000E+00  0.00000000000E+00  0.45593999997E+02  0.45594000000E+02  0.51100000000E-03 0.  1.
         11   -1    0    0    0    0 -0.00000000000E+00 -0.00000000000E+00 -0.45593999997E+02  0.45594000000E+02  0.51100000000E-03 0. -1.
    9900012    2    1    2    0    0 -0.62247347390E+01  0.79386612175E+01  0.15776818690E+02  0.72461610266E+02  0.70000052070E+02 0.  0.
         12    1    1    2    0    0  0.62247347390E+01 -0.79386612175E+01 -0.15776818690E+02  0.18726389734E+02  0.00000000000E+00 0. -1.
         11    1    3    3    0    0  0.31492083212E+01  0.15275586675E+02 -0.15282013219E+02  0.21835773162E+02  0.51100000000E-03 0. -1.
        -11    1    3    3    0    0 -0.46592477145E+01 -0.81415421631E+01 -0.73520629717E+01  0.11918310629E+02  0.51100000000E-03 0.  1.
         12    1    3    3    0    0 -0.47146953457E+01  0.80461670589E+00  0.38410894880E+02  0.38707526474E+02  0.00000000000E+00 0. -1.
</event>
<event>
 7    1  0.3434711E-013  0.7246154E+02  0.7816164E-02  0.1226708E+00
        -11   -1    0    0    0    0  0.00000000000E+00  0.00000000000E+00  0.45593999997E+02  0.45594000000E+02  0.51100000000E-03 0. -1.
         11   -1    0    0    0    0 -0.00000000000E+00 -0.00000000000E+00 -0.45593999997E+02  0.45594000000E+02  0.51100000000E-03 0.  1.
    9900012    2    1    2    0    0  0.11151138748E+02 -0.15044247634E+02  0.54524273117E-01  0.72461541308E+02  0.69999962239E+02 0.  0.
         12    1    1    2    0    0 -0.11151138748E+02  0.15044247634E+02 -0.54524273117E-01  0.18726458692E+02  0.00000000000E+00 0. -1.
         11    1    3    3    0    0  0.18156365724E+02  0.33730727520E+01  0.26517638207E+02  0.32314336949E+02  0.51100000000E-03 0. -1.
        -11    1    3    3    0    0 -0.13069430114E+02 -0.42672515927E+01 -0.73001754479E+01  0.15566374064E+02  0.51100000000E-03 0.  1.
        -12    1    3    3    0    0  0.60642031381E+01 -0.14150068794E+02 -0.19162938486E+02  0.24580830295E+02  0.00000000000E+00 0.  1.
</event>
<event>
 7    1  0.3434711E-013  0.7246157E+02  0.7816164E-02  0.1226708E+00
        -11   -1    0    0    0    0  0.00000000000E+00  0.00000000000E+00  0.45593999997E+02  0.45594000000E+02  0.51100000000E-03 0. -1.
         11   -1    0    0    0    0 -0.00000000000E+00 -0.00000000000E+00 -0.45593999997E+02  0.45594000000E+02  0.51100000000E-03 0.  1.
    9900012    2    1    2    0    0 -0.50320819659E+00  0.13956090260E+02 -0.12476124855E+02  0.72461565069E+02  0.69999993193E+02 0.  0.
         12    1    1    2    0    0  0.50320819659E+00 -0.13956090260E+02  0.12476124855E+02  0.18726434931E+02  0.00000000000E+00 0. -1.
         11    1    3    3    0    0  0.10895277689E+02  0.10236127713E+02 -0.33198542285E+01  0.15313615472E+02  0.51100000000E-03 0. -1.
        -11    1    3    3    0    0  0.20524748237E+02  0.95871738206E+01 -0.98030540209E+01  0.24683578761E+02  0.51100000000E-03 0.  1.
        -12    1    3    3    0    0 -0.31923234123E+02 -0.58672112733E+01  0.64678339482E+00  0.32464370835E+02  0.00000000000E+00 0.  1.
</event>
<event>
 7    1  0.3434711E-013  0.7246155E+02  0.7816164E-02  0.1226708E+00
        -11   -1    0    0    0    0  0.00000000000E+00  0.00000000000E+00  0.45593999997E+02  0.45594000000E+02  0.51100000000E-03 0.  1.
         11   -1    0    0    0    0 -0.00000000000E+00 -0.00000000000E+00 -0.45593999997E+02  0.45594000000E+02  0.51100000000E-03 0. -1.
    9900012    2    1    2    0    0 -0.16556755738E+02  0.44919757700E+01  0.75083800499E+01  0.72461554051E+02  0.69999978841E+02 0.  0.
         12    1    1    2    0    0  0.16556755738E+02 -0.44919757700E+01 -0.75083800499E+01  0.18726445949E+02  0.00000000000E+00 0. -1.
         11    1    3    3    0    0 -0.20512703107E+02 -0.25666589326E+02 -0.86794063201E+01  0.33983479674E+02  0.51100000000E-03 0. -1.
        -11    1    3    3    0    0 -0.96828317652E+00 -0.65050514953E+00 -0.20353745306E+01  0.23459494880E+01  0.51100000000E-03 0.  1.
        -12    1    3    3    0    0  0.49242305457E+01  0.30809070245E+02  0.18223160901E+02  0.36132124890E+02  0.00000000000E+00 0.  1.
</event>
<event>
 7    1  0.3434711E-013  0.7246160E+02  0.7816164E-02  0.1226708E+00
        -11   -1    0    0    0    0  0.00000000000E+00  0.00000000000E+00  0.45593999997E+02  0.45594000000E+02  0.51100000000E-03 0.  1.
         11   -1    0    0    0    0 -0.00000000000E+00 -0.00000000000E+00 -0.45593999997E+02  0.45594000000E+02  0.51100000000E-03 0. -1.
    9900012    2    1    2    0    0 -0.52931587978E+01 -0.59563656523E+01  0.16946456625E+02  0.72461595807E+02  0.70000033236E+02 0.  0.
         12    1    1    2    0    0  0.52931587978E+01  0.59563656523E+01 -0.16946456625E+02  0.18726404193E+02  0.00000000000E+00 0. -1.
         11    1    3    3    0    0 -0.27657961933E+01  0.42488244415E+01  0.44019108842E+01  0.67140864912E+01  0.51100000000E-03 0. -1.
        -11    1    3    3    0    0 -0.13330906756E+01  0.15722838225E+02  0.30394665378E+02  0.34246466333E+02  0.51100000000E-03 0.  1.
         12    1    3    3    0    0 -0.11942719290E+01 -0.25928028319E+02 -0.17850119638E+02  0.31501042983E+02  0.00000000000E+00 0. -1.
</event>
<event>
 7    1  0.3434711E-013  0.7246158E+02  0.7816164E-02  0.1226708E+00
        -11   -1    0    0    0    0  0.00000000000E+00  0.00000000000E+00  0.45593999997E+02  0.45594000000E+02  0.51100000000E-03 0. -1.
         11   -1    0    0    0    0 -0.00000000000E+00 -0.00000000000E+00 -0.45593999997E+02  0.45594000000E+02  0.51100000000E-03 0.  1.
    9900012    2    1    2    0    0 -0.16197298345E+02  0.93146588785E+01  0.12503800255E+01  0.72461580324E+02  0.70000013065E+02 0.  0.
         12    1    1    2    0    0  0.16197298345E+02 -0.93146588785E+01 -0.12503800255E+01  0.18726419676E+02  0.00000000000E+00 0. -1.
         11    1    3    3    0    0 -0.17223453376E+02 -0.55084004819E+01 -0.33522742223E+01  0.18390964216E+02  0.51100000000E-03 0. -1.
        -11    1    3    3    0    0  0.95105830756E+01 -0.17244005145E+02 -0.33109025836E+01  0.19969200786E+02  0.51100000000E-03 0.  1.
         12    1    3    3    0    0 -0.84844280441E+01  0.32067064505E+02  0.79135568314E+01  0.34101415322E+02  0.00000000000E+00 0. -1.
</event>
<event>
 7    1  0.3434711E-013  0.7246157E+02  0.7816164E-02  0.1226708E+00
        -11   -1    0    0    0    0  0.00000000000E+00  0.00000000000E+00  0.45593999997E+02  0.45594000000E+02  0.51100000000E-03 0.  1.
         11   -1    0    0    0    0 -0.00000000000E+00 -0.00000000000E+00 -0.45593999997E+02  0.45594000000E+02  0.51100000000E-03 0. -1.
    9900012    2    1    2    0    0  0.17368733390E+02 -0.27951009575E+01 -0.64182194725E+01  0.72461574016E+02  0.70000004848E+02 0.  0.
         12    1    1    2    0    0 -0.17368733390E+02  0.27951009575E+01  0.64182194725E+01  0.18726425984E+02  0.00000000000E+00 0. -1.
         11    1    3    3    0    0 -0.10818963995E+02 -0.54179736189E+01  0.68084932445E+01  0.13883803535E+02  0.51100000000E-03 0. -1.
        -11    1    3    3    0    0  0.10323271798E+02  0.21647542060E+02  0.76327130085E+01  0.25168319888E+02  0.51100000000E-03 0.  1.
        -12    1    3    3    0    0  0.17864425588E+02 -0.19024669399E+02 -0.20859425725E+02  0.33409450593E+02  0.00000000000E+00 0.  1.
</event>
<event>
 7    1  0.3434711E-013  0.7246158E+02  0.7816164E-02  0.1226708E+00
        -11   -1    0    0    0    0  0.00000000000E+00  0.00000000000E+00  0.45593999997E+02  0.45594000000E+02  0.51100000000E-03 0.  1.
         11   -1    0    0    0    0 -0.00000000000E+00 -0.00000000000E+00 -0.45593999997E+02  0.45594000000E+02  0.51100000000E-03 0. -1.
    9900012    2    1    2    0    0  0.16853087529E+02  0.48512157807E+01  0.65664232550E+01  0.72461581011E+02  0.70000013960E+02 0.  0.
         12    1    1    2    0    0 -0.16853087529E+02 -0.48512157807E+01 -0.65664232550E+01  0.18726418989E+02  0.00000000000E+00 0. -1.
         11    1    3    3    0    0  0.19929287150E+02 -0.56491261544E+01 -0.73470143988E+00  0.20727491384E+02  0.51100000000E-03 0. -1.
        -11    1    3    3    0    0  0.15568915344E+02  0.22788692293E+02 -0.17146190290E+01  0.27652405684E+02  0.51100000000E-03 0.  1.
        -12    1    3    3    0    0 -0.18645114966E+02 -0.12288350358E+02  0.90157437239E+01  0.24081683943E+02  0.00000000000E+00 0.  1.
</event>
<event>
 7    1  0.3434711E-013  0.7246167E+02  0.7816164E-02  0.1226708E+00
        -11   -1    0    0    0    0  0.00000000000E+00  0.00000000000E+00  0.45593999997E+02  0.45594000000E+02  0.51100000000E-03 0.  1.
         11   -1    0    0    0    0 -0.00000000000E+00 -0.00000000000E+00 -0.45593999997E+02  0.45594000000E+02  0.51100000000E-03 0. -1.
    9900012    2    1    2    0    0  0.99183781764E+01 -0.87169936638E+01  0.13278378721E+02  0.72461667053E+02  0.70000126046E+02 0.  0.
         12    1    1    2    0    0 -0.99183781764E+01  0.87169936638E+01 -0.13278378721E+02  0.18726332947E+02  0.00000000000E+00 0. -1.
         11    1    3    3    0    0  0.11573291489E+02  0.21694657941E+01  0.89521807547E+01  0.14791524541E+02  0.51100000000E-03 0. -1.
        -11    1    3    3    0    0  0.19081663586E+02 -0.10878328693E+01  0.21685685803E+02  0.28906093381E+02  0.51100000000E-03 0.  1.
         12    1    3    3    0    0 -0.20736576898E+02 -0.97986265886E+01 -0.17359487836E+02  0.28764049131E+02  0.00000000000E+00 0. -1.
</event>
<event>
 7    1  0.3434711E-013  0.7246158E+02  0.7816164E-02  0.1226708E+00
        -11   -1    0    0    0    0  0.00000000000E+00  0.00000000000E+00  0.45593999997E+02  0.45594000000E+02  0.51100000000E-03 0. -1.
         11   -1    0    0    0    0 -0.00000000000E+00 -0.00000000000E+00 -0.45593999997E+02  0.45594000000E+02  0.51100000000E-03 0.  1.
    9900012    2    1    2    0    0  0.11549620640E+02  0.33509005118E+01 -0.14354670642E+02  0.72461579082E+02  0.70000011447E+02 0.  0.
         12    1    1    2    0    0 -0.11549620640E+02 -0.33509005118E+01  0.14354670642E+02  0.18726420918E+02  0.00000000000E+00 0. -1.
         11    1    3    3    0    0  0.15999207442E+02  0.10330391291E+01  0.14371472442E+02  0.21530931912E+02  0.51100000000E-03 0. -1.
        -11    1    3    3    0    0 -0.49404244180E+01 -0.11856518415E+02  0.54312794442E+01  0.13945738382E+02  0.51100000000E-03 0.  1.
        -12    1    3    3    0    0  0.49083761590E+00  0.14174379798E+02 -0.34157422529E+02  0.36984908787E+02  0.00000000000E+00 0.  1.
</event>
<event>
 7    1  0.3434711E-013  0.7246151E+02  0.7816164E-02  0.1226708E+00
        -11   -1    0    0    0    0  0.00000000000E+00  0.00000000000E+00  0.45593999997E+02  0.45594000000E+02  0.51100000000E-03 0. -1.
         11   -1    0    0    0    0 -0.00000000000E+00 -0.00000000000E+00 -0.45593999997E+02  0.45594000000E+02  0.51100000000E-03 0.  1.
    9900012    2    1    2    0    0  0.55991366267E+01  0.17867799685E+02 -0.26991570600E+00  0.72461509377E+02  0.69999920644E+02 0.  0.
         12    1    1    2    0    0 -0.55991366267E+01 -0.17867799685E+02  0.26991570600E+00  0.18726490623E+02  0.00000000000E+00 0. -1.
         11    1    3    3    0    0 -0.16005831580E+02 -0.14126251609E+02  0.17041956696E+02  0.27316037732E+02  0.51100000000E-03 0. -1.
        -11    1    3    3    0    0  0.46787120368E+01 -0.18292724615E+00 -0.47741989246E+01  0.66870609638E+01  0.51100000000E-03 0.  1.
        -12    1    3    3    0    0  0.16926256170E+02  0.32176978541E+02 -0.12537673477E+02  0.38458410682E+02  0.00000000000E+00 0.  1.
</event>
<event>
 7    1  0.3434711E-013  0.7246116E+02  0.7816164E-02  0.1226709E+00
        -11   -1    0    0    0    0  0.00000000000E+00  0.00000000000E+00  0.45593999997E+02  0.45594000000E+02  0.51100000000E-03 0. -1.
         11   -1    0    0    0    0 -0.00000000000E+00 -0.00000000000E+00 -0.45593999997E+02  0.45594000000E+02  0.51100000000E-03 0.  1.
    9900012    2    1    2    0    0  0.15848133165E+01  0.10989268166E+02 -0.15080419883E+02  0.72461155313E+02  0.69999459408E+02 0.  0.
         12    1    1    2    0    0 -0.15848133165E+01 -0.10989268166E+02  0.15080419883E+02  0.18726844687E+02  0.00000000000E+00 0. -1.
         11    1    3    3    0    0  0.82721735565E+00  0.20597413558E+01  0.40500972033E+01  0.46184532718E+01  0.51100000000E-03 0. -1.
        -11    1    3    3    0    0 -0.47499242139E+01 -0.26871700079E+02 -0.15640088945E+02  0.31452542467E+02  0.51100000000E-03 0.  1.
         12    1    3    3    0    0  0.55075201748E+01  0.35801226889E+02 -0.34904281414E+01  0.36390159574E+02  0.00000000000E+00 0. -1.
</event>
<event>
 7    1  0.3434711E-013  0.7246148E+02  0.7816164E-02  0.1226708E+00
        -11   -1    0    0    0    0  0.00000000000E+00  0.00000000000E+00  0.45593999997E+02  0.45594000000E+02  0.51100000000E-03 0.  1.
         11   -1    0    0    0    0 -0.00000000000E+00 -0.00000000000E+00 -0.45593999997E+02  0.45594000000E+02  0.51100000000E-03 0. -1.
    9900012    2    1    2    0    0  0.70690011125E+01  0.17278052247E+02 -0.14766529233E+01  0.72461484840E+02  0.69999888680E+02 0.  0.
         12    1    1    2    0    0 -0.70690011125E+01 -0.17278052247E+02  0.14766529233E+01  0.18726515160E+02  0.00000000000E+00 0. -1.
         11    1    3    3    0    0 -0.11168184424E+02  0.18127393371E+02  0.18940311739E+02  0.28496774253E+02  0.51100000000E-03 0. -1.
        -11    1    3    3    0    0 -0.80085493291E+01  0.63466361770E+01 -0.48145140233E+00  0.10229782443E+02  0.51100000000E-03 0.  1.
         12    1    3    3    0    0  0.26245734866E+02 -0.71959773016E+01 -0.19935513260E+02  0.33734928145E+02  0.00000000000E+00 0. -1.
</event>
<event>
 7    1  0.3434711E-013  0.7246125E+02  0.7816164E-02  0.1226709E+00
        -11   -1    0    0    0    0  0.00000000000E+00  0.00000000000E+00  0.45593999997E+02  0.45594000000E+02  0.51100000000E-03 0.  1.
         11   -1    0    0    0    0 -0.00000000000E+00 -0.00000000000E+00 -0.45593999997E+02  0.45594000000E+02  0.51100000000E-03 0. -1.
    9900012    2    1    2    0    0  0.18173405629E+02  0.25123225860E+01  0.37558923533E+01  0.72461250033E+02  0.69999582799E+02 0.  0.
         12    1    1    2    0    0 -0.18173405629E+02 -0.25123225860E+01 -0.37558923533E+01  0.18726749967E+02  0.00000000000E+00 0. -1.
         11    1    3    3    0    0  0.24650653697E+02  0.14262291928E+02 -0.13591153770E+02  0.31556095446E+02  0.51100000000E-03 0. -1.
        -11    1    3    3    0    0  0.47272368033E+01  0.15649654117E+01 -0.84377585129E+01  0.97975330322E+01  0.51100000000E-03 0.  1.
        -12    1    3    3    0    0 -0.11204484871E+02 -0.13314934754E+02  0.25784804636E+02  0.31107621555E+02  0.00000000000E+00 0.  1.
</event>
<event>
 7    1  0.3434711E-013  0.7246156E+02  0.7816164E-02  0.1226708E+00
        -11   -1    0    0    0    0  0.00000000000E+00  0.00000000000E+00  0.45593999997E+02  0.45594000000E+02  0.51100000000E-03 0. -1.
         11   -1    0    0    0    0 -0.00000000000E+00 -0.00000000000E+00 -0.45593999997E+02  0.45594000000E+02  0.51100000000E-03 0.  1.
    9900012    2    1    2    0    0  0.89628250207E+01 -0.15220890668E+02 -0.62186545888E+01  0.72461563874E+02  0.69999991637E+02 0.  0.
         12    1    1    2    0    0 -0.89628250207E+01  0.15220890668E+02  0.62186545888E+01  0.18726436126E+02  0.00000000000E+00 0. -1.
         11    1    3    3    0    0  0.22612553799E+02 -0.16321130658E+02 -0.16102289228E+02  0.32202338641E+02  0.51100000000E-03 0. -1.
        -11    1    3    3    0    0 -0.47151643281E+01  0.62028687542E+01 -0.13007218491E+02  0.15162324642E+02  0.51100000000E-03 0.  1.
         12    1    3    3    0    0 -0.89345644505E+01 -0.51026287645E+01  0.22890853131E+02  0.25096900591E+02  0.00000000000E+00 0. -1.
</event>
<event>
 7    1  0.3434711E-013  0.7246158E+02  0.7816164E-02  0.1226708E+00
        -11   -1    0    0    0    0  0.00000000000E+00  0.00000000000E+00  0.45593999997E+02  0.45594000000E+02  0.51100000000E-03 0.  1.
         11   -1    0    0    0    0 -0.00000000000E+00 -0.00000000000E+00 -0.45593999997E+02  0.45594000000E+02  0.51100000000E-03 0. -1.
    9900012    2    1    2    0    0 -0.12099215440E+02 -0.31699669099E+01  0.13936973605E+02  0.72461576483E+02  0.70000008062E+02 0.  0.
         12    1    1    2    0    0  0.12099215440E+02  0.31699669099E+01 -0.13936973605E+02  0.18726423517E+02  0.00000000000E+00 0. -1.
         11    1    3    3    0    0 -0.11007311290E+02  0.43938938596E+01  0.11737229703E+02  0.16680220815E+02  0.51100000000E-03 0. -1.
        -11    1    3    3    0    0 -0.10872408937E+02  0.88511868195E+01  0.23376490040E+02  0.27258266105E+02  0.51100000000E-03 0.  1.
         12    1    3    3    0    0  0.97805047870E+01 -0.16415047589E+02 -0.21176746138E+02  0.28523089563E+02  0.00000000000E+00 0. -1.
</event>
<event>
 7    1  0.3434711E-013  0.7246156E+02  0.7816164E-02  0.1226708E+00
        -11   -1    0    0    0    0  0.00000000000E+00  0.00000000000E+00  0.45593999997E+02  0.45594000000E+02  0.51100000000E-03 0. -1.
         11   -1    0    0    0    0 -0.00000000000E+00 -0.00000000000E+00 -0.45593999997E+02  0.45594000000E+02  0.51100000000E-03 0.  1.
    9900012    2    1    2    0    0  0.59520139421E+00  0.92033039819E+01 -0.16297991397E+02  0.72461559002E+02  0.69999985289E+02 0.  0.
         12    1    1    2    0    0 -0.59520139421E+00 -0.92033039819E+01  0.16297991397E+02  0.18726440998E+02  0.00000000000E+00 0. -1.
         11    1    3    3    0    0  0.23260297945E+02  0.15951938930E+02 -0.15605196616E+02  0.32233956906E+02  0.51100000000E-03 0. -1.
        -11    1    3    3    0    0  0.46124734556E+01  0.59458856346E+01 -0.60648757871E+01  0.96649462457E+01  0.51100000000E-03 0.  1.
        -12    1    3    3    0    0 -0.27277570007E+02 -0.12694520583E+02  0.53720810059E+01  0.30562655850E+02  0.00000000000E+00 0.  1.
</event>
<event>
 7    1  0.3434711E-013  0.7246156E+02  0.7816164E-02  0.1226708E+00
        -11   -1    0    0    0    0  0.00000000000E+00  0.00000000000E+00  0.45593999997E+02  0.45594000000E+02  0.51100000000E-03 0.  1.
         11   -1    0    0    0    0 -0.00000000000E+00 -0.00000000000E+00 -0.45593999997E+02  0.45594000000E+02  0.51100000000E-03 0. -1.
    9900012    2    1    2    0    0  0.14180922871E+02  0.60211372689E+01  0.10645511209E+02  0.72461559431E+02  0.69999985848E+02 0.  0.
         12    1    1    2    0    0 -0.14180922871E+02 -0.60211372689E+01 -0.10645511209E+02  0.18726440569E+02  0.00000000000E+00 0. -1.
         11    1    3    3    0    0  0.12158034459E+02  0.17472814485E+02  0.30719808231E+02  0.37374104216E+02  0.51100000000E-03 0.  1.
        -11    1    3    3    0    0  0.51908191374E+00 -0.11341290902E+02  0.31754334174E+01  0.11788880481E+02  0.51100000000E-03 0. -1.
        -12    1    3    3    0    0  0.15038064987E+01 -0.11038631439E+00 -0.23249730439E+02  0.23298574734E+02  0.00000000000E+00 0.  1.
</event>
<event>
 7    1  0.3434711E-013  0.7246167E+02  0.7816164E-02  0.1226708E+00
        -11   -1    0    0    0    0  0.00000000000E+00  0.00000000000E+00  0.45593999997E+02  0.45594000000E+02  0.51100000000E-03 0.  1.
         11   -1    0    0    0    0 -0.00000000000E+00 -0.00000000000E+00 -0.45593999997E+02  0.45594000000E+02  0.51100000000E-03 0. -1.
    9900012    2    1    2    0    0  0.44239506096E+01 -0.47212035990E+01  0.17573116041E+02  0.72461668010E+02  0.70000127292E+02 0.  0.
         12    1    1    2    0    0 -0.44239506096E+01  0.47212035990E+01 -0.17573116041E+02  0.18726331990E+02  0.00000000000E+00 0. -1.
         11    1    3    3    0    0  0.17985805636E+02 -0.95353428597E+01  0.87856817506E+01  0.22172058360E+02  0.51100000000E-03 0. -1.
        -11    1    3    3    0    0 -0.32310225141E+01  0.19411949082E+02  0.20887178750E+02  0.28697343258E+02  0.51100000000E-03 0.  1.
        -12    1    3    3    0    0 -0.10330832512E+02 -0.14597809821E+02 -0.12099744459E+02  0.21592266392E+02  0.00000000000E+00 0.  1.
</event>
<event>
 7    1  0.3434711E-013  0.7246168E+02  0.7816164E-02  0.1226708E+00
        -11   -1    0    0    0    0  0.00000000000E+00  0.00000000000E+00  0.45593999997E+02  0.45594000000E+02  0.51100000000E-03 0.  1.
         11   -1    0    0    0    0 -0.00000000000E+00 -0.00000000000E+00 -0.45593999997E+02  0.45594000000E+02  0.51100000000E-03 0. -1.
    9900012    2    1    2    0    0  0.44124373047E+01  0.18191398359E+02 -0.52776179225E+00  0.72461678692E+02  0.70000141208E+02 0.  0.
         12    1    1    2    0    0 -0.44124373047E+01 -0.18191398359E+02  0.52776179225E+00  0.18726321308E+02  0.00000000000E+00 0. -1.
         11    1    3    3    0    0 -0.23815855812E+02  0.25337284307E+01  0.17256079875E+01  0.24012340390E+02  0.51100000000E-03 0. -1.
        -11    1    3    3    0    0 -0.26025918767E+01 -0.70803663244E+01  0.55356666370E+01  0.93567450078E+01  0.51100000000E-03 0.  1.
        -12    1    3    3    0    0  0.30830884994E+02  0.22738036253E+02 -0.77890364168E+01  0.39092593294E+02  0.00000000000E+00 0.  1.
</event>
<event>
 7    1  0.3434711E-013  0.7246152E+02  0.7816164E-02  0.1226708E+00
        -11   -1    0    0    0    0  0.00000000000E+00  0.00000000000E+00  0.45593999997E+02  0.45594000000E+02  0.51100000000E-03 0. -1.
         11   -1    0    0    0    0 -0.00000000000E+00 -0.00000000000E+00 -0.45593999997E+02  0.45594000000E+02  0.51100000000E-03 0.  1.
    9900012    2    1    2    0    0 -0.18173859225E+02  0.18780939943E+01 -0.41066669091E+01  0.72461518502E+02  0.69999932531E+02 0.  0.
         12    1    1    2    0    0  0.18173859225E+02 -0.18780939943E+01  0.41066669091E+01  0.18726481498E+02  0.00000000000E+00 0. -1.
         11    1    3    3    0    0 -0.34479820502E+01  0.24382462412E+02 -0.13696831511E+02  0.28177939016E+02  0.51100000000E-03 0. -1.
        -11    1    3    3    0    0 -0.14396895304E+02  0.47463621424E+01 -0.64356040367E+00  0.15172762380E+02  0.51100000000E-03 0.  1.
        -12    1    3    3    0    0 -0.32898187119E+00 -0.27250730560E+02  0.10233725005E+02  0.29110817106E+02  0.00000000000E+00 0.  1.
</event>
<event>
 7    1  0.3434711E-013  0.7246147E+02  0.7816164E-02  0.1226708E+00
        -11   -1    0    0    0    0  0.00000000000E+00  0.00000000000E+00  0.45593999997E+02  0.45594000000E+02  0.51100000000E-03 0. -1.
         11   -1    0    0    0    0 -0.00000000000E+00 -0.00000000000E+00 -0.45593999997E+02  0.45594000000E+02  0.51100000000E-03 0.  1.
    9900012    2    1    2    0    0 -0.19990312381E+01 -0.98835711750E+00 -0.18593276518E+02  0.72461470493E+02  0.69999869991E+02 0.  0.
         12    1    1    2    0    0  0.19990312381E+01  0.98835711750E+00  0.18593276518E+02  0.18726529507E+02  0.00000000000E+00 0. -1.
         11    1    3    3    0    0 -0.75767815028E+01 -0.21069822855E+02  0.43581732389E+01  0.22810934381E+02  0.51100000000E-03 0. -1.
        -11    1    3    3    0    0 -0.64310947743E+00 -0.43863860715E+01  0.83396170936E+01  0.94447438344E+01  0.51100000000E-03 0.  1.
        -12    1    3    3    0    0  0.62208597421E+01  0.24467851809E+02 -0.31291066851E+02  0.40205792278E+02  0.00000000000E+00 0.  1.
</event>
<event>
 7    1  0.3434711E-013  0.7246157E+02  0.7816164E-02  0.1226708E+00
        -11   -1    0    0    0    0  0.00000000000E+00  0.00000000000E+00  0.45593999997E+02  0.45594000000E+02  0.51100000000E-03 0.  1.
         11   -1    0    0    0    0 -0.00000000000E+00 -0.00000000000E+00 -0.45593999997E+02  0.45594000000E+02  0.51100000000E-03 0. -1.
    9900012    2    1    2    0    0 -0.11780024612E+02 -0.10055028094E+02 -0.10526469164E+02  0.72461571539E+02  0.70000001622E+02 0.  0.
         12    1    1    2    0    0  0.11780024612E+02  0.10055028094E+02  0.10526469164E+02  0.18726428461E+02  0.00000000000E+00 0. -1.
         11    1    3    3    0    0 -0.42910905923E+00 -0.13777532416E+02  0.12651068985E+02  0.18709732248E+02  0.51100000000E-03 0. -1.
        -11    1    3    3    0    0 -0.14234945483E+02 -0.20008477878E+02 -0.10694881061E+02  0.26783452747E+02  0.51100000000E-03 0.  1.
         12    1    3    3    0    0  0.28840299299E+01  0.23730982200E+02 -0.12482657088E+02  0.26968386545E+02  0.00000000000E+00 0. -1.
</event>
<event>
 7    1  0.3434711E-013  0.7246152E+02  0.7816164E-02  0.1226708E+00
        -11   -1    0    0    0    0  0.00000000000E+00  0.00000000000E+00  0.45593999997E+02  0.45594000000E+02  0.51100000000E-03 0.  1.
         11   -1    0    0    0    0 -0.00000000000E+00 -0.00000000000E+00 -0.45593999997E+02  0.45594000000E+02  0.51100000000E-03 0. -1.
    9900012    2    1    2    0    0 -0.39339361887E+01 -0.18055253772E+02  0.30353103602E+01  0.72461517370E+02  0.69999931057E+02 0.  0.
         12    1    1    2    0    0  0.39339361887E+01  0.18055253772E+02 -0.30353103602E+01  0.18726482630E+02  0.00000000000E+00 0. -1.
         11    1    3    3    0    0 -0.75990701385E+01 -0.17971653689E+02  0.12150720297E+02  0.22986217768E+02  0.51100000000E-03 0. -1.
        -11    1    3    3    0    0  0.12905339951E+02  0.76030913194E+01  0.15825098409E+02  0.21789642879E+02  0.51100000000E-03 0.  1.
         12    1    3    3    0    0 -0.92402060009E+01 -0.76866914020E+01 -0.24940508346E+02  0.27685656724E+02  0.00000000000E+00 0. -1.
</event>
<event>
 7    1  0.3434711E-013  0.7246158E+02  0.7816164E-02  0.1226708E+00
        -11   -1    0    0    0    0  0.00000000000E+00  0.00000000000E+00  0.45593999997E+02  0.45594000000E+02  0.51100000000E-03 0. -1.
         11   -1    0    0    0    0 -0.00000000000E+00 -0.00000000000E+00 -0.45593999997E+02  0.45594000000E+02  0.51100000000E-03 0.  1.
    9900012    2    1    2    0    0  0.11122605234E+02  0.13643061479E+02  0.63901000548E+01  0.72461578761E+02  0.70000011030E+02 0.  0.
         12    1    1    2    0    0 -0.11122605234E+02 -0.13643061479E+02 -0.63901000548E+01  0.18726421239E+02  0.00000000000E+00 0. -1.
         11    1    3    3    0    0  0.79586555105E+01  0.41301577857E+01  0.28219427202E+01  0.94000937148E+01  0.51100000000E-03 0. -1.
        -11    1    3    3    0    0  0.13783820568E+02  0.32575087877E+02 -0.60993921344E+01  0.35893350977E+02  0.51100000000E-03 0.  1.
         12    1    3    3    0    0 -0.10619870844E+02 -0.23062184184E+02  0.96675494690E+01  0.27168134070E+02  0.00000000000E+00 0. -1.
</event>
<event>
 7    1  0.3434711E-013  0.7246177E+02  0.7816164E-02  0.1226707E+00
        -11   -1    0    0    0    0  0.00000000000E+00  0.00000000000E+00  0.45593999997E+02  0.45594000000E+02  0.51100000000E-03 0.  1.
         11   -1    0    0    0    0 -0.00000000000E+00 -0.00000000000E+00 -0.45593999997E+02  0.45594000000E+02  0.51100000000E-03 0. -1.
    9900012    2    1    2    0    0  0.18111284239E+02 -0.38817216909E+00  0.47436666825E+01  0.72461770587E+02  0.70000260919E+02 0.  0.
         12    1    1    2    0    0 -0.18111284239E+02  0.38817216909E+00 -0.47436666825E+01  0.18726229413E+02  0.00000000000E+00 0. -1.
         11    1    3    3    0    0  0.54798952736E+01  0.33470538382E+01  0.11256604978E+02  0.12959289236E+02  0.51100000000E-03 0. -1.
        -11    1    3    3    0    0  0.31590569429E+02  0.11376654875E+02  0.24210496675E+01  0.33663835711E+02  0.51100000000E-03 0.  1.
         12    1    3    3    0    0 -0.18959180464E+02 -0.15111880882E+02 -0.89339879628E+01  0.25838645641E+02  0.00000000000E+00 0. -1.
</event>
<event>
 7    1  0.3434711E-013  0.7246155E+02  0.7816164E-02  0.1226708E+00
        -11   -1    0    0    0    0  0.00000000000E+00  0.00000000000E+00  0.45593999997E+02  0.45594000000E+02  0.51100000000E-03 0. -1.
         11   -1    0    0    0    0 -0.00000000000E+00 -0.00000000000E+00 -0.45593999997E+02  0.45594000000E+02  0.51100000000E-03 0.  1.
    9900012    2    1    2    0    0  0.26844122831E+01 -0.17810715623E+02 -0.51236924951E+01  0.72461551189E+02  0.69999975111E+02 0.  0.
         12    1    1    2    0    0 -0.26844122831E+01  0.17810715623E+02  0.51236924951E+01  0.18726448811E+02  0.00000000000E+00 0. -1.
         11    1    3    3    0    0  0.10888541956E+02 -0.63081614733E+01  0.11275665442E+02  0.16896564104E+02  0.51100000000E-03 0.  1.
        -11    1    3    3    0    0 -0.23133291909E+02 -0.26779496688E+01  0.88676805362E+01  0.24918996114E+02  0.51100000000E-03 0. -1.
         12    1    3    3    0    0  0.14929162237E+02 -0.88246044806E+01 -0.25267038474E+02  0.30645990970E+02  0.00000000000E+00 0. -1.
</event>
<event>
 7    1  0.3434711E-013  0.7246165E+02  0.7816164E-02  0.1226708E+00
        -11   -1    0    0    0    0  0.00000000000E+00  0.00000000000E+00  0.45593999997E+02  0.45594000000E+02  0.51100000000E-03 0.  1.
         11   -1    0    0    0    0 -0.00000000000E+00 -0.00000000000E+00 -0.45593999997E+02  0.45594000000E+02  0.51100000000E-03 0. -1.
    9900012    2    1    2    0    0 -0.11982613362E+02 -0.10736847549E+01  0.14350622079E+02  0.72461650223E+02  0.70000104122E+02 0.  0.
         12    1    1    2    0    0  0.11982613362E+02  0.10736847549E+01 -0.14350622079E+02  0.18726349777E+02  0.00000000000E+00 0. -1.
         11    1    3    3    0    0  0.56385013214E+00  0.19608116963E+01  0.16145628283E+01  0.26018306761E+01  0.51100000000E-03 0. -1.
        -11    1    3    3    0    0  0.11057745294E+02  0.26504987018E+02  0.14161897134E+02  0.32021046181E+02  0.51100000000E-03 0.  1.
         12    1    3    3    0    0 -0.23604208788E+02 -0.29539483470E+02 -0.14258378840E+01  0.37838773366E+02  0.00000000000E+00 0. -1.
</event>
<event>
 7    1  0.3434711E-013  0.7246156E+02  0.7816164E-02  0.1226708E+00
        -11   -1    0    0    0    0  0.00000000000E+00  0.00000000000E+00  0.45593999997E+02  0.45594000000E+02  0.51100000000E-03 0.  1.
         11   -1    0    0    0    0 -0.00000000000E+00 -0.00000000000E+00 -0.45593999997E+02  0.45594000000E+02  0.51100000000E-03 0. -1.
    9900012    2    1    2    0    0  0.16489724498E+02  0.67320373027E+01  0.57834325177E+01  0.72461563287E+02  0.69999990872E+02 0.  0.
         12    1    1    2    0    0 -0.16489724498E+02 -0.67320373027E+01 -0.57834325177E+01  0.18726436713E+02  0.00000000000E+00 0. -1.
         11    1    3    3    0    0 -0.49462550945E+01  0.93887154766E+01 -0.83729139136E+01  0.13517363109E+02  0.51100000000E-03 0. -1.
        -11    1    3    3    0    0  0.23993402749E+02  0.96810647917E+01 -0.13038249276E+02  0.28972440964E+02  0.51100000000E-03 0.  1.
         12    1    3    3    0    0 -0.25574231560E+01 -0.12337742966E+02  0.27194595708E+02  0.29971759214E+02  0.00000000000E+00 0. -1.
</event>
<event>
 7    1  0.3434711E-013  0.7246159E+02  0.7816164E-02  0.1226708E+00
        -11   -1    0    0    0    0  0.00000000000E+00  0.00000000000E+00  0.45593999997E+02  0.45594000000E+02  0.51100000000E-03 0.  1.
         11   -1    0    0    0    0 -0.00000000000E+00 -0.00000000000E+00 -0.45593999997E+02  0.45594000000E+02  0.51100000000E-03 0. -1.
    9900012    2    1    2    0    0  0.65447092914E+01 -0.10557754430E+02  0.14013533650E+02  0.72461587538E+02  0.70000022463E+02 0.  0.
         12    1    1    2    0    0 -0.65447092914E+01  0.10557754430E+02 -0.14013533650E+02  0.18726412462E+02  0.00000000000E+00 0. -1.
         11    1    3    3    0    0  0.69073182599E+01 -0.18935226080E+01  0.40466054565E+01  0.82262682544E+01  0.51100000000E-03 0. -1.
        -11    1    3    3    0    0 -0.23929562067E+02 -0.57092807524E+01  0.25832181978E+02  0.35672418665E+02  0.51100000000E-03 0.  1.
         12    1    3    3    0    0  0.23566953098E+02 -0.29549510699E+01 -0.15865253784E+02  0.28562900619E+02  0.00000000000E+00 0. -1.
</event>
<event>
 7    1  0.3434711E-013  0.7246158E+02  0.7816164E-02  0.1226708E+00
        -11   -1    0    0    0    0  0.00000000000E+00  0.00000000000E+00  0.45593999997E+02  0.45594000000E+02  0.51100000000E-03 0. -1.
         11   -1    0    0    0    0 -0.00000000000E+00 -0.00000000000E+00 -0.45593999997E+02  0.45594000000E+02  0.51100000000E-03 0.  1.
    9900012    2    1    2    0    0  0.44376730256E+01  0.11829174135E+02 -0.13822318873E+02  0.72461580117E+02  0.70000012796E+02 0.  0.
         12    1    1    2    0    0 -0.44376730256E+01 -0.11829174135E+02  0.13822318873E+02  0.18726419883E+02  0.00000000000E+00 0. -1.
         11    1    3    3    0    0  0.10984814483E+02  0.84781261181E+01  0.14230014549E+02  0.19875565049E+02  0.51100000000E-03 0. -1.
        -11    1    3    3    0    0 -0.50770726463E+01  0.17367158723E+02  0.31337720545E+01  0.18363425506E+02  0.51100000000E-03 0.  1.
         12    1    3    3    0    0 -0.14700688110E+01 -0.14016110705E+02 -0.31186105476E+02  0.34222589563E+02  0.00000000000E+00 0. -1.
</event>
<event>
 7    1  0.3434711E-013  0.7246157E+02  0.7816164E-02  0.1226708E+00
        -11   -1    0    0    0    0  0.00000000000E+00  0.00000000000E+00  0.45593999997E+02  0.45594000000E+02  0.51100000000E-03 0. -1.
         11   -1    0    0    0    0 -0.00000000000E+00 -0.00000000000E+00 -0.45593999997E+02  0.45594000000E+02  0.51100000000E-03 0.  1.
    9900012    2    1    2    0    0  0.71597872282E+01  0.35156917020E+01 -0.16942745574E+02  0.72461567641E+02  0.69999996544E+02 0.  0.
         12    1    1    2    0    0 -0.71597872282E+01 -0.35156917020E+01  0.16942745574E+02  0.18726432359E+02  0.00000000000E+00 0. -1.
         11    1    3    3    0    0  0.67356559741E+01  0.12118374109E+02  0.21668959715E+02  0.25724849229E+02  0.51100000000E-03 0. -1.
        -11    1    3    3    0    0 -0.62441880332E+01 -0.80632437443E+01 -0.31853582992E+01  0.10684207581E+02  0.51100000000E-03 0.  1.
        -12    1    3    3    0    0  0.66683192872E+01 -0.53943866280E+00 -0.35426346990E+02  0.36052510832E+02  0.00000000000E+00 0.  1.
</event>
<event>
 7    1  0.3434711E-013  0.7246155E+02  0.7816164E-02  0.1226708E+00
        -11   -1    0    0    0    0  0.00000000000E+00  0.00000000000E+00  0.45593999997E+02  0.45594000000E+02  0.51100000000E-03 0.  1.
         11   -1    0    0    0    0 -0.00000000000E+00 -0.00000000000E+00 -0.45593999997E+02  0.45594000000E+02  0.51100000000E-03 0. -1.
    9900012    2    1    2    0    0 -0.77091496228E+01  0.16268328756E+02  0.51565968518E+01  0.72461548134E+02  0.69999971132E+02 0.  0.
         12    1    1    2    0    0  0.77091496228E+01 -0.16268328756E+02 -0.51565968518E+01  0.18726451866E+02  0.00000000000E+00 0. -1.
         11    1    3    3    0    0 -0.78577958576E+01 -0.36883161302E+01 -0.18269087674E+01  0.88705257748E+01  0.51100000000E-03 0. -1.
        -11    1    3    3    0    0  0.26172566300E+02  0.10750578780E+02  0.18365426426E+02  0.33732285112E+02  0.51100000000E-03 0.  1.
         12    1    3    3    0    0 -0.26023920065E+02  0.92060661060E+01 -0.11381920807E+02  0.29858737247E+02  0.00000000000E+00 0. -1.
</event>
<event>
 7    1  0.3434711E-013  0.7246155E+02  0.7816164E-02  0.1226708E+00
        -11   -1    0    0    0    0  0.00000000000E+00  0.00000000000E+00  0.45593999997E+02  0.45594000000E+02  0.51100000000E-03 0.  1.
         11   -1    0    0    0    0 -0.00000000000E+00 -0.00000000000E+00 -0.45593999997E+02  0.45594000000E+02  0.51100000000E-03 0. -1.
    9900012    2    1    2    0    0  0.29820445621E+01 -0.12329620482E+02  0.13775616571E+02  0.72461554985E+02  0.69999980056E+02 0.  0.
         12    1    1    2    0    0 -0.29820445621E+01  0.12329620482E+02 -0.13775616571E+02  0.18726445015E+02  0.00000000000E+00 0. -1.
         11    1    3    3    0    0  0.19034366856E+02  0.13599380339E+02  0.20740900557E+02  0.31263960456E+02  0.51100000000E-03 0. -1.
        -11    1    3    3    0    0  0.45387825612E+00  0.44657976292E+01  0.27591767675E+01  0.52690047098E+01  0.51100000000E-03 0.  1.
        -12    1    3    3    0    0 -0.16506200550E+02 -0.30394798450E+02 -0.97244607540E+01  0.35928589819E+02  0.00000000000E+00 0.  1.
</event>
<event>
 7    1  0.3434711E-013  0.7246162E+02  0.7816164E-02  0.1226708E+00
        -11   -1    0    0    0    0  0.00000000000E+00  0.00000000000E+00  0.45593999997E+02  0.45594000000E+02  0.51100000000E-03 0.  1.
         11   -1    0    0    0    0 -0.00000000000E+00 -0.00000000000E+00 -0.45593999997E+02  0.45594000000E+02  0.51100000000E-03 0. -1.
    9900012    2    1    2    0    0  0.17873491712E+02  0.33891957916E+01 -0.44417295097E+01  0.72461619807E+02  0.70000064499E+02 0.  0.
         12    1    1    2    0    0 -0.17873491712E+02 -0.33891957916E+01  0.44417295097E+01  0.18726380193E+02  0.00000000000E+00 0. -1.
         11    1    3    3    0    0  0.71870249048E+00 -0.53259569782E+01 -0.11035538217E+01  0.54863633038E+01  0.51100000000E-03 0.  1.
        -11    1    3    3    0    0  0.39683677098E+02  0.39413013159E+01 -0.13081677541E+02  0.41969731613E+02  0.51100000000E-03 0. -1.
         12    1    3    3    0    0 -0.22528887877E+02  0.47738514539E+01  0.97435018532E+01  0.25005524890E+02  0.00000000000E+00 0. -1.
</event>
<event>
 7    1  0.3434711E-013  0.7246182E+02  0.7816164E-02  0.1226707E+00
        -11   -1    0    0    0    0  0.00000000000E+00  0.00000000000E+00  0.45593999997E+02  0.45594000000E+02  0.51100000000E-03 0. -1.
         11   -1    0    0    0    0 -0.00000000000E+00 -0.00000000000E+00 -0.45593999997E+02  0.45594000000E+02  0.51100000000E-03 0.  1.
    9900012    2    1    2    0    0 -0.48869577517E+00  0.69974198298E+00 -0.18706723169E+02  0.72461816349E+02  0.70000320531E+02 0.  0.
         12    1    1    2    0    0  0.48869577517E+00 -0.69974198298E+00  0.18706723169E+02  0.18726183651E+02  0.00000000000E+00 0. -1.
         11    1    3    3    0    0 -0.52054798639E+01  0.60123491978E+01  0.21463609248E+01  0.82372464435E+01  0.51100000000E-03 0. -1.
        -11    1    3    3    0    0  0.15905424423E+02 -0.25263810709E+02  0.43724648426E+01  0.30172190949E+02  0.51100000000E-03 0.  1.
         12    1    3    3    0    0 -0.11188640335E+02  0.19951203494E+02 -0.25225548937E+02  0.34052378956E+02  0.00000000000E+00 0. -1.
</event>
<event>
 7    1  0.3434711E-013  0.7246157E+02  0.7816164E-02  0.1226708E+00
        -11   -1    0    0    0    0  0.00000000000E+00  0.00000000000E+00  0.45593999997E+02  0.45594000000E+02  0.51100000000E-03 0.  1.
         11   -1    0    0    0    0 -0.00000000000E+00 -0.00000000000E+00 -0.45593999997E+02  0.45594000000E+02  0.51100000000E-03 0. -1.
    9900012    2    1    2    0    0  0.87303926264E+01  0.16558572087E+02  0.52248447727E+00  0.72461573352E+02  0.70000003983E+02 0.  0.
         12    1    1    2    0    0 -0.87303926264E+01 -0.16558572087E+02 -0.52248447727E+00  0.18726426648E+02  0.00000000000E+00 0. -1.
         11    1    3    3    0    0 -0.14829702461E+02  0.23325644286E+02  0.11266929144E+02  0.29848776341E+02  0.51100000000E-03 0. -1.
        -11    1    3    3    0    0  0.16125485735E+02  0.24350239683E+01 -0.21253233185E+02  0.26789187240E+02  0.51100000000E-03 0.  1.
        -12    1    3    3    0    0  0.74346093521E+01 -0.92020961672E+01  0.10508788518E+02  0.15823609772E+02  0.00000000000E+00 0.  1.
</event>
<event>
 7    1  0.3434711E-013  0.7246156E+02  0.7816164E-02  0.1226708E+00
        -11   -1    0    0    0    0  0.00000000000E+00  0.00000000000E+00  0.45593999997E+02  0.45594000000E+02  0.51100000000E-03 0. -1.
         11   -1    0    0    0    0 -0.00000000000E+00 -0.00000000000E+00 -0.45593999997E+02  0.45594000000E+02  0.51100000000E-03 0.  1.
    9900012    2    1    2    0    0 -0.15550493574E+02  0.97490093148E+01 -0.37173094363E+01  0.72461563541E+02  0.69999991203E+02 0.  0.
         12    1    1    2    0    0  0.15550493574E+02 -0.97490093148E+01  0.37173094363E+01  0.18726436459E+02  0.00000000000E+00 0. -1.
         11    1    3    3    0    0  0.61221010716E+00  0.12867292090E+02  0.22470864813E+02  0.25901385535E+02  0.51100000000E-03 0. -1.
        -11    1    3    3    0    0  0.61920001685E+01 -0.10626227995E+02 -0.14514192275E+01  0.12384030262E+02  0.51100000000E-03 0.  1.
        -12    1    3    3    0    0 -0.22354703849E+02  0.75079452200E+01 -0.24736755022E+02  0.34176147744E+02  0.00000000000E+00 0.  1.
</event>
<event>
 7    1  0.3434711E-013  0.7246162E+02  0.7816164E-02  0.1226708E+00
        -11   -1    0    0    0    0  0.00000000000E+00  0.00000000000E+00  0.45593999997E+02  0.45594000000E+02  0.51100000000E-03 0.  1.
         11   -1    0    0    0    0 -0.00000000000E+00 -0.00000000000E+00 -0.45593999997E+02  0.45594000000E+02  0.51100000000E-03 0. -1.
    9900012    2    1    2    0    0  0.17639245690E+02  0.26148372605E+01 -0.57181280893E+01  0.72461618842E+02  0.70000063243E+02 0.  0.
         12    1    1    2    0    0 -0.17639245690E+02 -0.26148372605E+01  0.57181280893E+01  0.18726381158E+02  0.00000000000E+00 0. -1.
         11    1    3    3    0    0  0.10845541348E+02 -0.11143240299E+01 -0.22529869600E+02  0.25029233101E+02  0.51100000000E-03 0. -1.
        -11    1    3    3    0    0  0.92587125678E+01  0.19535815258E+02 -0.31544563846E+01  0.21847709984E+02  0.51100000000E-03 0.  1.
        -12    1    3    3    0    0 -0.24650082259E+01 -0.15806653967E+02  0.19966197895E+02  0.25584675757E+02  0.00000000000E+00 0.  1.
</event>
<event>
 7    1  0.3434711E-013  0.7246156E+02  0.7816164E-02  0.1226708E+00
        -11   -1    0    0    0    0  0.00000000000E+00  0.00000000000E+00  0.45593999997E+02  0.45594000000E+02  0.51100000000E-03 0. -1.
         11   -1    0    0    0    0 -0.00000000000E+00 -0.00000000000E+00 -0.45593999997E+02  0.45594000000E+02  0.51100000000E-03 0.  1.
    9900012    2    1    2    0    0 -0.13085904663E+02 -0.89389037453E+01 -0.99767066732E+01  0.72461559413E+02  0.69999985825E+02 0.  0.
         12    1    1    2    0    0  0.13085904663E+02  0.89389037453E+01  0.99767066732E+01  0.18726440587E+02  0.00000000000E+00 0. -1.
         11    1    3    3    0    0  0.83485140695E+01  0.80183772694E+01 -0.51540962746E+01  0.12671099789E+02  0.51100000000E-03 0.  1.
        -11    1    3    3    0    0 -0.30214832291E+02  0.58395622688E+01 -0.13849417170E+02  0.33746747015E+02  0.51100000000E-03 0. -1.
         12    1    3    3    0    0  0.87804135584E+01 -0.22796843283E+02  0.90268067715E+01  0.26043712609E+02  0.00000000000E+00 0. -1.
</event>
<event>
 7    1  0.3974392E-013  0.7246160E+02  0.7816164E-02  0.1226708E+00
        -11   -1    0    0    0    0  0.00000000000E+00  0.00000000000E+00  0.45593999997E+02  0.45594000000E+02  0.51100000000E-03 0. -1.
         11   -1    0    0    0    0 -0.00000000000E+00 -0.00000000000E+00 -0.45593999997E+02  0.45594000000E+02  0.51100000000E-03 0.  1.
    9900012    2    1    2    0    0 -0.12672224550E+02 -0.67037753538E+01 -0.12047908683E+02  0.72461601984E+02  0.70000041281E+02 0.  0.
         12    1    1    2    0    0  0.12672224550E+02  0.67037753538E+01  0.12047908683E+02  0.18726398016E+02  0.00000000000E+00 0. -1.
         11    1    3    3    0    0 -0.19770944940E+02 -0.10996605529E+02 -0.39289974856E+00  0.22626753357E+02  0.51100000000E-03 0. -1.
        -11    1    3    3    0    0 -0.49012624856E+01 -0.15310429345E+02 -0.19750862623E+02  0.25466216745E+02  0.51100000000E-03 0.  1.
         12    1    3    3    0    0  0.11999982876E+02  0.19603259520E+02  0.80958536889E+01  0.24368631882E+02  0.00000000000E+00 0. -1.
</event>
<event>
 7    1  0.3434711E-013  0.7246156E+02  0.7816164E-02  0.1226708E+00
        -11   -1    0    0    0    0  0.00000000000E+00  0.00000000000E+00  0.45593999997E+02  0.45594000000E+02  0.51100000000E-03 0. -1.
         11   -1    0    0    0    0 -0.00000000000E+00 -0.00000000000E+00 -0.45593999997E+02  0.45594000000E+02  0.51100000000E-03 0.  1.
    9900012    2    1    2    0    0 -0.37759667898E+01 -0.17861460293E+02 -0.41700943032E+01  0.72461564795E+02  0.69999992836E+02 0.  0.
         12    1    1    2    0    0  0.37759667898E+01  0.17861460293E+02  0.41700943032E+01  0.18726435205E+02  0.00000000000E+00 0. -1.
         11    1    3    3    0    0  0.27292281486E+02  0.38798251528E+00 -0.97015715380E+01  0.28967907237E+02  0.51100000000E-03 0. -1.
        -11    1    3    3    0    0 -0.19312506605E+02  0.17999343768E+01 -0.77465773031E+00  0.19411665822E+02  0.51100000000E-03 0.  1.
        -12    1    3    3    0    0 -0.11755741671E+02 -0.20049377185E+02  0.63061349651E+01  0.24081991735E+02  0.00000000000E+00 0.  1.
</event>
<event>
 7    1  0.3434711E-013  0.7246156E+02  0.7816164E-02  0.1226708E+00
        -11   -1    0    0    0    0  0.00000000000E+00  0.00000000000E+00  0.45593999997E+02  0.45594000000E+02  0.51100000000E-03 0. -1.
         11   -1    0    0    0    0 -0.00000000000E+00 -0.00000000000E+00 -0.45593999997E+02  0.45594000000E+02  0.51100000000E-03 0.  1.
    9900012    2    1    2    0    0  0.17531612783E+02  0.41036334793E+01 -0.51461100102E+01  0.72461556058E+02  0.69999981454E+02 0.  0.
         12    1    1    2    0    0 -0.17531612783E+02 -0.41036334793E+01  0.51461100102E+01  0.18726443942E+02  0.00000000000E+00 0. -1.
         11    1    3    3    0    0  0.27728458516E+02  0.20132120118E+02  0.14680898688E+02  0.37278659561E+02  0.51100000000E-03 0. -1.
        -11    1    3    3    0    0  0.18422657892E+00  0.24035374438E+01  0.31396531519E+01  0.39583271531E+01  0.51100000000E-03 0.  1.
        -12    1    3    3    0    0 -0.10381072313E+02 -0.18432024082E+02 -0.22966661850E+02  0.31224569343E+02  0.00000000000E+00 0.  1.
</event>
<event>
 7    1  0.4638225E-013  0.7246122E+02  0.7816164E-02  0.1226709E+00
        -11   -1    0    0    0    0  0.00000000000E+00  0.00000000000E+00  0.45593999997E+02  0.45594000000E+02  0.51100000000E-03 0. -1.
         11   -1    0    0    0    0 -0.00000000000E+00 -0.00000000000E+00 -0.45593999997E+02  0.45594000000E+02  0.51100000000E-03 0.  1.
    9900012    2    1    2    0    0 -0.14692627724E+02  0.57101014095E+01 -0.10110085676E+02  0.72461217043E+02  0.69999539823E+02 0.  0.
         12    1    1    2    0    0  0.14692627724E+02 -0.57101014095E+01  0.10110085676E+02  0.18726782957E+02  0.00000000000E+00 0. -1.
         11    1    3    3    0    0 -0.53663006655E+01 -0.16743284969E+02 -0.50472121457E+01  0.18292324212E+02  0.51100000000E-03 0. -1.
        -11    1    3    3    0    0 -0.12073661076E+02 -0.14515314273E+01 -0.21727723516E+02  0.24899281209E+02  0.51100000000E-03 0.  1.
         12    1    3    3    0    0  0.27473340181E+01  0.23904917805E+02  0.16664849985E+02  0.29269611622E+02  0.00000000000E+00 0. -1.
</event>
<event>
 7    1  0.3434711E-013  0.7246161E+02  0.7816164E-02  0.1226708E+00
        -11   -1    0    0    0    0  0.00000000000E+00  0.00000000000E+00  0.45593999997E+02  0.45594000000E+02  0.51100000000E-03 0. -1.
         11   -1    0    0    0    0 -0.00000000000E+00 -0.00000000000E+00 -0.45593999997E+02  0.45594000000E+02  0.51100000000E-03 0.  1.
    9900012    2    1    2    0    0  0.10073776172E+02  0.76756880200E+01 -0.13794220222E+02  0.72461610479E+02  0.70000052348E+02 0.  0.
         12    1    1    2    0    0 -0.10073776172E+02 -0.76756880200E+01  0.13794220222E+02  0.18726389521E+02  0.00000000000E+00 0. -1.
         11    1    3    3    0    0 -0.23177422514E+02  0.48535723049E+01 -0.17367424885E+02  0.29366265100E+02  0.51100000000E-03 0. -1.
        -11    1    3    3    0    0  0.17872673534E+02 -0.42677272921E+01 -0.10423350122E+02  0.21125628595E+02  0.51100000000E-03 0.  1.
        -12    1    3    3    0    0  0.15378525153E+02  0.70898430073E+01  0.13996554785E+02  0.21969716785E+02  0.00000000000E+00 0.  1.
</event>
<event>
 7    1  0.3434711E-013  0.7246133E+02  0.7816164E-02  0.1226709E+00
        -11   -1    0    0    0    0  0.00000000000E+00  0.00000000000E+00  0.45593999997E+02  0.45594000000E+02  0.51100000000E-03 0.  1.
         11   -1    0    0    0    0 -0.00000000000E+00 -0.00000000000E+00 -0.45593999997E+02  0.45594000000E+02  0.51100000000E-03 0. -1.
    9900012    2    1    2    0    0  0.78284208550E+00 -0.97408556663E+01  0.15974696903E+02  0.72461333132E+02  0.69999691052E+02 0.  0.
         12    1    1    2    0    0 -0.78284208550E+00  0.97408556663E+01 -0.15974696903E+02  0.18726666868E+02  0.00000000000E+00 0. -1.
         11    1    3    3    0    0  0.21909837990E+02  0.25323462219E+01  0.10122926912E+02  0.24267827007E+02  0.51100000000E-03 0. -1.
        -11    1    3    3    0    0  0.61954013960E+01 -0.11449787348E+02  0.14534945149E+02  0.19512694830E+02  0.51100000000E-03 0.  1.
        -12    1    3    3    0    0 -0.27322397300E+02 -0.82341453997E+00 -0.86831751577E+01  0.28680811295E+02  0.00000000000E+00 0.  1.
</event>
<event>
 7    1  0.3434711E-013  0.7246169E+02  0.7816164E-02  0.1226708E+00
        -11   -1    0    0    0    0  0.00000000000E+00  0.00000000000E+00  0.45593999997E+02  0.45594000000E+02  0.51100000000E-03 0.  1.
         11   -1    0    0    0    0 -0.00000000000E+00 -0.00000000000E+00 -0.45593999997E+02  0.45594000000E+02  0.51100000000E-03 0. -1.
    9900012    2    1    2    0    0  0.14964718879E+02 -0.34500227413E+01  0.10715832106E+02  0.72461694284E+02  0.70000161519E+02 0.  0.
         12    1    1    2    0    0 -0.14964718879E+02  0.34500227413E+01 -0.10715832106E+02  0.18726305716E+02  0.00000000000E+00 0. -1.
         11    1    3    3    0    0 -0.84546294470E+01 -0.12239505624E+02  0.11050975062E+02  0.18531333117E+02  0.51100000000E-03 0. -1.
        -11    1    3    3    0    0 -0.68889982438E+01  0.15170996269E+02  0.12060909689E+02  0.20568980708E+02  0.51100000000E-03 0.  1.
         12    1    3    3    0    0  0.30308346570E+02 -0.63815133856E+01 -0.12396052645E+02  0.33361380459E+02  0.00000000000E+00 0. -1.
</event>
<event>
 7    1  0.3434711E-013  0.7246158E+02  0.7816164E-02  0.1226708E+00
        -11   -1    0    0    0    0  0.00000000000E+00  0.00000000000E+00  0.45593999997E+02  0.45594000000E+02  0.51100000000E-03 0. -1.
         11   -1    0    0    0    0 -0.00000000000E+00 -0.00000000000E+00 -0.45593999997E+02  0.45594000000E+02  0.51100000000E-03 0.  1.
    9900012    2    1    2    0    0  0.17032187035E+02 -0.65733357594E+01  0.41683058234E+01  0.72461577180E+02  0.70000008970E+02 0.  0.
         12    1    1    2    0    0 -0.17032187035E+02  0.65733357594E+01 -0.41683058234E+01  0.18726422820E+02  0.00000000000E+00 0. -1.
         11    1    3    3    0    0 -0.34118597669E+01 -0.37110648440E+01 -0.22229556963E+01  0.55094756224E+01  0.51100000000E-03 0. -1.
        -11    1    3    3    0    0 -0.46481944414E+01  0.12620980831E+02 -0.22151564475E+02  0.25914989440E+02  0.51100000000E-03 0.  1.
         12    1    3    3    0    0  0.25092241243E+02 -0.15483251747E+02  0.28542825995E+02  0.41037112118E+02  0.00000000000E+00 0. -1.
</event>
<event>
 7    1  0.3434711E-013  0.7246165E+02  0.7816164E-02  0.1226708E+00
        -11   -1    0    0    0    0  0.00000000000E+00  0.00000000000E+00  0.45593999997E+02  0.45594000000E+02  0.51100000000E-03 0. -1.
         11   -1    0    0    0    0 -0.00000000000E+00 -0.00000000000E+00 -0.45593999997E+02  0.45594000000E+02  0.51100000000E-03 0.  1.
    9900012    2    1    2    0    0 -0.16811952776E+02 -0.48465977333E+01 -0.66741890500E+01  0.72461653181E+02  0.70000107975E+02 0.  0.
         12    1    1    2    0    0  0.16811952776E+02  0.48465977333E+01  0.66741890500E+01  0.18726346819E+02  0.00000000000E+00 0. -1.
         11    1    3    3    0    0 -0.21697349991E+02  0.19929810728E+02 -0.10955982434E+02  0.31432561201E+02  0.51100000000E-03 0.  1.
        -11    1    3    3    0    0 -0.25526449111E+01 -0.79849534657E+01  0.16819178155E+02  0.18792557888E+02  0.51100000000E-03 0. -1.
        -12    1    3    3    0    0  0.74380421265E+01 -0.16791454995E+02 -0.12537384771E+02  0.22236534092E+02  0.00000000000E+00 0.  1.
</event>
<event>
 7    1  0.3434711E-013  0.7246118E+02  0.7816164E-02  0.1226709E+00
        -11   -1    0    0    0    0  0.00000000000E+00  0.00000000000E+00  0.45593999997E+02  0.45594000000E+02  0.51100000000E-03 0.  1.
         11   -1    0    0    0    0 -0.00000000000E+00 -0.00000000000E+00 -0.45593999997E+02  0.45594000000E+02  0.51100000000E-03 0. -1.
    9900012    2    1    2    0    0 -0.17431477503E+02  0.44217629899E+01 -0.52235352042E+01  0.72461181906E+02  0.69999494051E+02 0.  0.
         12    1    1    2    0    0  0.17431477503E+02 -0.44217629899E+01  0.52235352042E+01  0.18726818094E+02  0.00000000000E+00 0. -1.
         11    1    3    3    0    0 -0.18465309693E+02 -0.56462155554E+01  0.11772907480E+02  0.22615232985E+02  0.51100000000E-03 0. -1.
        -11    1    3    3    0    0 -0.53839182644E+00  0.27439077774E+01  0.15881321800E+02  0.16125609385E+02  0.51100000000E-03 0.  1.
         12    1    3    3    0    0  0.15722240162E+01  0.73240707679E+01 -0.32877764485E+02  0.33720339537E+02  0.00000000000E+00 0. -1.
</event>
<event>
 7    1  0.3434711E-013  0.7246166E+02  0.7816164E-02  0.1226708E+00
        -11   -1    0    0    0    0  0.00000000000E+00  0.00000000000E+00  0.45593999997E+02  0.45594000000E+02  0.51100000000E-03 0. -1.
         11   -1    0    0    0    0 -0.00000000000E+00 -0.00000000000E+00 -0.45593999997E+02  0.45594000000E+02  0.51100000000E-03 0.  1.
    9900012    2    1    2    0    0  0.59902182243E+01 -0.36075327284E+01 -0.17371781515E+02  0.72461660268E+02  0.70000117207E+02 0.  0.
         12    1    1    2    0    0 -0.59902182243E+01  0.36075327284E+01  0.17371781515E+02  0.18726339732E+02  0.00000000000E+00 0. -1.
         11    1    3    3    0    0  0.25793078345E+02  0.38790378833E+00 -0.23977811335E+01  0.25907194261E+02  0.51100000000E-03 0. -1.
        -11    1    3    3    0    0 -0.90024087277E+01  0.17635795021E+02 -0.51683172050E+01  0.20464020424E+02  0.51100000000E-03 0.  1.
        -12    1    3    3    0    0 -0.10800451393E+02 -0.21631231538E+02 -0.98056831766E+01  0.26090445583E+02  0.00000000000E+00 0.  1.
</event>
<event>
 7    1  0.3434711E-013  0.7246159E+02  0.7816164E-02  0.1226708E+00
        -11   -1    0    0    0    0  0.00000000000E+00  0.00000000000E+00  0.45593999997E+02  0.45594000000E+02  0.51100000000E-03 0. -1.
         11   -1    0    0    0    0 -0.00000000000E+00 -0.00000000000E+00 -0.45593999997E+02  0.45594000000E+02  0.51100000000E-03 0.  1.
    9900012    2    1    2    0    0  0.13958734670E+02  0.12460431381E+02 -0.75493808415E+00  0.72461586694E+02  0.70000021364E+02 0.  0.
         12    1    1    2    0    0 -0.13958734670E+02 -0.12460431381E+02  0.75493808415E+00  0.18726413306E+02  0.00000000000E+00 0. -1.
         11    1    3    3    0    0 -0.70700221538E+01  0.63499433599E+01  0.19445558225E+02  0.21643399198E+02  0.51100000000E-03 0. -1.
        -11    1    3    3    0    0 -0.10631524799E+02 -0.63801176417E+01 -0.74986031279E+01  0.14490143885E+02  0.51100000000E-03 0.  1.
         12    1    3    3    0    0  0.31660281622E+02  0.12490605663E+02 -0.12701893181E+02  0.36328043611E+02  0.00000000000E+00 0. -1.
</event>
<event>
 7    1  0.3434711E-013  0.7246157E+02  0.7816164E-02  0.1226708E+00
        -11   -1    0    0    0    0  0.00000000000E+00  0.00000000000E+00  0.45593999997E+02  0.45594000000E+02  0.51100000000E-03 0.  1.
         11   -1    0    0    0    0 -0.00000000000E+00 -0.00000000000E+00 -0.45593999997E+02  0.45594000000E+02  0.51100000000E-03 0. -1.
    9900012    2    1    2    0    0 -0.10154453926E+02 -0.56171556114E-01  0.15734140303E+02  0.72461567856E+02  0.69999996824E+02 0.  0.
         12    1    1    2    0    0  0.10154453926E+02  0.56171556114E-01 -0.15734140303E+02  0.18726432144E+02  0.00000000000E+00 0. -1.
         11    1    3    3    0    0 -0.12917487630E+02 -0.12551088996E+02 -0.14860748085E+01  0.18072070724E+02  0.51100000000E-03 0. -1.
        -11    1    3    3    0    0 -0.13175357786E+02 -0.14879771155E+02  0.55950828776E+01  0.20647096529E+02  0.51100000000E-03 0.  1.
        -12    1    3    3    0    0  0.15938391491E+02  0.27374688595E+02  0.11625132234E+02  0.33742400603E+02  0.00000000000E+00 0.  1.
</event>
<event>
 7    1  0.3434711E-013  0.7246158E+02  0.7816164E-02  0.1226708E+00
        -11   -1    0    0    0    0  0.00000000000E+00  0.00000000000E+00  0.45593999997E+02  0.45594000000E+02  0.51100000000E-03 0.  1.
         11   -1    0    0    0    0 -0.00000000000E+00 -0.00000000000E+00 -0.45593999997E+02  0.45594000000E+02  0.51100000000E-03 0. -1.
    9900012    2    1    2    0    0  0.76025099601E+01 -0.10029680264E+02  0.13866734784E+02  0.72461575422E+02  0.70000006680E+02 0.  0.
         12    1    1    2    0    0 -0.76025099601E+01  0.10029680264E+02 -0.13866734784E+02  0.18726424578E+02  0.00000000000E+00 0. -1.
         11    1    3    3    0    0 -0.24570648192E+02  0.45122657219E+01  0.39281836610E+01  0.25288493859E+02  0.51100000000E-03 0. -1.
        -11    1    3    3    0    0 -0.25578234995E+01 -0.62790083336E+01  0.92466568344E+01  0.11465996232E+02  0.51100000000E-03 0.  1.
         12    1    3    3    0    0  0.34730981652E+02 -0.82629376526E+01  0.69189428885E+00  0.35707085331E+02  0.00000000000E+00 0. -1.
</event>
<event>
 7    1  0.3434711E-013  0.7246151E+02  0.7816164E-02  0.1226708E+00
        -11   -1    0    0    0    0  0.00000000000E+00  0.00000000000E+00  0.45593999997E+02  0.45594000000E+02  0.51100000000E-03 0.  1.
         11   -1    0    0    0    0 -0.00000000000E+00 -0.00000000000E+00 -0.45593999997E+02  0.45594000000E+02  0.51100000000E-03 0. -1.
    9900012    2    1    2    0    0 -0.35494210082E+01 -0.50893436430E+01  0.17668666944E+02  0.72461505406E+02  0.69999915471E+02 0.  0.
         12    1    1    2    0    0  0.35494210082E+01  0.50893436430E+01 -0.17668666944E+02  0.18726494594E+02  0.00000000000E+00 0. -1.
         11    1    3    3    0    0 -0.13975621706E+02 -0.17915166608E+02 -0.81203930369E+01  0.24129069191E+02  0.51100000000E-03 0. -1.
        -11    1    3    3    0    0  0.75414023412E+01 -0.51956398907E+01 -0.65083425251E+01  0.11235032080E+02  0.51100000000E-03 0.  1.
        -12    1    3    3    0    0  0.28847983566E+01  0.18021462856E+02  0.32297402506E+02  0.37097404136E+02  0.00000000000E+00 0.  1.
</event>
<event>
 7    1  0.3434711E-013  0.7246156E+02  0.7816164E-02  0.1226708E+00
        -11   -1    0    0    0    0  0.00000000000E+00  0.00000000000E+00  0.45593999997E+02  0.45594000000E+02  0.51100000000E-03 0. -1.
         11   -1    0    0    0    0 -0.00000000000E+00 -0.00000000000E+00 -0.45593999997E+02  0.45594000000E+02  0.51100000000E-03 0.  1.
    9900012    2    1    2    0    0 -0.16811734884E+01 -0.15500999759E+02 -0.10371704920E+02  0.72461558780E+02  0.69999985000E+02 0.  0.
         12    1    1    2    0    0  0.16811734884E+01  0.15500999759E+02  0.10371704920E+02  0.18726441220E+02  0.00000000000E+00 0. -1.
         11    1    3    3    0    0 -0.49600062199E+00 -0.23056592899E+01 -0.52896333725E+01  0.57915717085E+01  0.51100000000E-03 0. -1.
        -11    1    3    3    0    0 -0.11287483207E+02 -0.33169100728E+02 -0.19448514154E+02  0.40072948772E+02  0.51100000000E-03 0.  1.
         12    1    3    3    0    0  0.10102310340E+02  0.19973760259E+02  0.14366442606E+02  0.26597038299E+02  0.00000000000E+00 0. -1.
</event>
<event>
 7    1  0.3434711E-013  0.7246158E+02  0.7816164E-02  0.1226708E+00
        -11   -1    0    0    0    0  0.00000000000E+00  0.00000000000E+00  0.45593999997E+02  0.45594000000E+02  0.51100000000E-03 0. -1.
         11   -1    0    0    0    0 -0.00000000000E+00 -0.00000000000E+00 -0.45593999997E+02  0.45594000000E+02  0.51100000000E-03 0.  1.
    9900012    2    1    2    0    0 -0.14320424466E+02 -0.72079776709E+01 -0.96772570236E+01  0.72461580094E+02  0.70000012766E+02 0.  0.
         12    1    1    2    0    0  0.14320424466E+02  0.72079776709E+01  0.96772570236E+01  0.18726419906E+02  0.00000000000E+00 0. -1.
         11    1    3    3    0    0 -0.10468858239E+02  0.22901492109E+02 -0.10015136550E+02  0.27099415013E+02  0.51100000000E-03 0. -1.
        -11    1    3    3    0    0 -0.42362443401E+01  0.53319344278E+01  0.64684982782E+01  0.93923778186E+01  0.51100000000E-03 0.  1.
        -12    1    3    3    0    0  0.38467811277E+00 -0.35441404208E+02 -0.61306187517E+01  0.35969787263E+02  0.00000000000E+00 0.  1.
</event>
<event>
 7    1  0.3434711E-013  0.7246159E+02  0.7816164E-02  0.1226708E+00
        -11   -1    0    0    0    0  0.00000000000E+00  0.00000000000E+00  0.45593999997E+02  0.45594000000E+02  0.51100000000E-03 0.  1.
         11   -1    0    0    0    0 -0.00000000000E+00 -0.00000000000E+00 -0.45593999997E+02  0.45594000000E+02  0.51100000000E-03 0. -1.
    9900012    2    1    2    0    0 -0.14667114541E+02  0.11234390347E+02  0.30565510146E+01  0.72461594057E+02  0.70000030955E+02 0.  0.
         12    1    1    2    0    0  0.14667114541E+02 -0.11234390347E+02 -0.30565510146E+01  0.18726405943E+02  0.00000000000E+00 0. -1.
         11    1    3    3    0    0 -0.22114303158E+01  0.23137886160E+02  0.93528844499E+00  0.23262135859E+02  0.51100000000E-03 0. -1.
        -11    1    3    3    0    0  0.58989560021E+01 -0.19021130510E+02  0.15636755678E+02  0.25320134600E+02  0.51100000000E-03 0.  1.
         12    1    3    3    0    0 -0.18354640227E+02  0.71176346975E+01 -0.13515493108E+02  0.23879323598E+02  0.00000000000E+00 0. -1.
</event>
<event>
 7    1  0.3434711E-013  0.7246155E+02  0.7816164E-02  0.1226708E+00
        -11   -1    0    0    0    0  0.00000000000E+00  0.00000000000E+00  0.45593999997E+02  0.45594000000E+02  0.51100000000E-03 0. -1.
         11   -1    0    0    0    0 -0.00000000000E+00 -0.00000000000E+00 -0.45593999997E+02  0.45594000000E+02  0.51100000000E-03 0.  1.
    9900012    2    1    2    0    0  0.12923686140E+02  0.67370678872E+01 -0.11758840702E+02  0.72461545936E+02  0.69999968268E+02 0.  0.
         12    1    1    2    0    0 -0.12923686140E+02 -0.67370678872E+01  0.11758840702E+02  0.18726454064E+02  0.00000000000E+00 0. -1.
         11    1    3    3    0    0 -0.28810752819E+01 -0.25247218699E+02 -0.80967512340E+01  0.26669833663E+02  0.51100000000E-03 0. -1.
        -11    1    3    3    0    0  0.34369198221E+01 -0.12878247528E+00 -0.10199576795E+02  0.10763845495E+02  0.51100000000E-03 0.  1.
        -12    1    3    3    0    0  0.12367841600E+02  0.32113069062E+02  0.65374873268E+01  0.35027866777E+02  0.00000000000E+00 0.  1.
</event>
<event>
 7    1  0.3434711E-013  0.7246148E+02  0.7816164E-02  0.1226708E+00
        -11   -1    0    0    0    0  0.00000000000E+00  0.00000000000E+00  0.45593999997E+02  0.45594000000E+02  0.51100000000E-03 0.  1.
         11   -1    0    0    0    0 -0.00000000000E+00 -0.00000000000E+00 -0.45593999997E+02  0.45594000000E+02  0.51100000000E-03 0. -1.
    9900012    2    1    2    0    0 -0.66370578291E+01  0.13775399612E+02  0.10810658946E+02  0.72461480891E+02  0.69999883535E+02 0.  0.
         12    1    1    2    0    0  0.66370578291E+01 -0.13775399612E+02 -0.10810658946E+02  0.18726519109E+02  0.00000000000E+00 0. -1.
         11    1    3    3    0    0  0.78099640325E+00 -0.15298021145E+02  0.15158097677E+02  0.21550112106E+02  0.51100000000E-03 0. -1.
        -11    1    3    3    0    0 -0.30699452029E+01 -0.99167289241E+01  0.33964633382E+01  0.10922547302E+02  0.51100000000E-03 0.  1.
        -12    1    3    3    0    0 -0.43481090294E+01  0.38990149681E+02 -0.77439020698E+01  0.39988821482E+02  0.00000000000E+00 0.  1.
</event>
<event>
 7    1  0.3434711E-013  0.7246156E+02  0.7816164E-02  0.1226708E+00
        -11   -1    0    0    0    0  0.00000000000E+00  0.00000000000E+00  0.45593999997E+02  0.45594000000E+02  0.51100000000E-03 0. -1.
         11   -1    0    0    0    0 -0.00000000000E+00 -0.00000000000E+00 -0.45593999997E+02  0.45594000000E+02  0.51100000000E-03 0.  1.
    9900012    2    1    2    0    0 -0.14660316815E+02  0.88697554970E+01 -0.75552724806E+01  0.72461558962E+02  0.69999985237E+02 0.  0.
         12    1    1    2    0    0  0.14660316815E+02 -0.88697554970E+01  0.75552724806E+01  0.18726441038E+02  0.00000000000E+00 0. -1.
         11    1    3    3    0    0  0.21649144300E+02  0.74570651435E+01  0.11470368990E+02  0.25609815199E+02  0.51100000000E-03 0. -1.
        -11    1    3    3    0    0 -0.11658810058E+02 -0.10226732604E+02 -0.58616441689E+01  0.16579287812E+02  0.51100000000E-03 0.  1.
        -12    1    3    3    0    0 -0.24650651057E+02  0.11639422958E+02 -0.13163997302E+02  0.30272455951E+02  0.00000000000E+00 0.  1.
</event>
<event>
 7    1  0.3434711E-013  0.7246158E+02  0.7816164E-02  0.1226708E+00
        -11   -1    0    0    0    0  0.00000000000E+00  0.00000000000E+00  0.45593999997E+02  0.45594000000E+02  0.51100000000E-03 0. -1.
         11   -1    0    0    0    0 -0.00000000000E+00 -0.00000000000E+00 -0.45593999997E+02  0.45594000000E+02  0.51100000000E-03 0.  1.
    9900012    2    1    2    0    0  0.17803600293E+02 -0.55605891339E+01 -0.16705114811E+01  0.72461576329E+02  0.70000007861E+02 0.  0.
         12    1    1    2    0    0 -0.17803600293E+02  0.55605891339E+01  0.16705114811E+01  0.18726423671E+02  0.00000000000E+00 0. -1.
         11    1    3    3    0    0  0.20910786530E+01 -0.10708037689E+02 -0.16769285665E+01  0.11038422476E+02  0.51100000000E-03 0. -1.
        -11    1    3    3    0    0  0.36895808050E+02  0.48188913189E+01  0.91982423706E+01  0.38329232032E+02  0.51100000000E-03 0.  1.
         12    1    3    3    0    0 -0.21183286410E+02  0.32855723647E+00 -0.91918252852E+01  0.23093921821E+02  0.00000000000E+00 0. -1.
</event>
<event>
 7    1  0.3434711E-013  0.7246149E+02  0.7816164E-02  0.1226708E+00
        -11   -1    0    0    0    0  0.00000000000E+00  0.00000000000E+00  0.45593999997E+02  0.45594000000E+02  0.51100000000E-03 0. -1.
         11   -1    0    0    0    0 -0.00000000000E+00 -0.00000000000E+00 -0.45593999997E+02  0.45594000000E+02  0.51100000000E-03 0.  1.
    9900012    2    1    2    0    0  0.17482325477E+02  0.65994757437E+01  0.12237022536E+01  0.72461488542E+02  0.69999893503E+02 0.  0.
         12    1    1    2    0    0 -0.17482325477E+02 -0.65994757437E+01 -0.12237022536E+01  0.18726511458E+02  0.00000000000E+00 0. -1.
         11    1    3    3    0    0 -0.38433172247E+01 -0.61215341994E+01 -0.73135823659E+00  0.72649262471E+01  0.51100000000E-03 0. -1.
        -11    1    3    3    0    0  0.61065562392E+01  0.10065887702E+02 -0.28616210696E+02  0.30943491063E+02  0.51100000000E-03 0.  1.
         12    1    3    3    0    0  0.15219086462E+02  0.26551222407E+01  0.30571271186E+02  0.34253071232E+02  0.00000000000E+00 0. -1.
</event>
<event>
 7    1  0.3434711E-013  0.7246158E+02  0.7816164E-02  0.1226708E+00
        -11   -1    0    0    0    0  0.00000000000E+00  0.00000000000E+00  0.45593999997E+02  0.45594000000E+02  0.51100000000E-03 0. -1.
         11   -1    0    0    0    0 -0.00000000000E+00 -0.00000000000E+00 -0.45593999997E+02  0.45594000000E+02  0.51100000000E-03 0.  1.
    9900012    2    1    2    0    0  0.10527473644E+02  0.15460349411E+02  0.91027534124E+00  0.72461582659E+02  0.70000016107E+02 0.  0.
         12    1    1    2    0    0 -0.10527473644E+02 -0.15460349411E+02 -0.91027534124E+00  0.18726417341E+02  0.00000000000E+00 0. -1.
         11    1    3    3    0    0  0.56177490728E+01 -0.49057480199E-01  0.57415509543E+01  0.80328649250E+01  0.51100000000E-03 0. -1.
        -11    1    3    3    0    0  0.32677049750E+02  0.15144813523E+02 -0.65461218082E+01  0.36606101513E+02  0.51100000000E-03 0.  1.
         12    1    3    3    0    0 -0.27767325179E+02  0.36459336893E+00  0.17148461951E+01  0.27822616221E+02  0.00000000000E+00 0. -1.
</event>
<event>
 7    1  0.3785223E-013  0.7246160E+02  0.7816164E-02  0.1226708E+00
        -11   -1    0    0    0    0  0.00000000000E+00  0.00000000000E+00  0.45593999997E+02  0.45594000000E+02  0.51100000000E-03 0. -1.
         11   -1    0    0    0    0 -0.00000000000E+00 -0.00000000000E+00 -0.45593999997E+02  0.45594000000E+02  0.51100000000E-03 0.  1.
    9900012    2    1    2    0    0 -0.65355931934E+01  0.12274633325E+02 -0.12541829861E+02  0.72461598907E+02  0.70000037273E+02 0.  0.
         12    1    1    2    0    0  0.65355931934E+01 -0.12274633325E+02  0.12541829861E+02  0.18726401093E+02  0.00000000000E+00 0. -1.
         11    1    3    3    0    0  0.77871600356E+01  0.99605615186E+00  0.15235015514E+02  0.17138777298E+02  0.51100000000E-03 0. -1.
        -11    1    3    3    0    0 -0.13875806224E+02 -0.14887648423E+02 -0.58347879645E+01  0.21171320808E+02  0.51100000000E-03 0.  1.
        -12    1    3    3    0    0 -0.44694700518E+00  0.26166225595E+02 -0.21942057411E+02  0.34151500801E+02  0.00000000000E+00 0.  1.
</event>
<event>
 7    1  0.3434711E-013  0.7246156E+02  0.7816164E-02  0.1226708E+00
        -11   -1    0    0    0    0  0.00000000000E+00  0.00000000000E+00  0.45593999997E+02  0.45594000000E+02  0.51100000000E-03 0. -1.
         11   -1    0    0    0    0 -0.00000000000E+00 -0.00000000000E+00 -0.45593999997E+02  0.45594000000E+02  0.51100000000E-03 0.  1.
    9900012    2    1    2    0    0 -0.75140069474E+01  0.17124012207E+02  0.99371519440E+00  0.72461559752E+02  0.69999986267E+02 0.  0.
         12    1    1    2    0    0  0.75140069474E+01 -0.17124012207E+02 -0.99371519440E+00  0.18726440248E+02  0.00000000000E+00 0. -1.
         11    1    3    3    0    0  0.17947743734E+02  0.58609458799E+01  0.79542095558E+01  0.20487597264E+02  0.51100000000E-03 0. -1.
        -11    1    3    3    0    0  0.73081281326E+01 -0.10036929779E+02 -0.20223407602E+01  0.12579290862E+02  0.51100000000E-03 0.  1.
        -12    1    3    3    0    0 -0.32769878814E+02  0.21299996105E+02 -0.49381536012E+01  0.39394671626E+02  0.00000000000E+00 0.  1.
</event>
<event>
 7    1  0.3434711E-013  0.7246151E+02  0.7816164E-02  0.1226708E+00
        -11   -1    0    0    0    0  0.00000000000E+00  0.00000000000E+00  0.45593999997E+02  0.45594000000E+02  0.51100000000E-03 0. -1.
         11   -1    0    0    0    0 -0.00000000000E+00 -0.00000000000E+00 -0.45593999997E+02  0.45594000000E+02  0.51100000000E-03 0.  1.
    9900012    2    1    2    0    0  0.12393854874E+02  0.95341377646E+01 -0.10304075751E+02  0.72461510777E+02  0.69999922467E+02 0.  0.
         12    1    1    2    0    0 -0.12393854874E+02 -0.95341377646E+01  0.10304075751E+02  0.18726489223E+02  0.00000000000E+00 0. -1.
         11    1    3    3    0    0 -0.89883647396E+01 -0.15139567878E+02  0.40752527416E+01  0.18072213517E+02  0.51100000000E-03 0. -1.
        -11    1    3    3    0    0  0.57581027018E+01 -0.11528061755E+02 -0.52646157330E+01  0.13920062271E+02  0.51100000000E-03 0.  1.
        -12    1    3    3    0    0  0.15624116912E+02  0.36201767397E+02 -0.91147127593E+01  0.40469234989E+02  0.00000000000E+00 0.  1.
</event>
<event>
 7    1  0.3434711E-013  0.7246156E+02  0.7816164E-02  0.1226708E+00
        -11   -1    0    0    0    0  0.00000000000E+00  0.00000000000E+00  0.45593999997E+02  0.45594000000E+02  0.51100000000E-03 0. -1.
         11   -1    0    0    0    0 -0.00000000000E+00 -0.00000000000E+00 -0.45593999997E+02  0.45594000000E+02  0.51100000000E-03 0.  1.
    9900012    2    1    2    0    0 -0.69888211821E+01 -0.24872765624E+01 -0.17194457539E+02  0.72461560502E+02  0.69999987243E+02 0.  0.
         12    1    1    2    0    0  0.69888211821E+01  0.24872765624E+01  0.17194457539E+02  0.18726439498E+02  0.00000000000E+00 0. -1.
         11    1    3    3    0    0  0.99076035301E+01 -0.91269052324E+01 -0.27939287779E+02  0.31017169579E+02  0.51100000000E-03 0. -1.
        -11    1    3    3    0    0 -0.11415504518E+02 -0.62689180514E+00 -0.12224447631E+02  0.16737498525E+02  0.51100000000E-03 0.  1.
         12    1    3    3    0    0 -0.54809201943E+01  0.72665204752E+01  0.22969277871E+02  0.24706892397E+02  0.00000000000E+00 0. -1.
</event>
<event>
 7    1  0.3434711E-013  0.7246166E+02  0.7816164E-02  0.1226708E+00
        -11   -1    0    0    0    0  0.00000000000E+00  0.00000000000E+00  0.45593999997E+02  0.45594000000E+02  0.51100000000E-03 0.  1.
         11   -1    0    0    0    0 -0.00000000000E+00 -0.00000000000E+00 -0.45593999997E+02  0.45594000000E+02  0.51100000000E-03 0. -1.
    9900012    2    1    2    0    0 -0.12581900542E+02 -0.66265735096E+01  0.12184417684E+02  0.72461662077E+02  0.70000119563E+02 0.  0.
         12    1    1    2    0    0  0.12581900542E+02  0.66265735096E+01 -0.12184417684E+02  0.18726337923E+02  0.00000000000E+00 0. -1.
         11    1    3    3    0    0 -0.77995703779E+00 -0.30609515353E+02  0.54790718856E+01  0.31105803190E+02  0.51100000000E-03 0. -1.
        -11    1    3    3    0    0 -0.82557187914E+01  0.68207848141E+00 -0.96122981989E+01  0.12689302611E+02  0.51100000000E-03 0.  1.
        -12    1    3    3    0    0 -0.35462247126E+01  0.23300863362E+02  0.16317643997E+02  0.28666556276E+02  0.00000000000E+00 0.  1.
</event>
<event>
 7    1  0.3434711E-013  0.7246157E+02  0.7816164E-02  0.1226708E+00
        -11   -1    0    0    0    0  0.00000000000E+00  0.00000000000E+00  0.45593999997E+02  0.45594000000E+02  0.51100000000E-03 0. -1.
         11   -1    0    0    0    0 -0.00000000000E+00 -0.00000000000E+00 -0.45593999997E+02  0.45594000000E+02  0.51100000000E-03 0.  1.
    9900012    2    1    2    0    0 -0.17580775322E+02  0.79763656251E+00 -0.63999565727E+01  0.72461566033E+02  0.69999994448E+02 0.  0.
         12    1    1    2    0    0  0.17580775322E+02 -0.79763656251E+00  0.63999565727E+01  0.18726433967E+02  0.00000000000E+00 0. -1.
         11    1    3    3    0    0 -0.23737722587E+02  0.14925807207E+02  0.22405451524E+02  0.35892387113E+02  0.51100000000E-03 0. -1.
        -11    1    3    3    0    0  0.25305992892E+01  0.31717186713E+01 -0.21674458804E+01  0.46001689098E+01  0.51100000000E-03 0.  1.
        -12    1    3    3    0    0  0.36263479756E+01 -0.17299889316E+02 -0.26637962216E+02  0.31969010010E+02  0.00000000000E+00 0.  1.
</event>
<event>
 7    1  0.3434711E-013  0.7246157E+02  0.7816164E-02  0.1226708E+00
        -11   -1    0    0    0    0  0.00000000000E+00  0.00000000000E+00  0.45593999997E+02  0.45594000000E+02  0.51100000000E-03 0.  1.
         11   -1    0    0    0    0 -0.00000000000E+00 -0.00000000000E+00 -0.45593999997E+02  0.45594000000E+02  0.51100000000E-03 0. -1.
    9900012    2    1    2    0    0 -0.60479250819E+01 -0.65874443293E+01  0.16453184030E+02  0.72461572543E+02  0.70000002929E+02 0.  0.
         12    1    1    2    0    0  0.60479250819E+01  0.65874443293E+01 -0.16453184030E+02  0.18726427457E+02  0.00000000000E+00 0. -1.
         11    1    3    3    0    0  0.20185671172E+02  0.64168757962E+01  0.22796292736E+01  0.21303387654E+02  0.51100000000E-03 0. -1.
        -11    1    3    3    0    0  0.44933608825E+01 -0.13078539780E+02  0.15023732288E+02  0.20419378710E+02  0.51100000000E-03 0.  1.
        -12    1    3    3    0    0 -0.30726957137E+02  0.74219654025E-01 -0.85017753235E+00  0.30738806178E+02  0.00000000000E+00 0.  1.
</event>
<event>
 7    1  0.3434711E-013  0.7246156E+02  0.7816164E-02  0.1226708E+00
        -11   -1    0    0    0    0  0.00000000000E+00  0.00000000000E+00  0.45593999997E+02  0.45594000000E+02  0.51100000000E-03 0.  1.
         11   -1    0    0    0    0 -0.00000000000E+00 -0.00000000000E+00 -0.45593999997E+02  0.45594000000E+02  0.51100000000E-03 0. -1.
    9900012    2    1    2    0    0 -0.92925541504E+01  0.15162252171E+02  0.58680571589E+01  0.72461560179E+02  0.69999986823E+02 0.  0.
         12    1    1    2    0    0  0.92925541504E+01 -0.15162252171E+02 -0.58680571589E+01  0.18726439821E+02  0.00000000000E+00 0. -1.
         11    1    3    3    0    0  0.89802257731E+01 -0.17466492013E+02 -0.79480449025E+01  0.21187123830E+02  0.51100000000E-03 0. -1.
        -11    1    3    3    0    0 -0.54674298363E+01 -0.57210904618E+01  0.63799982664E+01  0.10165040247E+02  0.51100000000E-03 0.  1.
        -12    1    3    3    0    0 -0.12805350087E+02  0.38349834646E+02  0.74361037950E+01  0.41109396102E+02  0.00000000000E+00 0.  1.
</event>
<event>
 7    1  0.3434711E-013  0.7246160E+02  0.7816164E-02  0.1226708E+00
        -11   -1    0    0    0    0  0.00000000000E+00  0.00000000000E+00  0.45593999997E+02  0.45594000000E+02  0.51100000000E-03 0.  1.
         11   -1    0    0    0    0 -0.00000000000E+00 -0.00000000000E+00 -0.45593999997E+02  0.45594000000E+02  0.51100000000E-03 0. -1.
    9900012    2    1    2    0    0 -0.10503100370E+02  0.57256355553E+00  0.15493061548E+02  0.72461604123E+02  0.70000044068E+02 0.  0.
         12    1    1    2    0    0  0.10503100370E+02 -0.57256355553E+00 -0.15493061548E+02  0.18726395877E+02  0.00000000000E+00 0. -1.
         11    1    3    3    0    0  0.83337009695E+00 -0.14547629257E+01 -0.86798021561E+01  0.88402379277E+01  0.51100000000E-03 0. -1.
        -11    1    3    3    0    0  0.14628204751E+02 -0.17831178313E+02  0.16557979421E+00  0.23064316838E+02  0.51100000000E-03 0.  1.
         12    1    3    3    0    0 -0.25964675218E+02  0.19858504794E+02  0.24007283910E+02  0.40557049357E+02  0.00000000000E+00 0. -1.
</event>
<event>
 7    1  0.3434711E-013  0.7246156E+02  0.7816164E-02  0.1226708E+00
        -11   -1    0    0    0    0  0.00000000000E+00  0.00000000000E+00  0.45593999997E+02  0.45594000000E+02  0.51100000000E-03 0. -1.
         11   -1    0    0    0    0 -0.00000000000E+00 -0.00000000000E+00 -0.45593999997E+02  0.45594000000E+02  0.51100000000E-03 0.  1.
    9900012    2    1    2    0    0  0.19487248644E+01 -0.17691081716E+02 -0.58230355325E+01  0.72461557634E+02  0.69999983508E+02 0.  0.
         12    1    1    2    0    0 -0.19487248644E+01  0.17691081716E+02  0.58230355325E+01  0.18726442366E+02  0.00000000000E+00 0. -1.
         11    1    3    3    0    0 -0.57031905235E+00  0.49063809987E+01  0.20477631481E+02  0.21064928903E+02  0.51100000000E-03 0. -1.
        -11    1    3    3    0    0  0.44784164190E+01  0.10250874744E+02 -0.78990150288E+01  0.13694198966E+02  0.51100000000E-03 0.  1.
        -12    1    3    3    0    0 -0.19593725022E+01 -0.32848337459E+02 -0.18401651985E+02  0.37702429765E+02  0.00000000000E+00 0.  1.
</event>
<event>
 7    1  0.3434711E-013  0.7246158E+02  0.7816164E-02  0.1226708E+00
        -11   -1    0    0    0    0  0.00000000000E+00  0.00000000000E+00  0.45593999997E+02  0.45594000000E+02  0.51100000000E-03 0. -1.
         11   -1    0    0    0    0 -0.00000000000E+00 -0.00000000000E+00 -0.45593999997E+02  0.45594000000E+02  0.51100000000E-03 0.  1.
    9900012    2    1    2    0    0  0.15689248215E+02  0.13310127402E+01 -0.10136807083E+02  0.72461575827E+02  0.70000007207E+02 0.  0.
         12    1    1    2    0    0 -0.15689248215E+02 -0.13310127402E+01  0.10136807083E+02  0.18726424173E+02  0.00000000000E+00 0. -1.
         11    1    3    3    0    0  0.22885933642E+02 -0.62612957092E+01  0.96894317444E+01  0.25629180058E+02  0.51100000000E-03 0. -1.
        -11    1    3    3    0    0  0.13951706400E+02 -0.73180481299E+01 -0.11982631619E+02  0.19793620201E+02  0.51100000000E-03 0.  1.
         12    1    3    3    0    0 -0.21148391827E+02  0.14910356579E+02 -0.78436072085E+01  0.27038775568E+02  0.00000000000E+00 0. -1.
</event>
<event>
 7    1  0.3434711E-013  0.7246157E+02  0.7816164E-02  0.1226708E+00
        -11   -1    0    0    0    0  0.00000000000E+00  0.00000000000E+00  0.45593999997E+02  0.45594000000E+02  0.51100000000E-03 0.  1.
         11   -1    0    0    0    0 -0.00000000000E+00 -0.00000000000E+00 -0.45593999997E+02  0.45594000000E+02  0.51100000000E-03 0. -1.
    9900012    2    1    2    0    0 -0.10353759040E+02  0.13610172528E+02  0.76316464948E+01  0.72461570796E+02  0.70000000654E+02 0.  0.
         12    1    1    2    0    0  0.10353759040E+02 -0.13610172528E+02 -0.76316464948E+01  0.18726429204E+02  0.00000000000E+00 0. -1.
         11    1    3    3    0    0  0.86268131207E+01 -0.25089691820E+01  0.17150858819E+01  0.91464939086E+01  0.51100000000E-03 0. -1.
        -11    1    3    3    0    0  0.24268552800E+01 -0.20354154138E+02  0.45725447747E+01  0.21002128064E+02  0.51100000000E-03 0.  1.
         12    1    3    3    0    0 -0.21407427441E+02  0.36473295848E+02  0.13440158383E+01  0.42312948824E+02  0.00000000000E+00 0. -1.
</event>
<event>
 7    1  0.3434711E-013  0.7246155E+02  0.7816164E-02  0.1226708E+00
        -11   -1    0    0    0    0  0.00000000000E+00  0.00000000000E+00  0.45593999997E+02  0.45594000000E+02  0.51100000000E-03 0.  1.
         11   -1    0    0    0    0 -0.00000000000E+00 -0.00000000000E+00 -0.45593999997E+02  0.45594000000E+02  0.51100000000E-03 0. -1.
    9900012    2    1    2    0    0  0.83113701847E+00 -0.66931825432E+01  0.17469703567E+02  0.72461547479E+02  0.69999970278E+02 0.  0.
         12    1    1    2    0    0 -0.83113701847E+00  0.66931825432E+01 -0.17469703567E+02  0.18726452521E+02  0.00000000000E+00 0. -1.
         11    1    3    3    0    0  0.19346821159E+02 -0.20608080684E+02  0.17649155682E+02  0.33323942969E+02  0.51100000000E-03 0. -1.
        -11    1    3    3    0    0 -0.43301938844E+01  0.19735444752E+02  0.80334604281E+01  0.21743386244E+02  0.51100000000E-03 0.  1.
         12    1    3    3    0    0 -0.14185490256E+02 -0.58205466105E+01 -0.82129125430E+01  0.17394218266E+02  0.00000000000E+00 0. -1.
</event>
<event>
 7    1  0.3434711E-013  0.7246122E+02  0.7816164E-02  0.1226709E+00
        -11   -1    0    0    0    0  0.00000000000E+00  0.00000000000E+00  0.45593999997E+02  0.45594000000E+02  0.51100000000E-03 0. -1.
         11   -1    0    0    0    0 -0.00000000000E+00 -0.00000000000E+00 -0.45593999997E+02  0.45594000000E+02  0.51100000000E-03 0.  1.
    9900012    2    1    2    0    0  0.80567407454E+01  0.20020830419E+01 -0.16786092704E+02  0.72461219277E+02  0.69999542734E+02 0.  0.
         12    1    1    2    0    0 -0.80567407454E+01 -0.20020830419E+01  0.16786092704E+02  0.18726780723E+02  0.00000000000E+00 0. -1.
         11    1    3    3    0    0 -0.33434247790E+01  0.44854053616E+01 -0.71339956693E+01  0.90659387258E+01  0.51100000000E-03 0. -1.
        -11    1    3    3    0    0 -0.18522185201E+02  0.14409937820E+02 -0.16066070212E+02  0.28440046852E+02  0.51100000000E-03 0.  1.
        -12    1    3    3    0    0  0.29922350726E+02 -0.16893260140E+02  0.64139731769E+01  0.34955233700E+02  0.00000000000E+00 0.  1.
</event>
<event>
 7    1  0.3434711E-013  0.7246162E+02  0.7816164E-02  0.1226708E+00
        -11   -1    0    0    0    0  0.00000000000E+00  0.00000000000E+00  0.45593999997E+02  0.45594000000E+02  0.51100000000E-03 0. -1.
         11   -1    0    0    0    0 -0.00000000000E+00 -0.00000000000E+00 -0.45593999997E+02  0.45594000000E+02  0.51100000000E-03 0.  1.
    9900012    2    1    2    0    0 -0.22486031326E+01 -0.64384103790E+01 -0.17440408703E+02  0.72461622881E+02  0.70000068504E+02 0.  0.
         12    1    1    2    0    0  0.22486031326E+01  0.64384103790E+01  0.17440408703E+02  0.18726377119E+02  0.00000000000E+00 0. -1.
         11    1    3    3    0    0 -0.27697378905E+01  0.13886537580E+02  0.37761867786E+01  0.14654929573E+02  0.51100000000E-03 0. -1.
        -11    1    3    3    0    0 -0.46033095017E+01  0.14864938538E+02  0.14615068083E+01  0.15629870714E+02  0.51100000000E-03 0.  1.
        -12    1    3    3    0    0  0.51244442596E+01 -0.35189886498E+02 -0.22678102290E+02  0.42176822594E+02  0.00000000000E+00 0.  1.
</event>
<event>
 7    1  0.4772598E-013  0.7246157E+02  0.7816164E-02  0.1226708E+00
        -11   -1    0    0    0    0  0.00000000000E+00  0.00000000000E+00  0.45593999997E+02  0.45594000000E+02  0.51100000000E-03 0. -1.
         11   -1    0    0    0    0 -0.00000000000E+00 -0.00000000000E+00 -0.45593999997E+02  0.45594000000E+02  0.51100000000E-03 0.  1.
    9900012    2    1    2    0    0  0.11820951549E+02  0.12372068180E+02 -0.76076314205E+01  0.72461574222E+02  0.70000005117E+02 0.  0.
         12    1    1    2    0    0 -0.11820951549E+02 -0.12372068180E+02  0.76076314205E+01  0.18726425778E+02  0.00000000000E+00 0. -1.
         11    1    3    3    0    0  0.10240507888E+02 -0.11447530100E+02 -0.21442519414E+01  0.15508441696E+02  0.51100000000E-03 0. -1.
        -11    1    3    3    0    0  0.18427577886E+02  0.15060420314E+02 -0.21520261903E+02  0.32086033713E+02  0.51100000000E-03 0.  1.
         12    1    3    3    0    0 -0.16847134225E+02  0.87591779661E+01  0.16056882424E+02  0.24867098814E+02  0.00000000000E+00 0. -1.
</event>
<event>
 7    1  0.3434711E-013  0.7246160E+02  0.7816164E-02  0.1226708E+00
        -11   -1    0    0    0    0  0.00000000000E+00  0.00000000000E+00  0.45593999997E+02  0.45594000000E+02  0.51100000000E-03 0.  1.
         11   -1    0    0    0    0 -0.00000000000E+00 -0.00000000000E+00 -0.45593999997E+02  0.45594000000E+02  0.51100000000E-03 0. -1.
    9900012    2    1    2    0    0 -0.47411632601E+01 -0.82992159477E+01  0.16103487533E+02  0.72461603520E+02  0.70000043283E+02 0.  0.
         12    1    1    2    0    0  0.47411632601E+01  0.82992159477E+01 -0.16103487533E+02  0.18726396480E+02  0.00000000000E+00 0. -1.
         11    1    3    3    0    0 -0.73903931421E+01 -0.89614227962E+01  0.31951841405E+00  0.11620116247E+02  0.51100000000E-03 0.  1.
        -11    1    3    3    0    0  0.15426962979E+02  0.22802903581E+02 -0.48931050965E+01  0.27962583504E+02  0.51100000000E-03 0. -1.
         12    1    3    3    0    0 -0.12777733097E+02 -0.22140696733E+02  0.20677074215E+02  0.32878903768E+02  0.00000000000E+00 0. -1.
</event>
<event>
 7    1  0.3434711E-013  0.7246147E+02  0.7816164E-02  0.1226708E+00
        -11   -1    0    0    0    0  0.00000000000E+00  0.00000000000E+00  0.45593999997E+02  0.45594000000E+02  0.51100000000E-03 0.  1.
         11   -1    0    0    0    0 -0.00000000000E+00 -0.00000000000E+00 -0.45593999997E+02  0.45594000000E+02  0.51100000000E-03 0. -1.
    9900012    2    1    2    0    0 -0.84234009161E+01 -0.12800941453E+02  0.10764073413E+02  0.72461466377E+02  0.69999864629E+02 0.  0.
         12    1    1    2    0    0  0.84234009161E+01  0.12800941453E+02 -0.10764073413E+02  0.18726533623E+02  0.00000000000E+00 0. -1.
         11    1    3    3    0    0 -0.96178867992E+01 -0.14456335370E+02 -0.24145569710E+02  0.29740509675E+02  0.51100000000E-03 0. -1.
        -11    1    3    3    0    0 -0.10177015521E+01 -0.87606547641E+01  0.33856358693E+01  0.94470799111E+01  0.51100000000E-03 0.  1.
        -12    1    3    3    0    0  0.22121874352E+01  0.10416048681E+02  0.31524007254E+02  0.33273876791E+02  0.00000000000E+00 0.  1.
</event>
<event>
 7    1  0.3434711E-013  0.7246166E+02  0.7816164E-02  0.1226708E+00
        -11   -1    0    0    0    0  0.00000000000E+00  0.00000000000E+00  0.45593999997E+02  0.45594000000E+02  0.51100000000E-03 0. -1.
         11   -1    0    0    0    0 -0.00000000000E+00 -0.00000000000E+00 -0.45593999997E+02  0.45594000000E+02  0.51100000000E-03 0.  1.
    9900012    2    1    2    0    0 -0.87835121135E+01  0.12101991834E+02 -0.11272426142E+02  0.72461658058E+02  0.70000114328E+02 0.  0.
         12    1    1    2    0    0  0.87835121135E+01 -0.12101991834E+02  0.11272426142E+02  0.18726341942E+02  0.00000000000E+00 0. -1.
         11    1    3    3    0    0  0.51539163121E+01  0.22055460704E+02  0.15580259747E+02  0.27490920214E+02  0.51100000000E-03 0. -1.
        -11    1    3    3    0    0  0.71791753543E+01  0.55513459578E+01 -0.30478229179E+01  0.95732557424E+01  0.51100000000E-03 0.  1.
        -12    1    3    3    0    0 -0.21116603780E+02 -0.15504814827E+02 -0.23804862971E+02  0.35397482101E+02  0.00000000000E+00 0.  1.
</event>
<event>
 7    1  0.3434711E-013  0.7246155E+02  0.7816164E-02  0.1226708E+00
        -11   -1    0    0    0    0  0.00000000000E+00  0.00000000000E+00  0.45593999997E+02  0.45594000000E+02  0.51100000000E-03 0.  1.
         11   -1    0    0    0    0 -0.00000000000E+00 -0.00000000000E+00 -0.45593999997E+02  0.45594000000E+02  0.51100000000E-03 0. -1.
    9900012    2    1    2    0    0  0.10983854377E+02  0.11135154116E+02  0.10297725865E+02  0.72461551534E+02  0.69999975561E+02 0.  0.
         12    1    1    2    0    0 -0.10983854377E+02 -0.11135154116E+02 -0.10297725865E+02  0.18726448466E+02  0.00000000000E+00 0. -1.
         11    1    3    3    0    0  0.11964575193E+02 -0.13110198253E+02 -0.14821593993E+02  0.23123754162E+02  0.51100000000E-03 0. -1.
        -11    1    3    3    0    0 -0.66704216312E+01 -0.57767753030E+00 -0.60940110086E+01  0.90534637848E+01  0.51100000000E-03 0.  1.
        -12    1    3    3    0    0  0.56897008149E+01  0.24823029899E+02  0.31213330867E+02  0.40284333587E+02  0.00000000000E+00 0.  1.
</event>
<event>
 7    1  0.3434711E-013  0.7246155E+02  0.7816164E-02  0.1226708E+00
        -11   -1    0    0    0    0  0.00000000000E+00  0.00000000000E+00  0.45593999997E+02  0.45594000000E+02  0.51100000000E-03 0.  1.
         11   -1    0    0    0    0 -0.00000000000E+00 -0.00000000000E+00 -0.45593999997E+02  0.45594000000E+02  0.51100000000E-03 0. -1.
    9900012    2    1    2    0    0 -0.13451450856E+02 -0.11859337614E+02  0.53939158759E+01  0.72461554869E+02  0.69999979906E+02 0.  0.
         12    1    1    2    0    0  0.13451450856E+02  0.11859337614E+02 -0.53939158759E+01  0.18726445131E+02  0.00000000000E+00 0. -1.
         11    1    3    3    0    0 -0.11890539440E+00 -0.15889128671E+00  0.69196349633E+01  0.69224802795E+01  0.51100000000E-03 0. -1.
        -11    1    3    3    0    0 -0.28540516155E+01 -0.32179905187E+02  0.16535058932E+02  0.36291873507E+02  0.51100000000E-03 0.  1.
         12    1    3    3    0    0 -0.10478493846E+02  0.20479458860E+02 -0.18060778020E+02  0.29247201082E+02  0.00000000000E+00 0. -1.
</event>
<event>
 7    1  0.3434711E-013  0.7246159E+02  0.7816164E-02  0.1226708E+00
        -11   -1    0    0    0    0  0.00000000000E+00  0.00000000000E+00  0.45593999997E+02  0.45594000000E+02  0.51100000000E-03 0.  1.
         11   -1    0    0    0    0 -0.00000000000E+00 -0.00000000000E+00 -0.45593999997E+02  0.45594000000E+02  0.51100000000E-03 0. -1.
    9900012    2    1    2    0    0  0.15478485914E+02  0.10416638665E+02 -0.16088677548E+01  0.72461592370E+02  0.70000028758E+02 0.  0.
         12    1    1    2    0    0 -0.15478485914E+02 -0.10416638665E+02  0.16088677548E+01  0.18726407630E+02  0.00000000000E+00 0. -1.
         11    1    3    3    0    0  0.74204434323E+01 -0.47066384418E+01 -0.16932506880E+02  0.19076824045E+02  0.51100000000E-03 0. -1.
        -11    1    3    3    0    0  0.20283189611E+02 -0.10427222779E+02  0.72801271575E+01  0.23940238248E+02  0.51100000000E-03 0.  1.
         12    1    3    3    0    0 -0.12225147129E+02  0.25550499885E+02  0.80435119675E+01  0.29444530078E+02  0.00000000000E+00 0. -1.
</event>
<event>
 7    1  0.3434711E-013  0.7246156E+02  0.7816164E-02  0.1226708E+00
        -11   -1    0    0    0    0  0.00000000000E+00  0.00000000000E+00  0.45593999997E+02  0.45594000000E+02  0.51100000000E-03 0.  1.
         11   -1    0    0    0    0 -0.00000000000E+00 -0.00000000000E+00 -0.45593999997E+02  0.45594000000E+02  0.51100000000E-03 0. -1.
    9900012    2    1    2    0    0 -0.14729791393E+02  0.11488766980E+02 -0.13118978771E+01  0.72461558874E+02  0.69999985123E+02 0.  0.
         12    1    1    2    0    0  0.14729791393E+02 -0.11488766980E+02  0.13118978771E+01  0.18726441126E+02  0.00000000000E+00 0. -1.
         11    1    3    3    0    0 -0.13093684660E+02  0.13282379243E+02  0.63977926165E+01  0.19717959503E+02  0.51100000000E-03 0. -1.
        -11    1    3    3    0    0 -0.25382775364E+02 -0.64281542573E+01  0.28621587787E+01  0.26340053254E+02  0.51100000000E-03 0.  1.
         12    1    3    3    0    0  0.23746668630E+02  0.46345419938E+01 -0.10571849272E+02  0.26403546117E+02  0.00000000000E+00 0. -1.
</event>
<event>
 7    1  0.3434711E-013  0.7246157E+02  0.7816164E-02  0.1226708E+00
        -11   -1    0    0    0    0  0.00000000000E+00  0.00000000000E+00  0.45593999997E+02  0.45594000000E+02  0.51100000000E-03 0.  1.
         11   -1    0    0    0    0 -0.00000000000E+00 -0.00000000000E+00 -0.45593999997E+02  0.45594000000E+02  0.51100000000E-03 0. -1.
    9900012    2    1    2    0    0  0.96515393859E+01  0.56880948637E+01  0.15005747957E+02  0.72461571952E+02  0.70000002159E+02 0.  0.
         12    1    1    2    0    0 -0.96515393859E+01 -0.56880948637E+01 -0.15005747957E+02  0.18726428048E+02  0.00000000000E+00 0. -1.
         11    1    3    3    0    0 -0.21868729365E+00  0.69162918592E+01  0.83125433558E+01  0.10815789131E+02  0.51100000000E-03 0. -1.
        -11    1    3    3    0    0  0.27171351192E+02  0.19505897994E+02 -0.13314712304E+01  0.33474396156E+02  0.51100000000E-03 0.  1.
         12    1    3    3    0    0 -0.17301124512E+02 -0.20734094989E+02  0.80246758316E+01  0.28171386665E+02  0.00000000000E+00 0. -1.
</event>
<event>
 7    1  0.3434711E-013  0.7246158E+02  0.7816164E-02  0.1226708E+00
        -11   -1    0    0    0    0  0.00000000000E+00  0.00000000000E+00  0.45593999997E+02  0.45594000000E+02  0.51100000000E-03 0.  1.
         11   -1    0    0    0    0 -0.00000000000E+00 -0.00000000000E+00 -0.45593999997E+02  0.45594000000E+02  0.51100000000E-03 0. -1.
    9900012    2    1    2    0    0 -0.12558376106E+02  0.11856932099E+02 -0.72373468614E+01  0.72461579124E+02  0.70000011503E+02 0.  0.
         12    1    1    2    0    0  0.12558376106E+02 -0.11856932099E+02  0.72373468614E+01  0.18726420876E+02  0.00000000000E+00 0. -1.
         11    1    3    3    0    0  0.17715302090E+02 -0.15520667581E+02 -0.30607240783E+01  0.23750601728E+02  0.51100000000E-03 0. -1.
        -11    1    3    3    0    0 -0.88921442030E+01 -0.92512492119E+00  0.71795810313E+01  0.11466144456E+02  0.51100000000E-03 0.  1.
        -12    1    3    3    0    0 -0.21381533993E+02  0.28302724600E+02 -0.11356203814E+02  0.37244832941E+02  0.00000000000E+00 0.  1.
</event>
<event>
 7    1  0.3434711E-013  0.7246161E+02  0.7816164E-02  0.1226708E+00
        -11   -1    0    0    0    0  0.00000000000E+00  0.00000000000E+00  0.45593999997E+02  0.45594000000E+02  0.51100000000E-03 0.  1.
         11   -1    0    0    0    0 -0.00000000000E+00 -0.00000000000E+00 -0.45593999997E+02  0.45594000000E+02  0.51100000000E-03 0. -1.
    9900012    2    1    2    0    0  0.10953577669E+02 -0.96152101924E+01 -0.11757745065E+02  0.72461609536E+02  0.70000051120E+02 0.  0.
         12    1    1    2    0    0 -0.10953577669E+02  0.96152101924E+01  0.11757745065E+02  0.18726390464E+02  0.00000000000E+00 0. -1.
         11    1    3    3    0    0 -0.25064572604E+02  0.60699508639E+01 -0.73316585748E+01  0.26811011190E+02  0.51100000000E-03 0.  1.
        -11    1    3    3    0    0  0.17891838360E+01 -0.10057409633E+02 -0.39684015640E+01  0.10959054638E+02  0.51100000000E-03 0. -1.
        -12    1    3    3    0    0  0.34228966437E+02 -0.56277514238E+01 -0.45768492576E+00  0.34691543709E+02  0.00000000000E+00 0.  1.
</event>
<event>
 7    1  0.3434711E-013  0.7246157E+02  0.7816164E-02  0.1226708E+00
        -11   -1    0    0    0    0  0.00000000000E+00  0.00000000000E+00  0.45593999997E+02  0.45594000000E+02  0.51100000000E-03 0.  1.
         11   -1    0    0    0    0 -0.00000000000E+00 -0.00000000000E+00 -0.45593999997E+02  0.45594000000E+02  0.51100000000E-03 0. -1.
    9900012    2    1    2    0    0  0.17946076866E+02 -0.38072486434E+01  0.37579635460E+01  0.72461571960E+02  0.70000002170E+02 0.  0.
         12    1    1    2    0    0 -0.17946076866E+02  0.38072486434E+01 -0.37579635460E+01  0.18726428040E+02  0.00000000000E+00 0. -1.
         11    1    3    3    0    0  0.26489795194E+02  0.10255327470E+02 -0.21116358570E+02  0.35394654829E+02  0.51100000000E-03 0. -1.
        -11    1    3    3    0    0  0.23821071535E+01 -0.16818936367E+01 -0.33041181836E+01  0.44068580563E+01  0.51100000000E-03 0.  1.
        -12    1    3    3    0    0 -0.10925825481E+02 -0.12380682477E+02  0.28178440300E+02  0.32660059075E+02  0.00000000000E+00 0.  1.
</event>
<event>
 7    1  0.3434711E-013  0.7246159E+02  0.7816164E-02  0.1226708E+00
        -11   -1    0    0    0    0  0.00000000000E+00  0.00000000000E+00  0.45593999997E+02  0.45594000000E+02  0.51100000000E-03 0.  1.
         11   -1    0    0    0    0 -0.00000000000E+00 -0.00000000000E+00 -0.45593999997E+02  0.45594000000E+02  0.51100000000E-03 0. -1.
    9900012    2    1    2    0    0  0.34068010011E+01 -0.17659903318E+02 -0.52153453968E+01  0.72461593354E+02  0.70000030040E+02 0.  0.
         12    1    1    2    0    0 -0.34068010011E+01  0.17659903318E+02  0.52153453968E+01  0.18726406646E+02  0.00000000000E+00 0. -1.
         11    1    3    3    0    0  0.13010985406E+02 -0.13775849892E+02 -0.24770534800E+02  0.31187163642E+02  0.51100000000E-03 0. -1.
        -11    1    3    3    0    0  0.55161151937E+01  0.65484214860E+01 -0.55222490762E+01  0.10188453558E+02  0.51100000000E-03 0.  1.
        -12    1    3    3    0    0 -0.15120299599E+02 -0.10432474912E+02  0.25077438480E+02  0.31085976154E+02  0.00000000000E+00 0.  1.
</event>
<event>
 7    1  0.3434711E-013  0.7246146E+02  0.7816164E-02  0.1226708E+00
        -11   -1    0    0    0    0  0.00000000000E+00  0.00000000000E+00  0.45593999997E+02  0.45594000000E+02  0.51100000000E-03 0.  1.
         11   -1    0    0    0    0 -0.00000000000E+00 -0.00000000000E+00 -0.45593999997E+02  0.45594000000E+02  0.51100000000E-03 0. -1.
    9900012    2    1    2    0    0  0.67147320928E+01  0.17312243847E+02 -0.24252447180E+01  0.72461461984E+02  0.69999858906E+02 0.  0.
         12    1    1    2    0    0 -0.67147320928E+01 -0.17312243847E+02  0.24252447180E+01  0.18726538016E+02  0.00000000000E+00 0. -1.
         11    1    3    3    0    0  0.17752900915E+02  0.12551723680E+02 -0.98317367429E+01  0.23861565453E+02  0.51100000000E-03 0. -1.
        -11    1    3    3    0    0 -0.37948469281E+01 -0.16684909165E+02 -0.10202260704E+02  0.19921676154E+02  0.51100000000E-03 0.  1.
         12    1    3    3    0    0 -0.72433218938E+01  0.21445429333E+02  0.17608752729E+02  0.28678220377E+02  0.00000000000E+00 0. -1.
</event>
<event>
 7    1  0.4850573E-013  0.7246163E+02  0.7816164E-02  0.1226708E+00
        -11   -1    0    0    0    0  0.00000000000E+00  0.00000000000E+00  0.45593999997E+02  0.45594000000E+02  0.51100000000E-03 0. -1.
         11   -1    0    0    0    0 -0.00000000000E+00 -0.00000000000E+00 -0.45593999997E+02  0.45594000000E+02  0.51100000000E-03 0.  1.
    9900012    2    1    2    0    0 -0.84286714470E+01 -0.16090800484E+02  0.45519992009E+01  0.72461626638E+02  0.70000073398E+02 0.  0.
         12    1    1    2    0    0  0.84286714470E+01  0.16090800484E+02 -0.45519992009E+01  0.18726373362E+02  0.00000000000E+00 0. -1.
         11    1    3    3    0    0 -0.89617061243E+01 -0.35683633684E+01 -0.87736315997E+01  0.13039248655E+02  0.51100000000E-03 0.  1.
        -11    1    3    3    0    0 -0.15215790063E+02 -0.17446491767E+02  0.28697698082E+02  0.36870831529E+02  0.51100000000E-03 0. -1.
         12    1    3    3    0    0  0.15748824741E+02  0.49240546510E+01 -0.15372067281E+02  0.22551546453E+02  0.00000000000E+00 0. -1.
</event>
<event>
 7    1  0.3434711E-013  0.7246159E+02  0.7816164E-02  0.1226708E+00
        -11   -1    0    0    0    0  0.00000000000E+00  0.00000000000E+00  0.45593999997E+02  0.45594000000E+02  0.51100000000E-03 0.  1.
         11   -1    0    0    0    0 -0.00000000000E+00 -0.00000000000E+00 -0.45593999997E+02  0.45594000000E+02  0.51100000000E-03 0. -1.
    9900012    2    1    2    0    0 -0.46059096721E+01 -0.10474343548E+02  0.14824043240E+02  0.72461587246E+02  0.70000022083E+02 0.  0.
         12    1    1    2    0    0  0.46059096721E+01  0.10474343548E+02 -0.14824043240E+02  0.18726412754E+02  0.00000000000E+00 0. -1.
         11    1    3    3    0    0  0.12167857115E+00 -0.15996920240E+02  0.25889924737E+02  0.30433607508E+02  0.51100000000E-03 0. -1.
        -11    1    3    3    0    0  0.89237012559E+01  0.72479465363E+01  0.11072816287E+02  0.15961592461E+02  0.51100000000E-03 0.  1.
         12    1    3    3    0    0 -0.13651289499E+02 -0.17253698441E+01 -0.22138697784E+02  0.26066387277E+02  0.00000000000E+00 0. -1.
</event>
<event>
 7    1  0.3434711E-013  0.7246155E+02  0.7816164E-02  0.1226708E+00
        -11   -1    0    0    0    0  0.00000000000E+00  0.00000000000E+00  0.45593999997E+02  0.45594000000E+02  0.51100000000E-03 0.  1.
         11   -1    0    0    0    0 -0.00000000000E+00 -0.00000000000E+00 -0.45593999997E+02  0.45594000000E+02  0.51100000000E-03 0. -1.
    9900012    2    1    2    0    0  0.81750188735E+01  0.11752275150E+01  0.16806777263E+02  0.72461551985E+02  0.69999976148E+02 0.  0.
         12    1    1    2    0    0 -0.81750188735E+01 -0.11752275150E+01 -0.16806777263E+02  0.18726448015E+02  0.00000000000E+00 0. -1.
         11    1    3    3    0    0 -0.10267743732E+02  0.29960116559E+02  0.40662840419E+01  0.31930703276E+02  0.51100000000E-03 0. -1.
        -11    1    3    3    0    0  0.11797975861E+02 -0.40337222636E+01  0.68838761749E+01  0.14242573544E+02  0.51100000000E-03 0.  1.
        -12    1    3    3    0    0  0.66447867446E+01 -0.24751166780E+02  0.58566170464E+01  0.26288275164E+02  0.00000000000E+00 0.  1.
</event>
<event>
 7    1  0.3434711E-013  0.7246160E+02  0.7816164E-02  0.1226708E+00
        -11   -1    0    0    0    0  0.00000000000E+00  0.00000000000E+00  0.45593999997E+02  0.45594000000E+02  0.51100000000E-03 0.  1.
         11   -1    0    0    0    0 -0.00000000000E+00 -0.00000000000E+00 -0.45593999997E+02  0.45594000000E+02  0.51100000000E-03 0. -1.
    9900012    2    1    2    0    0  0.12918009885E+01  0.17123044037E+01  0.18603155262E+02  0.72461598267E+02  0.70000036440E+02 0.  0.
         12    1    1    2    0    0 -0.12918009885E+01 -0.17123044037E+01 -0.18603155262E+02  0.18726401733E+02  0.00000000000E+00 0. -1.
         11    1    3    3    0    0 -0.71311797131E+01  0.82404975898E+01  0.85551944778E+01  0.13854633790E+02  0.51100000000E-03 0. -1.
        -11    1    3    3    0    0 -0.14013364337E+02 -0.51295008105E+01  0.26730053479E+02  0.30613427085E+02  0.51100000000E-03 0.  1.
         12    1    3    3    0    0  0.22436345039E+02 -0.13986923756E+01 -0.16682092695E+02  0.27993537393E+02  0.00000000000E+00 0. -1.
</event>
<event>
 7    1  0.3434711E-013  0.7246166E+02  0.7816164E-02  0.1226708E+00
        -11   -1    0    0    0    0  0.00000000000E+00  0.00000000000E+00  0.45593999997E+02  0.45594000000E+02  0.51100000000E-03 0.  1.
         11   -1    0    0    0    0 -0.00000000000E+00 -0.00000000000E+00 -0.45593999997E+02  0.45594000000E+02  0.51100000000E-03 0. -1.
    9900012    2    1    2    0    0 -0.11795974600E+01 -0.60250026629E+01  0.17691340375E+02  0.72461664760E+02  0.70000123059E+02 0.  0.
         12    1    1    2    0    0  0.11795974600E+01  0.60250026629E+01 -0.17691340375E+02  0.18726335240E+02  0.00000000000E+00 0. -1.
         11    1    3    3    0    0  0.21790539399E+02  0.14962524883E+02  0.78228139213E+01  0.27566305085E+02  0.51100000000E-03 0. -1.
        -11    1    3    3    0    0 -0.12408642760E+02  0.67389917378E+01  0.35549830204E+01  0.14561123903E+02  0.51100000000E-03 0.  1.
        -12    1    3    3    0    0 -0.10561494098E+02 -0.27726519283E+02  0.63135434331E+01  0.30334235772E+02  0.00000000000E+00 0.  1.
</event>
<event>
 7    1  0.3434711E-013  0.7246151E+02  0.7816164E-02  0.1226708E+00
        -11   -1    0    0    0    0  0.00000000000E+00  0.00000000000E+00  0.45593999997E+02  0.45594000000E+02  0.51100000000E-03 0.  1.
         11   -1    0    0    0    0 -0.00000000000E+00 -0.00000000000E+00 -0.45593999997E+02  0.45594000000E+02  0.51100000000E-03 0. -1.
    9900012    2    1    2    0    0  0.98988394340E+01 -0.11470263998E+02  0.11005787199E+02  0.72461512604E+02  0.69999924848E+02 0.  0.
         12    1    1    2    0    0 -0.98988394340E+01  0.11470263998E+02 -0.11005787199E+02  0.18726487396E+02  0.00000000000E+00 0. -1.
         11    1    3    3    0    0  0.18572034088E+02  0.20091903072E+01  0.21667682062E+01  0.18805642254E+02  0.51100000000E-03 0.  1.
        -11    1    3    3    0    0 -0.13494281431E+02 -0.29902891634E+02  0.14159031521E+02  0.35731732862E+02  0.51100000000E-03 0. -1.
         12    1    3    3    0    0  0.48210867769E+01  0.16423437329E+02 -0.53200125286E+01  0.17924137489E+02  0.00000000000E+00 0. -1.
</event>
<event>
 7    1  0.3823777E-013  0.7246154E+02  0.7816164E-02  0.1226708E+00
        -11   -1    0    0    0    0  0.00000000000E+00  0.00000000000E+00  0.45593999997E+02  0.45594000000E+02  0.51100000000E-03 0. -1.
         11   -1    0    0    0    0 -0.00000000000E+00 -0.00000000000E+00 -0.45593999997E+02  0.45594000000E+02  0.51100000000E-03 0.  1.
    9900012    2    1    2    0    0  0.14287315424E+00  0.10791186110E+01 -0.18694799192E+02  0.72461536731E+02  0.69999956278E+02 0.  0.
         12    1    1    2    0    0 -0.14287315424E+00 -0.10791186110E+01  0.18694799192E+02  0.18726463269E+02  0.00000000000E+00 0. -1.
         11    1    3    3    0    0 -0.39700704997E+00 -0.12748739612E+02  0.27047965336E+01  0.13038554400E+02  0.51100000000E-03 0. -1.
        -11    1    3    3    0    0  0.24180419924E+02 -0.39436731537E+00 -0.20687592094E+02  0.31824906915E+02  0.51100000000E-03 0.  1.
         12    1    3    3    0    0 -0.23640539720E+02  0.14222225538E+02 -0.71200363238E+00  0.27598075416E+02  0.00000000000E+00 0. -1.
</event>
<event>
 7    1  0.3434711E-013  0.7246153E+02  0.7816164E-02  0.1226708E+00
        -11   -1    0    0    0    0  0.00000000000E+00  0.00000000000E+00  0.45593999997E+02  0.45594000000E+02  0.51100000000E-03 0.  1.
         11   -1    0    0    0    0 -0.00000000000E+00 -0.00000000000E+00 -0.45593999997E+02  0.45594000000E+02  0.51100000000E-03 0. -1.
    9900012    2    1    2    0    0 -0.13765658815E+02  0.33718402707E+00  0.12691482818E+02  0.72461526979E+02  0.69999943574E+02 0.  0.
         12    1    1    2    0    0  0.13765658815E+02 -0.33718402707E+00 -0.12691482818E+02  0.18726473021E+02  0.00000000000E+00 0. -1.
         11    1    3    3    0    0  0.19881074861E+02  0.92060407654E+01 -0.10810472689E+02  0.24431018076E+02  0.51100000000E-03 0. -1.
        -11    1    3    3    0    0  0.21024714696E+01  0.31742672528E+01  0.48099974234E+00  0.38376711540E+01  0.51100000000E-03 0.  1.
        -12    1    3    3    0    0 -0.35749205146E+02 -0.12043123991E+02  0.23020955764E+02  0.44192837749E+02  0.00000000000E+00 0.  1.
</event>
<event>
 7    1  0.3434711E-013  0.7246157E+02  0.7816164E-02  0.1226708E+00
        -11   -1    0    0    0    0  0.00000000000E+00  0.00000000000E+00  0.45593999997E+02  0.45594000000E+02  0.51100000000E-03 0.  1.
         11   -1    0    0    0    0 -0.00000000000E+00 -0.00000000000E+00 -0.45593999997E+02  0.45594000000E+02  0.51100000000E-03 0. -1.
    9900012    2    1    2    0    0  0.16128070835E+01  0.13634467795E+02  0.12734960116E+02  0.72461573007E+02  0.70000003534E+02 0.  0.
         12    1    1    2    0    0 -0.16128070835E+01 -0.13634467795E+02 -0.12734960116E+02  0.18726426993E+02  0.00000000000E+00 0. -1.
         11    1    3    3    0    0  0.93408153202E+01  0.72943014868E+01 -0.16138895810E+02  0.20023027325E+02  0.51100000000E-03 0. -1.
        -11    1    3    3    0    0 -0.10202770162E+02  0.18436138394E+02  0.38413669292E-01  0.21071051083E+02  0.51100000000E-03 0.  1.
        -12    1    3    3    0    0  0.24747619256E+01 -0.12095972086E+02  0.28835442257E+02  0.31367494599E+02  0.00000000000E+00 0.  1.
</event>
<event>
 7    1  0.3434711E-013  0.7246162E+02  0.7816164E-02  0.1226708E+00
        -11   -1    0    0    0    0  0.00000000000E+00  0.00000000000E+00  0.45593999997E+02  0.45594000000E+02  0.51100000000E-03 0. -1.
         11   -1    0    0    0    0 -0.00000000000E+00 -0.00000000000E+00 -0.45593999997E+02  0.45594000000E+02  0.51100000000E-03 0.  1.
    9900012    2    1    2    0    0  0.49616541139E-01  0.16722022691E+02 -0.84290558784E+01  0.72461615200E+02  0.70000058498E+02 0.  0.
         12    1    1    2    0    0 -0.49616541139E-01 -0.16722022691E+02  0.84290558784E+01  0.18726384800E+02  0.00000000000E+00 0. -1.
         11    1    3    3    0    0 -0.25153096925E+02  0.13407561935E+02  0.60414938042E+01  0.29136586101E+02  0.51100000000E-03 0. -1.
        -11    1    3    3    0    0 -0.36389247382E+01 -0.52506740355E+01  0.44483434708E+01  0.77845430806E+01  0.51100000000E-03 0.  1.
        -12    1    3    3    0    0  0.28841638204E+02  0.85651347912E+01 -0.18918893153E+02  0.35540486019E+02  0.00000000000E+00 0.  1.
</event>
<event>
 7    1  0.3434711E-013  0.7246157E+02  0.7816164E-02  0.1226708E+00
        -11   -1    0    0    0    0  0.00000000000E+00  0.00000000000E+00  0.45593999997E+02  0.45594000000E+02  0.51100000000E-03 0.  1.
         11   -1    0    0    0    0 -0.00000000000E+00 -0.00000000000E+00 -0.45593999997E+02  0.45594000000E+02  0.51100000000E-03 0. -1.
    9900012    2    1    2    0    0  0.21789070262E+01 -0.18715884611E+01  0.18504824830E+02  0.72461574255E+02  0.70000005159E+02 0.  0.
         12    1    1    2    0    0 -0.21789070262E+01  0.18715884611E+01 -0.18504824830E+02  0.18726425745E+02  0.00000000000E+00 0. -1.
         11    1    3    3    0    0  0.30746485955E+01  0.10068542474E+02 -0.41599699178E+01  0.11319644937E+02  0.51100000000E-03 0. -1.
        -11    1    3    3    0    0  0.27066998065E+02 -0.87126732905E+01  0.13970929176E+02  0.31681539142E+02  0.51100000000E-03 0.  1.
        -12    1    3    3    0    0 -0.27962739634E+02 -0.32274576442E+01  0.86938655720E+01  0.29460390175E+02  0.00000000000E+00 0.  1.
</event>
<event>
 7    1  0.3434711E-013  0.7246159E+02  0.7816164E-02  0.1226708E+00
        -11   -1    0    0    0    0  0.00000000000E+00  0.00000000000E+00  0.45593999997E+02  0.45594000000E+02  0.51100000000E-03 0. -1.
         11   -1    0    0    0    0 -0.00000000000E+00 -0.00000000000E+00 -0.45593999997E+02  0.45594000000E+02  0.51100000000E-03 0.  1.
    9900012    2    1    2    0    0 -0.15143750508E+02 -0.90954277910E+01 -0.62143611429E+01  0.72461594297E+02  0.70000031267E+02 0.  0.
         12    1    1    2    0    0  0.15143750508E+02  0.90954277910E+01  0.62143611429E+01  0.18726405703E+02  0.00000000000E+00 0. -1.
         11    1    3    3    0    0 -0.39219467027E+01 -0.56537548620E+01 -0.44096721696E+01  0.81726261925E+01  0.51100000000E-03 0. -1.
        -11    1    3    3    0    0  0.13889484470E+02 -0.24729144019E+02 -0.10493162313E+02  0.30241607073E+02  0.51100000000E-03 0.  1.
         12    1    3    3    0    0 -0.25111288275E+02  0.21287471090E+02  0.86884733399E+01  0.34047361032E+02  0.00000000000E+00 0. -1.
</event>
<event>
 7    1  0.3434711E-013  0.7246204E+02  0.7816164E-02  0.1226707E+00
        -11   -1    0    0    0    0  0.00000000000E+00  0.00000000000E+00  0.45593999997E+02  0.45594000000E+02  0.51100000000E-03 0. -1.
         11   -1    0    0    0    0 -0.00000000000E+00 -0.00000000000E+00 -0.45593999997E+02  0.45594000000E+02  0.51100000000E-03 0.  1.
    9900012    2    1    2    0    0  0.65307054777E+01  0.47156204213E+01 -0.16904867105E+02  0.72462036158E+02  0.70000606871E+02 0.  0.
         12    1    1    2    0    0 -0.65307054777E+01 -0.47156204213E+01  0.16904867105E+02  0.18725963842E+02  0.00000000000E+00 0. -1.
         11    1    3    3    0    0  0.27794412764E+02 -0.76903855423E+01 -0.71507112314E+01  0.29712019152E+02  0.51100000000E-03 0.  1.
        -11    1    3    3    0    0  0.45569402641E+01  0.61521354613E+01  0.77823425648E+01  0.10916928660E+02  0.51100000000E-03 0. -1.
        -12    1    3    3    0    0 -0.25820647551E+02  0.62538705023E+01 -0.17536498438E+02  0.31833088346E+02  0.00000000000E+00 0.  1.
</event>
<event>
 7    1  0.3434711E-013  0.7246156E+02  0.7816164E-02  0.1226708E+00
        -11   -1    0    0    0    0  0.00000000000E+00  0.00000000000E+00  0.45593999997E+02  0.45594000000E+02  0.51100000000E-03 0.  1.
         11   -1    0    0    0    0 -0.00000000000E+00 -0.00000000000E+00 -0.45593999997E+02  0.45594000000E+02  0.51100000000E-03 0. -1.
    9900012    2    1    2    0    0  0.15601131133E+02  0.80956295909E+01 -0.64610329187E+01  0.72461562606E+02  0.69999989984E+02 0.  0.
         12    1    1    2    0    0 -0.15601131133E+02 -0.80956295909E+01  0.64610329187E+01  0.18726437394E+02  0.00000000000E+00 0. -1.
         11    1    3    3    0    0  0.73720921949E+01  0.14572244843E+02 -0.24393620967E+02  0.29355524305E+02  0.51100000000E-03 0. -1.
        -11    1    3    3    0    0  0.69916066584E+01  0.14404227936E+02  0.73784863772E+00  0.16028373809E+02  0.51100000000E-03 0.  1.
        -12    1    3    3    0    0  0.12374322796E+01 -0.20880843188E+02  0.17194739411E+02  0.27077664491E+02  0.00000000000E+00 0.  1.
</event>
<event>
 7    1  0.3434711E-013  0.7246162E+02  0.7816164E-02  0.1226708E+00
        -11   -1    0    0    0    0  0.00000000000E+00  0.00000000000E+00  0.45593999997E+02  0.45594000000E+02  0.51100000000E-03 0.  1.
         11   -1    0    0    0    0 -0.00000000000E+00 -0.00000000000E+00 -0.45593999997E+02  0.45594000000E+02  0.51100000000E-03 0. -1.
    9900012    2    1    2    0    0 -0.70758274982E+01 -0.14878501724E+02  0.89016947118E+01  0.72461619755E+02  0.70000064432E+02 0.  0.
         12    1    1    2    0    0  0.70758274982E+01  0.14878501724E+02 -0.89016947118E+01  0.18726380245E+02  0.00000000000E+00 0. -1.
         11    1    3    3    0    0 -0.47058049170E+01  0.11843557918E+02  0.54259260070E+01  0.13851178194E+02  0.51100000000E-03 0. -1.
        -11    1    3    3    0    0 -0.10660533425E+01  0.15024581886E+02  0.71672079692E+01  0.16680629512E+02  0.51100000000E-03 0.  1.
         12    1    3    3    0    0 -0.13039692386E+01 -0.41746641528E+02 -0.36914392644E+01  0.41929812049E+02  0.00000000000E+00 0. -1.
</event>
<event>
 7    1  0.3434711E-013  0.7246159E+02  0.7816164E-02  0.1226708E+00
        -11   -1    0    0    0    0  0.00000000000E+00  0.00000000000E+00  0.45593999997E+02  0.45594000000E+02  0.51100000000E-03 0.  1.
         11   -1    0    0    0    0 -0.00000000000E+00 -0.00000000000E+00 -0.45593999997E+02  0.45594000000E+02  0.51100000000E-03 0. -1.
    9900012    2    1    2    0    0 -0.16915125513E+00  0.38662221579E+01  0.18322171791E+02  0.72461594444E+02  0.70000031459E+02 0.  0.
         12    1    1    2    0    0  0.16915125513E+00 -0.38662221579E+01 -0.18322171791E+02  0.18726405556E+02  0.00000000000E+00 0. -1.
         11    1    3    3    0    0 -0.28365737782E+02  0.61869086983E+01 -0.26744679086E+01  0.29155543178E+02  0.51100000000E-03 0. -1.
        -11    1    3    3    0    0  0.17732107227E+02 -0.21170935086E+01 -0.20683272543E+01  0.17977421660E+02  0.51100000000E-03 0.  1.
        -12    1    3    3    0    0  0.10464479299E+02 -0.20359303175E+00  0.23064966954E+02  0.25328629606E+02  0.00000000000E+00 0.  1.
</event>
<event>
 7    1  0.3434711E-013  0.7246163E+02  0.7816164E-02  0.1226708E+00
        -11   -1    0    0    0    0  0.00000000000E+00  0.00000000000E+00  0.45593999997E+02  0.45594000000E+02  0.51100000000E-03 0.  1.
         11   -1    0    0    0    0 -0.00000000000E+00 -0.00000000000E+00 -0.45593999997E+02  0.45594000000E+02  0.51100000000E-03 0. -1.
    9900012    2    1    2    0    0  0.23115340974E+01  0.14455342359E+02 -0.11678044562E+02  0.72461632563E+02  0.70000081117E+02 0.  0.
         12    1    1    2    0    0 -0.23115340974E+01 -0.14455342359E+02  0.11678044562E+02  0.18726367437E+02  0.00000000000E+00 0. -1.
         11    1    3    3    0    0 -0.90247487906E+01  0.23324629388E+02 -0.42791268377E+01  0.25373122661E+02  0.51100000000E-03 0. -1.
        -11    1    3    3    0    0 -0.67525879566E+01  0.54146562251E+00  0.15205515572E+02  0.16646270850E+02  0.51100000000E-03 0.  1.
        -12    1    3    3    0    0  0.18088870845E+02 -0.94107526514E+01 -0.22604433296E+02  0.30442239053E+02  0.00000000000E+00 0.  1.
</event>
<event>
 7    1  0.3434711E-013  0.7246159E+02  0.7816164E-02  0.1226708E+00
        -11   -1    0    0    0    0  0.00000000000E+00  0.00000000000E+00  0.45593999997E+02  0.45594000000E+02  0.51100000000E-03 0.  1.
         11   -1    0    0    0    0 -0.00000000000E+00 -0.00000000000E+00 -0.45593999997E+02  0.45594000000E+02  0.51100000000E-03 0. -1.
    9900012    2    1    2    0    0  0.71443055472E+01  0.14611164355E+02  0.92817630770E+01  0.72461592139E+02  0.70000028457E+02 0.  0.
         12    1    1    2    0    0 -0.71443055472E+01 -0.14611164355E+02 -0.92817630770E+01  0.18726407861E+02  0.00000000000E+00 0. -1.
         11    1    3    3    0    0  0.86957309935E+01  0.26831046191E-01 -0.67564666645E+01  0.11012097869E+02  0.51100000000E-03 0. -1.
        -11    1    3    3    0    0  0.23619656702E+02  0.10531918573E+02 -0.73142151541E+01  0.26875774131E+02  0.51100000000E-03 0.  1.
         12    1    3    3    0    0 -0.25171082148E+02  0.40524147356E+01  0.23352444896E+02  0.34573720140E+02  0.00000000000E+00 0. -1.
</event>
<event>
 7    1  0.3434711E-013  0.7246159E+02  0.7816164E-02  0.1226708E+00
        -11   -1    0    0    0    0  0.00000000000E+00  0.00000000000E+00  0.45593999997E+02  0.45594000000E+02  0.51100000000E-03 0.  1.
         11   -1    0    0    0    0 -0.00000000000E+00 -0.00000000000E+00 -0.45593999997E+02  0.45594000000E+02  0.51100000000E-03 0. -1.
    9900012    2    1    2    0    0 -0.64275611207E+01 -0.12405984463E+02  0.12468217584E+02  0.72461589714E+02  0.70000025298E+02 0.  0.
         12    1    1    2    0    0  0.64275611207E+01  0.12405984463E+02 -0.12468217584E+02  0.18726410286E+02  0.00000000000E+00 0. -1.
         11    1    3    3    0    0 -0.20729934597E+02  0.22816014203E+01  0.83258093952E+01  0.22455622810E+02  0.51100000000E-03 0. -1.
        -11    1    3    3    0    0  0.10448549990E+02 -0.14484368962E+02  0.23921952369E+02  0.29853457866E+02  0.51100000000E-03 0.  1.
         12    1    3    3    0    0  0.38538234858E+01 -0.20321692125E+00 -0.19779544180E+02  0.20152509039E+02  0.00000000000E+00 0. -1.
</event>
<event>
 7    1  0.3434711E-013  0.7246156E+02  0.7816164E-02  0.1226708E+00
        -11   -1    0    0    0    0  0.00000000000E+00  0.00000000000E+00  0.45593999997E+02  0.45594000000E+02  0.51100000000E-03 0.  1.
         11   -1    0    0    0    0 -0.00000000000E+00 -0.00000000000E+00 -0.45593999997E+02  0.45594000000E+02  0.51100000000E-03 0. -1.
    9900012    2    1    2    0    0  0.15904413658E+02  0.15704874264E+01  0.97602642746E+01  0.72461559781E+02  0.69999986305E+02 0.  0.
         12    1    1    2    0    0 -0.15904413658E+02 -0.15704874264E+01 -0.97602642746E+01  0.18726440219E+02  0.00000000000E+00 0. -1.
         11    1    3    3    0    0 -0.11080545757E+02  0.10453573619E+02 -0.23682330413E+01  0.15416362207E+02  0.51100000000E-03 0. -1.
        -11    1    3    3    0    0  0.10798675388E+02  0.10450811748E+02  0.24667512008E+02  0.28884546132E+02  0.51100000000E-03 0.  1.
        -12    1    3    3    0    0  0.16186284027E+02 -0.19333897941E+02 -0.12539014692E+02  0.28160651442E+02  0.00000000000E+00 0.  1.
</event>
<event>
 7    1  0.3434711E-013  0.7246159E+02  0.7816164E-02  0.1226708E+00
        -11   -1    0    0    0    0  0.00000000000E+00  0.00000000000E+00  0.45593999997E+02  0.45594000000E+02  0.51100000000E-03 0. -1.
         11   -1    0    0    0    0 -0.00000000000E+00 -0.00000000000E+00 -0.45593999997E+02  0.45594000000E+02  0.51100000000E-03 0.  1.
    9900012    2    1    2    0    0 -0.96205801376E+01 -0.97760469598E+01 -0.12749581832E+02  0.72461588351E+02  0.70000023523E+02 0.  0.
         12    1    1    2    0    0  0.96205801376E+01  0.97760469598E+01  0.12749581832E+02  0.18726411649E+02  0.00000000000E+00 0. -1.
         11    1    3    3    0    0 -0.63610594775E+00 -0.23595846398E+02  0.12402253054E+01  0.23636978595E+02  0.51100000000E-03 0. -1.
        -11    1    3    3    0    0  0.14146943396E+02 -0.62613192625E+01 -0.86693339829E+01  0.17734076754E+02  0.51100000000E-03 0.  1.
        -12    1    3    3    0    0 -0.23131417586E+02  0.20081118701E+02 -0.53204731545E+01  0.31090533003E+02  0.00000000000E+00 0.  1.
</event>
<event>
 7    1  0.3434711E-013  0.7246167E+02  0.7816164E-02  0.1226708E+00
        -11   -1    0    0    0    0  0.00000000000E+00  0.00000000000E+00  0.45593999997E+02  0.45594000000E+02  0.51100000000E-03 0.  1.
         11   -1    0    0    0    0 -0.00000000000E+00 -0.00000000000E+00 -0.45593999997E+02  0.45594000000E+02  0.51100000000E-03 0. -1.
    9900012    2    1    2    0    0 -0.96270364634E+01  0.36827794594E+01  0.15634350213E+02  0.72461665543E+02  0.70000124078E+02 0.  0.
         12    1    1    2    0    0  0.96270364634E+01 -0.36827794594E+01 -0.15634350213E+02  0.18726334457E+02  0.00000000000E+00 0. -1.
         11    1    3    3    0    0 -0.25818669341E+01  0.19541160368E+00  0.82721731220E+01  0.86679334897E+01  0.51100000000E-03 0. -1.
        -11    1    3    3    0    0  0.16488373700E+02  0.20296595194E+02  0.19305769026E+02  0.32504322200E+02  0.51100000000E-03 0.  1.
         12    1    3    3    0    0 -0.23533543230E+02 -0.16809227338E+02 -0.11943591935E+02  0.31289409853E+02  0.00000000000E+00 0. -1.
</event>
<event>
 7    1  0.3434711E-013  0.7246162E+02  0.7816164E-02  0.1226708E+00
        -11   -1    0    0    0    0  0.00000000000E+00  0.00000000000E+00  0.45593999997E+02  0.45594000000E+02  0.51100000000E-03 0.  1.
         11   -1    0    0    0    0 -0.00000000000E+00 -0.00000000000E+00 -0.45593999997E+02  0.45594000000E+02  0.51100000000E-03 0. -1.
    9900012    2    1    2    0    0  0.47233027283E+01  0.12244342360E+02  0.13358284971E+02  0.72461620589E+02  0.70000065518E+02 0.  0.
         12    1    1    2    0    0 -0.47233027283E+01 -0.12244342360E+02 -0.13358284971E+02  0.18726379411E+02  0.00000000000E+00 0. -1.
         11    1    3    3    0    0 -0.71359075942E+01 -0.43560970165E+01  0.10035944726E+02  0.13062042154E+02  0.51100000000E-03 0. -1.
        -11    1    3    3    0    0 -0.17704779028E+02 -0.69227854570E+01 -0.69610358228E+01  0.20244509846E+02  0.51100000000E-03 0.  1.
        -12    1    3    3    0    0  0.29563989350E+02  0.23523224834E+02  0.10283376067E+02  0.39155068589E+02  0.00000000000E+00 0.  1.
</event>
<event>
 7    1  0.3434711E-013  0.7246158E+02  0.7816164E-02  0.1226708E+00
        -11   -1    0    0    0    0  0.00000000000E+00  0.00000000000E+00  0.45593999997E+02  0.45594000000E+02  0.51100000000E-03 0. -1.
         11   -1    0    0    0    0 -0.00000000000E+00 -0.00000000000E+00 -0.45593999997E+02  0.45594000000E+02  0.51100000000E-03 0.  1.
    9900012    2    1    2    0    0 -0.72016710217E+01 -0.16200439185E+02 -0.60299667897E+01  0.72461580300E+02  0.70000013035E+02 0.  0.
         12    1    1    2    0    0  0.72016710217E+01  0.16200439185E+02  0.60299667897E+01  0.18726419700E+02  0.00000000000E+00 0. -1.
         11    1    3    3    0    0  0.81164652905E+00 -0.51274825459E+01 -0.26138046303E+01  0.58122131975E+01  0.51100000000E-03 0. -1.
        -11    1    3    3    0    0 -0.24677642950E+02 -0.15967650114E+02 -0.25250438192E+02  0.38749665042E+02  0.51100000000E-03 0.  1.
         12    1    3    3    0    0  0.16664325399E+02  0.48946934753E+01  0.21834276033E+02  0.27899702061E+02  0.00000000000E+00 0. -1.
</event>
<event>
 7    1  0.3434711E-013  0.7246175E+02  0.7816164E-02  0.1226708E+00
        -11   -1    0    0    0    0  0.00000000000E+00  0.00000000000E+00  0.45593999997E+02  0.45594000000E+02  0.51100000000E-03 0. -1.
         11   -1    0    0    0    0 -0.00000000000E+00 -0.00000000000E+00 -0.45593999997E+02  0.45594000000E+02  0.51100000000E-03 0.  1.
    9900012    2    1    2    0    0 -0.62992273782E+01 -0.16627359421E+02 -0.58756213229E+01  0.72461754440E+02  0.70000239883E+02 0.  0.
         12    1    1    2    0    0  0.62992273782E+01  0.16627359421E+02  0.58756213229E+01  0.18726245560E+02  0.00000000000E+00 0. -1.
         11    1    3    3    0    0 -0.80598982754E+01 -0.26927285692E+01 -0.67817386780E+01  0.10872199737E+02  0.51100000000E-03 0. -1.
        -11    1    3    3    0    0 -0.21649038073E+02  0.42342869019E+01 -0.16204258369E+02  0.27371299286E+02  0.51100000000E-03 0.  1.
         12    1    3    3    0    0  0.23409708970E+02 -0.18168917753E+02  0.17110375724E+02  0.34218255417E+02  0.00000000000E+00 0. -1.
</event>
<event>
 7    1  0.5216497E-013  0.7246157E+02  0.7816164E-02  0.1226708E+00
        -11   -1    0    0    0    0  0.00000000000E+00  0.00000000000E+00  0.45593999997E+02  0.45594000000E+02  0.51100000000E-03 0. -1.
         11   -1    0    0    0    0 -0.00000000000E+00 -0.00000000000E+00 -0.45593999997E+02  0.45594000000E+02  0.51100000000E-03 0.  1.
    9900012    2    1    2    0    0 -0.13958653293E+01  0.11881052996E+02 -0.14407338939E+02  0.72461567462E+02  0.69999996310E+02 0.  0.
         12    1    1    2    0    0  0.13958653293E+01 -0.11881052996E+02  0.14407338939E+02  0.18726432538E+02  0.00000000000E+00 0. -1.
         11    1    3    3    0    0  0.84728335902E+01  0.18384103813E+01 -0.17866226057E+02  0.19858768732E+02  0.51100000000E-03 0. -1.
        -11    1    3    3    0    0  0.49965937761E+01  0.18585297797E+02 -0.17161614031E+02  0.25785659580E+02  0.51100000000E-03 0.  1.
         12    1    3    3    0    0 -0.14865292696E+02 -0.85426551826E+01  0.20620501149E+02  0.26817139149E+02  0.00000000000E+00 0. -1.
</event>
<event>
 7    1  0.3434711E-013  0.7246156E+02  0.7816164E-02  0.1226708E+00
        -11   -1    0    0    0    0  0.00000000000E+00  0.00000000000E+00  0.45593999997E+02  0.45594000000E+02  0.51100000000E-03 0. -1.
         11   -1    0    0    0    0 -0.00000000000E+00 -0.00000000000E+00 -0.45593999997E+02  0.45594000000E+02  0.51100000000E-03 0.  1.
    9900012    2    1    2    0    0 -0.77008525549E+01 -0.16080684980E+02  0.57260856028E+01  0.72461558378E+02  0.69999984476E+02 0.  0.
         12    1    1    2    0    0  0.77008525549E+01  0.16080684980E+02 -0.57260856028E+01  0.18726441622E+02  0.00000000000E+00 0. -1.
         11    1    3    3    0    0 -0.15076017390E+01 -0.80709206294E+01 -0.24449623424E+01  0.85668234444E+01  0.51100000000E-03 0. -1.
        -11    1    3    3    0    0 -0.31413028377E+02 -0.78184636346E+00 -0.88212261863E+01  0.32637458039E+02  0.51100000000E-03 0.  1.
         12    1    3    3    0    0  0.25219777561E+02 -0.72279179871E+01  0.16992274131E+02  0.31257276894E+02  0.00000000000E+00 0. -1.
</event>
<event>
 7    1  0.3434711E-013  0.7246156E+02  0.7816164E-02  0.1226708E+00
        -11   -1    0    0    0    0  0.00000000000E+00  0.00000000000E+00  0.45593999997E+02  0.45594000000E+02  0.51100000000E-03 0. -1.
         11   -1    0    0    0    0 -0.00000000000E+00 -0.00000000000E+00 -0.45593999997E+02  0.45594000000E+02  0.51100000000E-03 0.  1.
    9900012    2    1    2    0    0 -0.16916461580E+02  0.15863508057E+01 -0.78737702943E+01  0.72461563075E+02  0.69999990596E+02 0.  0.
         12    1    1    2    0    0  0.16916461580E+02 -0.15863508057E+01  0.78737702943E+01  0.18726436925E+02  0.00000000000E+00 0. -1.
         11    1    3    3    0    0  0.15567215110E+01 -0.14720432207E+02 -0.12803208265E+02  0.19571322091E+02  0.51100000000E-03 0. -1.
        -11    1    3    3    0    0  0.91283894782E+01 -0.70179923644E+01 -0.85281607656E+01  0.14328616039E+02  0.51100000000E-03 0.  1.
         12    1    3    3    0    0 -0.27601572569E+02  0.23324775377E+02  0.13457598737E+02  0.38561624945E+02  0.00000000000E+00 0. -1.
</event>
<event>
 7    1  0.3434711E-013  0.7246152E+02  0.7816164E-02  0.1226708E+00
        -11   -1    0    0    0    0  0.00000000000E+00  0.00000000000E+00  0.45593999997E+02  0.45594000000E+02  0.51100000000E-03 0. -1.
         11   -1    0    0    0    0 -0.00000000000E+00 -0.00000000000E+00 -0.45593999997E+02  0.45594000000E+02  0.51100000000E-03 0.  1.
    9900012    2    1    2    0    0  0.61263153223E+01 -0.13608422064E+02 -0.11311942995E+02  0.72461522893E+02  0.69999938251E+02 0.  0.
         12    1    1    2    0    0 -0.61263153222E+01  0.13608422064E+02  0.11311942995E+02  0.18726477107E+02  0.00000000000E+00 0. -1.
         11    1    3    3    0    0 -0.24231171684E+01  0.94606212749E+01  0.11819124124E+01  0.98372643011E+01  0.51100000000E-03 0. -1.
        -11    1    3    3    0    0  0.12114278296E+02  0.64926103618E+01 -0.26398198863E+02  0.29761966188E+02  0.51100000000E-03 0.  1.
         12    1    3    3    0    0 -0.35648458051E+01 -0.29561653701E+02  0.13904343455E+02  0.32862292404E+02  0.00000000000E+00 0. -1.
</event>
<event>
 7    1  0.3434711E-013  0.7246161E+02  0.7816164E-02  0.1226708E+00
        -11   -1    0    0    0    0  0.00000000000E+00  0.00000000000E+00  0.45593999997E+02  0.45594000000E+02  0.51100000000E-03 0.  1.
         11   -1    0    0    0    0 -0.00000000000E+00 -0.00000000000E+00 -0.45593999997E+02  0.45594000000E+02  0.51100000000E-03 0. -1.
    9900012    2    1    2    0    0  0.53122664571E+01  0.13195492603E+02  0.12179346491E+02  0.72461610041E+02  0.70000051777E+02 0.  0.
         12    1    1    2    0    0 -0.53122664571E+01 -0.13195492603E+02 -0.12179346491E+02  0.18726389959E+02  0.00000000000E+00 0. -1.
         11    1    3    3    0    0  0.42943965911E+01  0.38023364335E+01  0.47602111081E+01  0.74538053698E+01  0.51100000000E-03 0. -1.
        -11    1    3    3    0    0  0.13210906556E+02  0.78839660834E+01  0.33121394908E+02  0.36520018813E+02  0.51100000000E-03 0.  1.
         12    1    3    3    0    0 -0.12193036690E+02  0.15091900858E+01 -0.25702259524E+02  0.28487785858E+02  0.00000000000E+00 0. -1.
</event>
<event>
 7    1  0.3434711E-013  0.7246159E+02  0.7816164E-02  0.1226708E+00
        -11   -1    0    0    0    0  0.00000000000E+00  0.00000000000E+00  0.45593999997E+02  0.45594000000E+02  0.51100000000E-03 0.  1.
         11   -1    0    0    0    0 -0.00000000000E+00 -0.00000000000E+00 -0.45593999997E+02  0.45594000000E+02  0.51100000000E-03 0. -1.
    9900012    2    1    2    0    0 -0.13908542663E+00 -0.18430005406E+02 -0.33157419039E+01  0.72461585811E+02  0.70000020213E+02 0.  0.
         12    1    1    2    0    0  0.13908542663E+00  0.18430005406E+02  0.33157419039E+01  0.18726414189E+02  0.00000000000E+00 0. -1.
         11    1    3    3    0    0 -0.54512344587E+01  0.43773670509E+01 -0.14783739330E+02  0.16353478170E+02  0.51100000000E-03 0. -1.
        -11    1    3    3    0    0 -0.21558554693E+02 -0.16709466379E+02  0.40666683548E+01  0.27577442573E+02  0.51100000000E-03 0.  1.
        -12    1    3    3    0    0  0.26870703725E+02 -0.60979060777E+01  0.74013290708E+01  0.28530665068E+02  0.00000000000E+00 0.  1.
</event>
<event>
 7    1  0.3434711E-013  0.7246153E+02  0.7816164E-02  0.1226708E+00
        -11   -1    0    0    0    0  0.00000000000E+00  0.00000000000E+00  0.45593999997E+02  0.45594000000E+02  0.51100000000E-03 0. -1.
         11   -1    0    0    0    0 -0.00000000000E+00 -0.00000000000E+00 -0.45593999997E+02  0.45594000000E+02  0.51100000000E-03 0.  1.
    9900012    2    1    2    0    0 -0.77675757248E+01 -0.16791955555E+02  0.28940995505E+01  0.72461526327E+02  0.69999942725E+02 0.  0.
         12    1    1    2    0    0  0.77675757248E+01  0.16791955555E+02 -0.28940995505E+01  0.18726473673E+02  0.00000000000E+00 0. -1.
         11    1    3    3    0    0  0.15756656234E+02  0.18041598389E+01 -0.13173259674E+02  0.20617031287E+02  0.51100000000E-03 0. -1.
        -11    1    3    3    0    0 -0.30109462357E+01 -0.24138984987E+02  0.18353286330E+02  0.30472930820E+02  0.51100000000E-03 0.  1.
         12    1    3    3    0    0 -0.20513285723E+02  0.55428695927E+01 -0.22859271053E+01  0.21371564220E+02  0.00000000000E+00 0. -1.
</event>
<event>
 7    1  0.3434711E-013  0.7246159E+02  0.7816164E-02  0.1226708E+00
        -11   -1    0    0    0    0  0.00000000000E+00  0.00000000000E+00  0.45593999997E+02  0.45594000000E+02  0.51100000000E-03 0. -1.
         11   -1    0    0    0    0 -0.00000000000E+00 -0.00000000000E+00 -0.45593999997E+02  0.45594000000E+02  0.51100000000E-03 0.  1.
    9900012    2    1    2    0    0 -0.86744051583E+01  0.14446518953E+02 -0.81689157785E+01  0.72461590849E+02  0.70000026776E+02 0.  0.
         12    1    1    2    0    0  0.86744051583E+01 -0.14446518953E+02  0.81689157785E+01  0.18726409151E+02  0.00000000000E+00 0. -1.
         11    1    3    3    0    0 -0.10343981795E+02 -0.97008885867E+01 -0.12072900803E+02  0.18624181399E+02  0.51100000000E-03 0. -1.
        -11    1    3    3    0    0  0.13539004572E+02 -0.10006828579E+02 -0.27892717646E+01  0.17065207302E+02  0.51100000000E-03 0.  1.
         12    1    3    3    0    0 -0.11869427936E+02  0.34154236118E+02  0.66932567887E+01  0.36772202148E+02  0.00000000000E+00 0. -1.
</event>
<event>
 7    1  0.3434711E-013  0.7246160E+02  0.7816164E-02  0.1226708E+00
        -11   -1    0    0    0    0  0.00000000000E+00  0.00000000000E+00  0.45593999997E+02  0.45594000000E+02  0.51100000000E-03 0.  1.
         11   -1    0    0    0    0 -0.00000000000E+00 -0.00000000000E+00 -0.45593999997E+02  0.45594000000E+02  0.51100000000E-03 0. -1.
    9900012    2    1    2    0    0 -0.53707610618E+01  0.57377726241E+01  0.16997376254E+02  0.72461603961E+02  0.70000043858E+02 0.  0.
         12    1    1    2    0    0  0.53707610618E+01 -0.57377726241E+01 -0.16997376254E+02  0.18726396039E+02  0.00000000000E+00 0. -1.
         11    1    3    3    0    0 -0.37851612875E-02  0.21106082847E+02  0.17025988075E+02  0.27117356392E+02  0.51100000000E-03 0. -1.
        -11    1    3    3    0    0  0.87525301881E+01 -0.32841625570E+00  0.16651999730E+02  0.18814987037E+02  0.51100000000E-03 0.  1.
         12    1    3    3    0    0 -0.14119506089E+02 -0.15039893967E+02 -0.16680611551E+02  0.26529260533E+02  0.00000000000E+00 0. -1.
</event>
<event>
 7    1  0.3434711E-013  0.7246168E+02  0.7816164E-02  0.1226708E+00
        -11   -1    0    0    0    0  0.00000000000E+00  0.00000000000E+00  0.45593999997E+02  0.45594000000E+02  0.51100000000E-03 0. -1.
         11   -1    0    0    0    0 -0.00000000000E+00 -0.00000000000E+00 -0.45593999997E+02  0.45594000000E+02  0.51100000000E-03 0.  1.
    9900012    2    1    2    0    0  0.16371472550E+02 -0.47269354139E+01 -0.77657042214E+01  0.72461676444E+02  0.70000138280E+02 0.  0.
         12    1    1    2    0    0 -0.16371472550E+02  0.47269354139E+01  0.77657042214E+01  0.18726323556E+02  0.00000000000E+00 0. -1.
         11    1    3    3    0    0  0.14434536350E+02 -0.19567257645E+02 -0.31915909754E+01  0.24523859089E+02  0.51100000000E-03 0. -1.
        -11    1    3    3    0    0  0.39158107692E+01 -0.16104956864E+02  0.12911949240E+00  0.16574675914E+02  0.51100000000E-03 0.  1.
         12    1    3    3    0    0 -0.19788745696E+01  0.30945279095E+02 -0.47032327385E+01  0.31363141441E+02  0.00000000000E+00 0. -1.
</event>
<event>
 7    1  0.3434711E-013  0.7246160E+02  0.7816164E-02  0.1226708E+00
        -11   -1    0    0    0    0  0.00000000000E+00  0.00000000000E+00  0.45593999997E+02  0.45594000000E+02  0.51100000000E-03 0. -1.
         11   -1    0    0    0    0 -0.00000000000E+00 -0.00000000000E+00 -0.45593999997E+02  0.45594000000E+02  0.51100000000E-03 0.  1.
    9900012    2    1    2    0    0  0.58628273084E+01  0.14590998356E+02 -0.10168971735E+02  0.72461602503E+02  0.70000041958E+02 0.  0.
         12    1    1    2    0    0 -0.58628273084E+01 -0.14590998356E+02  0.10168971735E+02  0.18726397497E+02  0.00000000000E+00 0. -1.
         11    1    3    3    0    0  0.11821397605E+02 -0.58816828521E+01 -0.33842046683E+01  0.13630571375E+02  0.51100000000E-03 0. -1.
        -11    1    3    3    0    0  0.23653146710E+02  0.71216119694E+01 -0.89577919524E+01  0.26276048852E+02  0.51100000000E-03 0.  1.
         12    1    3    3    0    0 -0.29611717007E+02  0.13351069239E+02  0.21730248861E+01  0.32554982277E+02  0.00000000000E+00 0. -1.
</event>
<event>
 7    1  0.3434711E-013  0.7246157E+02  0.7816164E-02  0.1226708E+00
        -11   -1    0    0    0    0  0.00000000000E+00  0.00000000000E+00  0.45593999997E+02  0.45594000000E+02  0.51100000000E-03 0. -1.
         11   -1    0    0    0    0 -0.00000000000E+00 -0.00000000000E+00 -0.45593999997E+02  0.45594000000E+02  0.51100000000E-03 0.  1.
    9900012    2    1    2    0    0 -0.13578066266E+02 -0.62343266520E+01 -0.11289300209E+02  0.72461574513E+02  0.70000005496E+02 0.  0.
         12    1    1    2    0    0  0.13578066266E+02  0.62343266520E+01  0.11289300209E+02  0.18726425487E+02  0.00000000000E+00 0. -1.
         11    1    3    3    0    0 -0.96255944734E+01 -0.23944474405E+02 -0.41719290919E+01  0.26141823121E+02  0.51100000000E-03 0. -1.
        -11    1    3    3    0    0 -0.10258608009E+02 -0.11457310688E+02  0.94677956774E+00  0.15407965417E+02  0.51100000000E-03 0.  1.
        -12    1    3    3    0    0  0.63061362167E+01  0.29167458441E+02 -0.80641506846E+01  0.30911785975E+02  0.00000000000E+00 0.  1.
</event>
<event>
 7    1  0.3434711E-013  0.7246155E+02  0.7816164E-02  0.1226708E+00
        -11   -1    0    0    0    0  0.00000000000E+00  0.00000000000E+00  0.45593999997E+02  0.45594000000E+02  0.51100000000E-03 0.  1.
         11   -1    0    0    0    0 -0.00000000000E+00 -0.00000000000E+00 -0.45593999997E+02  0.45594000000E+02  0.51100000000E-03 0. -1.
    9900012    2    1    2    0    0 -0.12116288034E+02  0.16651972589E+01  0.14181069739E+02  0.72461546610E+02  0.69999969147E+02 0.  0.
         12    1    1    2    0    0  0.12116288034E+02 -0.16651972589E+01 -0.14181069739E+02  0.18726453390E+02  0.00000000000E+00 0. -1.
         11    1    3    3    0    0  0.99649227661E+00 -0.88133711973E+01 -0.12738816130E+02  0.15522433617E+02  0.51100000000E-03 0. -1.
        -11    1    3    3    0    0  0.60088640263E+01 -0.12994779898E+02  0.22026145452E+02  0.26270170064E+02  0.51100000000E-03 0.  1.
        -12    1    3    3    0    0 -0.19121644337E+02  0.23473348354E+02  0.48937404171E+01  0.30668942929E+02  0.00000000000E+00 0.  1.
</event>
<event>
 7    1  0.3434711E-013  0.7246153E+02  0.7816164E-02  0.1226708E+00
        -11   -1    0    0    0    0  0.00000000000E+00  0.00000000000E+00  0.45593999997E+02  0.45594000000E+02  0.51100000000E-03 0. -1.
         11   -1    0    0    0    0 -0.00000000000E+00 -0.00000000000E+00 -0.45593999997E+02  0.45594000000E+02  0.51100000000E-03 0.  1.
    9900012    2    1    2    0    0 -0.47625368922E+01  0.83210749270E+01 -0.16085978274E+02  0.72461528292E+02  0.69999945284E+02 0.  0.
         12    1    1    2    0    0  0.47625368922E+01 -0.83210749270E+01  0.16085978274E+02  0.18726471708E+02  0.00000000000E+00 0. -1.
         11    1    3    3    0    0  0.16401889307E+02 -0.14055028391E+02  0.36542933342E+01  0.21907068629E+02  0.51100000000E-03 0. -1.
        -11    1    3    3    0    0  0.93736292775E+01  0.96592709994E+01 -0.55420693181E+01  0.14556131858E+02  0.51100000000E-03 0.  1.
        -12    1    3    3    0    0 -0.30538055477E+02  0.12716832318E+02 -0.14198202290E+02  0.35998327805E+02  0.00000000000E+00 0.  1.
</event>
<event>
 7    1  0.3434711E-013  0.7246158E+02  0.7816164E-02  0.1226708E+00
        -11   -1    0    0    0    0  0.00000000000E+00  0.00000000000E+00  0.45593999997E+02  0.45594000000E+02  0.51100000000E-03 0. -1.
         11   -1    0    0    0    0 -0.00000000000E+00 -0.00000000000E+00 -0.45593999997E+02  0.45594000000E+02  0.51100000000E-03 0.  1.
    9900012    2    1    2    0    0  0.14053252629E+02 -0.12361807337E+02  0.60890680476E+00  0.72461575953E+02  0.70000007371E+02 0.  0.
         12    1    1    2    0    0 -0.14053252629E+02  0.12361807337E+02 -0.60890680476E+00  0.18726424047E+02  0.00000000000E+00 0. -1.
         11    1    3    3    0    0 -0.12590537628E+02  0.30936434878E+00  0.93556459673E+01  0.15689023417E+02  0.51100000000E-03 0. -1.
        -11    1    3    3    0    0 -0.17706991384E+01  0.14946668250E+02  0.31966257821E+01  0.15386899748E+02  0.51100000000E-03 0.  1.
         12    1    3    3    0    0  0.28414489396E+02 -0.27617839936E+02 -0.11943364945E+02  0.41385652787E+02  0.00000000000E+00 0. -1.
</event>
<event>
 7    1  0.3434711E-013  0.7246140E+02  0.7816164E-02  0.1226708E+00
        -11   -1    0    0    0    0  0.00000000000E+00  0.00000000000E+00  0.45593999997E+02  0.45594000000E+02  0.51100000000E-03 0. -1.
         11   -1    0    0    0    0 -0.00000000000E+00 -0.00000000000E+00 -0.45593999997E+02  0.45594000000E+02  0.51100000000E-03 0.  1.
    9900012    2    1    2    0    0 -0.93805473895E+01  0.12640212215E+02 -0.10144754672E+02  0.72461396423E+02  0.69999773500E+02 0.  0.
         12    1    1    2    0    0  0.93805473895E+01 -0.12640212215E+02  0.10144754672E+02  0.18726603577E+02  0.00000000000E+00 0. -1.
         11    1    3    3    0    0 -0.11227173584E+02 -0.46743835303E+01  0.13014842659E+02  0.17812507341E+02  0.51100000000E-03 0. -1.
        -11    1    3    3    0    0 -0.76420012243E+01  0.11321537163E+02  0.11726252740E+02  0.18002288467E+02  0.51100000000E-03 0.  1.
        -12    1    3    3    0    0  0.94886274192E+01  0.59930585821E+01 -0.34885850071E+02  0.36646600615E+02  0.00000000000E+00 0.  1.
</event>
<event>
 7    1  0.3434711E-013  0.7246156E+02  0.7816164E-02  0.1226708E+00
        -11   -1    0    0    0    0  0.00000000000E+00  0.00000000000E+00  0.45593999997E+02  0.45594000000E+02  0.51100000000E-03 0. -1.
         11   -1    0    0    0    0 -0.00000000000E+00 -0.00000000000E+00 -0.45593999997E+02  0.45594000000E+02  0.51100000000E-03 0.  1.
    9900012    2    1    2    0    0 -0.14619140547E+02 -0.11689143789E+02  0.56923539920E+00  0.72461564626E+02  0.69999992616E+02 0.  0.
         12    1    1    2    0    0  0.14619140547E+02  0.11689143789E+02 -0.56923539920E+00  0.18726435374E+02  0.00000000000E+00 0. -1.
         11    1    3    3    0    0 -0.51559382530E+01  0.17400585025E+02  0.12635749304E+02  0.22113937216E+02  0.51100000000E-03 0. -1.
        -11    1    3    3    0    0 -0.18001532402E+02 -0.53861291703E+01 -0.16208466022E+02  0.24814913405E+02  0.51100000000E-03 0.  1.
        -12    1    3    3    0    0  0.85383301078E+01 -0.23703599644E+02  0.41419521175E+01  0.25532714005E+02  0.00000000000E+00 0.  1.
</event>
<event>
 7    1  0.3434711E-013  0.7246158E+02  0.7816164E-02  0.1226708E+00
        -11   -1    0    0    0    0  0.00000000000E+00  0.00000000000E+00  0.45593999997E+02  0.45594000000E+02  0.51100000000E-03 0. -1.
         11   -1    0    0    0    0 -0.00000000000E+00 -0.00000000000E+00 -0.45593999997E+02  0.45594000000E+02  0.51100000000E-03 0.  1.
    9900012    2    1    2    0    0 -0.16012780753E+02  0.63310270631E+01 -0.73612319834E+01  0.72461580496E+02  0.70000013290E+02 0.  0.
         12    1    1    2    0    0  0.16012780753E+02 -0.63310270631E+01  0.73612319834E+01  0.18726419504E+02  0.00000000000E+00 0. -1.
         11    1    3    3    0    0 -0.23915225507E+02 -0.24505522280E+01  0.94987406513E+01  0.25848970801E+02  0.51100000000E-03 0. -1.
        -11    1    3    3    0    0  0.44452206207E+01  0.23865112338E+02 -0.19214734011E+02  0.30959805824E+02  0.51100000000E-03 0.  1.
         12    1    3    3    0    0  0.34572241332E+01 -0.15083533047E+02  0.23547613761E+01  0.15652803871E+02  0.00000000000E+00 0. -1.
</event>
<event>
 7    1  0.3434711E-013  0.7246157E+02  0.7816164E-02  0.1226708E+00
        -11   -1    0    0    0    0  0.00000000000E+00  0.00000000000E+00  0.45593999997E+02  0.45594000000E+02  0.51100000000E-03 0. -1.
         11   -1    0    0    0    0 -0.00000000000E+00 -0.00000000000E+00 -0.45593999997E+02  0.45594000000E+02  0.51100000000E-03 0.  1.
    9900012    2    1    2    0    0  0.12575166643E+02  0.12389896152E+02 -0.62477739297E+01  0.72461574238E+02  0.70000005137E+02 0.  0.
         12    1    1    2    0    0 -0.12575166643E+02 -0.12389896152E+02  0.62477739297E+01  0.18726425762E+02  0.00000000000E+00 0. -1.
         11    1    3    3    0    0  0.45555532830E+01  0.41480377509E+01  0.19729869496E+02  0.20669471050E+02  0.51100000000E-03 0. -1.
        -11    1    3    3    0    0  0.24271255018E+02  0.51448817281E+01 -0.54050090830E+01  0.25392474310E+02  0.51100000000E-03 0.  1.
        -12    1    3    3    0    0 -0.16251641658E+02  0.30969766728E+01 -0.20572634343E+02  0.26399628878E+02  0.00000000000E+00 0.  1.
</event>
<event>
 7    1  0.3434711E-013  0.7246159E+02  0.7816164E-02  0.1226708E+00
        -11   -1    0    0    0    0  0.00000000000E+00  0.00000000000E+00  0.45593999997E+02  0.45594000000E+02  0.51100000000E-03 0. -1.
         11   -1    0    0    0    0 -0.00000000000E+00 -0.00000000000E+00 -0.45593999997E+02  0.45594000000E+02  0.51100000000E-03 0.  1.
    9900012    2    1    2    0    0  0.85576472417E+01 -0.14963620214E+02 -0.73167797714E+01  0.72461587571E+02  0.70000022506E+02 0.  0.
         12    1    1    2    0    0 -0.85576472417E+01  0.14963620214E+02  0.73167797714E+01  0.18726412429E+02  0.00000000000E+00 0. -1.
         11    1    3    3    0    0  0.20430118632E+02 -0.17494831138E+02  0.21001950576E+02  0.34125368747E+02  0.51100000000E-03 0. -1.
        -11    1    3    3    0    0  0.14741365075E+01 -0.66186097699E+01 -0.13934284415E+01  0.69224790943E+01  0.51100000000E-03 0.  1.
        -12    1    3    3    0    0 -0.13346607898E+02  0.91498206937E+01 -0.26925301906E+02  0.31413739730E+02  0.00000000000E+00 0.  1.
</event>
<event>
 7    1  0.3434711E-013  0.7246176E+02  0.7816164E-02  0.1226708E+00
        -11   -1    0    0    0    0  0.00000000000E+00  0.00000000000E+00  0.45593999997E+02  0.45594000000E+02  0.51100000000E-03 0.  1.
         11   -1    0    0    0    0 -0.00000000000E+00 -0.00000000000E+00 -0.45593999997E+02  0.45594000000E+02  0.51100000000E-03 0. -1.
    9900012    2    1    2    0    0 -0.12622559396E+02 -0.13005971768E+02  0.47103985657E+01  0.72461757399E+02  0.70000243738E+02 0.  0.
         12    1    1    2    0    0  0.12622559396E+02  0.13005971768E+02 -0.47103985657E+01  0.18726242601E+02  0.00000000000E+00 0. -1.
         11    1    3    3    0    0 -0.10073155936E+02  0.19629881953E+02  0.87427266332E+01  0.23732593732E+02  0.51100000000E-03 0. -1.
        -11    1    3    3    0    0  0.23244050690E+01  0.36385996084E+01  0.89155364872E+01  0.99060111625E+01  0.51100000000E-03 0.  1.
        -12    1    3    3    0    0 -0.48738085289E+01 -0.36274453329E+02 -0.12947864555E+02  0.38823152505E+02  0.00000000000E+00 0.  1.
</event>
<event>
 7    1  0.3434711E-013  0.7246153E+02  0.7816164E-02  0.1226708E+00
        -11   -1    0    0    0    0  0.00000000000E+00  0.00000000000E+00  0.45593999997E+02  0.45594000000E+02  0.51100000000E-03 0. -1.
         11   -1    0    0    0    0 -0.00000000000E+00 -0.00000000000E+00 -0.45593999997E+02  0.45594000000E+02  0.51100000000E-03 0.  1.
    9900012    2    1    2    0    0 -0.95904985402E+01  0.30798797999E+01  0.15786620141E+02  0.72461529502E+02  0.69999946860E+02 0.  0.
         12    1    1    2    0    0  0.95904985402E+01 -0.30798797999E+01 -0.15786620141E+02  0.18726470498E+02  0.00000000000E+00 0. -1.
         11    1    3    3    0    0 -0.96168961575E+01  0.10932235142E+01  0.44994897349E+01  0.10673576603E+02  0.51100000000E-03 0. -1.
        -11    1    3    3    0    0 -0.22875541870E+02  0.26079506865E+01 -0.14565822271E+02  0.27244357238E+02  0.51100000000E-03 0.  1.
         12    1    3    3    0    0  0.22901939487E+02 -0.62129440075E+00  0.25852952678E+02  0.34543595661E+02  0.00000000000E+00 0. -1.
</event>
<event>
 7    1  0.3434711E-013  0.7246159E+02  0.7816164E-02  0.1226708E+00
        -11   -1    0    0    0    0  0.00000000000E+00  0.00000000000E+00  0.45593999997E+02  0.45594000000E+02  0.51100000000E-03 0.  1.
         11   -1    0    0    0    0 -0.00000000000E+00 -0.00000000000E+00 -0.45593999997E+02  0.45594000000E+02  0.51100000000E-03 0. -1.
    9900012    2    1    2    0    0  0.17930912161E+02 -0.23399711063E+00  0.53950148930E+01  0.72461586802E+02  0.70000021504E+02 0.  0.
         12    1    1    2    0    0 -0.17930912161E+02  0.23399711063E+00 -0.53950148930E+01  0.18726413198E+02  0.00000000000E+00 0. -1.
         11    1    3    3    0    0  0.92642632330E+01 -0.62077910922E+00  0.14633763958E+02  0.17330868062E+02  0.51100000000E-03 0. -1.
        -11    1    3    3    0    0 -0.28575300490E+01  0.15944309395E+02  0.16368236230E+02  0.23028365934E+02  0.51100000000E-03 0.  1.
         12    1    3    3    0    0  0.11524178977E+02 -0.15557527396E+02 -0.25606985295E+02  0.32102352806E+02  0.00000000000E+00 0. -1.
</event>
<event>
 7    1  0.3434711E-013  0.7246153E+02  0.7816164E-02  0.1226708E+00
        -11   -1    0    0    0    0  0.00000000000E+00  0.00000000000E+00  0.45593999997E+02  0.45594000000E+02  0.51100000000E-03 0. -1.
         11   -1    0    0    0    0 -0.00000000000E+00 -0.00000000000E+00 -0.45593999997E+02  0.45594000000E+02  0.51100000000E-03 0.  1.
    9900012    2    1    2    0    0 -0.83797635180E+00 -0.18568263904E+02 -0.22799407542E+01  0.72461527865E+02  0.69999944728E+02 0.  0.
         12    1    1    2    0    0  0.83797635180E+00  0.18568263904E+02  0.22799407542E+01  0.18726472135E+02  0.00000000000E+00 0. -1.
         11    1    3    3    0    0  0.24112717997E+02  0.61310463021E+01  0.10396018836E+02  0.26964608394E+02  0.51100000000E-03 0. -1.
        -11    1    3    3    0    0  0.44219786449E+01 -0.48963780579E+01 -0.70021144121E+01  0.96207078598E+01  0.51100000000E-03 0.  1.
        -12    1    3    3    0    0 -0.29372672994E+02 -0.19802932148E+02 -0.56738451781E+01  0.35876211611E+02  0.00000000000E+00 0.  1.
</event>
<event>
 7    1  0.3434711E-013  0.7246166E+02  0.7816164E-02  0.1226708E+00
        -11   -1    0    0    0    0  0.00000000000E+00  0.00000000000E+00  0.45593999997E+02  0.45594000000E+02  0.51100000000E-03 0. -1.
         11   -1    0    0    0    0 -0.00000000000E+00 -0.00000000000E+00 -0.45593999997E+02  0.45594000000E+02  0.51100000000E-03 0.  1.
    9900012    2    1    2    0    0  0.18454314125E+02 -0.95100766134E-01 -0.31788477993E+01  0.72461659532E+02  0.70000116249E+02 0.  0.
         12    1    1    2    0    0 -0.18454314125E+02  0.95100766134E-01  0.31788477993E+01  0.18726340468E+02  0.00000000000E+00 0. -1.
         11    1    3    3    0    0 -0.15638413175E+02 -0.61859341014E+01  0.39723269901E+01  0.17280194712E+02  0.51100000000E-03 0. -1.
        -11    1    3    3    0    0 -0.41327782226E+01  0.13249875075E+02  0.44879441761E+01  0.14587004097E+02  0.51100000000E-03 0.  1.
        -12    1    3    3    0    0  0.38225505522E+02 -0.71590417399E+01 -0.11639118966E+02  0.40594460723E+02  0.00000000000E+00 0.  1.
</event>
<event>
 7    1  0.3434711E-013  0.7246159E+02  0.7816164E-02  0.1226708E+00
        -11   -1    0    0    0    0  0.00000000000E+00  0.00000000000E+00  0.45593999997E+02  0.45594000000E+02  0.51100000000E-03 0.  1.
         11   -1    0    0    0    0 -0.00000000000E+00 -0.00000000000E+00 -0.45593999997E+02  0.45594000000E+02  0.51100000000E-03 0. -1.
    9900012    2    1    2    0    0 -0.75555787163E+01  0.12481262089E+02 -0.11739244316E+02  0.72461587365E+02  0.70000022237E+02 0.  0.
         12    1    1    2    0    0  0.75555787163E+01 -0.12481262089E+02  0.11739244316E+02  0.18726412635E+02  0.00000000000E+00 0. -1.
         11    1    3    3    0    0  0.27852652821E+01 -0.77120000685E+00  0.76107224384E+01  0.81409795748E+01  0.51100000000E-03 0. -1.
        -11    1    3    3    0    0  0.65699547743E+01 -0.92194861668E+01  0.15716466324E+02  0.19369319680E+02  0.51100000000E-03 0.  1.
         12    1    3    3    0    0 -0.16910798773E+02  0.22471948263E+02 -0.35066433078E+02  0.44951288109E+02  0.00000000000E+00 0. -1.
</event>
<event>
 7    1  0.3434711E-013  0.7246131E+02  0.7816164E-02  0.1226709E+00
        -11   -1    0    0    0    0  0.00000000000E+00  0.00000000000E+00  0.45593999997E+02  0.45594000000E+02  0.51100000000E-03 0. -1.
         11   -1    0    0    0    0 -0.00000000000E+00 -0.00000000000E+00 -0.45593999997E+02  0.45594000000E+02  0.51100000000E-03 0.  1.
    9900012    2    1    2    0    0  0.17266899684E+02 -0.61939120172E+01 -0.37654492721E+01  0.72461308381E+02  0.69999658808E+02 0.  0.
         12    1    1    2    0    0 -0.17266899684E+02  0.61939120172E+01  0.37654492721E+01  0.18726691619E+02  0.00000000000E+00 0. -1.
         11    1    3    3    0    0  0.69627005732E+01 -0.12220481255E+02  0.20153986726E+02  0.24576463183E+02  0.51100000000E-03 0. -1.
        -11    1    3    3    0    0 -0.11256005891E+01 -0.31341475443E+00  0.10760437725E+02  0.10823688179E+02  0.51100000000E-03 0.  1.
        -12    1    3    3    0    0  0.11429799700E+02  0.63399839918E+01 -0.34679873723E+02  0.37061157020E+02  0.00000000000E+00 0.  1.
</event>
<event>
 7    1  0.3434711E-013  0.7246155E+02  0.7816164E-02  0.1226708E+00
        -11   -1    0    0    0    0  0.00000000000E+00  0.00000000000E+00  0.45593999997E+02  0.45594000000E+02  0.51100000000E-03 0.  1.
         11   -1    0    0    0    0 -0.00000000000E+00 -0.00000000000E+00 -0.45593999997E+02  0.45594000000E+02  0.51100000000E-03 0. -1.
    9900012    2    1    2    0    0 -0.10146316752E+02 -0.15126976739E+02  0.43481975847E+01  0.72461548357E+02  0.69999971423E+02 0.  0.
         12    1    1    2    0    0  0.10146316752E+02  0.15126976739E+02 -0.43481975847E+01  0.18726451643E+02  0.00000000000E+00 0. -1.
         11    1    3    3    0    0 -0.39012333892E+01  0.15860454241E+02 -0.26227635128E+01  0.16542445992E+02  0.51100000000E-03 0. -1.
        -11    1    3    3    0    0  0.13149869005E+02 -0.82541671184E+01 -0.12771592310E+02  0.20103827996E+02  0.51100000000E-03 0.  1.
        -12    1    3    3    0    0 -0.19394952368E+02 -0.22733263861E+02  0.19742553408E+02  0.35815274370E+02  0.00000000000E+00 0.  1.
</event>
<event>
 7    1  0.3434711E-013  0.7246151E+02  0.7816164E-02  0.1226708E+00
        -11   -1    0    0    0    0  0.00000000000E+00  0.00000000000E+00  0.45593999997E+02  0.45594000000E+02  0.51100000000E-03 0.  1.
         11   -1    0    0    0    0 -0.00000000000E+00 -0.00000000000E+00 -0.45593999997E+02  0.45594000000E+02  0.51100000000E-03 0. -1.
    9900012    2    1    2    0    0 -0.10389542557E+02  0.12531449255E+01  0.15529602798E+02  0.72461507274E+02  0.69999917904E+02 0.  0.
         12    1    1    2    0    0  0.10389542557E+02 -0.12531449255E+01 -0.15529602798E+02  0.18726492726E+02  0.00000000000E+00 0. -1.
         11    1    3    3    0    0 -0.52648243166E+01  0.46816278988E+00 -0.67889913447E+01  0.86039499779E+01  0.51100000000E-03 0. -1.
        -11    1    3    3    0    0 -0.31054777538E+02  0.53758763511E+01  0.39779675812E+01  0.31766703965E+02  0.51100000000E-03 0.  1.
        -12    1    3    3    0    0  0.25930059297E+02 -0.45908942155E+01  0.18340626562E+02  0.32090853331E+02  0.00000000000E+00 0.  1.
</event>
<event>
 7    1  0.3434711E-013  0.7246158E+02  0.7816164E-02  0.1226708E+00
        -11   -1    0    0    0    0  0.00000000000E+00  0.00000000000E+00  0.45593999997E+02  0.45594000000E+02  0.51100000000E-03 0. -1.
         11   -1    0    0    0    0 -0.00000000000E+00 -0.00000000000E+00 -0.45593999997E+02  0.45594000000E+02  0.51100000000E-03 0.  1.
    9900012    2    1    2    0    0 -0.11647998436E+02  0.14591132341E+02 -0.14497708801E+01  0.72461578928E+02  0.70000011247E+02 0.  0.
         12    1    1    2    0    0  0.11647998436E+02 -0.14591132341E+02  0.14497708801E+01  0.18726421072E+02  0.00000000000E+00 0. -1.
         11    1    3    3    0    0 -0.11135826377E+02 -0.87973985864E+01  0.60014884279E+01  0.15408397535E+02  0.51100000000E-03 0. -1.
        -11    1    3    3    0    0  0.40014268829E+01  0.14291577623E+02  0.21640081088E+02  0.26240307121E+02  0.51100000000E-03 0.  1.
        -12    1    3    3    0    0 -0.45135989419E+01  0.90969533039E+01 -0.29091340396E+02  0.30812874272E+02  0.00000000000E+00 0.  1.
</event>
<event>
 7    1  0.3434711E-013  0.7246155E+02  0.7816164E-02  0.1226708E+00
        -11   -1    0    0    0    0  0.00000000000E+00  0.00000000000E+00  0.45593999997E+02  0.45594000000E+02  0.51100000000E-03 0.  1.
         11   -1    0    0    0    0 -0.00000000000E+00 -0.00000000000E+00 -0.45593999997E+02  0.45594000000E+02  0.51100000000E-03 0. -1.
    9900012    2    1    2    0    0  0.23378338609E+01 -0.73434240013E+01  0.17067175536E+02  0.72461552819E+02  0.69999977235E+02 0.  0.
         12    1    1    2    0    0 -0.23378338609E+01  0.73434240013E+01 -0.17067175536E+02  0.18726447181E+02  0.00000000000E+00 0. -1.
         11    1    3    3    0    0 -0.15999324251E+02  0.53293419934E+01  0.73892138604E+01  0.18411429719E+02  0.51100000000E-03 0. -1.
        -11    1    3    3    0    0  0.10895656168E+02  0.18088250694E+02  0.59712771170E+00  0.21124788715E+02  0.51100000000E-03 0.  1.
        -12    1    3    3    0    0  0.74415019439E+01 -0.30761016688E+02  0.90808339644E+01  0.32925334385E+02  0.00000000000E+00 0.  1.
</event>
<event>
 7    1  0.3434711E-013  0.7246157E+02  0.7816164E-02  0.1226708E+00
        -11   -1    0    0    0    0  0.00000000000E+00  0.00000000000E+00  0.45593999997E+02  0.45594000000E+02  0.51100000000E-03 0.  1.
         11   -1    0    0    0    0 -0.00000000000E+00 -0.00000000000E+00 -0.45593999997E+02  0.45594000000E+02  0.51100000000E-03 0. -1.
    9900012    2    1    2    0    0 -0.10645564532E+02 -0.17454308922E+01  0.15307013683E+02  0.72461568383E+02  0.69999997510E+02 0.  0.
         12    1    1    2    0    0  0.10645564532E+02  0.17454308922E+01 -0.15307013683E+02  0.18726431617E+02  0.00000000000E+00 0. -1.
         11    1    3    3    0    0 -0.10221344209E+02 -0.40067513871E+01 -0.21233650186E+02  0.23903929271E+02  0.51100000000E-03 0. -1.
        -11    1    3    3    0    0 -0.49361349245E+01  0.12712979845E+01 -0.47750729887E+01  0.69844791407E+01  0.51100000000E-03 0.  1.
        -12    1    3    3    0    0  0.45119146007E+01  0.99002251049E+00  0.41315736858E+02  0.41573159972E+02  0.00000000000E+00 0.  1.
</event>
<event>
 7    1  0.3434711E-013  0.7246155E+02  0.7816164E-02  0.1226708E+00
        -11   -1    0    0    0    0  0.00000000000E+00  0.00000000000E+00  0.45593999997E+02  0.45594000000E+02  0.51100000000E-03 0. -1.
         11   -1    0    0    0    0 -0.00000000000E+00 -0.00000000000E+00 -0.45593999997E+02  0.45594000000E+02  0.51100000000E-03 0.  1.
    9900012    2    1    2    0    0 -0.18353365886E+02  0.29158877830E+01 -0.23090077735E+01  0.72461549247E+02  0.69999972581E+02 0.  0.
         12    1    1    2    0    0  0.18353365886E+02 -0.29158877830E+01  0.23090077735E+01  0.18726450753E+02  0.00000000000E+00 0. -1.
         11    1    3    3    0    0 -0.22248175018E+02  0.16506075125E+02  0.14843747665E+02  0.31428787005E+02  0.51100000000E-03 0. -1.
        -11    1    3    3    0    0 -0.13061038851E+02  0.21716453625E+01 -0.20663695981E+01  0.13400621740E+02  0.51100000000E-03 0.  1.
        -12    1    3    3    0    0  0.16955847982E+02 -0.15761832704E+02 -0.15086385840E+02  0.27632140501E+02  0.00000000000E+00 0.  1.
</event>
<event>
 7    1  0.3434711E-013  0.7246164E+02  0.7816164E-02  0.1226708E+00
        -11   -1    0    0    0    0  0.00000000000E+00  0.00000000000E+00  0.45593999997E+02  0.45594000000E+02  0.51100000000E-03 0.  1.
         11   -1    0    0    0    0 -0.00000000000E+00 -0.00000000000E+00 -0.45593999997E+02  0.45594000000E+02  0.51100000000E-03 0. -1.
    9900012    2    1    2    0    0  0.34555088539E+01 -0.16024087451E+02  0.90534404594E+01  0.72461636119E+02  0.70000085748E+02 0.  0.
         12    1    1    2    0    0 -0.34555088539E+01  0.16024087451E+02 -0.90534404594E+01  0.18726363881E+02  0.00000000000E+00 0. -1.
         11    1    3    3    0    0 -0.26544555721E+02 -0.93723790974E+01 -0.15860930010E+02  0.32311360687E+02  0.51100000000E-03 0. -1.
        -11    1    3    3    0    0  0.59160707962E+00 -0.22445554178E+00 -0.45806722893E+00  0.78115624188E+00  0.51100000000E-03 0.  1.
        -12    1    3    3    0    0  0.29408457496E+02 -0.64272528116E+01  0.25372437699E+02  0.39369119190E+02  0.00000000000E+00 0.  1.
</event>
<event>
 7    1  0.3434711E-013  0.7246155E+02  0.7816164E-02  0.1226708E+00
        -11   -1    0    0    0    0  0.00000000000E+00  0.00000000000E+00  0.45593999997E+02  0.45594000000E+02  0.51100000000E-03 0.  1.
         11   -1    0    0    0    0 -0.00000000000E+00 -0.00000000000E+00 -0.45593999997E+02  0.45594000000E+02  0.51100000000E-03 0. -1.
    9900012    2    1    2    0    0  0.16028406463E+02 -0.84670820350E+01  0.46987746111E+01  0.72461554134E+02  0.69999978948E+02 0.  0.
         12    1    1    2    0    0 -0.16028406463E+02  0.84670820350E+01 -0.46987746111E+01  0.18726445866E+02  0.00000000000E+00 0. -1.
         11    1    3    3    0    0 -0.92867355805E-01 -0.42906468689E+01  0.15001294665E+02  0.15603112407E+02  0.51100000000E-03 0. -1.
        -11    1    3    3    0    0  0.20760258270E+02 -0.25937001502E+02 -0.26422253655E+01  0.33327131972E+02  0.51100000000E-03 0.  1.
         12    1    3    3    0    0 -0.46389844506E+01  0.21760566336E+02 -0.76602946888E+01  0.23531309754E+02  0.00000000000E+00 0. -1.
</event>
<event>
 7    1  0.3434711E-013  0.7246160E+02  0.7816164E-02  0.1226708E+00
        -11   -1    0    0    0    0  0.00000000000E+00  0.00000000000E+00  0.45593999997E+02  0.45594000000E+02  0.51100000000E-03 0.  1.
         11   -1    0    0    0    0 -0.00000000000E+00 -0.00000000000E+00 -0.45593999997E+02  0.45594000000E+02  0.51100000000E-03 0. -1.
    9900012    2    1    2    0    0  0.30329083018E+01  0.17644729937E+02 -0.54902801922E+01  0.72461596077E+02  0.70000033587E+02 0.  0.
         12    1    1    2    0    0 -0.30329083018E+01 -0.17644729937E+02  0.54902801922E+01  0.18726403923E+02  0.00000000000E+00 0. -1.
         11    1    3    3    0    0 -0.54021336064E+01  0.16643135413E+02  0.50770292169E+01  0.18219583689E+02  0.51100000000E-03 0. -1.
        -11    1    3    3    0    0  0.46626767281E+01 -0.21001903600E+02  0.10148346150E+02  0.23786749230E+02  0.51100000000E-03 0.  1.
         12    1    3    3    0    0  0.37723651802E+01  0.22003498124E+02 -0.20715655559E+02  0.30455263158E+02  0.00000000000E+00 0. -1.
</event>
<event>
 7    1  0.3434711E-013  0.7246156E+02  0.7816164E-02  0.1226708E+00
        -11   -1    0    0    0    0  0.00000000000E+00  0.00000000000E+00  0.45593999997E+02  0.45594000000E+02  0.51100000000E-03 0.  1.
         11   -1    0    0    0    0 -0.00000000000E+00 -0.00000000000E+00 -0.45593999997E+02  0.45594000000E+02  0.51100000000E-03 0. -1.
    9900012    2    1    2    0    0  0.17041164386E+02  0.61366449108E+01  0.47560149964E+01  0.72461564861E+02  0.69999992921E+02 0.  0.
         12    1    1    2    0    0 -0.17041164386E+02 -0.61366449108E+01 -0.47560149964E+01  0.18726435139E+02  0.00000000000E+00 0. -1.
         11    1    3    3    0    0  0.15441210288E+02  0.39319319643E-01 -0.13442282759E+02  0.20472603333E+02  0.51100000000E-03 0. -1.
        -11    1    3    3    0    0  0.17014623868E+02  0.19150118125E+02  0.18809786477E+02  0.31781008749E+02  0.51100000000E-03 0.  1.
         12    1    3    3    0    0 -0.15414669770E+02 -0.13052792534E+02 -0.61148872119E+00  0.20207952779E+02  0.00000000000E+00 0. -1.
</event>
<event>
 7    1  0.3434711E-013  0.7246160E+02  0.7816164E-02  0.1226708E+00
        -11   -1    0    0    0    0  0.00000000000E+00  0.00000000000E+00  0.45593999997E+02  0.45594000000E+02  0.51100000000E-03 0.  1.
         11   -1    0    0    0    0 -0.00000000000E+00 -0.00000000000E+00 -0.45593999997E+02  0.45594000000E+02  0.51100000000E-03 0. -1.
    9900012    2    1    2    0    0  0.11877518334E+02  0.64302323739E+01  0.12971306782E+02  0.72461598056E+02  0.70000036165E+02 0.  0.
         12    1    1    2    0    0 -0.11877518334E+02 -0.64302323739E+01 -0.12971306782E+02  0.18726401944E+02  0.00000000000E+00 0. -1.
         11    1    3    3    0    0 -0.77366178649E+01  0.61720577752E+01 -0.25540689775E+02  0.27391173535E+02  0.51100000000E-03 0. -1.
        -11    1    3    3    0    0 -0.63900427731E+00  0.28949688962E+01  0.42275763461E+01  0.51634846180E+01  0.51100000000E-03 0.  1.
        -12    1    3    3    0    0  0.20253140476E+02 -0.26367942975E+01  0.34284420210E+02  0.39906939903E+02  0.00000000000E+00 0.  1.
</event>
<event>
 7    1  0.3434711E-013  0.7246161E+02  0.7816164E-02  0.1226708E+00
        -11   -1    0    0    0    0  0.00000000000E+00  0.00000000000E+00  0.45593999997E+02  0.45594000000E+02  0.51100000000E-03 0. -1.
         11   -1    0    0    0    0 -0.00000000000E+00 -0.00000000000E+00 -0.45593999997E+02  0.45594000000E+02  0.51100000000E-03 0.  1.
    9900012    2    1    2    0    0  0.77324466279E+01 -0.31072924681E+01 -0.16769958254E+02  0.72461614946E+02  0.70000058167E+02 0.  0.
         12    1    1    2    0    0 -0.77324466279E+01  0.31072924681E+01  0.16769958254E+02  0.18726385054E+02  0.00000000000E+00 0. -1.
         11    1    3    3    0    0  0.65438651494E+01 -0.19112468115E+02  0.90328166416E+01  0.22129174980E+02  0.51100000000E-03 0. -1.
        -11    1    3    3    0    0  0.34838106966E+01 -0.10504300271E+02  0.26463704454E+01  0.11378951531E+02  0.51100000000E-03 0.  1.
        -12    1    3    3    0    0 -0.22952292181E+01  0.26509475918E+02 -0.28449145341E+02  0.38953488435E+02  0.00000000000E+00 0.  1.
</event>
<event>
 7    1  0.3434711E-013  0.7246161E+02  0.7816164E-02  0.1226708E+00
        -11   -1    0    0    0    0  0.00000000000E+00  0.00000000000E+00  0.45593999997E+02  0.45594000000E+02  0.51100000000E-03 0. -1.
         11   -1    0    0    0    0 -0.00000000000E+00 -0.00000000000E+00 -0.45593999997E+02  0.45594000000E+02  0.51100000000E-03 0.  1.
    9900012    2    1    2    0    0  0.12157692482E+01 -0.14921416566E+02 -0.11249477410E+02  0.72461614626E+02  0.70000057750E+02 0.  0.
         12    1    1    2    0    0 -0.12157692482E+01  0.14921416566E+02  0.11249477410E+02  0.18726385374E+02  0.00000000000E+00 0. -1.
         11    1    3    3    0    0 -0.16045313508E+02 -0.26123169084E+02 -0.72445460017E+01  0.31501674489E+02  0.51100000000E-03 0. -1.
        -11    1    3    3    0    0 -0.86155080306E+01 -0.27527833658E+01 -0.69597272448E+01  0.11412387939E+02  0.51100000000E-03 0.  1.
        -12    1    3    3    0    0  0.25876590786E+02  0.13954535884E+02  0.29547958369E+01  0.29547552198E+02  0.00000000000E+00 0.  1.
</event>
<event>
 7    1  0.3434711E-013  0.7246161E+02  0.7816164E-02  0.1226708E+00
        -11   -1    0    0    0    0  0.00000000000E+00  0.00000000000E+00  0.45593999997E+02  0.45594000000E+02  0.51100000000E-03 0.  1.
         11   -1    0    0    0    0 -0.00000000000E+00 -0.00000000000E+00 -0.45593999997E+02  0.45594000000E+02  0.51100000000E-03 0. -1.
    9900012    2    1    2    0    0 -0.25049421168E+01 -0.91448149723E+01  0.16148543344E+02  0.72461606113E+02  0.70000046660E+02 0.  0.
         12    1    1    2    0    0  0.25049421168E+01  0.91448149723E+01 -0.16148543344E+02  0.18726393887E+02  0.00000000000E+00 0. -1.
         11    1    3    3    0    0  0.16253896201E+02 -0.94852582386E+01 -0.15235712121E+02  0.24213347346E+02  0.51100000000E-03 0. -1.
        -11    1    3    3    0    0 -0.50917230075E+01  0.13089531842E+02  0.31592261115E+01  0.14395909034E+02  0.51100000000E-03 0.  1.
        -12    1    3    3    0    0 -0.13667115311E+02 -0.12749088575E+02  0.28225029354E+02  0.33852349733E+02  0.00000000000E+00 0.  1.
</event>
<event>
 7    1  0.3434711E-013  0.7246156E+02  0.7816164E-02  0.1226708E+00
        -11   -1    0    0    0    0  0.00000000000E+00  0.00000000000E+00  0.45593999997E+02  0.45594000000E+02  0.51100000000E-03 0. -1.
         11   -1    0    0    0    0 -0.00000000000E+00 -0.00000000000E+00 -0.45593999997E+02  0.45594000000E+02  0.51100000000E-03 0.  1.
    9900012    2    1    2    0    0 -0.18708236686E+02 -0.55544925862E+00 -0.61053814307E+00  0.72461564124E+02  0.69999991962E+02 0.  0.
         12    1    1    2    0    0  0.18708236686E+02  0.55544925862E+00  0.61053814307E+00  0.18726435876E+02  0.00000000000E+00 0. -1.
         11    1    3    3    0    0  0.19921083658E+01  0.12309138773E+02  0.20825910737E+01  0.12642016410E+02  0.51100000000E-03 0. -1.
        -11    1    3    3    0    0 -0.29632445687E+02  0.12265584610E+02  0.40082536083E+01  0.32320156257E+02  0.51100000000E-03 0.  1.
        -12    1    3    3    0    0  0.89321006344E+01 -0.25130172642E+02 -0.67013828251E+01  0.27499391457E+02  0.00000000000E+00 0.  1.
</event>
<event>
 7    1  0.3434711E-013  0.7246169E+02  0.7816164E-02  0.1226708E+00
        -11   -1    0    0    0    0  0.00000000000E+00  0.00000000000E+00  0.45593999997E+02  0.45594000000E+02  0.51100000000E-03 0.  1.
         11   -1    0    0    0    0 -0.00000000000E+00 -0.00000000000E+00 -0.45593999997E+02  0.45594000000E+02  0.51100000000E-03 0. -1.
    9900012    2    1    2    0    0 -0.17909631874E+02 -0.30950209549E+01 -0.45100634565E+01  0.72461688538E+02  0.70000154034E+02 0.  0.
         12    1    1    2    0    0  0.17909631874E+02  0.30950209549E+01  0.45100634565E+01  0.18726311462E+02  0.00000000000E+00 0. -1.
         11    1    3    3    0    0 -0.32896096423E+02 -0.16293962277E+02 -0.99975882139E+01  0.38047314451E+02  0.51100000000E-03 0. -1.
        -11    1    3    3    0    0  0.50730026281E+01 -0.80645525761E+01 -0.21017379494E+01  0.97565191839E+01  0.51100000000E-03 0.  1.
        -12    1    3    3    0    0  0.99134619204E+01  0.21263493898E+02  0.75892627069E+01  0.24657854903E+02  0.00000000000E+00 0.  1.
</event>
<event>
 7    1  0.3434711E-013  0.7246179E+02  0.7816164E-02  0.1226707E+00
        -11   -1    0    0    0    0  0.00000000000E+00  0.00000000000E+00  0.45593999997E+02  0.45594000000E+02  0.51100000000E-03 0. -1.
         11   -1    0    0    0    0 -0.00000000000E+00 -0.00000000000E+00 -0.45593999997E+02  0.45594000000E+02  0.51100000000E-03 0.  1.
    9900012    2    1    2    0    0  0.53332582029E+01 -0.13982475728E+02 -0.11256887360E+02  0.72461794202E+02  0.70000291681E+02 0.  0.
         12    1    1    2    0    0 -0.53332582029E+01  0.13982475728E+02  0.11256887360E+02  0.18726205798E+02  0.00000000000E+00 0. -1.
         11    1    3    3    0    0  0.48266000430E+01 -0.67436164126E+01 -0.12828314268E+02  0.15275407605E+02  0.51100000000E-03 0. -1.
        -11    1    3    3    0    0  0.23841907554E+02  0.12165469722E+02 -0.45061034107E+00  0.26770100099E+02  0.51100000000E-03 0.  1.
         12    1    3    3    0    0 -0.23335249394E+02 -0.19404329038E+02  0.20220372485E+01  0.30416286498E+02  0.00000000000E+00 0. -1.
</event>
<event>
 7    1  0.3434711E-013  0.7246155E+02  0.7816164E-02  0.1226708E+00
        -11   -1    0    0    0    0  0.00000000000E+00  0.00000000000E+00  0.45593999997E+02  0.45594000000E+02  0.51100000000E-03 0.  1.
         11   -1    0    0    0    0 -0.00000000000E+00 -0.00000000000E+00 -0.45593999997E+02  0.45594000000E+02  0.51100000000E-03 0. -1.
    9900012    2    1    2    0    0 -0.56838197287E+01  0.27882589831E+01  0.17623843055E+02  0.72461547082E+02  0.69999969761E+02 0.  0.
         12    1    1    2    0    0  0.56838197287E+01 -0.27882589831E+01 -0.17623843055E+02  0.18726452918E+02  0.00000000000E+00 0. -1.
         11    1    3    3    0    0 -0.19388502355E+02 -0.24554737596E+01  0.61659713696E+01  0.20492988511E+02  0.51100000000E-03 0. -1.
        -11    1    3    3    0    0 -0.11207980803E+02 -0.77703521946E+01  0.18508680471E+02  0.22990616780E+02  0.51100000000E-03 0.  1.
         12    1    3    3    0    0  0.24912663429E+02  0.13014084937E+02 -0.70508087848E+01  0.28977941790E+02  0.00000000000E+00 0. -1.
</event>
<event>
 7    1  0.3434711E-013  0.7246163E+02  0.7816164E-02  0.1226708E+00
        -11   -1    0    0    0    0  0.00000000000E+00  0.00000000000E+00  0.45593999997E+02  0.45594000000E+02  0.51100000000E-03 0.  1.
         11   -1    0    0    0    0 -0.00000000000E+00 -0.00000000000E+00 -0.45593999997E+02  0.45594000000E+02  0.51100000000E-03 0. -1.
    9900012    2    1    2    0    0  0.25916692058E+01  0.13996736019E+01  0.18493272611E+02  0.72461629094E+02  0.70000076597E+02 0.  0.
         12    1    1    2    0    0 -0.25916692058E+01 -0.13996736019E+01 -0.18493272611E+02  0.18726370906E+02  0.00000000000E+00 0. -1.
         11    1    3    3    0    0  0.12794834441E+01  0.34098807009E+02  0.71542622714E+01  0.34864726964E+02  0.51100000000E-03 0. -1.
        -11    1    3    3    0    0  0.35831628348E+00  0.14054476012E+01 -0.41904741971E+00  0.15097266374E+01  0.51100000000E-03 0.  1.
        -12    1    3    3    0    0  0.95386947822E+00 -0.34104581009E+02  0.11758057759E+02  0.36087175492E+02  0.00000000000E+00 0.  1.
</event>
<event>
 7    1  0.3434711E-013  0.7246158E+02  0.7816164E-02  0.1226708E+00
        -11   -1    0    0    0    0  0.00000000000E+00  0.00000000000E+00  0.45593999997E+02  0.45594000000E+02  0.51100000000E-03 0.  1.
         11   -1    0    0    0    0 -0.00000000000E+00 -0.00000000000E+00 -0.45593999997E+02  0.45594000000E+02  0.51100000000E-03 0. -1.
    9900012    2    1    2    0    0 -0.10384289705E+02  0.15012039939E+02 -0.41813947568E+01  0.72461578080E+02  0.70000010142E+02 0.  0.
         12    1    1    2    0    0  0.10384289705E+02 -0.15012039939E+02  0.41813947568E+01  0.18726421920E+02  0.00000000000E+00 0. -1.
         11    1    3    3    0    0 -0.14981999696E+02  0.21569819363E+01  0.91248010501E+01  0.17674130260E+02  0.51100000000E-03 0. -1.
        -11    1    3    3    0    0 -0.61567855321E+01  0.27948288167E+02  0.46370269475E+01  0.28991633944E+02  0.51100000000E-03 0.  1.
         12    1    3    3    0    0  0.10754495523E+02 -0.15093230164E+02 -0.17943222754E+02  0.25795813877E+02  0.00000000000E+00 0. -1.
</event>
<event>
 7    1  0.3434711E-013  0.7246153E+02  0.7816164E-02  0.1226708E+00
        -11   -1    0    0    0    0  0.00000000000E+00  0.00000000000E+00  0.45593999997E+02  0.45594000000E+02  0.51100000000E-03 0. -1.
         11   -1    0    0    0    0 -0.00000000000E+00 -0.00000000000E+00 -0.45593999997E+02  0.45594000000E+02  0.51100000000E-03 0.  1.
    9900012    2    1    2    0    0 -0.89552828503E+01  0.66987079993E+00 -0.16432736745E+02  0.72461530639E+02  0.69999948341E+02 0.  0.
         12    1    1    2    0    0  0.89552828503E+01 -0.66987079993E+00  0.16432736745E+02  0.18726469361E+02  0.00000000000E+00 0. -1.
         11    1    3    3    0    0  0.24225938733E+02  0.10420263245E+02 -0.10868201265E+02  0.28523600624E+02  0.51100000000E-03 0. -1.
        -11    1    3    3    0    0  0.26665789104E+01  0.39974820255E+01  0.12003201660E+01  0.49529056513E+01  0.51100000000E-03 0.  1.
        -12    1    3    3    0    0 -0.35847800493E+02 -0.13747874471E+02 -0.67648556460E+01  0.38985024363E+02  0.00000000000E+00 0.  1.
</event>
<event>
 7    1  0.3434711E-013  0.7246159E+02  0.7816164E-02  0.1226708E+00
        -11   -1    0    0    0    0  0.00000000000E+00  0.00000000000E+00  0.45593999997E+02  0.45594000000E+02  0.51100000000E-03 0. -1.
         11   -1    0    0    0    0 -0.00000000000E+00 -0.00000000000E+00 -0.45593999997E+02  0.45594000000E+02  0.51100000000E-03 0.  1.
    9900012    2    1    2    0    0 -0.63040538219E+01 -0.34036943959E+01 -0.17301798184E+02  0.72461589491E+02  0.70000025008E+02 0.  0.
         12    1    1    2    0    0  0.63040538219E+01  0.34036943959E+01  0.17301798184E+02  0.18726410509E+02  0.00000000000E+00 0. -1.
         11    1    3    3    0    0  0.33655263094E+01  0.52472119089E+01 -0.29099560307E+01  0.68795235676E+01  0.51100000000E-03 0. -1.
        -11    1    3    3    0    0  0.21517626037E+02  0.12891544227E+02 -0.11421557213E+02  0.27561787175E+02  0.51100000000E-03 0.  1.
         12    1    3    3    0    0 -0.31187206169E+02 -0.21542450532E+02 -0.29702849405E+01  0.38020278749E+02  0.00000000000E+00 0. -1.
</event>
<event>
 7    1  0.4270516E-013  0.7246164E+02  0.7816164E-02  0.1226708E+00
        -11   -1    0    0    0    0  0.00000000000E+00  0.00000000000E+00  0.45593999997E+02  0.45594000000E+02  0.51100000000E-03 0. -1.
         11   -1    0    0    0    0 -0.00000000000E+00 -0.00000000000E+00 -0.45593999997E+02  0.45594000000E+02  0.51100000000E-03 0.  1.
    9900012    2    1    2    0    0 -0.90300992309E+01 -0.13150966125E+01 -0.16352503021E+02  0.72461640870E+02  0.70000091937E+02 0.  0.
         12    1    1    2    0    0  0.90300992309E+01  0.13150966125E+01  0.16352503021E+02  0.18726359130E+02  0.00000000000E+00 0. -1.
         11    1    3    3    0    0 -0.17677972332E+02  0.10311029934E+02  0.96227547245E+01  0.22614717615E+02  0.51100000000E-03 0. -1.
        -11    1    3    3    0    0  0.76466167131E+01  0.14501621600E+02 -0.10301089712E+02  0.19361823925E+02  0.51100000000E-03 0.  1.
         12    1    3    3    0    0  0.10012563880E+01 -0.26127748147E+02 -0.15674168034E+02  0.30485099329E+02  0.00000000000E+00 0. -1.
</event>
<event>
 7    1  0.3434711E-013  0.7246193E+02  0.7816164E-02  0.1226707E+00
        -11   -1    0    0    0    0  0.00000000000E+00  0.00000000000E+00  0.45593999997E+02  0.45594000000E+02  0.51100000000E-03 0. -1.
         11   -1    0    0    0    0 -0.00000000000E+00 -0.00000000000E+00 -0.45593999997E+02  0.45594000000E+02  0.51100000000E-03 0.  1.
    9900012    2    1    2    0    0  0.11492173170E+02 -0.20767870634E+01 -0.14638399847E+02  0.72461926232E+02  0.70000463674E+02 0.  0.
         12    1    1    2    0    0 -0.11492173170E+02  0.20767870634E+01  0.14638399847E+02  0.18726073768E+02  0.00000000000E+00 0. -1.
         11    1    3    3    0    0 -0.11834143929E+02  0.17796692083E+02  0.12508434245E+02  0.24763483987E+02  0.51100000000E-03 0. -1.
        -11    1    3    3    0    0 -0.26386190590E+01  0.27545080173E+01  0.48363946203E-01  0.38147036960E+01  0.51100000000E-03 0.  1.
        -12    1    3    3    0    0  0.25964936158E+02 -0.22627987164E+02 -0.27195198038E+02  0.43883738550E+02  0.00000000000E+00 0.  1.
</event>
<event>
 7    1  0.3434711E-013  0.7246169E+02  0.7816164E-02  0.1226708E+00
        -11   -1    0    0    0    0  0.00000000000E+00  0.00000000000E+00  0.45593999997E+02  0.45594000000E+02  0.51100000000E-03 0. -1.
         11   -1    0    0    0    0 -0.00000000000E+00 -0.00000000000E+00 -0.45593999997E+02  0.45594000000E+02  0.51100000000E-03 0.  1.
    9900012    2    1    2    0    0  0.10984116300E+02 -0.51140696432E+01 -0.14278311622E+02  0.72461689579E+02  0.70000155390E+02 0.  0.
         12    1    1    2    0    0 -0.10984116300E+02  0.51140696432E+01  0.14278311622E+02  0.18726310421E+02  0.00000000000E+00 0. -1.
         11    1    3    3    0    0 -0.25042521972E+01 -0.25451338624E+01  0.89093987868E+00  0.36800488547E+01  0.51100000000E-03 0. -1.
        -11    1    3    3    0    0 -0.23041367182E+02 -0.35074098408E+00  0.92008569836E+01  0.24812968189E+02  0.51100000000E-03 0.  1.
         12    1    3    3    0    0  0.36529735679E+02 -0.22181947968E+01 -0.24370108485E+02  0.43968672535E+02  0.00000000000E+00 0. -1.
</event>
<event>
 7    1  0.3434711E-013  0.7246157E+02  0.7816164E-02  0.1226708E+00
        -11   -1    0    0    0    0  0.00000000000E+00  0.00000000000E+00  0.45593999997E+02  0.45594000000E+02  0.51100000000E-03 0.  1.
         11   -1    0    0    0    0 -0.00000000000E+00 -0.00000000000E+00 -0.45593999997E+02  0.45594000000E+02  0.51100000000E-03 0. -1.
    9900012    2    1    2    0    0  0.12381956727E+00 -0.17537333451E+02  0.65654932487E+01  0.72461572219E+02  0.70000002507E+02 0.  0.
         12    1    1    2    0    0 -0.12381956727E+00  0.17537333451E+02 -0.65654932487E+01  0.18726427781E+02  0.00000000000E+00 0. -1.
         11    1    3    3    0    0 -0.21678751659E+02 -0.15500903575E+02 -0.12246873871E+02  0.29329715393E+02  0.51100000000E-03 0. -1.
        -11    1    3    3    0    0  0.18999269193E+02 -0.15801028421E+02  0.10886917333E+02  0.27003142379E+02  0.51100000000E-03 0.  1.
        -12    1    3    3    0    0  0.28033020326E+01  0.13764598545E+02  0.79254497870E+01  0.16128714448E+02  0.00000000000E+00 0.  1.
</event>
<event>
 7    1  0.3434711E-013  0.7246155E+02  0.7816164E-02  0.1226708E+00
        -11   -1    0    0    0    0  0.00000000000E+00  0.00000000000E+00  0.45593999997E+02  0.45594000000E+02  0.51100000000E-03 0.  1.
         11   -1    0    0    0    0 -0.00000000000E+00 -0.00000000000E+00 -0.45593999997E+02  0.45594000000E+02  0.51100000000E-03 0. -1.
    9900012    2    1    2    0    0  0.89681251153E+01  0.14809551482E+02  0.71365271347E+01  0.72461545377E+02  0.69999967541E+02 0.  0.
         12    1    1    2    0    0 -0.89681251153E+01 -0.14809551482E+02 -0.71365271347E+01  0.18726454623E+02  0.00000000000E+00 0. -1.
         11    1    3    3    0    0  0.26075020873E+02 -0.88512038372E+01 -0.17905697193E+02  0.32846073055E+02  0.51100000000E-03 0. -1.
        -11    1    3    3    0    0  0.36740452942E+00 -0.60073616082E+00  0.17267846451E+00  0.72504354103E+00  0.51100000000E-03 0.  1.
        -12    1    3    3    0    0 -0.17474300287E+02  0.24261491480E+02  0.24869545863E+02  0.38890428782E+02  0.00000000000E+00 0.  1.
</event>
<event>
 7    1  0.4642744E-013  0.7246153E+02  0.7816164E-02  0.1226708E+00
        -11   -1    0    0    0    0  0.00000000000E+00  0.00000000000E+00  0.45593999997E+02  0.45594000000E+02  0.51100000000E-03 0.  1.
         11   -1    0    0    0    0 -0.00000000000E+00 -0.00000000000E+00 -0.45593999997E+02  0.45594000000E+02  0.51100000000E-03 0. -1.
    9900012    2    1    2    0    0 -0.59760433562E+01  0.17152673978E+02  0.45556040799E+01  0.72461525497E+02  0.69999941643E+02 0.  0.
         12    1    1    2    0    0  0.59760433562E+01 -0.17152673978E+02 -0.45556040799E+01  0.18726474503E+02  0.00000000000E+00 0. -1.
         11    1    3    3    0    0 -0.14698555651E+02 -0.61282396999E+01  0.14419005263E+02  0.21482797143E+02  0.51100000000E-03 0. -1.
        -11    1    3    3    0    0 -0.39500431760E+01  0.33327568653E+02 -0.40989773634E+01  0.33810224623E+02  0.51100000000E-03 0.  1.
         12    1    3    3    0    0  0.12672555471E+02 -0.10046654975E+02 -0.57644238201E+01  0.17168503730E+02  0.00000000000E+00 0. -1.
</event>
<event>
 7    1  0.3434711E-013  0.7246154E+02  0.7816164E-02  0.1226708E+00
        -11   -1    0    0    0    0  0.00000000000E+00  0.00000000000E+00  0.45593999997E+02  0.45594000000E+02  0.51100000000E-03 0.  1.
         11   -1    0    0    0    0 -0.00000000000E+00 -0.00000000000E+00 -0.45593999997E+02  0.45594000000E+02  0.51100000000E-03 0. -1.
    9900012    2    1    2    0    0  0.14803560681E+02  0.38151376469E+01 -0.10815719059E+02  0.72461535762E+02  0.69999955015E+02 0.  0.
         12    1    1    2    0    0 -0.14803560681E+02 -0.38151376469E+01  0.10815719059E+02  0.18726464238E+02  0.00000000000E+00 0. -1.
         11    1    3    3    0    0 -0.12683174083E+01  0.31309581403E+01 -0.32274047537E+01  0.46720091641E+01  0.51100000000E-03 0. -1.
        -11    1    3    3    0    0 -0.20437221152E+02  0.14390262172E+02 -0.13402026396E+02  0.28361487365E+02  0.51100000000E-03 0.  1.
         12    1    3    3    0    0  0.36509099241E+02 -0.13706082665E+02  0.58137120905E+01  0.39428039232E+02  0.00000000000E+00 0. -1.
</event>
<event>
 7    1  0.3434711E-013  0.7246158E+02  0.7816164E-02  0.1226708E+00
        -11   -1    0    0    0    0  0.00000000000E+00  0.00000000000E+00  0.45593999997E+02  0.45594000000E+02  0.51100000000E-03 0.  1.
         11   -1    0    0    0    0 -0.00000000000E+00 -0.00000000000E+00 -0.45593999997E+02  0.45594000000E+02  0.51100000000E-03 0. -1.
    9900012    2    1    2    0    0  0.13887505041E+02 -0.81765091227E+01  0.95373293382E+01  0.72461581533E+02  0.70000014641E+02 0.  0.
         12    1    1    2    0    0 -0.13887505041E+02  0.81765091227E+01 -0.95373293382E+01  0.18726418467E+02  0.00000000000E+00 0. -1.
         11    1    3    3    0    0 -0.76552401741E+01  0.10041307776E+02 -0.11298250159E+02  0.16943465434E+02  0.51100000000E-03 0. -1.
        -11    1    3    3    0    0  0.32140412743E+02 -0.13941876759E+02  0.41283222762E+01  0.35276410021E+02  0.51100000000E-03 0.  1.
         12    1    3    3    0    0 -0.10597667529E+02 -0.42759401399E+01  0.16707257221E+02  0.20241706079E+02  0.00000000000E+00 0. -1.
</event>
<event>
 7    1  0.3434711E-013  0.7246171E+02  0.7816164E-02  0.1226708E+00
        -11   -1    0    0    0    0  0.00000000000E+00  0.00000000000E+00  0.45593999997E+02  0.45594000000E+02  0.51100000000E-03 0. -1.
         11   -1    0    0    0    0 -0.00000000000E+00 -0.00000000000E+00 -0.45593999997E+02  0.45594000000E+02  0.51100000000E-03 0.  1.
    9900012    2    1    2    0    0  0.13759722996E+02 -0.39150585107E+00 -0.12696092028E+02  0.72461708148E+02  0.70000179579E+02 0.  0.
         12    1    1    2    0    0 -0.13759722996E+02  0.39150585107E+00  0.12696092028E+02  0.18726291852E+02  0.00000000000E+00 0. -1.
         11    1    3    3    0    0 -0.46668790095E+01 -0.14002280607E+01  0.16130132624E+02  0.16849972612E+02  0.51100000000E-03 0. -1.
        -11    1    3    3    0    0  0.17571464391E+02 -0.14924072067E+02 -0.45128693988E+00  0.23058359613E+02  0.51100000000E-03 0.  1.
        -12    1    3    3    0    0  0.85513761525E+00  0.15932794276E+02 -0.28374937712E+02  0.32553375922E+02  0.00000000000E+00 0.  1.
</event>
<event>
 7    1  0.3434711E-013  0.7246159E+02  0.7816164E-02  0.1226708E+00
        -11   -1    0    0    0    0  0.00000000000E+00  0.00000000000E+00  0.45593999997E+02  0.45594000000E+02  0.51100000000E-03 0.  1.
         11   -1    0    0    0    0 -0.00000000000E+00 -0.00000000000E+00 -0.45593999997E+02  0.45594000000E+02  0.51100000000E-03 0. -1.
    9900012    2    1    2    0    0 -0.50223842075E+01  0.17940975635E+02  0.18909016982E+01  0.72461589263E+02  0.70000024710E+02 0.  0.
         12    1    1    2    0    0  0.50223842075E+01 -0.17940975635E+02 -0.18909016982E+01  0.18726410737E+02  0.00000000000E+00 0. -1.
         11    1    3    3    0    0 -0.78950400269E+01  0.15913354364E+01 -0.16302503679E+02  0.18183388902E+02  0.51100000000E-03 0. -1.
        -11    1    3    3    0    0 -0.99711426740E+01  0.26005045493E+02 -0.26311141751E+01  0.27975146816E+02  0.51100000000E-03 0.  1.
        -12    1    3    3    0    0  0.12843798494E+02 -0.96554052944E+01  0.20824519553E+02  0.26303053544E+02  0.00000000000E+00 0.  1.
</event>
<event>
 7    1  0.4056630E-013  0.7246152E+02  0.7816164E-02  0.1226708E+00
        -11   -1    0    0    0    0  0.00000000000E+00  0.00000000000E+00  0.45593999997E+02  0.45594000000E+02  0.51100000000E-03 0. -1.
         11   -1    0    0    0    0 -0.00000000000E+00 -0.00000000000E+00 -0.45593999997E+02  0.45594000000E+02  0.51100000000E-03 0.  1.
    9900012    2    1    2    0    0  0.11119821378E+02  0.63002410193E+01 -0.13687129626E+02  0.72461521907E+02  0.69999936967E+02 0.  0.
         12    1    1    2    0    0 -0.11119821378E+02 -0.63002410193E+01  0.13687129626E+02  0.18726478093E+02  0.00000000000E+00 0. -1.
         11    1    3    3    0    0  0.79162175010E+01  0.47031980051E+01  0.31303450315E+01  0.97255144479E+01  0.51100000000E-03 0. -1.
        -11    1    3    3    0    0  0.14570829797E+02  0.19375256361E+02 -0.29448052970E+02  0.38143118173E+02  0.51100000000E-03 0.  1.
         12    1    3    3    0    0 -0.11367225920E+02 -0.17778213347E+02  0.12630578313E+02  0.24592889286E+02  0.00000000000E+00 0. -1.
</event>
<event>
 7    1  0.3434711E-013  0.7246154E+02  0.7816164E-02  0.1226708E+00
        -11   -1    0    0    0    0  0.00000000000E+00  0.00000000000E+00  0.45593999997E+02  0.45594000000E+02  0.51100000000E-03 0.  1.
         11   -1    0    0    0    0 -0.00000000000E+00 -0.00000000000E+00 -0.45593999997E+02  0.45594000000E+02  0.51100000000E-03 0. -1.
    9900012    2    1    2    0    0 -0.78174778324E+01 -0.17014977233E+02  0.24067889451E+00  0.72461539143E+02  0.69999959420E+02 0.  0.
         12    1    1    2    0    0  0.78174778324E+01  0.17014977233E+02 -0.24067889451E+00  0.18726460857E+02  0.00000000000E+00 0. -1.
         11    1    3    3    0    0  0.13973570533E+01 -0.31159221111E+02  0.15961787807E+01  0.31231353700E+02  0.51100000000E-03 0. -1.
        -11    1    3    3    0    0 -0.75689763589E+01  0.26689524093E+01  0.17411029815E+02  0.19171767512E+02  0.51100000000E-03 0.  1.
        -12    1    3    3    0    0 -0.16458585267E+01  0.11475291469E+02 -0.18766529701E+02  0.22058417930E+02  0.00000000000E+00 0.  1.
</event>
<event>
 7    1  0.3434711E-013  0.7246152E+02  0.7816164E-02  0.1226708E+00
        -11   -1    0    0    0    0  0.00000000000E+00  0.00000000000E+00  0.45593999997E+02  0.45594000000E+02  0.51100000000E-03 0. -1.
         11   -1    0    0    0    0 -0.00000000000E+00 -0.00000000000E+00 -0.45593999997E+02  0.45594000000E+02  0.51100000000E-03 0.  1.
    9900012    2    1    2    0    0 -0.79237128965E+01 -0.12188200708E+02  0.11804394744E+02  0.72461516137E+02  0.69999929451E+02 0.  0.
         12    1    1    2    0    0  0.79237128965E+01  0.12188200708E+02 -0.11804394744E+02  0.18726483863E+02  0.00000000000E+00 0. -1.
         11    1    3    3    0    0 -0.74829846253E+01  0.22462851312E+01  0.12760533631E+02  0.14962355249E+02  0.51100000000E-03 0. -1.
        -11    1    3    3    0    0  0.16930450369E+01  0.19913201879E+02  0.86394869380E+01  0.21772522716E+02  0.51100000000E-03 0.  1.
         12    1    3    3    0    0 -0.21337733081E+01 -0.34347687719E+02 -0.95956258245E+01  0.35726638173E+02  0.00000000000E+00 0. -1.
</event>
<event>
 7    1  0.3434711E-013  0.7246159E+02  0.7816164E-02  0.1226708E+00
        -11   -1    0    0    0    0  0.00000000000E+00  0.00000000000E+00  0.45593999997E+02  0.45594000000E+02  0.51100000000E-03 0.  1.
         11   -1    0    0    0    0 -0.00000000000E+00 -0.00000000000E+00 -0.45593999997E+02  0.45594000000E+02  0.51100000000E-03 0. -1.
    9900012    2    1    2    0    0  0.16984361726E+02 -0.40901104155E+01  0.67439426800E+01  0.72461593261E+02  0.70000029919E+02 0.  0.
         12    1    1    2    0    0 -0.16984361726E+02  0.40901104155E+01 -0.67439426800E+01  0.18726406739E+02  0.00000000000E+00 0. -1.
         11    1    3    3    0    0 -0.99982221995E+01 -0.13068087520E+02 -0.97230989464E+00  0.16482862171E+02  0.51100000000E-03 0. -1.
        -11    1    3    3    0    0  0.67263511228E+00 -0.10911506116E+02 -0.13034495526E+02  0.17012097978E+02  0.51100000000E-03 0.  1.
         12    1    3    3    0    0  0.26309948814E+02  0.19889483220E+02  0.20750748101E+02  0.38966633112E+02  0.00000000000E+00 0. -1.
</event>
<event>
 7    1  0.3434711E-013  0.7246194E+02  0.7816164E-02  0.1226707E+00
        -11   -1    0    0    0    0  0.00000000000E+00  0.00000000000E+00  0.45593999997E+02  0.45594000000E+02  0.51100000000E-03 0.  1.
         11   -1    0    0    0    0 -0.00000000000E+00 -0.00000000000E+00 -0.45593999997E+02  0.45594000000E+02  0.51100000000E-03 0. -1.
    9900012    2    1    2    0    0 -0.18593321792E+01 -0.17875092180E+02  0.52620720629E+01  0.72461936906E+02  0.70000477579E+02 0.  0.
         12    1    1    2    0    0  0.18593321792E+01  0.17875092180E+02 -0.52620720629E+01  0.18726063094E+02  0.00000000000E+00 0. -1.
         11    1    3    3    0    0 -0.21628873234E+01 -0.13382397140E+02  0.72004095216E+01  0.15349675317E+02  0.51100000000E-03 0. -1.
        -11    1    3    3    0    0  0.21296343913E+02  0.13378976732E+01  0.17743184472E+02  0.27751483378E+02  0.51100000000E-03 0.  1.
         12    1    3    3    0    0 -0.20992788769E+02 -0.58305927130E+01 -0.19681521930E+02  0.29360778211E+02  0.00000000000E+00 0. -1.
</event>
<event>
 7    1  0.3434711E-013  0.7246125E+02  0.7816164E-02  0.1226709E+00
        -11   -1    0    0    0    0  0.00000000000E+00  0.00000000000E+00  0.45593999997E+02  0.45594000000E+02  0.51100000000E-03 0. -1.
         11   -1    0    0    0    0 -0.00000000000E+00 -0.00000000000E+00 -0.45593999997E+02  0.45594000000E+02  0.51100000000E-03 0.  1.
    9900012    2    1    2    0    0 -0.86168764694E+01  0.12387287703E+02 -0.11090335139E+02  0.72461254682E+02  0.69999588855E+02 0.  0.
         12    1    1    2    0    0  0.86168764694E+01 -0.12387287703E+02  0.11090335139E+02  0.18726745318E+02  0.00000000000E+00 0. -1.
         11    1    3    3    0    0 -0.29123439625E+01  0.11609728126E+02 -0.38542003212E+01  0.12574672755E+02  0.51100000000E-03 0. -1.
        -11    1    3    3    0    0 -0.14468966515E+02  0.13680161700E+02  0.20176094459E+02  0.28347356209E+02  0.51100000000E-03 0.  1.
        -12    1    3    3    0    0  0.87644340085E+01 -0.12902602123E+02 -0.27412229276E+02  0.31539225719E+02  0.00000000000E+00 0.  1.
</event>
<event>
 7    1  0.3434711E-013  0.7246157E+02  0.7816164E-02  0.1226708E+00
        -11   -1    0    0    0    0  0.00000000000E+00  0.00000000000E+00  0.45593999997E+02  0.45594000000E+02  0.51100000000E-03 0. -1.
         11   -1    0    0    0    0 -0.00000000000E+00 -0.00000000000E+00 -0.45593999997E+02  0.45594000000E+02  0.51100000000E-03 0.  1.
    9900012    2    1    2    0    0 -0.12611423536E+01  0.14620214116E+02  0.11633494856E+02  0.72461565652E+02  0.69999993952E+02 0.  0.
         12    1    1    2    0    0  0.12611423536E+01 -0.14620214116E+02 -0.11633494856E+02  0.18726434348E+02  0.00000000000E+00 0. -1.
         11    1    3    3    0    0  0.18990244159E+02 -0.11716120714E+02  0.17982365625E+02  0.28657674915E+02  0.51100000000E-03 0. -1.
        -11    1    3    3    0    0  0.22882199244E+01  0.30473811274E+00  0.66184496142E+01  0.70094715419E+01  0.51100000000E-03 0.  1.
        -12    1    3    3    0    0 -0.22539606437E+02  0.26031596717E+02 -0.12967320384E+02  0.36794419195E+02  0.00000000000E+00 0.  1.
</event>
<event>
 7    1  0.3434711E-013  0.7246187E+02  0.7816164E-02  0.1226707E+00
        -11   -1    0    0    0    0  0.00000000000E+00  0.00000000000E+00  0.45593999997E+02  0.45594000000E+02  0.51100000000E-03 0.  1.
         11   -1    0    0    0    0 -0.00000000000E+00 -0.00000000000E+00 -0.45593999997E+02  0.45594000000E+02  0.51100000000E-03 0. -1.
    9900012    2    1    2    0    0 -0.47823663207E+01 -0.83613063964E+01  0.16058808674E+02  0.72461873644E+02  0.70000395168E+02 0.  0.
         12    1    1    2    0    0  0.47823663207E+01  0.83613063964E+01 -0.16058808674E+02  0.18726126356E+02  0.00000000000E+00 0. -1.
         11    1    3    3    0    0 -0.79214302705E+01  0.10565142953E+02 -0.17603209601E+02  0.22005551383E+02  0.51100000000E-03 0. -1.
        -11    1    3    3    0    0  0.92594016811E+01  0.63120120036E+01  0.68748196188E+01  0.13146906863E+02  0.51100000000E-03 0.  1.
        -12    1    3    3    0    0 -0.61203377313E+01 -0.25238461353E+02  0.26787198656E+02  0.37309415397E+02  0.00000000000E+00 0.  1.
</event>
<event>
 7    1  0.3434711E-013  0.7246160E+02  0.7816164E-02  0.1226708E+00
        -11   -1    0    0    0    0  0.00000000000E+00  0.00000000000E+00  0.45593999997E+02  0.45594000000E+02  0.51100000000E-03 0. -1.
         11   -1    0    0    0    0 -0.00000000000E+00 -0.00000000000E+00 -0.45593999997E+02  0.45594000000E+02  0.51100000000E-03 0.  1.
    9900012    2    1    2    0    0  0.16398035728E+01  0.30675415992E+00 -0.18651948167E+02  0.72461595532E+02  0.70000032877E+02 0.  0.
         12    1    1    2    0    0 -0.16398035728E+01 -0.30675415992E+00  0.18651948167E+02  0.18726404468E+02  0.00000000000E+00 0. -1.
         11    1    3    3    0    0 -0.20773016752E+02 -0.57644740114E+01 -0.65585377996E+01  0.22533570599E+02  0.51100000000E-03 0. -1.
        -11    1    3    3    0    0  0.45157563948E+01 -0.10667527280E+02 -0.20894329788E+02  0.23890609277E+02  0.51100000000E-03 0.  1.
         12    1    3    3    0    0  0.17897063930E+02  0.16738755451E+02  0.88009194201E+01  0.26037415656E+02  0.00000000000E+00 0. -1.
</event>
<event>
 7    1  0.3434711E-013  0.7246156E+02  0.7816164E-02  0.1226708E+00
        -11   -1    0    0    0    0  0.00000000000E+00  0.00000000000E+00  0.45593999997E+02  0.45594000000E+02  0.51100000000E-03 0.  1.
         11   -1    0    0    0    0 -0.00000000000E+00 -0.00000000000E+00 -0.45593999997E+02  0.45594000000E+02  0.51100000000E-03 0. -1.
    9900012    2    1    2    0    0  0.20660318546E+01  0.11264438471E+02  0.14816323911E+02  0.72461561045E+02  0.69999987951E+02 0.  0.
         12    1    1    2    0    0 -0.20660318546E+01 -0.11264438471E+02 -0.14816323911E+02  0.18726438955E+02  0.00000000000E+00 0. -1.
         11    1    3    3    0    0  0.27790433131E+00  0.19180211917E+00  0.12214142018E+01  0.12672299649E+01  0.51100000000E-03 0. -1.
        -11    1    3    3    0    0 -0.11193555038E+02  0.12210727885E+02  0.39148993815E+02  0.42509308003E+02  0.51100000000E-03 0.  1.
         12    1    3    3    0    0  0.12981682561E+02 -0.11380915327E+01 -0.25554084106E+02  0.28685023078E+02  0.00000000000E+00 0. -1.
</event>
<event>
 7    1  0.3434711E-013  0.7246169E+02  0.7816164E-02  0.1226708E+00
        -11   -1    0    0    0    0  0.00000000000E+00  0.00000000000E+00  0.45593999997E+02  0.45594000000E+02  0.51100000000E-03 0.  1.
         11   -1    0    0    0    0 -0.00000000000E+00 -0.00000000000E+00 -0.45593999997E+02  0.45594000000E+02  0.51100000000E-03 0. -1.
    9900012    2    1    2    0    0  0.15421453538E+02  0.10094068750E+02  0.33110656251E+01  0.72461692069E+02  0.70000158633E+02 0.  0.
         12    1    1    2    0    0 -0.15421453538E+02 -0.10094068750E+02 -0.33110656251E+01  0.18726307931E+02  0.00000000000E+00 0. -1.
         11    1    3    3    0    0  0.21810305050E+02  0.15361774628E+02  0.11875156413E+02  0.29200905229E+02  0.51100000000E-03 0. -1.
        -11    1    3    3    0    0 -0.95829996850E+01  0.12505179105E+00  0.15593588403E+02  0.18303265295E+02  0.51100000000E-03 0.  1.
         12    1    3    3    0    0  0.31941481733E+01 -0.53927576693E+01 -0.24157679190E+02  0.24957521545E+02  0.00000000000E+00 0. -1.
</event>
<event>
 7    1  0.3434711E-013  0.7246152E+02  0.7816164E-02  0.1226708E+00
        -11   -1    0    0    0    0  0.00000000000E+00  0.00000000000E+00  0.45593999997E+02  0.45594000000E+02  0.51100000000E-03 0.  1.
         11   -1    0    0    0    0 -0.00000000000E+00 -0.00000000000E+00 -0.45593999997E+02  0.45594000000E+02  0.51100000000E-03 0. -1.
    9900012    2    1    2    0    0  0.18557149939E+01 -0.29152098723E+01  0.18404859646E+02  0.72461521812E+02  0.69999936843E+02 0.  0.
         12    1    1    2    0    0 -0.18557149939E+01  0.29152098723E+01 -0.18404859646E+02  0.18726478188E+02  0.00000000000E+00 0. -1.
         11    1    3    3    0    0  0.20006825666E+02  0.97825306904E+01 -0.74855259585E+01  0.23494767057E+02  0.51100000000E-03 0. -1.
        -11    1    3    3    0    0  0.59466126466E+01 -0.13490938674E+02  0.17480728925E+01  0.14846662500E+02  0.51100000000E-03 0.  1.
        -12    1    3    3    0    0 -0.24097723319E+02  0.79319811148E+00  0.24142312712E+02  0.34120092255E+02  0.00000000000E+00 0.  1.
</event>
<event>
 7    1  0.3434711E-013  0.7246155E+02  0.7816164E-02  0.1226708E+00
        -11   -1    0    0    0    0  0.00000000000E+00  0.00000000000E+00  0.45593999997E+02  0.45594000000E+02  0.51100000000E-03 0. -1.
         11   -1    0    0    0    0 -0.00000000000E+00 -0.00000000000E+00 -0.45593999997E+02  0.45594000000E+02  0.51100000000E-03 0.  1.
    9900012    2    1    2    0    0 -0.18670765563E+02 -0.88042190025E+00  0.11433921466E+01  0.72461548787E+02  0.69999971982E+02 0.  0.
         12    1    1    2    0    0  0.18670765563E+02  0.88042190025E+00 -0.11433921466E+01  0.18726451213E+02  0.00000000000E+00 0. -1.
         11    1    3    3    0    0 -0.98452607764E+01  0.84991017655E+01 -0.29030950554E+01  0.13326359283E+02  0.51100000000E-03 0. -1.
        -11    1    3    3    0    0  0.96092125407E+01  0.14785231051E+02 -0.15098547586E+02  0.23214352508E+02  0.51100000000E-03 0.  1.
         12    1    3    3    0    0 -0.18434717328E+02 -0.24164754717E+02  0.19145034788E+02  0.35920836996E+02  0.00000000000E+00 0. -1.
</event>
<event>
 7    1  0.3434711E-013  0.7246158E+02  0.7816164E-02  0.1226708E+00
        -11   -1    0    0    0    0  0.00000000000E+00  0.00000000000E+00  0.45593999997E+02  0.45594000000E+02  0.51100000000E-03 0.  1.
         11   -1    0    0    0    0 -0.00000000000E+00 -0.00000000000E+00 -0.45593999997E+02  0.45594000000E+02  0.51100000000E-03 0. -1.
    9900012    2    1    2    0    0 -0.17335294942E+02 -0.33009136231E+01  0.62666132608E+01  0.72461576871E+02  0.70000008567E+02 0.  0.
         12    1    1    2    0    0  0.17335294942E+02  0.33009136231E+01 -0.62666132608E+01  0.18726423129E+02  0.00000000000E+00 0. -1.
         11    1    3    3    0    0 -0.35748222488E+01  0.10212951308E+01 -0.24751235428E+02  0.25028904357E+02  0.51100000000E-03 0. -1.
        -11    1    3    3    0    0 -0.37478266152E+01  0.13705463410E+02  0.72023247758E+01  0.15929827810E+02  0.51100000000E-03 0.  1.
        -12    1    3    3    0    0 -0.10012646078E+02 -0.18027672164E+02  0.23815523913E+02  0.31502844703E+02  0.00000000000E+00 0.  1.
</event>
<event>
 7    1  0.3434711E-013  0.7246155E+02  0.7816164E-02  0.1226708E+00
        -11   -1    0    0    0    0  0.00000000000E+00  0.00000000000E+00  0.45593999997E+02  0.45594000000E+02  0.51100000000E-03 0.  1.
         11   -1    0    0    0    0 -0.00000000000E+00 -0.00000000000E+00 -0.45593999997E+02  0.45594000000E+02  0.51100000000E-03 0. -1.
    9900012    2    1    2    0    0  0.15535146794E+02 -0.95696581299E+01  0.42143565475E+01  0.72461549623E+02  0.69999973071E+02 0.  0.
         12    1    1    2    0    0 -0.15535146794E+02  0.95696581299E+01 -0.42143565475E+01  0.18726450377E+02  0.00000000000E+00 0. -1.
         11    1    3    3    0    0  0.64439703715E+01  0.93542273804E+01 -0.24814596313E+01  0.11626863988E+02  0.51100000000E-03 0. -1.
        -11    1    3    3    0    0 -0.15132700503E+02 -0.74418128140E+01  0.23701422898E+02  0.29088428114E+02  0.51100000000E-03 0.  1.
         12    1    3    3    0    0  0.24223876926E+02 -0.11482072696E+02 -0.17005606719E+02  0.31746257521E+02  0.00000000000E+00 0. -1.
</event>
<event>
 7    1  0.3434711E-013  0.7246170E+02  0.7816164E-02  0.1226708E+00
        -11   -1    0    0    0    0  0.00000000000E+00  0.00000000000E+00  0.45593999997E+02  0.45594000000E+02  0.51100000000E-03 0. -1.
         11   -1    0    0    0    0 -0.00000000000E+00 -0.00000000000E+00 -0.45593999997E+02  0.45594000000E+02  0.51100000000E-03 0.  1.
    9900012    2    1    2    0    0 -0.79029679165E+01 -0.16839865524E+02  0.21532058447E+01  0.72461701162E+02  0.70000170479E+02 0.  0.
         12    1    1    2    0    0  0.79029679165E+01  0.16839865524E+02 -0.21532058447E+01  0.18726298838E+02  0.00000000000E+00 0. -1.
         11    1    3    3    0    0 -0.94235259154E+01  0.32601929910E+01 -0.83089727014E+01  0.12979627369E+02  0.51100000000E-03 0. -1.
        -11    1    3    3    0    0  0.21457681711E+02  0.26635217900E+01 -0.90894919555E+01  0.23455176763E+02  0.51100000000E-03 0.  1.
         12    1    3    3    0    0 -0.19937123712E+02 -0.22763580305E+02  0.19551670502E+02  0.36026897030E+02  0.00000000000E+00 0. -1.
</event>
<event>
 7    1  0.3434711E-013  0.7246158E+02  0.7816164E-02  0.1226708E+00
        -11   -1    0    0    0    0  0.00000000000E+00  0.00000000000E+00  0.45593999997E+02  0.45594000000E+02  0.51100000000E-03 0.  1.
         11   -1    0    0    0    0 -0.00000000000E+00 -0.00000000000E+00 -0.45593999997E+02  0.45594000000E+02  0.51100000000E-03 0. -1.
    9900012    2    1    2    0    0  0.96120151567E+01 -0.49632885878E+01  0.15285741607E+02  0.72461575743E+02  0.70000007098E+02 0.  0.
         12    1    1    2    0    0 -0.96120151567E+01  0.49632885878E+01 -0.15285741607E+02  0.18726424257E+02  0.00000000000E+00 0. -1.
         11    1    3    3    0    0 -0.46239945171E+01  0.49712119034E+00 -0.19125016540E+02  0.19682345203E+02  0.51100000000E-03 0. -1.
        -11    1    3    3    0    0  0.27394390130E+01  0.14808822001E+02  0.21161476237E+02  0.25973328858E+02  0.51100000000E-03 0.  1.
         12    1    3    3    0    0  0.11496570661E+02 -0.20269231779E+02  0.13249281910E+02  0.26805901683E+02  0.00000000000E+00 0. -1.
</event>
<event>
 7    1  0.3434711E-013  0.7246157E+02  0.7816164E-02  0.1226708E+00
        -11   -1    0    0    0    0  0.00000000000E+00  0.00000000000E+00  0.45593999997E+02  0.45594000000E+02  0.51100000000E-03 0.  1.
         11   -1    0    0    0    0 -0.00000000000E+00 -0.00000000000E+00 -0.45593999997E+02  0.45594000000E+02  0.51100000000E-03 0. -1.
    9900012    2    1    2    0    0  0.23933970560E+01 -0.15693166589E+02  0.99335465175E+01  0.72461570188E+02  0.69999999862E+02 0.  0.
         12    1    1    2    0    0 -0.23933970560E+01  0.15693166589E+02 -0.99335465175E+01  0.18726429812E+02  0.00000000000E+00 0. -1.
         11    1    3    3    0    0 -0.14834467600E+02 -0.34453974345E+02 -0.10982178284E+02  0.39086391714E+02  0.51100000000E-03 0. -1.
        -11    1    3    3    0    0  0.48332731310E+00  0.12185221596E+01  0.28427881241E+01  0.31304705916E+01  0.51100000000E-03 0.  1.
        -12    1    3    3    0    0  0.16744537343E+02  0.17542285596E+02  0.18072936678E+02  0.30244707882E+02  0.00000000000E+00 0.  1.
</event>
<event>
 7    1  0.3434711E-013  0.7246156E+02  0.7816164E-02  0.1226708E+00
        -11   -1    0    0    0    0  0.00000000000E+00  0.00000000000E+00  0.45593999997E+02  0.45594000000E+02  0.51100000000E-03 0. -1.
         11   -1    0    0    0    0 -0.00000000000E+00 -0.00000000000E+00 -0.45593999997E+02  0.45594000000E+02  0.51100000000E-03 0.  1.
    9900012    2    1    2    0    0  0.75139455747E+01  0.17011097216E+02  0.22006550867E+01  0.72461556413E+02  0.69999981918E+02 0.  0.
         12    1    1    2    0    0 -0.75139455747E+01 -0.17011097216E+02 -0.22006550867E+01  0.18726443587E+02  0.00000000000E+00 0. -1.
         11    1    3    3    0    0  0.52343710646E+01  0.10614866290E+02 -0.13790090269E+01  0.11915355343E+02  0.51100000000E-03 0. -1.
        -11    1    3    3    0    0  0.12770583664E+02  0.63181878417E+01 -0.25732137465E+02  0.29413435765E+02  0.51100000000E-03 0.  1.
         12    1    3    3    0    0 -0.10491009154E+02  0.78043084236E-01  0.29311801578E+02  0.31132765305E+02  0.00000000000E+00 0. -1.
</event>
<event>
 7    1  0.3434711E-013  0.7246161E+02  0.7816164E-02  0.1226708E+00
        -11   -1    0    0    0    0  0.00000000000E+00  0.00000000000E+00  0.45593999997E+02  0.45594000000E+02  0.51100000000E-03 0.  1.
         11   -1    0    0    0    0 -0.00000000000E+00 -0.00000000000E+00 -0.45593999997E+02  0.45594000000E+02  0.51100000000E-03 0. -1.
    9900012    2    1    2    0    0 -0.13468935502E+02  0.10994784736E+02  0.69555972664E+01  0.72461605572E+02  0.70000045955E+02 0.  0.
         12    1    1    2    0    0  0.13468935502E+02 -0.10994784736E+02 -0.69555972664E+01  0.18726394428E+02  0.00000000000E+00 0. -1.
         11    1    3    3    0    0  0.25861240303E+02  0.11603603593E+02  0.10151209535E+02  0.30108045796E+02  0.51100000000E-03 0. -1.
        -11    1    3    3    0    0 -0.11963618064E+02 -0.47979810818E+01 -0.65624636444E+01  0.14464256254E+02  0.51100000000E-03 0.  1.
        -12    1    3    3    0    0 -0.27366557741E+02  0.41891622252E+01  0.33668513754E+01  0.27889303522E+02  0.00000000000E+00 0.  1.
</event>
<event>
 7    1  0.3434711E-013  0.7246160E+02  0.7816164E-02  0.1226708E+00
        -11   -1    0    0    0    0  0.00000000000E+00  0.00000000000E+00  0.45593999997E+02  0.45594000000E+02  0.51100000000E-03 0.  1.
         11   -1    0    0    0    0 -0.00000000000E+00 -0.00000000000E+00 -0.45593999997E+02  0.45594000000E+02  0.51100000000E-03 0. -1.
    9900012    2    1    2    0    0 -0.15056516923E+02  0.96867685184E+01  0.54905098078E+01  0.72461604614E+02  0.70000044708E+02 0.  0.
         12    1    1    2    0    0  0.15056516923E+02 -0.96867685184E+01 -0.54905098078E+01  0.18726395386E+02  0.00000000000E+00 0. -1.
         11    1    3    3    0    0 -0.35733459453E+01  0.86516624696E+01 -0.69045808834E+01  0.11631564906E+02  0.51100000000E-03 0. -1.
        -11    1    3    3    0    0 -0.32060637613E+02  0.70079789875E+01  0.19599106924E+02  0.38224615710E+02  0.51100000000E-03 0.  1.
         12    1    3    3    0    0  0.20577466635E+02 -0.59728729386E+01 -0.72040162325E+01  0.22605423999E+02  0.00000000000E+00 0. -1.
</event>
<event>
 7    1  0.3434711E-013  0.7246155E+02  0.7816164E-02  0.1226708E+00
        -11   -1    0    0    0    0  0.00000000000E+00  0.00000000000E+00  0.45593999997E+02  0.45594000000E+02  0.51100000000E-03 0. -1.
         11   -1    0    0    0    0 -0.00000000000E+00 -0.00000000000E+00 -0.45593999997E+02  0.45594000000E+02  0.51100000000E-03 0.  1.
    9900012    2    1    2    0    0 -0.18383858830E+02  0.20116529174E+01 -0.29439582051E+01  0.72461550714E+02  0.69999974493E+02 0.  0.
         12    1    1    2    0    0  0.18383858830E+02 -0.20116529174E+01  0.29439582051E+01  0.18726449286E+02  0.00000000000E+00 0. -1.
         11    1    3    3    0    0  0.45439089107E+01 -0.64009826614E+01 -0.46100096675E+01  0.91033991792E+01  0.51100000000E-03 0. -1.
        -11    1    3    3    0    0 -0.38057451277E+02 -0.33370345372E+01 -0.11751784735E+02  0.39970111857E+02  0.51100000000E-03 0.  1.
         12    1    3    3    0    0  0.15129683536E+02  0.11749670116E+02  0.13417836197E+02  0.23388039677E+02  0.00000000000E+00 0. -1.
</event>
<event>
 7    1  0.3434711E-013  0.7246156E+02  0.7816164E-02  0.1226708E+00
        -11   -1    0    0    0    0  0.00000000000E+00  0.00000000000E+00  0.45593999997E+02  0.45594000000E+02  0.51100000000E-03 0.  1.
         11   -1    0    0    0    0 -0.00000000000E+00 -0.00000000000E+00 -0.45593999997E+02  0.45594000000E+02  0.51100000000E-03 0. -1.
    9900012    2    1    2    0    0  0.76665521947E+01  0.82641405173E+01  0.14953513419E+02  0.72461558677E+02  0.69999984866E+02 0.  0.
         12    1    1    2    0    0 -0.76665521947E+01 -0.82641405173E+01 -0.14953513419E+02  0.18726441323E+02  0.00000000000E+00 0. -1.
         11    1    3    3    0    0  0.86230168799E+00  0.15830460047E+01 -0.10050062937E+02  0.10210453670E+02  0.51100000000E-03 0. -1.
        -11    1    3    3    0    0  0.26778930922E+02  0.91496883183E+01 -0.22308878389E+01  0.28386701084E+02  0.51100000000E-03 0.  1.
         12    1    3    3    0    0 -0.19974680415E+02 -0.24685938057E+01  0.27234464195E+02  0.33864403923E+02  0.00000000000E+00 0. -1.
</event>
<event>
 7    1  0.3434711E-013  0.7246160E+02  0.7816164E-02  0.1226708E+00
        -11   -1    0    0    0    0  0.00000000000E+00  0.00000000000E+00  0.45593999997E+02  0.45594000000E+02  0.51100000000E-03 0. -1.
         11   -1    0    0    0    0 -0.00000000000E+00 -0.00000000000E+00 -0.45593999997E+02  0.45594000000E+02  0.51100000000E-03 0.  1.
    9900012    2    1    2    0    0 -0.12318341400E+02 -0.12272045998E+01 -0.14051002383E+02  0.72461595274E+02  0.70000032541E+02 0.  0.
         12    1    1    2    0    0  0.12318341400E+02  0.12272045998E+01  0.14051002383E+02  0.18726404726E+02  0.00000000000E+00 0. -1.
         11    1    3    3    0    0  0.26316041184E+01 -0.11926690995E+01  0.40947041383E+01  0.50114271478E+01  0.51100000000E-03 0. -1.
        -11    1    3    3    0    0  0.17314830911E+02 -0.18564695276E+02 -0.16358057929E+02  0.30199955954E+02  0.51100000000E-03 0.  1.
         12    1    3    3    0    0 -0.32264776430E+02  0.18530159775E+02 -0.17876485924E+01  0.37250212172E+02  0.00000000000E+00 0. -1.
</event>
<event>
 7    1  0.3434711E-013  0.7246161E+02  0.7816164E-02  0.1226708E+00
        -11   -1    0    0    0    0  0.00000000000E+00  0.00000000000E+00  0.45593999997E+02  0.45594000000E+02  0.51100000000E-03 0.  1.
         11   -1    0    0    0    0 -0.00000000000E+00 -0.00000000000E+00 -0.45593999997E+02  0.45594000000E+02  0.51100000000E-03 0. -1.
    9900012    2    1    2    0    0 -0.11050859600E+02  0.12089078864E+02  0.90780207046E+01  0.72461607246E+02  0.70000048136E+02 0.  0.
         12    1    1    2    0    0  0.11050859600E+02 -0.12089078864E+02 -0.90780207046E+01  0.18726392754E+02  0.00000000000E+00 0. -1.
         11    1    3    3    0    0 -0.11073493432E+02 -0.12355490382E+02  0.21597427991E+01  0.16731553681E+02  0.51100000000E-03 0. -1.
        -11    1    3    3    0    0 -0.22808119267E+02  0.26256392251E+01  0.74749096277E+01  0.24144948955E+02  0.51100000000E-03 0.  1.
        -12    1    3    3    0    0  0.22830753099E+02  0.21818930021E+02 -0.55663172218E+00  0.31585104610E+02  0.00000000000E+00 0.  1.
</event>
<event>
 7    1  0.3434711E-013  0.7246157E+02  0.7816164E-02  0.1226708E+00
        -11   -1    0    0    0    0  0.00000000000E+00  0.00000000000E+00  0.45593999997E+02  0.45594000000E+02  0.51100000000E-03 0.  1.
         11   -1    0    0    0    0 -0.00000000000E+00 -0.00000000000E+00 -0.45593999997E+02  0.45594000000E+02  0.51100000000E-03 0. -1.
    9900012    2    1    2    0    0 -0.90836488702E+01 -0.15723008247E+02  0.45775087856E+01  0.72461568097E+02  0.69999997138E+02 0.  0.
         12    1    1    2    0    0  0.90836488702E+01  0.15723008247E+02 -0.45775087856E+01  0.18726431903E+02  0.00000000000E+00 0. -1.
         11    1    3    3    0    0 -0.25200530941E+01 -0.13667902212E+01  0.22668990030E+02  0.22849549062E+02  0.51100000000E-03 0. -1.
        -11    1    3    3    0    0 -0.14391314305E+00 -0.78349976116E+00  0.14083619480E+02  0.14106130610E+02  0.51100000000E-03 0.  1.
         12    1    3    3    0    0 -0.64196826331E+01 -0.13572718265E+02 -0.32175100724E+02  0.35505888425E+02  0.00000000000E+00 0. -1.
</event>
<event>
 7    1  0.3434711E-013  0.7246159E+02  0.7816164E-02  0.1226708E+00
        -11   -1    0    0    0    0  0.00000000000E+00  0.00000000000E+00  0.45593999997E+02  0.45594000000E+02  0.51100000000E-03 0. -1.
         11   -1    0    0    0    0 -0.00000000000E+00 -0.00000000000E+00 -0.45593999997E+02  0.45594000000E+02  0.51100000000E-03 0.  1.
    9900012    2    1    2    0    0 -0.55100375832E+01 -0.13740542232E+02 -0.11468020246E+02  0.72461588081E+02  0.70000023171E+02 0.  0.
         12    1    1    2    0    0  0.55100375832E+01  0.13740542232E+02  0.11468020246E+02  0.18726411919E+02  0.00000000000E+00 0. -1.
         11    1    3    3    0    0 -0.15213856214E+02 -0.21505216878E+02 -0.20103769734E+02  0.33137551685E+02  0.51100000000E-03 0. -1.
        -11    1    3    3    0    0  0.53086812830E+01  0.12621869963E+01 -0.14181285628E+02  0.15194870032E+02  0.51100000000E-03 0.  1.
        -12    1    3    3    0    0  0.43951373476E+01  0.65024876498E+01  0.22817035116E+02  0.24129166364E+02  0.00000000000E+00 0.  1.
</event>
<event>
 7    1  0.3434711E-013  0.7246153E+02  0.7816164E-02  0.1226708E+00
        -11   -1    0    0    0    0  0.00000000000E+00  0.00000000000E+00  0.45593999997E+02  0.45594000000E+02  0.51100000000E-03 0.  1.
         11   -1    0    0    0    0 -0.00000000000E+00 -0.00000000000E+00 -0.45593999997E+02  0.45594000000E+02  0.51100000000E-03 0. -1.
    9900012    2    1    2    0    0  0.10805247599E+02  0.15170734861E+02  0.19431767099E+01  0.72461534567E+02  0.69999953458E+02 0.  0.
         12    1    1    2    0    0 -0.10805247599E+02 -0.15170734861E+02 -0.19431767099E+01  0.18726465433E+02  0.00000000000E+00 0. -1.
         11    1    3    3    0    0  0.12471096597E+02 -0.22216900349E+01 -0.11444598348E+02  0.17071701396E+02  0.51100000000E-03 0. -1.
        -11    1    3    3    0    0  0.22565661910E+02  0.33659471212E+01  0.15066578297E+02  0.27341186501E+02  0.51100000000E-03 0.  1.
         12    1    3    3    0    0 -0.24231510908E+02  0.14026477775E+02 -0.16788032386E+01  0.28048646669E+02  0.00000000000E+00 0. -1.
</event>
<event>
 7    1  0.3434711E-013  0.7246091E+02  0.7816164E-02  0.1226710E+00
        -11   -1    0    0    0    0  0.00000000000E+00  0.00000000000E+00  0.45593999997E+02  0.45594000000E+02  0.51100000000E-03 0.  1.
         11   -1    0    0    0    0 -0.00000000000E+00 -0.00000000000E+00 -0.45593999997E+02  0.45594000000E+02  0.51100000000E-03 0. -1.
    9900012    2    1    2    0    0  0.38848495563E+01  0.72692360888E+01  0.16815769453E+02  0.72460908617E+02  0.69999138037E+02 0.  0.
         12    1    1    2    0    0 -0.38848495563E+01 -0.72692360888E+01 -0.16815769453E+02  0.18727091383E+02  0.00000000000E+00 0. -1.
         11    1    3    3    0    0 -0.68265834646E+01  0.92344215245E+01  0.27031304218E+02  0.29369511244E+02  0.51100000000E-03 0. -1.
        -11    1    3    3    0    0 -0.38223595318E+01  0.23365286657E+01  0.13902255561E+02  0.14606248955E+02  0.51100000000E-03 0.  1.
         12    1    3    3    0    0  0.14533792553E+02 -0.43017141015E+01 -0.24117790326E+02  0.28485148418E+02  0.00000000000E+00 0. -1.
</event>
<event>
 7    1  0.3434711E-013  0.7246172E+02  0.7816164E-02  0.1226708E+00
        -11   -1    0    0    0    0  0.00000000000E+00  0.00000000000E+00  0.45593999997E+02  0.45594000000E+02  0.51100000000E-03 0. -1.
         11   -1    0    0    0    0 -0.00000000000E+00 -0.00000000000E+00 -0.45593999997E+02  0.45594000000E+02  0.51100000000E-03 0.  1.
    9900012    2    1    2    0    0 -0.10006019854E+02  0.14006424514E+02 -0.73738239073E+01  0.72461717934E+02  0.70000192328E+02 0.  0.
         12    1    1    2    0    0  0.10006019854E+02 -0.14006424514E+02  0.73738239073E+01  0.18726282066E+02  0.00000000000E+00 0. -1.
         11    1    3    3    0    0 -0.67130676978E+01  0.45121642753E+01  0.20291315343E+01  0.83392013651E+01  0.51100000000E-03 0. -1.
        -11    1    3    3    0    0 -0.22506053222E+02  0.28297013233E+02 -0.18697417589E+01  0.36204134074E+02  0.51100000000E-03 0.  1.
         12    1    3    3    0    0  0.19213101066E+02 -0.18802752994E+02 -0.75332136827E+01  0.27918382495E+02  0.00000000000E+00 0. -1.
</event>
<event>
 7    1  0.3434711E-013  0.7246156E+02  0.7816164E-02  0.1226708E+00
        -11   -1    0    0    0    0  0.00000000000E+00  0.00000000000E+00  0.45593999997E+02  0.45594000000E+02  0.51100000000E-03 0.  1.
         11   -1    0    0    0    0 -0.00000000000E+00 -0.00000000000E+00 -0.45593999997E+02  0.45594000000E+02  0.51100000000E-03 0. -1.
    9900012    2    1    2    0    0  0.10988367039E+01  0.11186024274E+02  0.14978148038E+02  0.72461561476E+02  0.69999988512E+02 0.  0.
         12    1    1    2    0    0 -0.10988367039E+01 -0.11186024274E+02 -0.14978148038E+02  0.18726438524E+02  0.00000000000E+00 0. -1.
         11    1    3    3    0    0 -0.27651083313E+02 -0.11967285669E+01 -0.11141525526E+02  0.29835350827E+02  0.51100000000E-03 0. -1.
        -11    1    3    3    0    0  0.15180592250E+02  0.91733830736E+01  0.72449766842E+01  0.19159619659E+02  0.51100000000E-03 0.  1.
        -12    1    3    3    0    0  0.13569327767E+02  0.32093697670E+01  0.18874696880E+02  0.23466590989E+02  0.00000000000E+00 0.  1.
</event>
<event>
 7    1  0.3434711E-013  0.7246160E+02  0.7816164E-02  0.1226708E+00
        -11   -1    0    0    0    0  0.00000000000E+00  0.00000000000E+00  0.45593999997E+02  0.45594000000E+02  0.51100000000E-03 0.  1.
         11   -1    0    0    0    0 -0.00000000000E+00 -0.00000000000E+00 -0.45593999997E+02  0.45594000000E+02  0.51100000000E-03 0. -1.
    9900012    2    1    2    0    0  0.81554668587E+01  0.14568812330E+00  0.16856602878E+02  0.72461603516E+02  0.70000043277E+02 0.  0.
         12    1    1    2    0    0 -0.81554668587E+01 -0.14568812330E+00 -0.16856602878E+02  0.18726396484E+02  0.00000000000E+00 0. -1.
         11    1    3    3    0    0  0.46956414181E+01  0.11895857487E+02  0.73308589064E+00  0.12810069823E+02  0.51100000000E-03 0. -1.
        -11    1    3    3    0    0 -0.16900147292E+02  0.60377557653E+01  0.25372078101E+02  0.31077513102E+02  0.51100000000E-03 0.  1.
         12    1    3    3    0    0  0.20359972733E+02 -0.17787925129E+02 -0.92485611137E+01  0.28574020591E+02  0.00000000000E+00 0. -1.
</event>
<event>
 7    1  0.3434711E-013  0.7246157E+02  0.7816164E-02  0.1226708E+00
        -11   -1    0    0    0    0  0.00000000000E+00  0.00000000000E+00  0.45593999997E+02  0.45594000000E+02  0.51100000000E-03 0.  1.
         11   -1    0    0    0    0 -0.00000000000E+00 -0.00000000000E+00 -0.45593999997E+02  0.45594000000E+02  0.51100000000E-03 0. -1.
    9900012    2    1    2    0    0 -0.48020019540E+01  0.17093671852E+02  0.59520043488E+01  0.72461569590E+02  0.69999999082E+02 0.  0.
         12    1    1    2    0    0  0.48020019540E+01 -0.17093671852E+02 -0.59520043488E+01  0.18726430410E+02  0.00000000000E+00 0. -1.
         11    1    3    3    0    0 -0.13573827496E+02 -0.18366619855E+02  0.38792021629E+01  0.23165269855E+02  0.51100000000E-03 0. -1.
        -11    1    3    3    0    0  0.40511920087E-01 -0.53366537163E+01  0.52092757221E+01  0.74577522025E+01  0.51100000000E-03 0.  1.
        -12    1    3    3    0    0  0.87313136218E+01  0.40796945423E+02 -0.31364735362E+01  0.41838547532E+02  0.00000000000E+00 0.  1.
</event>
<event>
 7    1  0.3768524E-013  0.7246159E+02  0.7816164E-02  0.1226708E+00
        -11   -1    0    0    0    0  0.00000000000E+00  0.00000000000E+00  0.45593999997E+02  0.45594000000E+02  0.51100000000E-03 0. -1.
         11   -1    0    0    0    0 -0.00000000000E+00 -0.00000000000E+00 -0.45593999997E+02  0.45594000000E+02  0.51100000000E-03 0.  1.
    9900012    2    1    2    0    0  0.17622409034E+01  0.13345610052E+02 -0.13017974354E+02  0.72461589320E+02  0.70000024785E+02 0.  0.
         12    1    1    2    0    0 -0.17622409034E+01 -0.13345610052E+02  0.13017974354E+02  0.18726410680E+02  0.00000000000E+00 0. -1.
         11    1    3    3    0    0 -0.16422602172E+02  0.61776984268E+01  0.15474971035E+01  0.17614214927E+02  0.51100000000E-03 0. -1.
        -11    1    3    3    0    0  0.28125494395E+02  0.20122731269E+02 -0.27503654628E+01  0.34691962457E+02  0.51100000000E-03 0.  1.
         12    1    3    3    0    0 -0.99406513195E+01 -0.12954819643E+02 -0.11815105995E+02  0.20155411936E+02  0.00000000000E+00 0. -1.
</event>
<event>
 7    1  0.3434711E-013  0.7246159E+02  0.7816164E-02  0.1226708E+00
        -11   -1    0    0    0    0  0.00000000000E+00  0.00000000000E+00  0.45593999997E+02  0.45594000000E+02  0.51100000000E-03 0.  1.
         11   -1    0    0    0    0 -0.00000000000E+00 -0.00000000000E+00 -0.45593999997E+02  0.45594000000E+02  0.51100000000E-03 0. -1.
    9900012    2    1    2    0    0  0.12289255028E+01  0.49308696891E+01  0.18023727720E+02  0.72461588312E+02  0.70000023471E+02 0.  0.
         12    1    1    2    0    0 -0.12289255028E+01 -0.49308696891E+01 -0.18023727720E+02  0.18726411688E+02  0.00000000000E+00 0. -1.
         11    1    3    3    0    0  0.18807054061E+02 -0.63695878891E+01 -0.53765676321E+01  0.20571446524E+02  0.51100000000E-03 0. -1.
        -11    1    3    3    0    0  0.76858378651E+01  0.10444663978E+02  0.23237702859E+02  0.26611162013E+02  0.51100000000E-03 0.  1.
         12    1    3    3    0    0 -0.25263966423E+02  0.85579360035E+00  0.16259249407E+00  0.25278979774E+02  0.00000000000E+00 0. -1.
</event>
<event>
 7    1  0.3434711E-013  0.7246156E+02  0.7816164E-02  0.1226708E+00
        -11   -1    0    0    0    0  0.00000000000E+00  0.00000000000E+00  0.45593999997E+02  0.45594000000E+02  0.51100000000E-03 0. -1.
         11   -1    0    0    0    0 -0.00000000000E+00 -0.00000000000E+00 -0.45593999997E+02  0.45594000000E+02  0.51100000000E-03 0.  1.
    9900012    2    1    2    0    0 -0.46589968635E+01  0.45501116924E+01 -0.17557618587E+02  0.72461555099E+02  0.69999980205E+02 0.  0.
         12    1    1    2    0    0  0.46589968635E+01 -0.45501116924E+01  0.17557618587E+02  0.18726444901E+02  0.00000000000E+00 0. -1.
         11    1    3    3    0    0  0.14668449895E+01  0.90030435710E+01 -0.21321418999E+02  0.23190716594E+02  0.51100000000E-03 0. -1.
        -11    1    3    3    0    0  0.20067236755E+02 -0.45729135233E+01  0.91590248002E+01  0.22527611161E+02  0.51100000000E-03 0.  1.
         12    1    3    3    0    0 -0.26193078608E+02  0.11998164469E+00 -0.53952243877E+01  0.26743227344E+02  0.00000000000E+00 0. -1.
</event>
<event>
 7    1  0.3434711E-013  0.7246147E+02  0.7816164E-02  0.1226708E+00
        -11   -1    0    0    0    0  0.00000000000E+00  0.00000000000E+00  0.45593999997E+02  0.45594000000E+02  0.51100000000E-03 0.  1.
         11   -1    0    0    0    0 -0.00000000000E+00 -0.00000000000E+00 -0.45593999997E+02  0.45594000000E+02  0.51100000000E-03 0. -1.
    9900012    2    1    2    0    0 -0.14787738017E+02  0.11422512886E+02 -0.12377528842E+01  0.72461467260E+02  0.69999865778E+02 0.  0.
         12    1    1    2    0    0  0.14787738017E+02 -0.11422512886E+02  0.12377528842E+01  0.18726532740E+02  0.00000000000E+00 0. -1.
         11    1    3    3    0    0 -0.18872360175E+02  0.84690211582E+01 -0.16988182341E+01  0.20755150725E+02  0.51100000000E-03 0. -1.
        -11    1    3    3    0    0 -0.10570160485E+02  0.19184450968E+02  0.13991440135E+02  0.25990995536E+02  0.51100000000E-03 0.  1.
        -12    1    3    3    0    0  0.14654782644E+02 -0.16230959241E+02 -0.13530374785E+02  0.25715320998E+02  0.00000000000E+00 0.  1.
</event>
<event>
 7    1  0.3434711E-013  0.7246154E+02  0.7816164E-02  0.1226708E+00
        -11   -1    0    0    0    0  0.00000000000E+00  0.00000000000E+00  0.45593999997E+02  0.45594000000E+02  0.51100000000E-03 0.  1.
         11   -1    0    0    0    0 -0.00000000000E+00 -0.00000000000E+00 -0.45593999997E+02  0.45594000000E+02  0.51100000000E-03 0. -1.
    9900012    2    1    2    0    0 -0.57874768449E+01 -0.16227448751E+02 -0.73386213083E+01  0.72461538938E+02  0.69999959153E+02 0.  0.
         12    1    1    2    0    0  0.57874768449E+01  0.16227448751E+02  0.73386213083E+01  0.18726461062E+02  0.00000000000E+00 0. -1.
         11    1    3    3    0    0 -0.21717603194E+02 -0.27025562925E+02 -0.20265041682E+02  0.40158526548E+02  0.51100000000E-03 0. -1.
        -11    1    3    3    0    0 -0.14759636032E+01 -0.36040359895E+01  0.84045159175E+01  0.92630141985E+01  0.51100000000E-03 0.  1.
        -12    1    3    3    0    0  0.17406089952E+02  0.14402150164E+02  0.45219044561E+01  0.23039998192E+02  0.00000000000E+00 0.  1.
</event>
<event>
 7    1  0.3434711E-013  0.7246157E+02  0.7816164E-02  0.1226708E+00
        -11   -1    0    0    0    0  0.00000000000E+00  0.00000000000E+00  0.45593999997E+02  0.45594000000E+02  0.51100000000E-03 0.  1.
         11   -1    0    0    0    0 -0.00000000000E+00 -0.00000000000E+00 -0.45593999997E+02  0.45594000000E+02  0.51100000000E-03 0. -1.
    9900012    2    1    2    0    0 -0.15416339771E+00 -0.18572696573E+02  0.23896645442E+01  0.72461566250E+02  0.69999994732E+02 0.  0.
         12    1    1    2    0    0  0.15416339771E+00  0.18572696573E+02 -0.23896645442E+01  0.18726433750E+02  0.00000000000E+00 0. -1.
         11    1    3    3    0    0  0.17081008215E+02 -0.91121869650E+01 -0.50377052662E+01  0.20004281230E+02  0.51100000000E-03 0. -1.
        -11    1    3    3    0    0  0.32195288074E+01 -0.94734755951E+01 -0.17532538951E+02  0.20186679468E+02  0.51100000000E-03 0.  1.
        -12    1    3    3    0    0 -0.20454700420E+02  0.12965987217E-01  0.24959908761E+02  0.32270605553E+02  0.00000000000E+00 0.  1.
</event>
<event>
 7    1  0.3434711E-013  0.7246160E+02  0.7816164E-02  0.1226708E+00
        -11   -1    0    0    0    0  0.00000000000E+00  0.00000000000E+00  0.45593999997E+02  0.45594000000E+02  0.51100000000E-03 0.  1.
         11   -1    0    0    0    0 -0.00000000000E+00 -0.00000000000E+00 -0.45593999997E+02  0.45594000000E+02  0.51100000000E-03 0. -1.
    9900012    2    1    2    0    0 -0.36981061311E+00  0.98774448273E+01  0.15905267990E+02  0.72461595485E+02  0.70000032816E+02 0.  0.
         12    1    1    2    0    0  0.36981061311E+00 -0.98774448273E+01 -0.15905267990E+02  0.18726404515E+02  0.00000000000E+00 0. -1.
         11    1    3    3    0    0  0.12149917116E+02  0.11673499904E+02 -0.14107964414E+02  0.21975571576E+02  0.51100000000E-03 0. -1.
        -11    1    3    3    0    0  0.61618800007E+01  0.51249658381E+01 -0.55319972318E+01  0.97384307574E+01  0.51100000000E-03 0.  1.
        -12    1    3    3    0    0 -0.18681607729E+02 -0.69210209145E+01  0.35545229636E+02  0.40747593152E+02  0.00000000000E+00 0.  1.
</event>
<event>
 7    1  0.3434711E-013  0.7246154E+02  0.7816164E-02  0.1226708E+00
        -11   -1    0    0    0    0  0.00000000000E+00  0.00000000000E+00  0.45593999997E+02  0.45594000000E+02  0.51100000000E-03 0.  1.
         11   -1    0    0    0    0 -0.00000000000E+00 -0.00000000000E+00 -0.45593999997E+02  0.45594000000E+02  0.51100000000E-03 0. -1.
    9900012    2    1    2    0    0 -0.10744915101E+02 -0.13410500183E+02 -0.74421594593E+01  0.72461536022E+02  0.69999955355E+02 0.  0.
         12    1    1    2    0    0  0.10744915101E+02  0.13410500183E+02  0.74421594593E+01  0.18726463978E+02  0.00000000000E+00 0. -1.
         11    1    3    3    0    0  0.51276157307E+00  0.15112493886E-01 -0.24178237033E+02  0.24183678362E+02  0.51100000000E-03 0. -1.
        -11    1    3    3    0    0 -0.13894626055E+02 -0.16426912037E+01 -0.11149442355E+02  0.17890476033E+02  0.51100000000E-03 0.  1.
        -12    1    3    3    0    0  0.26369493804E+01 -0.11782921473E+02  0.27885519929E+02  0.30387381628E+02  0.00000000000E+00 0.  1.
</event>
<event>
 7    1  0.3434711E-013  0.7246157E+02  0.7816164E-02  0.1226708E+00
        -11   -1    0    0    0    0  0.00000000000E+00  0.00000000000E+00  0.45593999997E+02  0.45594000000E+02  0.51100000000E-03 0.  1.
         11   -1    0    0    0    0 -0.00000000000E+00 -0.00000000000E+00 -0.45593999997E+02  0.45594000000E+02  0.51100000000E-03 0. -1.
    9900012    2    1    2    0    0  0.71904543940E+01 -0.66048534567E+01  0.15979754752E+02  0.72461567198E+02  0.69999995966E+02 0.  0.
         12    1    1    2    0    0 -0.71904543940E+01  0.66048534567E+01 -0.15979754752E+02  0.18726432802E+02  0.00000000000E+00 0. -1.
         11    1    3    3    0    0  0.18094082901E+02 -0.60630399806E+00 -0.14174052558E+02  0.22992764226E+02  0.51100000000E-03 0. -1.
        -11    1    3    3    0    0  0.82446629698E-01 -0.20182455522E+02  0.21703223241E+02  0.29637277332E+02  0.51100000000E-03 0.  1.
         12    1    3    3    0    0 -0.10986075137E+02  0.14183906063E+02  0.84505840688E+01  0.19831525640E+02  0.00000000000E+00 0. -1.
</event>
<event>
 7    1  0.3434711E-013  0.7246152E+02  0.7816164E-02  0.1226708E+00
        -11   -1    0    0    0    0  0.00000000000E+00  0.00000000000E+00  0.45593999997E+02  0.45594000000E+02  0.51100000000E-03 0.  1.
         11   -1    0    0    0    0 -0.00000000000E+00 -0.00000000000E+00 -0.45593999997E+02  0.45594000000E+02  0.51100000000E-03 0. -1.
    9900012    2    1    2    0    0  0.10540376656E+02  0.73840649180E+01  0.13603575770E+02  0.72461515319E+02  0.69999928385E+02 0.  0.
         12    1    1    2    0    0 -0.10540376656E+02 -0.73840649180E+01 -0.13603575770E+02  0.18726484681E+02  0.00000000000E+00 0. -1.
         11    1    3    3    0    0  0.74684522376E+01  0.55381498929E+01 -0.37598680348E+01  0.10029231823E+02  0.51100000000E-03 0. -1.
        -11    1    3    3    0    0  0.21318560136E+02 -0.79532730231E+01  0.30390421869E+02  0.37964632221E+02  0.51100000000E-03 0.  1.
         12    1    3    3    0    0 -0.18246635717E+02  0.97991880482E+01 -0.13026978065E+02  0.24467651275E+02  0.00000000000E+00 0. -1.
</event>
<event>
 7    1  0.3434711E-013  0.7246157E+02  0.7816164E-02  0.1226708E+00
        -11   -1    0    0    0    0  0.00000000000E+00  0.00000000000E+00  0.45593999997E+02  0.45594000000E+02  0.51100000000E-03 0.  1.
         11   -1    0    0    0    0 -0.00000000000E+00 -0.00000000000E+00 -0.45593999997E+02  0.45594000000E+02  0.51100000000E-03 0. -1.
    9900012    2    1    2    0    0 -0.24227990439E+01  0.11451065868E+02  0.14617872069E+02  0.72461573525E+02  0.70000004209E+02 0.  0.
         12    1    1    2    0    0  0.24227990439E+01 -0.11451065868E+02 -0.14617872069E+02  0.18726426475E+02  0.00000000000E+00 0. -1.
         11    1    3    3    0    0 -0.23682343442E+02  0.82448611252E+01  0.99155858400E+01  0.26965718397E+02  0.51100000000E-03 0. -1.
        -11    1    3    3    0    0 -0.88938391540E+00  0.18170314633E+02 -0.78220121566E+00  0.18208876314E+02  0.51100000000E-03 0.  1.
        -12    1    3    3    0    0  0.22148928314E+02 -0.14964109891E+02  0.54844874442E+01  0.27286978814E+02  0.00000000000E+00 0.  1.
</event>
<event>
 7    1  0.3434711E-013  0.7246175E+02  0.7816164E-02  0.1226708E+00
        -11   -1    0    0    0    0  0.00000000000E+00  0.00000000000E+00  0.45593999997E+02  0.45594000000E+02  0.51100000000E-03 0. -1.
         11   -1    0    0    0    0 -0.00000000000E+00 -0.00000000000E+00 -0.45593999997E+02  0.45594000000E+02  0.51100000000E-03 0.  1.
    9900012    2    1    2    0    0  0.95316984277E+01 -0.93382725412E+01  0.13138335260E+02  0.72461749378E+02  0.70000233289E+02 0.  0.
         12    1    1    2    0    0 -0.95316984277E+01  0.93382725412E+01 -0.13138335260E+02  0.18726250622E+02  0.00000000000E+00 0. -1.
         11    1    3    3    0    0  0.38184266914E+01  0.15440918657E+01  0.11130067960E+02  0.11867729991E+02  0.51100000000E-03 0. -1.
        -11    1    3    3    0    0  0.24971717137E+02  0.13421379553E+02  0.69607837627E+01  0.29191995422E+02  0.51100000000E-03 0.  1.
         12    1    3    3    0    0 -0.19258445401E+02 -0.24303743960E+02 -0.49525164631E+01  0.31402023964E+02  0.00000000000E+00 0. -1.
</event>
<event>
 7    1  0.3434711E-013  0.7246157E+02  0.7816164E-02  0.1226708E+00
        -11   -1    0    0    0    0  0.00000000000E+00  0.00000000000E+00  0.45593999997E+02  0.45594000000E+02  0.51100000000E-03 0.  1.
         11   -1    0    0    0    0 -0.00000000000E+00 -0.00000000000E+00 -0.45593999997E+02  0.45594000000E+02  0.51100000000E-03 0. -1.
    9900012    2    1    2    0    0 -0.17279845455E+01  0.18242615006E+02 -0.38600824271E+01  0.72461570303E+02  0.70000000012E+02 0.  0.
         12    1    1    2    0    0  0.17279845455E+01 -0.18242615006E+02  0.38600824271E+01  0.18726429697E+02  0.00000000000E+00 0. -1.
         11    1    3    3    0    0  0.70271780420E+00 -0.20537829270E+02 -0.17082622536E+02  0.26722878520E+02  0.51100000000E-03 0. -1.
        -11    1    3    3    0    0  0.10104485210E+01  0.17553851003E+02 -0.41828511991E+01  0.18073597751E+02  0.51100000000E-03 0.  1.
        -12    1    3    3    0    0 -0.34411508707E+01  0.21226593273E+02  0.17405391308E+02  0.27665094033E+02  0.00000000000E+00 0.  1.
</event>
<event>
 7    1  0.3434711E-013  0.7246150E+02  0.7816164E-02  0.1226708E+00
        -11   -1    0    0    0    0  0.00000000000E+00  0.00000000000E+00  0.45593999997E+02  0.45594000000E+02  0.51100000000E-03 0.  1.
         11   -1    0    0    0    0 -0.00000000000E+00 -0.00000000000E+00 -0.45593999997E+02  0.45594000000E+02  0.51100000000E-03 0. -1.
    9900012    2    1    2    0    0 -0.14616886407E+00  0.11488256589E+02 -0.14787849650E+02  0.72461497335E+02  0.69999904957E+02 0.  0.
         12    1    1    2    0    0  0.14616886407E+00 -0.11488256589E+02  0.14787849650E+02  0.18726502665E+02  0.00000000000E+00 0. -1.
         11    1    3    3    0    0  0.74700824653E+01 -0.76581399837E+01  0.35375949388E+01  0.11267822250E+02  0.51100000000E-03 0. -1.
        -11    1    3    3    0    0  0.17171608154E+02 -0.25274215514E+01  0.79279565125E+01  0.19081521979E+02  0.51100000000E-03 0.  1.
         12    1    3    3    0    0 -0.24787859484E+02  0.21673818124E+02 -0.26253401101E+02  0.42112153106E+02  0.00000000000E+00 0. -1.
</event>
<event>
 7    1  0.3434711E-013  0.7246155E+02  0.7816164E-02  0.1226708E+00
        -11   -1    0    0    0    0  0.00000000000E+00  0.00000000000E+00  0.45593999997E+02  0.45594000000E+02  0.51100000000E-03 0.  1.
         11   -1    0    0    0    0 -0.00000000000E+00 -0.00000000000E+00 -0.45593999997E+02  0.45594000000E+02  0.51100000000E-03 0. -1.
    9900012    2    1    2    0    0 -0.50996973930E+01 -0.91113372817E+01  0.15545311864E+02  0.72461545410E+02  0.69999967584E+02 0.  0.
         12    1    1    2    0    0  0.50996973930E+01  0.91113372817E+01 -0.15545311864E+02  0.18726454590E+02  0.00000000000E+00 0. -1.
         11    1    3    3    0    0 -0.68086572310E+01  0.20503353873E+01  0.42862045478E+01  0.83026043008E+01  0.51100000000E-03 0. -1.
        -11    1    3    3    0    0  0.74551465601E+01  0.58039209619E+00  0.35682182105E+02  0.36457292621E+02  0.51100000000E-03 0.  1.
         12    1    3    3    0    0 -0.57461867221E+01 -0.11742064765E+02 -0.24423074789E+02  0.27701648488E+02  0.00000000000E+00 0. -1.
</event>
<event>
 7    1  0.3434711E-013  0.7246151E+02  0.7816164E-02  0.1226708E+00
        -11   -1    0    0    0    0  0.00000000000E+00  0.00000000000E+00  0.45593999997E+02  0.45594000000E+02  0.51100000000E-03 0. -1.
         11   -1    0    0    0    0 -0.00000000000E+00 -0.00000000000E+00 -0.45593999997E+02  0.45594000000E+02  0.51100000000E-03 0.  1.
    9900012    2    1    2    0    0 -0.16714487608E+02  0.43131202746E+01 -0.72597618607E+01  0.72461514885E+02  0.69999927819E+02 0.  0.
         12    1    1    2    0    0  0.16714487608E+02 -0.43131202746E+01  0.72597618607E+01  0.18726485115E+02  0.00000000000E+00 0. -1.
         11    1    3    3    0    0  0.11782351680E+00  0.15305482587E+02  0.11214712103E+02  0.18974758165E+02  0.51100000000E-03 0. -1.
        -11    1    3    3    0    0  0.72883974125E+00 -0.25483479408E+02 -0.23804593754E+01  0.25604794809E+02  0.51100000000E-03 0.  1.
         12    1    3    3    0    0 -0.17561150866E+02  0.14491117096E+02 -0.16094014588E+02  0.27881961911E+02  0.00000000000E+00 0. -1.
</event>
<event>
 7    1  0.3434711E-013  0.7246153E+02  0.7816164E-02  0.1226708E+00
        -11   -1    0    0    0    0  0.00000000000E+00  0.00000000000E+00  0.45593999997E+02  0.45594000000E+02  0.51100000000E-03 0.  1.
         11   -1    0    0    0    0 -0.00000000000E+00 -0.00000000000E+00 -0.45593999997E+02  0.45594000000E+02  0.51100000000E-03 0. -1.
    9900012    2    1    2    0    0  0.16045525031E+02  0.79809026495E+00 -0.96221036770E+01  0.72461529410E+02  0.69999946740E+02 0.  0.
         12    1    1    2    0    0 -0.16045525031E+02 -0.79809026495E+00  0.96221036770E+01  0.18726470590E+02  0.00000000000E+00 0. -1.
         11    1    3    3    0    0 -0.15140978580E+02 -0.47789702780E+01 -0.93929736714E+01  0.18447648737E+02  0.51100000000E-03 0. -1.
        -11    1    3    3    0    0  0.86396242048E+01  0.10819139598E+02  0.19283177758E+02  0.23738951804E+02  0.51100000000E-03 0.  1.
         12    1    3    3    0    0  0.22546879406E+02 -0.52420790549E+01 -0.19512307764E+02  0.30274928869E+02  0.00000000000E+00 0. -1.
</event>
<event>
 7    1  0.3811560E-013  0.7246152E+02  0.7816164E-02  0.1226708E+00
        -11   -1    0    0    0    0  0.00000000000E+00  0.00000000000E+00  0.45593999997E+02  0.45594000000E+02  0.51100000000E-03 0. -1.
         11   -1    0    0    0    0 -0.00000000000E+00 -0.00000000000E+00 -0.45593999997E+02  0.45594000000E+02  0.51100000000E-03 0.  1.
    9900012    2    1    2    0    0  0.13678196923E+02  0.31638432361E+01 -0.12392657697E+02  0.72461523025E+02  0.69999938423E+02 0.  0.
         12    1    1    2    0    0 -0.13678196923E+02 -0.31638432361E+01  0.12392657697E+02  0.18726476975E+02  0.00000000000E+00 0. -1.
         11    1    3    3    0    0  0.67859995214E+01  0.11806532274E+02 -0.29817312064E+01  0.13940398671E+02  0.51100000000E-03 0. -1.
        -11    1    3    3    0    0  0.20339686091E+01  0.24727836223E+01 -0.32384020089E+02  0.32541918267E+02  0.51100000000E-03 0.  1.
         12    1    3    3    0    0  0.48582287927E+01 -0.11115472661E+02  0.22973093598E+02  0.25979206088E+02  0.00000000000E+00 0. -1.
</event>
<event>
 7    1  0.3434711E-013  0.7246154E+02  0.7816164E-02  0.1226708E+00
        -11   -1    0    0    0    0  0.00000000000E+00  0.00000000000E+00  0.45593999997E+02  0.45594000000E+02  0.51100000000E-03 0. -1.
         11   -1    0    0    0    0 -0.00000000000E+00 -0.00000000000E+00 -0.45593999997E+02  0.45594000000E+02  0.51100000000E-03 0.  1.
    9900012    2    1    2    0    0  0.16924918394E+02 -0.16229915613E+01 -0.78481477372E+01  0.72461537783E+02  0.69999957649E+02 0.  0.
         12    1    1    2    0    0 -0.16924918394E+02  0.16229915613E+01  0.78481477372E+01  0.18726462217E+02  0.00000000000E+00 0. -1.
         11    1    3    3    0    0  0.86780939790E+01 -0.87904157849E+01 -0.27296140599E+01  0.12650356436E+02  0.51100000000E-03 0. -1.
        -11    1    3    3    0    0 -0.17236588314E+02 -0.11117584640E+02 -0.16624942458E+02  0.26402450206E+02  0.51100000000E-03 0.  1.
         12    1    3    3    0    0  0.25483412728E+02  0.18285008864E+02  0.11506408780E+02  0.33408731141E+02  0.00000000000E+00 0. -1.
</event>
<event>
 7    1  0.3434711E-013  0.7246192E+02  0.7816164E-02  0.1226707E+00
        -11   -1    0    0    0    0  0.00000000000E+00  0.00000000000E+00  0.45593999997E+02  0.45594000000E+02  0.51100000000E-03 0.  1.
         11   -1    0    0    0    0 -0.00000000000E+00 -0.00000000000E+00 -0.45593999997E+02  0.45594000000E+02  0.51100000000E-03 0. -1.
    9900012    2    1    2    0    0  0.11437448167E+01  0.18434897497E+02  0.30842195612E+01  0.72461921707E+02  0.70000457779E+02 0.  0.
         12    1    1    2    0    0 -0.11437448167E+01 -0.18434897497E+02 -0.30842195612E+01  0.18726078293E+02  0.00000000000E+00 0. -1.
         11    1    3    3    0    0  0.21563952359E+02  0.10339498541E+02  0.44493894133E+01  0.24325014652E+02  0.51100000000E-03 0. -1.
        -11    1    3    3    0    0  0.40194555816E+01 -0.14157320685E+02 -0.30957793533E+01  0.15038936207E+02  0.51100000000E-03 0.  1.
        -12    1    3    3    0    0 -0.24439663124E+02  0.22252719641E+02  0.17306095013E+01  0.33097970848E+02  0.00000000000E+00 0.  1.
</event>
<event>
 7    1  0.3434711E-013  0.7246163E+02  0.7816164E-02  0.1226708E+00
        -11   -1    0    0    0    0  0.00000000000E+00  0.00000000000E+00  0.45593999997E+02  0.45594000000E+02  0.51100000000E-03 0.  1.
         11   -1    0    0    0    0 -0.00000000000E+00 -0.00000000000E+00 -0.45593999997E+02  0.45594000000E+02  0.51100000000E-03 0. -1.
    9900012    2    1    2    0    0  0.14612637250E+02  0.25988840719E+01  0.11419002528E+02  0.72461628633E+02  0.70000075997E+02 0.  0.
         12    1    1    2    0    0 -0.14612637250E+02 -0.25988840719E+01 -0.11419002528E+02  0.18726371367E+02  0.00000000000E+00 0. -1.
         11    1    3    3    0    0 -0.97799613442E+01 -0.23679673810E+01 -0.76022948002E+01  0.12611494753E+02  0.51100000000E-03 0. -1.
        -11    1    3    3    0    0  0.91090550098E+01 -0.19727127805E+02  0.21671368371E+02  0.30688477674E+02  0.51100000000E-03 0.  1.
         12    1    3    3    0    0  0.15283543585E+02  0.24693979258E+02 -0.26500710427E+01  0.29161656206E+02  0.00000000000E+00 0. -1.
</event>
<event>
 7    1  0.3434711E-013  0.7246163E+02  0.7816164E-02  0.1226708E+00
        -11   -1    0    0    0    0  0.00000000000E+00  0.00000000000E+00  0.45593999997E+02  0.45594000000E+02  0.51100000000E-03 0.  1.
         11   -1    0    0    0    0 -0.00000000000E+00 -0.00000000000E+00 -0.45593999997E+02  0.45594000000E+02  0.51100000000E-03 0. -1.
    9900012    2    1    2    0    0  0.13187060080E+02  0.41563889608E+01  0.12629444403E+02  0.72461628523E+02  0.70000075854E+02 0.  0.
         12    1    1    2    0    0 -0.13187060080E+02 -0.41563889608E+01 -0.12629444403E+02  0.18726371477E+02  0.00000000000E+00 0. -1.
         11    1    3    3    0    0 -0.29054058918E+01 -0.10656645125E+02 -0.12845295714E+02  0.16941283628E+02  0.51100000000E-03 0. -1.
        -11    1    3    3    0    0  0.98377157976E+01 -0.15510228558E+02  0.92245956489E+01  0.20553369728E+02  0.51100000000E-03 0.  1.
        -12    1    3    3    0    0  0.62547501746E+01  0.30323262644E+02  0.16250144468E+02  0.34966975167E+02  0.00000000000E+00 0.  1.
</event>
<event>
 7    1  0.3434711E-013  0.7246157E+02  0.7816164E-02  0.1226708E+00
        -11   -1    0    0    0    0  0.00000000000E+00  0.00000000000E+00  0.45593999997E+02  0.45594000000E+02  0.51100000000E-03 0.  1.
         11   -1    0    0    0    0 -0.00000000000E+00 -0.00000000000E+00 -0.45593999997E+02  0.45594000000E+02  0.51100000000E-03 0. -1.
    9900012    2    1    2    0    0  0.18424562538E+02 -0.22427451491E+01  0.24869099821E+01  0.72461571302E+02  0.70000001313E+02 0.  0.
         12    1    1    2    0    0 -0.18424562538E+02  0.22427451491E+01 -0.24869099821E+01  0.18726428698E+02  0.00000000000E+00 0. -1.
         11    1    3    3    0    0  0.79901092170E+01  0.38193245790E+01 -0.10475693591E+02  0.13717479434E+02  0.51100000000E-03 0. -1.
        -11    1    3    3    0    0 -0.11901895295E+02  0.19288806264E+02  0.10167766405E+02  0.24841429763E+02  0.51100000000E-03 0.  1.
         12    1    3    3    0    0  0.22336348616E+02 -0.25350875992E+02  0.27948371681E+01  0.33902662106E+02  0.00000000000E+00 0. -1.
</event>
<event>
 7    1  0.3434711E-013  0.7246168E+02  0.7816164E-02  0.1226708E+00
        -11   -1    0    0    0    0  0.00000000000E+00  0.00000000000E+00  0.45593999997E+02  0.45594000000E+02  0.51100000000E-03 0.  1.
         11   -1    0    0    0    0 -0.00000000000E+00 -0.00000000000E+00 -0.45593999997E+02  0.45594000000E+02  0.51100000000E-03 0. -1.
    9900012    2    1    2    0    0 -0.10414154240E+01 -0.16219413058E+02  0.93016818462E+01  0.72461676517E+02  0.70000138374E+02 0.  0.
         12    1    1    2    0    0  0.10414154240E+01  0.16219413058E+02 -0.93016818462E+01  0.18726323483E+02  0.00000000000E+00 0. -1.
         11    1    3    3    0    0  0.33903803336E+01  0.97972424452E+01  0.34327720602E+00  0.10372968613E+02  0.51100000000E-03 0. -1.
        -11    1    3    3    0    0 -0.29345224397E+02 -0.78726720166E+01  0.71654929186E+01  0.31216429146E+02  0.51100000000E-03 0.  1.
         12    1    3    3    0    0  0.24913428639E+02 -0.18143983486E+02  0.17929117216E+01  0.30872278759E+02  0.00000000000E+00 0. -1.
</event>
<event>
 7    1  0.3434711E-013  0.7246147E+02  0.7816164E-02  0.1226708E+00
        -11   -1    0    0    0    0  0.00000000000E+00  0.00000000000E+00  0.45593999997E+02  0.45594000000E+02  0.51100000000E-03 0.  1.
         11   -1    0    0    0    0 -0.00000000000E+00 -0.00000000000E+00 -0.45593999997E+02  0.45594000000E+02  0.51100000000E-03 0. -1.
    9900012    2    1    2    0    0 -0.16531036811E+01 -0.19323824283E+01  0.18553059587E+02  0.72461471393E+02  0.69999871163E+02 0.  0.
         12    1    1    2    0    0  0.16531036811E+01  0.19323824283E+01 -0.18553059587E+02  0.18726528607E+02  0.00000000000E+00 0. -1.
         11    1    3    3    0    0  0.12322871899E+02 -0.16582326563E+02  0.19519875900E+01  0.20751794667E+02  0.51100000000E-03 0. -1.
        -11    1    3    3    0    0  0.93615300381E+01  0.18294506154E+02 -0.33116102091E+01  0.20815714316E+02  0.51100000000E-03 0.  1.
        -12    1    3    3    0    0 -0.23337505618E+02 -0.36445620191E+01  0.19912682206E+02  0.30893962410E+02  0.00000000000E+00 0.  1.
</event>
<event>
 7    1  0.3434711E-013  0.7246161E+02  0.7816164E-02  0.1226708E+00
        -11   -1    0    0    0    0  0.00000000000E+00  0.00000000000E+00  0.45593999997E+02  0.45594000000E+02  0.51100000000E-03 0.  1.
         11   -1    0    0    0    0 -0.00000000000E+00 -0.00000000000E+00 -0.45593999997E+02  0.45594000000E+02  0.51100000000E-03 0. -1.
    9900012    2    1    2    0    0 -0.15919161494E+02 -0.98238764704E+01 -0.86569487179E+00  0.72461610087E+02  0.70000051837E+02 0.  0.
         12    1    1    2    0    0  0.15919161494E+02  0.98238764704E+01  0.86569487179E+00  0.18726389913E+02  0.00000000000E+00 0. -1.
         11    1    3    3    0    0 -0.23060052461E+01 -0.13711103240E+02  0.45638075137E+01  0.14633535169E+02  0.51100000000E-03 0. -1.
        -11    1    3    3    0    0  0.20695869239E+00 -0.19330673348E+02  0.14573691097E+02  0.24209713680E+02  0.51100000000E-03 0.  1.
         12    1    3    3    0    0 -0.13820114940E+02  0.23217900118E+02 -0.20003193483E+02  0.33618361238E+02  0.00000000000E+00 0. -1.
</event>
<event>
 7    1  0.3434711E-013  0.7246160E+02  0.7816164E-02  0.1226708E+00
        -11   -1    0    0    0    0  0.00000000000E+00  0.00000000000E+00  0.45593999997E+02  0.45594000000E+02  0.51100000000E-03 0.  1.
         11   -1    0    0    0    0 -0.00000000000E+00 -0.00000000000E+00 -0.45593999997E+02  0.45594000000E+02  0.51100000000E-03 0. -1.
    9900012    2    1    2    0    0  0.14707810756E+02 -0.30823267880E+01 -0.11173968607E+02  0.72461601252E+02  0.70000040328E+02 0.  0.
         12    1    1    2    0    0 -0.14707810756E+02  0.30823267880E+01  0.11173968607E+02  0.18726398748E+02  0.00000000000E+00 0. -1.
         11    1    3    3    0    0  0.13193553591E+02  0.26458778951E+01  0.72358437779E+01  0.15278349440E+02  0.51100000000E-03 0. -1.
        -11    1    3    3    0    0  0.20369755161E+02 -0.16711021619E+02  0.31169372951E+01  0.26531122615E+02  0.51100000000E-03 0.  1.
         12    1    3    3    0    0 -0.18855497995E+02  0.10982816936E+02 -0.21526749680E+02  0.30652129196E+02  0.00000000000E+00 0. -1.
</event>
<event>
 7    1  0.3434711E-013  0.7246146E+02  0.7816164E-02  0.1226708E+00
        -11   -1    0    0    0    0  0.00000000000E+00  0.00000000000E+00  0.45593999997E+02  0.45594000000E+02  0.51100000000E-03 0.  1.
         11   -1    0    0    0    0 -0.00000000000E+00 -0.00000000000E+00 -0.45593999997E+02  0.45594000000E+02  0.51100000000E-03 0. -1.
    9900012    2    1    2    0    0  0.11920312649E+02  0.11987506433E+02 -0.80553741095E+01  0.72461462248E+02  0.69999859249E+02 0.  0.
         12    1    1    2    0    0 -0.11920312649E+02 -0.11987506433E+02  0.80553741095E+01  0.18726537752E+02  0.00000000000E+00 0. -1.
         11    1    3    3    0    0 -0.20491151194E+02 -0.11472361776E+02 -0.33833215323E+01  0.23726551095E+02  0.51100000000E-03 0. -1.
        -11    1    3    3    0    0 -0.19763924088E+01 -0.36406675983E+01  0.17241805749E+01  0.44870242289E+01  0.51100000000E-03 0.  1.
        -12    1    3    3    0    0  0.34387856252E+02  0.27100535808E+02 -0.63962331521E+01  0.44247886924E+02  0.00000000000E+00 0.  1.
</event>
<event>
 7    1  0.3434711E-013  0.7246152E+02  0.7816164E-02  0.1226708E+00
        -11   -1    0    0    0    0  0.00000000000E+00  0.00000000000E+00  0.45593999997E+02  0.45594000000E+02  0.51100000000E-03 0.  1.
         11   -1    0    0    0    0 -0.00000000000E+00 -0.00000000000E+00 -0.45593999997E+02  0.45594000000E+02  0.51100000000E-03 0. -1.
    9900012    2    1    2    0    0  0.18343977577E+02 -0.21917152283E+01  0.30620308290E+01  0.72461517101E+02  0.69999930705E+02 0.  0.
         12    1    1    2    0    0 -0.18343977577E+02  0.21917152283E+01 -0.30620308290E+01  0.18726482899E+02  0.00000000000E+00 0. -1.
         11    1    3    3    0    0  0.17202906037E+00 -0.25928748065E+01  0.24360628134E+01  0.35618809710E+01  0.51100000000E-03 0. -1.
        -11    1    3    3    0    0  0.23599740055E+02 -0.24762756784E+02  0.17194746334E+02  0.38285782687E+02  0.51100000000E-03 0.  1.
         12    1    3    3    0    0 -0.54277915380E+01  0.25163916362E+02 -0.16568778319E+02  0.30613853443E+02  0.00000000000E+00 0. -1.
</event>
<event>
 7    1  0.3434711E-013  0.7246155E+02  0.7816164E-02  0.1226708E+00
        -11   -1    0    0    0    0  0.00000000000E+00  0.00000000000E+00  0.45593999997E+02  0.45594000000E+02  0.51100000000E-03 0.  1.
         11   -1    0    0    0    0 -0.00000000000E+00 -0.00000000000E+00 -0.45593999997E+02  0.45594000000E+02  0.51100000000E-03 0. -1.
    9900012    2    1    2    0    0 -0.59128624291E+01 -0.26480601532E+01  0.17570024887E+02  0.72461549744E+02  0.69999973229E+02 0.  0.
         12    1    1    2    0    0  0.59128624291E+01  0.26480601532E+01 -0.17570024887E+02  0.18726450256E+02  0.00000000000E+00 0. -1.
         11    1    3    3    0    0  0.16975590377E+02 -0.35687688514E+01  0.57788926328E+01  0.18283937762E+02  0.51100000000E-03 0. -1.
        -11    1    3    3    0    0 -0.29607879927E+01  0.22967591098E+02  0.48774020213E+01  0.23665704239E+02  0.51100000000E-03 0.  1.
         12    1    3    3    0    0 -0.19927664813E+02 -0.22046882400E+02  0.69137302325E+01  0.30511907744E+02  0.00000000000E+00 0. -1.
</event>
<event>
 7    1  0.3434711E-013  0.7246157E+02  0.7816164E-02  0.1226708E+00
        -11   -1    0    0    0    0  0.00000000000E+00  0.00000000000E+00  0.45593999997E+02  0.45594000000E+02  0.51100000000E-03 0. -1.
         11   -1    0    0    0    0 -0.00000000000E+00 -0.00000000000E+00 -0.45593999997E+02  0.45594000000E+02  0.51100000000E-03 0.  1.
    9900012    2    1    2    0    0  0.69224772250E+01 -0.81511164240E+01 -0.15372635822E+02  0.72461566223E+02  0.69999994696E+02 0.  0.
         12    1    1    2    0    0 -0.69224772250E+01  0.81511164240E+01  0.15372635822E+02  0.18726433777E+02  0.00000000000E+00 0. -1.
         11    1    3    3    0    0  0.39179603571E+01 -0.96060497404E+01 -0.13593717686E+02  0.17100168589E+02  0.51100000000E-03 0. -1.
        -11    1    3    3    0    0  0.10166983014E+02 -0.37989991910E+01 -0.26744340956E+02  0.28862773808E+02  0.51100000000E-03 0.  1.
         12    1    3    3    0    0 -0.71624661456E+01  0.52539325075E+01  0.24965422820E+02  0.26498623826E+02  0.00000000000E+00 0. -1.
</event>
<event>
 7    1  0.3434711E-013  0.7246153E+02  0.7816164E-02  0.1226708E+00
        -11   -1    0    0    0    0  0.00000000000E+00  0.00000000000E+00  0.45593999997E+02  0.45594000000E+02  0.51100000000E-03 0. -1.
         11   -1    0    0    0    0 -0.00000000000E+00 -0.00000000000E+00 -0.45593999997E+02  0.45594000000E+02  0.51100000000E-03 0.  1.
    9900012    2    1    2    0    0 -0.92144673536E+01  0.11361921880E+02 -0.11691071365E+02  0.72461526037E+02  0.69999942347E+02 0.  0.
         12    1    1    2    0    0  0.92144673536E+01 -0.11361921880E+02  0.11691071365E+02  0.18726473963E+02  0.00000000000E+00 0. -1.
         11    1    3    3    0    0 -0.13722499827E+01 -0.17452994007E+02  0.18088419305E+02  0.25173020936E+02  0.51100000000E-03 0. -1.
        -11    1    3    3    0    0 -0.65729061222E+01  0.13168335619E+02 -0.13073138175E+01  0.14775561836E+02  0.51100000000E-03 0.  1.
        -12    1    3    3    0    0 -0.12693112488E+01  0.15646580267E+02 -0.28472176853E+02  0.32512943266E+02  0.00000000000E+00 0.  1.
</event>
<event>
 7    1  0.3434711E-013  0.7246156E+02  0.7816164E-02  0.1226708E+00
        -11   -1    0    0    0    0  0.00000000000E+00  0.00000000000E+00  0.45593999997E+02  0.45594000000E+02  0.51100000000E-03 0.  1.
         11   -1    0    0    0    0 -0.00000000000E+00 -0.00000000000E+00 -0.45593999997E+02  0.45594000000E+02  0.51100000000E-03 0. -1.
    9900012    2    1    2    0    0  0.37449108438E+01 -0.30366977521E+01  0.18095126733E+02  0.72461561418E+02  0.69999988437E+02 0.  0.
         12    1    1    2    0    0 -0.37449108438E+01  0.30366977521E+01 -0.18095126733E+02  0.18726438582E+02  0.00000000000E+00 0. -1.
         11    1    3    3    0    0 -0.42609837498E+01  0.77559855153E+01  0.25047260094E+01  0.91970074738E+01  0.51100000000E-03 0. -1.
        -11    1    3    3    0    0  0.11316163951E+02  0.56216135108E+01  0.35246572890E+02  0.37443010106E+02  0.51100000000E-03 0.  1.
         12    1    3    3    0    0 -0.33102693572E+01 -0.16414296778E+02 -0.19656172167E+02  0.25821543838E+02  0.00000000000E+00 0. -1.
</event>
<event>
 7    1  0.3434711E-013  0.7246160E+02  0.7816164E-02  0.1226708E+00
        -11   -1    0    0    0    0  0.00000000000E+00  0.00000000000E+00  0.45593999997E+02  0.45594000000E+02  0.51100000000E-03 0. -1.
         11   -1    0    0    0    0 -0.00000000000E+00 -0.00000000000E+00 -0.45593999997E+02  0.45594000000E+02  0.51100000000E-03 0.  1.
    9900012    2    1    2    0    0  0.18357855451E+02 -0.29875853767E+01 -0.21774751282E+01  0.72461603628E+02  0.70000043424E+02 0.  0.
         12    1    1    2    0    0 -0.18357855451E+02  0.29875853767E+01  0.21774751282E+01  0.18726396372E+02  0.00000000000E+00 0. -1.
         11    1    3    3    0    0 -0.16895033707E+02  0.59992448468E+01  0.14618084551E+01  0.17988051226E+02  0.51100000000E-03 0. -1.
        -11    1    3    3    0    0  0.37574819297E+01  0.12385059078E+02  0.73148563856E+01  0.14866589488E+02  0.51100000000E-03 0.  1.
        -12    1    3    3    0    0  0.31495407228E+02 -0.21371889301E+02 -0.10954139969E+02  0.39606962914E+02  0.00000000000E+00 0.  1.
</event>
<event>
 7    1  0.3434711E-013  0.7246163E+02  0.7816164E-02  0.1226708E+00
        -11   -1    0    0    0    0  0.00000000000E+00  0.00000000000E+00  0.45593999997E+02  0.45594000000E+02  0.51100000000E-03 0.  1.
         11   -1    0    0    0    0 -0.00000000000E+00 -0.00000000000E+00 -0.45593999997E+02  0.45594000000E+02  0.51100000000E-03 0. -1.
    9900012    2    1    2    0    0 -0.65717170519E+01  0.12642588278E+02  0.12151313252E+02  0.72461630434E+02  0.70000078343E+02 0.  0.
         12    1    1    2    0    0  0.65717170519E+01 -0.12642588278E+02 -0.12151313252E+02  0.18726369566E+02  0.00000000000E+00 0. -1.
         11    1    3    3    0    0  0.69206064813E+01 -0.26476720540E+01  0.18956786680E+02  0.20353494119E+02  0.51100000000E-03 0. -1.
        -11    1    3    3    0    0  0.83344743186E+01  0.52908957439E+01  0.16126131072E+02  0.18907912195E+02  0.51100000000E-03 0.  1.
         12    1    3    3    0    0 -0.21826797852E+02  0.99993645883E+01 -0.22931604501E+02  0.33200224120E+02  0.00000000000E+00 0. -1.
</event>
<event>
 7    1  0.3434711E-013  0.7246158E+02  0.7816164E-02  0.1226708E+00
        -11   -1    0    0    0    0  0.00000000000E+00  0.00000000000E+00  0.45593999997E+02  0.45594000000E+02  0.51100000000E-03 0. -1.
         11   -1    0    0    0    0 -0.00000000000E+00 -0.00000000000E+00 -0.45593999997E+02  0.45594000000E+02  0.51100000000E-03 0.  1.
    9900012    2    1    2    0    0 -0.10658284762E+02  0.39093156420E+01  0.14892855189E+02  0.72461576996E+02  0.70000008730E+02 0.  0.
         12    1    1    2    0    0  0.10658284762E+02 -0.39093156420E+01 -0.14892855189E+02  0.18726423004E+02  0.00000000000E+00 0. -1.
         11    1    3    3    0    0 -0.43843959941E+01  0.14988045894E+01  0.14189064588E+01  0.48458888999E+01  0.51100000000E-03 0. -1.
        -11    1    3    3    0    0 -0.26822411376E+02  0.23059527884E+02  0.15052820301E+02  0.38441786867E+02  0.51100000000E-03 0.  1.
         12    1    3    3    0    0  0.20548522608E+02 -0.20649016831E+02 -0.15788715716E+01  0.29173901229E+02  0.00000000000E+00 0. -1.
</event>
<event>
 7    1  0.3434711E-013  0.7246156E+02  0.7816164E-02  0.1226708E+00
        -11   -1    0    0    0    0  0.00000000000E+00  0.00000000000E+00  0.45593999997E+02  0.45594000000E+02  0.51100000000E-03 0.  1.
         11   -1    0    0    0    0 -0.00000000000E+00 -0.00000000000E+00 -0.45593999997E+02  0.45594000000E+02  0.51100000000E-03 0. -1.
    9900012    2    1    2    0    0  0.65874107818E+00 -0.16596839979E+02 -0.86481516442E+01  0.72461559763E+02  0.69999986281E+02 0.  0.
         12    1    1    2    0    0 -0.65874107818E+00  0.16596839979E+02  0.86481516442E+01  0.18726440237E+02  0.00000000000E+00 0. -1.
         11    1    3    3    0    0  0.30707869913E+00 -0.51106976265E+01 -0.17470448687E+02  0.18205221920E+02  0.51100000000E-03 0. -1.
        -11    1    3    3    0    0  0.37649715479E+01  0.65763939453E+01 -0.19257458421E+02  0.20694774054E+02  0.51100000000E-03 0.  1.
        -12    1    3    3    0    0 -0.34133091688E+01 -0.18062536298E+02  0.28079755464E+02  0.33561563788E+02  0.00000000000E+00 0.  1.
</event>
<event>
 7    1  0.3434711E-013  0.7246162E+02  0.7816164E-02  0.1226708E+00
        -11   -1    0    0    0    0  0.00000000000E+00  0.00000000000E+00  0.45593999997E+02  0.45594000000E+02  0.51100000000E-03 0. -1.
         11   -1    0    0    0    0 -0.00000000000E+00 -0.00000000000E+00 -0.45593999997E+02  0.45594000000E+02  0.51100000000E-03 0.  1.
    9900012    2    1    2    0    0 -0.10755014042E+02  0.19029420117E+00 -0.15328752184E+02  0.72461623350E+02  0.70000069115E+02 0.  0.
         12    1    1    2    0    0  0.10755014042E+02 -0.19029420117E+00  0.15328752184E+02  0.18726376650E+02  0.00000000000E+00 0. -1.
         11    1    3    3    0    0  0.18830620391E+01 -0.10243531373E+02  0.51011097571E+01  0.11597291867E+02  0.51100000000E-03 0. -1.
        -11    1    3    3    0    0  0.64276123624E+01 -0.18075834593E+02  0.28744541665E+01  0.19398775321E+02  0.51100000000E-03 0.  1.
        -12    1    3    3    0    0 -0.19065688443E+02  0.28509660167E+02 -0.23304316107E+02  0.41465556163E+02  0.00000000000E+00 0.  1.
</event>
<event>
 7    1  0.3434711E-013  0.7246163E+02  0.7816164E-02  0.1226708E+00
        -11   -1    0    0    0    0  0.00000000000E+00  0.00000000000E+00  0.45593999997E+02  0.45594000000E+02  0.51100000000E-03 0.  1.
         11   -1    0    0    0    0 -0.00000000000E+00 -0.00000000000E+00 -0.45593999997E+02  0.45594000000E+02  0.51100000000E-03 0. -1.
    9900012    2    1    2    0    0 -0.18322087396E+02 -0.14925955144E+01  0.35707623599E+01  0.72461626306E+02  0.70000072965E+02 0.  0.
         12    1    1    2    0    0  0.18322087396E+02  0.14925955144E+01 -0.35707623599E+01  0.18726373694E+02  0.00000000000E+00 0. -1.
         11    1    3    3    0    0 -0.97225009524E+01  0.30377201723E+01  0.41091988818E+01  0.10983637117E+02  0.51100000000E-03 0. -1.
        -11    1    3    3    0    0 -0.32728523562E+02  0.15095221491E+01  0.10302236813E+02  0.34344883102E+02  0.51100000000E-03 0.  1.
         12    1    3    3    0    0  0.24128937119E+02 -0.60398378357E+01 -0.10840673335E+02  0.27133106087E+02  0.00000000000E+00 0. -1.
</event>
<event>
 7    1  0.3434711E-013  0.7246205E+02  0.7816164E-02  0.1226707E+00
        -11   -1    0    0    0    0  0.00000000000E+00  0.00000000000E+00  0.45593999997E+02  0.45594000000E+02  0.51100000000E-03 0. -1.
         11   -1    0    0    0    0 -0.00000000000E+00 -0.00000000000E+00 -0.45593999997E+02  0.45594000000E+02  0.51100000000E-03 0.  1.
    9900012    2    1    2    0    0 -0.63948980440E+01 -0.17992640701E+01 -0.17507969133E+02  0.72462053953E+02  0.70000630053E+02 0.  0.
         12    1    1    2    0    0  0.63948980440E+01  0.17992640701E+01  0.17507969133E+02  0.18725946047E+02  0.00000000000E+00 0. -1.
         11    1    3    3    0    0 -0.21650592550E+02 -0.90801070705E+01  0.23263918704E+01  0.23592553943E+02  0.51100000000E-03 0. -1.
        -11    1    3    3    0    0 -0.12664484309E+02  0.52410433819E+01 -0.15246350928E+02  0.20501436911E+02  0.51100000000E-03 0.  1.
        -12    1    3    3    0    0  0.27920178815E+02  0.20397996185E+01 -0.45880100758E+01  0.28368063099E+02  0.00000000000E+00 0.  1.
</event>
<event>
 7    1  0.3434711E-013  0.7246158E+02  0.7816164E-02  0.1226708E+00
        -11   -1    0    0    0    0  0.00000000000E+00  0.00000000000E+00  0.45593999997E+02  0.45594000000E+02  0.51100000000E-03 0.  1.
         11   -1    0    0    0    0 -0.00000000000E+00 -0.00000000000E+00 -0.45593999997E+02  0.45594000000E+02  0.51100000000E-03 0. -1.
    9900012    2    1    2    0    0 -0.98832607590E+00  0.62087451841E+01  0.17639544577E+02  0.72461579144E+02  0.70000011528E+02 0.  0.
         12    1    1    2    0    0  0.98832607590E+00 -0.62087451841E+01 -0.17639544577E+02  0.18726420856E+02  0.00000000000E+00 0. -1.
         11    1    3    3    0    0 -0.78094364754E+01  0.21245907559E+01  0.14439551885E+02  0.16553001022E+02  0.51100000000E-03 0. -1.
        -11    1    3    3    0    0 -0.14193573815E+01  0.28916985148E+02  0.60890267948E+01  0.29585179617E+02  0.51100000000E-03 0.  1.
        -12    1    3    3    0    0  0.82404677809E+01 -0.24832830720E+02 -0.28890341024E+01  0.26323398505E+02  0.00000000000E+00 0.  1.
</event>
<event>
 7    1  0.3434711E-013  0.7246149E+02  0.7816164E-02  0.1226708E+00
        -11   -1    0    0    0    0  0.00000000000E+00  0.00000000000E+00  0.45593999997E+02  0.45594000000E+02  0.51100000000E-03 0.  1.
         11   -1    0    0    0    0 -0.00000000000E+00 -0.00000000000E+00 -0.45593999997E+02  0.45594000000E+02  0.51100000000E-03 0. -1.
    9900012    2    1    2    0    0  0.15393477110E+02  0.10014209576E+02  0.36658644446E+01  0.72461492235E+02  0.69999898313E+02 0.  0.
         12    1    1    2    0    0 -0.15393477110E+02 -0.10014209576E+02 -0.36658644446E+01  0.18726507765E+02  0.00000000000E+00 0. -1.
         11    1    3    3    0    0  0.19128081545E+02 -0.89733105489E+01 -0.17363011534E+02  0.27347357744E+02  0.51100000000E-03 0. -1.
        -11    1    3    3    0    0  0.15243717045E+02  0.44731015052E+01  0.10225048284E+02  0.18892621817E+02  0.51100000000E-03 0.  1.
        -12    1    3    3    0    0 -0.18978321480E+02  0.14514418619E+02  0.10803827694E+02  0.26221512674E+02  0.00000000000E+00 0.  1.
</event>
<event>
 7    1  0.3497267E-013  0.7246156E+02  0.7816164E-02  0.1226708E+00
        -11   -1    0    0    0    0  0.00000000000E+00  0.00000000000E+00  0.45593999997E+02  0.45594000000E+02  0.51100000000E-03 0. -1.
         11   -1    0    0    0    0 -0.00000000000E+00 -0.00000000000E+00 -0.45593999997E+02  0.45594000000E+02  0.51100000000E-03 0.  1.
    9900012    2    1    2    0    0  0.23379883369E+01 -0.14882551570E+02 -0.11123076924E+02  0.72461564916E+02  0.69999992994E+02 0.  0.
         12    1    1    2    0    0 -0.23379883369E+01  0.14882551570E+02  0.11123076924E+02  0.18726435084E+02  0.00000000000E+00 0. -1.
         11    1    3    3    0    0 -0.16998360056E+01  0.11539716298E+01 -0.37476759626E+01  0.42738938160E+01  0.51100000000E-03 0. -1.
        -11    1    3    3    0    0 -0.90590047798E+00 -0.13755325469E+02 -0.36261265728E+02  0.38793156960E+02  0.51100000000E-03 0.  1.
         12    1    3    3    0    0  0.49437248205E+01 -0.22811977309E+01  0.28885864767E+02  0.29394514140E+02  0.00000000000E+00 0. -1.
</event>
<event>
 7    1  0.3434711E-013  0.7246159E+02  0.7816164E-02  0.1226708E+00
        -11   -1    0    0    0    0  0.00000000000E+00  0.00000000000E+00  0.45593999997E+02  0.45594000000E+02  0.51100000000E-03 0. -1.
         11   -1    0    0    0    0 -0.00000000000E+00 -0.00000000000E+00 -0.45593999997E+02  0.45594000000E+02  0.51100000000E-03 0.  1.
    9900012    2    1    2    0    0 -0.15955886483E+02 -0.38737982280E+01 -0.90045508763E+01  0.72461586498E+02  0.70000021109E+02 0.  0.
         12    1    1    2    0    0  0.15955886483E+02  0.38737982280E+01  0.90045508763E+01  0.18726413502E+02  0.00000000000E+00 0. -1.
         11    1    3    3    0    0  0.46167907941E+01 -0.24082617959E+02 -0.18772962301E+01  0.24592915370E+02  0.51100000000E-03 0. -1.
        -11    1    3    3    0    0 -0.77625690128E+01  0.91293559636E+01 -0.22179528837E+02  0.25209802016E+02  0.51100000000E-03 0.  1.
         12    1    3    3    0    0 -0.12810108264E+02  0.11079463768E+02  0.15052274191E+02  0.22658869112E+02  0.00000000000E+00 0. -1.
</event>
<event>
 7    1  0.3434711E-013  0.7246156E+02  0.7816164E-02  0.1226708E+00
        -11   -1    0    0    0    0  0.00000000000E+00  0.00000000000E+00  0.45593999997E+02  0.45594000000E+02  0.51100000000E-03 0.  1.
         11   -1    0    0    0    0 -0.00000000000E+00 -0.00000000000E+00 -0.45593999997E+02  0.45594000000E+02  0.51100000000E-03 0. -1.
    9900012    2    1    2    0    0 -0.13293133667E+02 -0.86144239030E+01  0.99881791609E+01  0.72461563478E+02  0.69999991120E+02 0.  0.
         12    1    1    2    0    0  0.13293133667E+02  0.86144239030E+01 -0.99881791609E+01  0.18726436522E+02  0.00000000000E+00 0. -1.
         11    1    3    3    0    0  0.68943310460E+01  0.15470268418E+02  0.14986368020E+02  0.22615309686E+02  0.51100000000E-03 0. -1.
        -11    1    3    3    0    0  0.66791317505E+01 -0.38757083742E+01  0.10330594694E+02  0.12897794515E+02  0.51100000000E-03 0.  1.
        -12    1    3    3    0    0 -0.26866596464E+02 -0.20208983946E+02 -0.15328783554E+02  0.36948459277E+02  0.00000000000E+00 0.  1.
</event>
<event>
 7    1  0.4158716E-013  0.7246156E+02  0.7816164E-02  0.1226708E+00
        -11   -1    0    0    0    0  0.00000000000E+00  0.00000000000E+00  0.45593999997E+02  0.45594000000E+02  0.51100000000E-03 0. -1.
         11   -1    0    0    0    0 -0.00000000000E+00 -0.00000000000E+00 -0.45593999997E+02  0.45594000000E+02  0.51100000000E-03 0.  1.
    9900012    2    1    2    0    0  0.51231560123E+01  0.15213389096E+02 -0.96429039049E+01  0.72461560642E+02  0.69999987426E+02 0.  0.
         12    1    1    2    0    0 -0.51231560123E+01 -0.15213389096E+02  0.96429039049E+01  0.18726439358E+02  0.00000000000E+00 0. -1.
         11    1    3    3    0    0  0.28625044171E+01 -0.34223550186E+01  0.13308912645E+02  0.14036865799E+02  0.51100000000E-03 0. -1.
        -11    1    3    3    0    0  0.10580881596E+02 -0.11102501289E+01 -0.33062256363E+02  0.34731837077E+02  0.51100000000E-03 0.  1.
         12    1    3    3    0    0 -0.83202300004E+01  0.19745994243E+02  0.10110439813E+02  0.23692857766E+02  0.00000000000E+00 0. -1.
</event>
<event>
 7    1  0.3434711E-013  0.7246154E+02  0.7816164E-02  0.1226708E+00
        -11   -1    0    0    0    0  0.00000000000E+00  0.00000000000E+00  0.45593999997E+02  0.45594000000E+02  0.51100000000E-03 0.  1.
         11   -1    0    0    0    0 -0.00000000000E+00 -0.00000000000E+00 -0.45593999997E+02  0.45594000000E+02  0.51100000000E-03 0. -1.
    9900012    2    1    2    0    0  0.15888327740E+02 -0.63141790824E+01  0.76401971198E+01  0.72461536696E+02  0.69999956232E+02 0.  0.
         12    1    1    2    0    0 -0.15888327740E+02  0.63141790824E+01 -0.76401971198E+01  0.18726463304E+02  0.00000000000E+00 0. -1.
         11    1    3    3    0    0  0.18071138182E+01 -0.17221985457E+02 -0.44926000081E+01  0.17889826677E+02  0.51100000000E-03 0. -1.
        -11    1    3    3    0    0  0.81803505165E+01 -0.16498025225E+02  0.18197586258E+02  0.25889285753E+02  0.51100000000E-03 0.  1.
         12    1    3    3    0    0  0.59008634052E+01  0.27405831600E+02 -0.60647891300E+01  0.28682424266E+02  0.00000000000E+00 0. -1.
</event>
<event>
 7    1  0.3434711E-013  0.7246159E+02  0.7816164E-02  0.1226708E+00
        -11   -1    0    0    0    0  0.00000000000E+00  0.00000000000E+00  0.45593999997E+02  0.45594000000E+02  0.51100000000E-03 0.  1.
         11   -1    0    0    0    0 -0.00000000000E+00 -0.00000000000E+00 -0.45593999997E+02  0.45594000000E+02  0.51100000000E-03 0. -1.
    9900012    2    1    2    0    0 -0.17935088883E+02  0.14879903574E+01  0.51765619763E+01  0.72461592911E+02  0.70000029463E+02 0.  0.
         12    1    1    2    0    0  0.17935088883E+02 -0.14879903574E+01 -0.51765619763E+01  0.18726407089E+02  0.00000000000E+00 0. -1.
         11    1    3    3    0    0 -0.11439182368E+02  0.10143040533E+02  0.64858312862E+01  0.16607292743E+02  0.51100000000E-03 0. -1.
        -11    1    3    3    0    0  0.24028419934E+02  0.66822468930E-01  0.76464208521E+00  0.24040676104E+02  0.51100000000E-03 0.  1.
         12    1    3    3    0    0 -0.30524326449E+02 -0.87218726451E+01 -0.20739113950E+01  0.31813624064E+02  0.00000000000E+00 0. -1.
</event>
<event>
 7    1  0.4399647E-013  0.7246157E+02  0.7816164E-02  0.1226708E+00
        -11   -1    0    0    0    0  0.00000000000E+00  0.00000000000E+00  0.45593999997E+02  0.45594000000E+02  0.51100000000E-03 0. -1.
         11   -1    0    0    0    0 -0.00000000000E+00 -0.00000000000E+00 -0.45593999997E+02  0.45594000000E+02  0.51100000000E-03 0.  1.
    9900012    2    1    2    0    0  0.10738804510E+02  0.12786955525E+02 -0.84765032599E+01  0.72461567841E+02  0.69999996804E+02 0.  0.
         12    1    1    2    0    0 -0.10738804510E+02 -0.12786955525E+02  0.84765032599E+01  0.18726432159E+02  0.00000000000E+00 0. -1.
         11    1    3    3    0    0  0.95053672376E+01  0.11672663250E+02  0.11700476860E+02  0.19065786967E+02  0.51100000000E-03 0. -1.
        -11    1    3    3    0    0 -0.71105425951E+01  0.22955485488E+02 -0.26544986982E+01  0.24177685861E+02  0.51100000000E-03 0.  1.
         12    1    3    3    0    0  0.83439798678E+01 -0.21841193213E+02 -0.17522481422E+02  0.29218095013E+02  0.00000000000E+00 0. -1.
</event>
<event>
 7    1  0.3434711E-013  0.7246166E+02  0.7816164E-02  0.1226708E+00
        -11   -1    0    0    0    0  0.00000000000E+00  0.00000000000E+00  0.45593999997E+02  0.45594000000E+02  0.51100000000E-03 0. -1.
         11   -1    0    0    0    0 -0.00000000000E+00 -0.00000000000E+00 -0.45593999997E+02  0.45594000000E+02  0.51100000000E-03 0.  1.
    9900012    2    1    2    0    0  0.14420137811E+02  0.11173320126E+01 -0.11894837838E+02  0.72461655655E+02  0.70000111199E+02 0.  0.
         12    1    1    2    0    0 -0.14420137811E+02 -0.11173320126E+01  0.11894837838E+02  0.18726344345E+02  0.00000000000E+00 0. -1.
         11    1    3    3    0    0  0.29121075616E+02  0.16589521028E+02 -0.11516956516E+02  0.35438531864E+02  0.51100000000E-03 0. -1.
        -11    1    3    3    0    0 -0.48416670761E+01  0.96905076143E+00  0.12827048626E+02  0.13744598073E+02  0.51100000000E-03 0.  1.
        -12    1    3    3    0    0 -0.98592707292E+01 -0.16441239777E+02 -0.13204929949E+02  0.23278525719E+02  0.00000000000E+00 0.  1.
</event>
<event>
 7    1  0.3434711E-013  0.7246177E+02  0.7816164E-02  0.1226707E+00
        -11   -1    0    0    0    0  0.00000000000E+00  0.00000000000E+00  0.45593999997E+02  0.45594000000E+02  0.51100000000E-03 0.  1.
         11   -1    0    0    0    0 -0.00000000000E+00 -0.00000000000E+00 -0.45593999997E+02  0.45594000000E+02  0.51100000000E-03 0. -1.
    9900012    2    1    2    0    0  0.92690593485E+01 -0.11408251692E+02  0.11602075557E+02  0.72461766393E+02  0.70000255454E+02 0.  0.
         12    1    1    2    0    0 -0.92690593485E+01  0.11408251692E+02 -0.11602075557E+02  0.18726233607E+02  0.00000000000E+00 0. -1.
         11    1    3    3    0    0  0.18463189569E+02  0.73747748643E+01 -0.15290841021E+02  0.25081596694E+02  0.51100000000E-03 0. -1.
        -11    1    3    3    0    0  0.12366907319E+02 -0.74930505327E+01  0.76822644359E+01  0.16373863015E+02  0.51100000000E-03 0.  1.
        -12    1    3    3    0    0 -0.21561037539E+02 -0.11289976024E+02  0.19210652142E+02  0.31006306683E+02  0.00000000000E+00 0.  1.
</event>
<event>
 7    1  0.3434711E-013  0.7246161E+02  0.7816164E-02  0.1226708E+00
        -11   -1    0    0    0    0  0.00000000000E+00  0.00000000000E+00  0.45593999997E+02  0.45594000000E+02  0.51100000000E-03 0.  1.
         11   -1    0    0    0    0 -0.00000000000E+00 -0.00000000000E+00 -0.45593999997E+02  0.45594000000E+02  0.51100000000E-03 0. -1.
    9900012    2    1    2    0    0 -0.12351168604E+02 -0.57801378904E+01  0.12834192718E+02  0.72461605188E+02  0.70000045456E+02 0.  0.
         12    1    1    2    0    0  0.12351168604E+02  0.57801378904E+01 -0.12834192718E+02  0.18726394812E+02  0.00000000000E+00 0. -1.
         11    1    3    3    0    0  0.12187016929E+02  0.59131378848E+01 -0.25640660004E+01  0.13786334393E+02  0.51100000000E-03 0. -1.
        -11    1    3    3    0    0 -0.35282937288E+01  0.58536060444E+01  0.27796824695E+02  0.28624762422E+02  0.51100000000E-03 0.  1.
         12    1    3    3    0    0 -0.21009891805E+02 -0.17546881820E+02 -0.12398565976E+02  0.30050508374E+02  0.00000000000E+00 0. -1.
</event>
<event>
 7    1  0.3434711E-013  0.7246158E+02  0.7816164E-02  0.1226708E+00
        -11   -1    0    0    0    0  0.00000000000E+00  0.00000000000E+00  0.45593999997E+02  0.45594000000E+02  0.51100000000E-03 0.  1.
         11   -1    0    0    0    0 -0.00000000000E+00 -0.00000000000E+00 -0.45593999997E+02  0.45594000000E+02  0.51100000000E-03 0. -1.
    9900012    2    1    2    0    0  0.12987502883E+02  0.11499292832E+02 -0.70547708239E+01  0.72461581278E+02  0.70000014309E+02 0.  0.
         12    1    1    2    0    0 -0.12987502883E+02 -0.11499292832E+02  0.70547708239E+01  0.18726418722E+02  0.00000000000E+00 0. -1.
         11    1    3    3    0    0 -0.82226966627E+01  0.10682163948E+01 -0.34252713743E+00  0.82988644871E+01  0.51100000000E-03 0. -1.
        -11    1    3    3    0    0 -0.11795281250E+02  0.22465633150E+02  0.72025141810E+01  0.26376306478E+02  0.51100000000E-03 0.  1.
         12    1    3    3    0    0  0.33005480796E+02 -0.12034556713E+02 -0.13914757867E+02  0.37786410313E+02  0.00000000000E+00 0. -1.
</event>
<event>
 7    1  0.3434711E-013  0.7246165E+02  0.7816164E-02  0.1226708E+00
        -11   -1    0    0    0    0  0.00000000000E+00  0.00000000000E+00  0.45593999997E+02  0.45594000000E+02  0.51100000000E-03 0.  1.
         11   -1    0    0    0    0 -0.00000000000E+00 -0.00000000000E+00 -0.45593999997E+02  0.45594000000E+02  0.51100000000E-03 0. -1.
    9900012    2    1    2    0    0  0.22709453368E+01  0.11767402026E+02  0.14389130083E+02  0.72461654716E+02  0.70000109974E+02 0.  0.
         12    1    1    2    0    0 -0.22709453368E+01 -0.11767402026E+02 -0.14389130083E+02  0.18726345284E+02  0.00000000000E+00 0. -1.
         11    1    3    3    0    0  0.14218901383E+00  0.43271979733E+01 -0.10515057300E+01  0.44553927523E+01  0.51100000000E-03 0. -1.
        -11    1    3    3    0    0  0.99882090102E+01  0.29976277886E+02 -0.99818944307E+01  0.33135777821E+02  0.51100000000E-03 0.  1.
         12    1    3    3    0    0 -0.78594526873E+01 -0.22536073833E+02  0.25422530244E+02  0.34870484142E+02  0.00000000000E+00 0. -1.
</event>
<event>
 7    1  0.3434711E-013  0.7246153E+02  0.7816164E-02  0.1226708E+00
        -11   -1    0    0    0    0  0.00000000000E+00  0.00000000000E+00  0.45593999997E+02  0.45594000000E+02  0.51100000000E-03 0.  1.
         11   -1    0    0    0    0 -0.00000000000E+00 -0.00000000000E+00 -0.45593999997E+02  0.45594000000E+02  0.51100000000E-03 0. -1.
    9900012    2    1    2    0    0  0.68820906749E+01 -0.11397787370E+02  0.13168451002E+02  0.72461525938E+02  0.69999942218E+02 0.  0.
         12    1    1    2    0    0 -0.68820906749E+01  0.11397787370E+02 -0.13168451002E+02  0.18726474062E+02  0.00000000000E+00 0. -1.
         11    1    3    3    0    0  0.49960553547E+01  0.25302757089E-01 -0.25374899552E+01  0.56035760787E+01  0.51100000000E-03 0. -1.
        -11    1    3    3    0    0  0.29894343614E+02 -0.16362939978E+02  0.17596996202E+02  0.38354554624E+02  0.51100000000E-03 0.  1.
         12    1    3    3    0    0 -0.28008308293E+02  0.49398498512E+01 -0.18910552450E+01  0.28503395235E+02  0.00000000000E+00 0. -1.
</event>
<event>
 7    1  0.3434711E-013  0.7246154E+02  0.7816164E-02  0.1226708E+00
        -11   -1    0    0    0    0  0.00000000000E+00  0.00000000000E+00  0.45593999997E+02  0.45594000000E+02  0.51100000000E-03 0.  1.
         11   -1    0    0    0    0 -0.00000000000E+00 -0.00000000000E+00 -0.45593999997E+02  0.45594000000E+02  0.51100000000E-03 0. -1.
    9900012    2    1    2    0    0 -0.91054754291E+01 -0.15690817655E+02  0.46442324193E+01  0.72461539142E+02  0.69999959419E+02 0.  0.
         12    1    1    2    0    0  0.91054754291E+01  0.15690817655E+02 -0.46442324193E+01  0.18726460858E+02  0.00000000000E+00 0. -1.
         11    1    3    3    0    0 -0.14361902497E+02 -0.20671598065E+02  0.16295061755E+01  0.25223689273E+02  0.51100000000E-03 0. -1.
        -11    1    3    3    0    0 -0.14187088542E+02 -0.13730092858E+02 -0.18094338082E+01  0.19825816053E+02  0.51100000000E-03 0.  1.
        -12    1    3    3    0    0  0.19443515610E+02  0.18710873268E+02  0.48241600520E+01  0.27412033816E+02  0.00000000000E+00 0.  1.
</event>
<event>
 7    1  0.3434711E-013  0.7246161E+02  0.7816164E-02  0.1226708E+00
        -11   -1    0    0    0    0  0.00000000000E+00  0.00000000000E+00  0.45593999997E+02  0.45594000000E+02  0.51100000000E-03 0. -1.
         11   -1    0    0    0    0 -0.00000000000E+00 -0.00000000000E+00 -0.45593999997E+02  0.45594000000E+02  0.51100000000E-03 0.  1.
    9900012    2    1    2    0    0 -0.92525402209E+00 -0.17807069207E+02  0.57209912550E+01  0.72461613544E+02  0.70000056341E+02 0.  0.
         12    1    1    2    0    0  0.92525402209E+00  0.17807069207E+02 -0.57209912550E+01  0.18726386456E+02  0.00000000000E+00 0. -1.
         11    1    3    3    0    0 -0.13764727677E+02 -0.30933728940E+02  0.21319401325E+02  0.40011000828E+02  0.51100000000E-03 0. -1.
        -11    1    3    3    0    0  0.18449263673E+01 -0.14986901284E+01  0.46117979477E+01  0.51883047302E+01  0.51100000000E-03 0.  1.
        -12    1    3    3    0    0  0.10994547287E+02  0.14625349861E+02 -0.20210208018E+02  0.27262307986E+02  0.00000000000E+00 0.  1.
</event>
<event>
 7    1  0.3434711E-013  0.7246157E+02  0.7816164E-02  0.1226708E+00
        -11   -1    0    0    0    0  0.00000000000E+00  0.00000000000E+00  0.45593999997E+02  0.45594000000E+02  0.51100000000E-03 0. -1.
         11   -1    0    0    0    0 -0.00000000000E+00 -0.00000000000E+00 -0.45593999997E+02  0.45594000000E+02  0.51100000000E-03 0.  1.
    9900012    2    1    2    0    0 -0.43797401110E+01  0.18205694217E+02  0.22280187929E+00  0.72461573057E+02  0.70000003599E+02 0.  0.
         12    1    1    2    0    0  0.43797401110E+01 -0.18205694217E+02 -0.22280187929E+00  0.18726426943E+02  0.00000000000E+00 0. -1.
         11    1    3    3    0    0 -0.71836270923E+01  0.49005264740E+00  0.20189248581E+02  0.21434794338E+02  0.51100000000E-03 0. -1.
        -11    1    3    3    0    0 -0.78263460566E+01  0.75623569914E+01 -0.30864896092E+02  0.32727400552E+02  0.51100000000E-03 0.  1.
         12    1    3    3    0    0  0.10630233038E+02  0.10153284578E+02  0.10898449390E+02  0.18299378167E+02  0.00000000000E+00 0. -1.
</event>
<event>
 7    1  0.3434711E-013  0.7246155E+02  0.7816164E-02  0.1226708E+00
        -11   -1    0    0    0    0  0.00000000000E+00  0.00000000000E+00  0.45593999997E+02  0.45594000000E+02  0.51100000000E-03 0.  1.
         11   -1    0    0    0    0 -0.00000000000E+00 -0.00000000000E+00 -0.45593999997E+02  0.45594000000E+02  0.51100000000E-03 0. -1.
    9900012    2    1    2    0    0  0.10545180588E+02  0.40988063143E+01  0.14922434788E+02  0.72461545268E+02  0.69999967398E+02 0.  0.
         12    1    1    2    0    0 -0.10545180588E+02 -0.40988063143E+01 -0.14922434788E+02  0.18726454732E+02  0.00000000000E+00 0. -1.
         11    1    3    3    0    0  0.18317702024E+01 -0.46555502398E+01  0.17787871571E+02  0.18478038462E+02  0.51100000000E-03 0. -1.
        -11    1    3    3    0    0 -0.18359367543E+02  0.74258604487E+01  0.11912911120E+02  0.23111192778E+02  0.51100000000E-03 0.  1.
         12    1    3    3    0    0  0.27072777929E+02  0.13284961053E+01 -0.14778347903E+02  0.30872314028E+02  0.00000000000E+00 0. -1.
</event>
<event>
 7    1  0.3434711E-013  0.7246145E+02  0.7816164E-02  0.1226708E+00
        -11   -1    0    0    0    0  0.00000000000E+00  0.00000000000E+00  0.45593999997E+02  0.45594000000E+02  0.51100000000E-03 0. -1.
         11   -1    0    0    0    0 -0.00000000000E+00 -0.00000000000E+00 -0.45593999997E+02  0.45594000000E+02  0.51100000000E-03 0.  1.
    9900012    2    1    2    0    0 -0.73856114480E+00 -0.12968553597E+02 -0.13489057550E+02  0.72461453908E+02  0.69999848384E+02 0.  0.
         12    1    1    2    0    0  0.73856114480E+00  0.12968553597E+02  0.13489057550E+02  0.18726546092E+02  0.00000000000E+00 0. -1.
         11    1    3    3    0    0 -0.27040075126E+02 -0.70016719154E+01 -0.12863393164E+02  0.30751519579E+02  0.51100000000E-03 0. -1.
        -11    1    3    3    0    0 -0.34178793509E+01 -0.76753032531E+00  0.93084528065E+01  0.99457677416E+01  0.51100000000E-03 0.  1.
        -12    1    3    3    0    0  0.29719393333E+02 -0.51993513568E+01 -0.99341171924E+01  0.31764166587E+02  0.00000000000E+00 0.  1.
</event>
<event>
 7    1  0.3434711E-013  0.7246158E+02  0.7816164E-02  0.1226708E+00
        -11   -1    0    0    0    0  0.00000000000E+00  0.00000000000E+00  0.45593999997E+02  0.45594000000E+02  0.51100000000E-03 0.  1.
         11   -1    0    0    0    0 -0.00000000000E+00 -0.00000000000E+00 -0.45593999997E+02  0.45594000000E+02  0.51100000000E-03 0. -1.
    9900012    2    1    2    0    0 -0.17921641091E+02 -0.20459922516E+01  0.50306541212E+01  0.72461580573E+02  0.70000013389E+02 0.  0.
         12    1    1    2    0    0  0.17921641091E+02  0.20459922516E+01 -0.50306541212E+01  0.18726419427E+02  0.00000000000E+00 0. -1.
         11    1    3    3    0    0 -0.33611490631E+02  0.27443611628E+01  0.12664605551E+00  0.33723580179E+02  0.51100000000E-03 0. -1.
        -11    1    3    3    0    0 -0.87763366540E+01  0.65429720595E+01  0.43186999299E+01  0.11767996337E+02  0.51100000000E-03 0.  1.
        -12    1    3    3    0    0  0.24466186194E+02 -0.11333325474E+02  0.58530813576E+00  0.26970004057E+02  0.00000000000E+00 0.  1.
</event>
<event>
 7    1  0.3434711E-013  0.7246151E+02  0.7816164E-02  0.1226708E+00
        -11   -1    0    0    0    0  0.00000000000E+00  0.00000000000E+00  0.45593999997E+02  0.45594000000E+02  0.51100000000E-03 0.  1.
         11   -1    0    0    0    0 -0.00000000000E+00 -0.00000000000E+00 -0.45593999997E+02  0.45594000000E+02  0.51100000000E-03 0. -1.
    9900012    2    1    2    0    0 -0.16743723877E+02  0.82919635580E+01  0.12539140702E+01  0.72461514761E+02  0.69999927657E+02 0.  0.
         12    1    1    2    0    0  0.16743723877E+02 -0.82919635580E+01 -0.12539140702E+01  0.18726485239E+02  0.00000000000E+00 0. -1.
         11    1    3    3    0    0  0.13415946639E+02  0.11875560388E+02  0.10443420405E+02  0.20738408540E+02  0.51100000000E-03 0. -1.
        -11    1    3    3    0    0 -0.65993926866E+01  0.10545867957E+02 -0.18864209974E+02  0.22597029296E+02  0.51100000000E-03 0.  1.
        -12    1    3    3    0    0 -0.23560277829E+02 -0.14129464786E+02  0.96747036388E+01  0.29126076925E+02  0.00000000000E+00 0.  1.
</event>
<event>
 7    1  0.3630344E-013  0.7246162E+02  0.7816164E-02  0.1226708E+00
        -11   -1    0    0    0    0  0.00000000000E+00  0.00000000000E+00  0.45593999997E+02  0.45594000000E+02  0.51100000000E-03 0. -1.
         11   -1    0    0    0    0 -0.00000000000E+00 -0.00000000000E+00 -0.45593999997E+02  0.45594000000E+02  0.51100000000E-03 0.  1.
    9900012    2    1    2    0    0  0.59088582030E+01  0.14802357336E+01 -0.17707955138E+02  0.72461618122E+02  0.70000062304E+02 0.  0.
         12    1    1    2    0    0 -0.59088582030E+01 -0.14802357336E+01  0.17707955138E+02  0.18726381878E+02  0.00000000000E+00 0. -1.
         11    1    3    3    0    0 -0.14591439506E+02  0.20928825342E+02  0.10085992213E+02  0.27434523437E+02  0.51100000000E-03 0. -1.
        -11    1    3    3    0    0 -0.34597557821E+01 -0.27521270413E+01 -0.97324117157E+01  0.10689431762E+02  0.51100000000E-03 0.  1.
        -12    1    3    3    0    0  0.23960053491E+02 -0.16696462567E+02 -0.18061535635E+02  0.34337662923E+02  0.00000000000E+00 0.  1.
</event>
<event>
 7    1  0.3434711E-013  0.7246140E+02  0.7816164E-02  0.1226708E+00
        -11   -1    0    0    0    0  0.00000000000E+00  0.00000000000E+00  0.45593999997E+02  0.45594000000E+02  0.51100000000E-03 0.  1.
         11   -1    0    0    0    0 -0.00000000000E+00 -0.00000000000E+00 -0.45593999997E+02  0.45594000000E+02  0.51100000000E-03 0. -1.
    9900012    2    1    2    0    0  0.40240980869E+01 -0.22461892938E+01  0.18150667585E+02  0.72461402190E+02  0.69999781012E+02 0.  0.
         12    1    1    2    0    0 -0.40240980869E+01  0.22461892938E+01 -0.18150667585E+02  0.18726597810E+02  0.00000000000E+00 0. -1.
         11    1    3    3    0    0  0.96443770999E+01  0.10376078509E+02 -0.17179775687E+02  0.22267054313E+02  0.51100000000E-03 0. -1.
        -11    1    3    3    0    0  0.57901221190E+01 -0.11366070685E+02 -0.30094810191E+00  0.12759453241E+02  0.51100000000E-03 0.  1.
        -12    1    3    3    0    0 -0.11410401132E+02 -0.12561971176E+01  0.35631391374E+02  0.37434894636E+02  0.00000000000E+00 0.  1.
</event>
<event>
 7    1  0.3434711E-013  0.7246156E+02  0.7816164E-02  0.1226708E+00
        -11   -1    0    0    0    0  0.00000000000E+00  0.00000000000E+00  0.45593999997E+02  0.45594000000E+02  0.51100000000E-03 0.  1.
         11   -1    0    0    0    0 -0.00000000000E+00 -0.00000000000E+00 -0.45593999997E+02  0.45594000000E+02  0.51100000000E-03 0. -1.
    9900012    2    1    2    0    0 -0.68323816692E+01  0.75922307902E+01  0.15695738115E+02  0.72461558731E+02  0.69999984936E+02 0.  0.
         12    1    1    2    0    0  0.68323816692E+01 -0.75922307902E+01 -0.15695738115E+02  0.18726441269E+02  0.00000000000E+00 0. -1.
         11    1    3    3    0    0 -0.17461840180E+02 -0.67445080272E+01  0.30904327103E+01  0.18972480745E+02  0.51100000000E-03 0. -1.
        -11    1    3    3    0    0 -0.10616004249E+02  0.24920002347E+02  0.12306750806E+02  0.29751675228E+02  0.51100000000E-03 0.  1.
         12    1    3    3    0    0  0.21245462761E+02 -0.10583263530E+02  0.29855459881E+00  0.23737402758E+02  0.00000000000E+00 0. -1.
</event>
<event>
 7    1  0.3434711E-013  0.7246159E+02  0.7816164E-02  0.1226708E+00
        -11   -1    0    0    0    0  0.00000000000E+00  0.00000000000E+00  0.45593999997E+02  0.45594000000E+02  0.51100000000E-03 0.  1.
         11   -1    0    0    0    0 -0.00000000000E+00 -0.00000000000E+00 -0.45593999997E+02  0.45594000000E+02  0.51100000000E-03 0. -1.
    9900012    2    1    2    0    0 -0.37670430284E+01 -0.30608858828E+00  0.18341047430E+02  0.72461592863E+02  0.70000029400E+02 0.  0.
         12    1    1    2    0    0  0.37670430284E+01  0.30608858828E+00 -0.18341047430E+02  0.18726407137E+02  0.00000000000E+00 0. -1.
         11    1    3    3    0    0  0.47723140026E+01 -0.45452600116E+01 -0.11376730150E+01  0.66879495858E+01  0.51100000000E-03 0. -1.
        -11    1    3    3    0    0 -0.40401807752E+01 -0.23831547748E+02  0.27127076191E+02  0.36333785816E+02  0.51100000000E-03 0.  1.
         12    1    3    3    0    0 -0.44991762558E+01  0.28070719171E+02 -0.76483557461E+01  0.29439857462E+02  0.00000000000E+00 0. -1.
</event>
<event>
 7    1  0.3434711E-013  0.7246157E+02  0.7816164E-02  0.1226708E+00
        -11   -1    0    0    0    0  0.00000000000E+00  0.00000000000E+00  0.45593999997E+02  0.45594000000E+02  0.51100000000E-03 0. -1.
         11   -1    0    0    0    0 -0.00000000000E+00 -0.00000000000E+00 -0.45593999997E+02  0.45594000000E+02  0.51100000000E-03 0.  1.
    9900012    2    1    2    0    0  0.81781274551E+01 -0.19471629237E+01 -0.16733375788E+02  0.72461572755E+02  0.70000003205E+02 0.  0.
         12    1    1    2    0    0 -0.81781274551E+01  0.19471629237E+01  0.16733375788E+02  0.18726427245E+02  0.00000000000E+00 0. -1.
         11    1    3    3    0    0 -0.21395148226E+02 -0.45869559515E+01  0.21835453563E+01  0.21990006892E+02  0.51100000000E-03 0. -1.
        -11    1    3    3    0    0 -0.78039127494E+01 -0.23898183116E+01  0.25205847307E+00  0.81655262842E+01  0.51100000000E-03 0.  1.
        -12    1    3    3    0    0  0.37377188431E+02  0.50296113394E+01 -0.19168979617E+02  0.42306039578E+02  0.00000000000E+00 0.  1.
</event>
<event>
 7    1  0.3434711E-013  0.7246157E+02  0.7816164E-02  0.1226708E+00
        -11   -1    0    0    0    0  0.00000000000E+00  0.00000000000E+00  0.45593999997E+02  0.45594000000E+02  0.51100000000E-03 0.  1.
         11   -1    0    0    0    0 -0.00000000000E+00 -0.00000000000E+00 -0.45593999997E+02  0.45594000000E+02  0.51100000000E-03 0. -1.
    9900012    2    1    2    0    0  0.85383077530E+01 -0.15818137621E+02  0.52500599362E+01  0.72461566639E+02  0.69999995239E+02 0.  0.
         12    1    1    2    0    0 -0.85383077530E+01  0.15818137621E+02 -0.52500599362E+01  0.18726433361E+02  0.00000000000E+00 0. -1.
         11    1    3    3    0    0 -0.57466578883E+01 -0.20236970801E+01 -0.23138595086E+02  0.23927264983E+02  0.51100000000E-03 0. -1.
        -11    1    3    3    0    0  0.11116912118E+02  0.67180150394E+01 -0.45731295579E+00  0.12997176482E+02  0.51100000000E-03 0.  1.
        -12    1    3    3    0    0  0.31680535235E+01 -0.20512455580E+02  0.28845967978E+02  0.35537125174E+02  0.00000000000E+00 0.  1.
</event>
<event>
 7    1  0.3434711E-013  0.7246161E+02  0.7816164E-02  0.1226708E+00
        -11   -1    0    0    0    0  0.00000000000E+00  0.00000000000E+00  0.45593999997E+02  0.45594000000E+02  0.51100000000E-03 0. -1.
         11   -1    0    0    0    0 -0.00000000000E+00 -0.00000000000E+00 -0.45593999997E+02  0.45594000000E+02  0.51100000000E-03 0.  1.
    9900012    2    1    2    0    0 -0.13717527192E+02 -0.15714851075E-01 -0.12747813696E+02  0.72461613449E+02  0.70000056217E+02 0.  0.
         12    1    1    2    0    0  0.13717527192E+02  0.15714851075E-01  0.12747813696E+02  0.18726386551E+02  0.00000000000E+00 0. -1.
         11    1    3    3    0    0 -0.44624505639E+01 -0.43027869380E+01 -0.94292408820E+01  0.11284415108E+02  0.51100000000E-03 0. -1.
        -11    1    3    3    0    0  0.76086006307E+01  0.29648500704E+02 -0.24770256136E+01  0.30709282858E+02  0.51100000000E-03 0.  1.
         12    1    3    3    0    0 -0.16863677258E+02 -0.25361428617E+02 -0.84154720072E+00  0.30467915482E+02  0.00000000000E+00 0. -1.
</event>
<event>
 7    1  0.3434711E-013  0.7246155E+02  0.7816164E-02  0.1226708E+00
        -11   -1    0    0    0    0  0.00000000000E+00  0.00000000000E+00  0.45593999997E+02  0.45594000000E+02  0.51100000000E-03 0. -1.
         11   -1    0    0    0    0 -0.00000000000E+00 -0.00000000000E+00 -0.45593999997E+02  0.45594000000E+02  0.51100000000E-03 0.  1.
    9900012    2    1    2    0    0 -0.80600300828E+01  0.67418212568E+01 -0.15500444751E+02  0.72461547419E+02  0.69999970200E+02 0.  0.
         12    1    1    2    0    0  0.80600300828E+01 -0.67418212568E+01  0.15500444751E+02  0.18726452581E+02  0.00000000000E+00 0. -1.
         11    1    3    3    0    0 -0.40250830892E+01  0.26431915084E+02  0.10630600467E+01  0.26757756367E+02  0.51100000000E-03 0. -1.
        -11    1    3    3    0    0  0.14266910465E+01 -0.20155056736E+02  0.70977827830E+01  0.21415888496E+02  0.51100000000E-03 0.  1.
        -12    1    3    3    0    0 -0.54616380401E+01  0.46496290943E+00 -0.23661287581E+02  0.24287902556E+02  0.00000000000E+00 0.  1.
</event>
<event>
 7    1  0.3434711E-013  0.7246153E+02  0.7816164E-02  0.1226708E+00
        -11   -1    0    0    0    0  0.00000000000E+00  0.00000000000E+00  0.45593999997E+02  0.45594000000E+02  0.51100000000E-03 0.  1.
         11   -1    0    0    0    0 -0.00000000000E+00 -0.00000000000E+00 -0.45593999997E+02  0.45594000000E+02  0.51100000000E-03 0. -1.
    9900012    2    1    2    0    0 -0.80057713559E+01  0.95081722383E+01  0.14006531147E+02  0.72461531323E+02  0.69999949233E+02 0.  0.
         12    1    1    2    0    0  0.80057713559E+01 -0.95081722383E+01 -0.14006531147E+02  0.18726468677E+02  0.00000000000E+00 0. -1.
         11    1    3    3    0    0  0.82001433462E+01 -0.21803241954E+02  0.99404119109E+01  0.25326576946E+02  0.51100000000E-03 0. -1.
        -11    1    3    3    0    0  0.11850686356E+01 -0.54366508772E+01 -0.22306093455E+01  0.59947626096E+01  0.51100000000E-03 0.  1.
        -12    1    3    3    0    0 -0.17390983338E+02  0.36748065070E+02  0.62967285820E+01  0.41140191767E+02  0.00000000000E+00 0.  1.
</event>
<event>
 7    1  0.3434711E-013  0.7246154E+02  0.7816164E-02  0.1226708E+00
        -11   -1    0    0    0    0  0.00000000000E+00  0.00000000000E+00  0.45593999997E+02  0.45594000000E+02  0.51100000000E-03 0.  1.
         11   -1    0    0    0    0 -0.00000000000E+00 -0.00000000000E+00 -0.45593999997E+02  0.45594000000E+02  0.51100000000E-03 0. -1.
    9900012    2    1    2    0    0  0.23763527674E+01 -0.87222087541E+01  0.16399885070E+02  0.72461542558E+02  0.69999963868E+02 0.  0.
         12    1    1    2    0    0 -0.23763527674E+01  0.87222087541E+01 -0.16399885070E+02  0.18726457442E+02  0.00000000000E+00 0. -1.
         11    1    3    3    0    0 -0.14912620038E+02  0.11785736192E+02  0.98083620608E+01  0.21389104249E+02  0.51100000000E-03 0. -1.
        -11    1    3    3    0    0 -0.25609431255E+01  0.39715864951E+01  0.17185500477E+02  0.17823393501E+02  0.51100000000E-03 0.  1.
         12    1    3    3    0    0  0.19849915931E+02 -0.24479531441E+02 -0.10593977468E+02  0.33249044808E+02  0.00000000000E+00 0. -1.
</event>
<event>
 7    1  0.3434711E-013  0.7246126E+02  0.7816164E-02  0.1226709E+00
        -11   -1    0    0    0    0  0.00000000000E+00  0.00000000000E+00  0.45593999997E+02  0.45594000000E+02  0.51100000000E-03 0.  1.
         11   -1    0    0    0    0 -0.00000000000E+00 -0.00000000000E+00 -0.45593999997E+02  0.45594000000E+02  0.51100000000E-03 0. -1.
    9900012    2    1    2    0    0  0.22705384882E+01  0.32910348999E+00  0.18585665683E+02  0.72461264486E+02  0.69999601627E+02 0.  0.
         12    1    1    2    0    0 -0.22705384882E+01 -0.32910348999E+00 -0.18585665683E+02  0.18726735514E+02  0.00000000000E+00 0. -1.
         11    1    3    3    0    0 -0.22032330887E+02  0.17816845076E+02 -0.94709201001E+01  0.29875774477E+02  0.51100000000E-03 0. -1.
        -11    1    3    3    0    0  0.10682649906E+02 -0.86669784769E+01  0.55376268532E+01  0.14829053792E+02  0.51100000000E-03 0.  1.
        -12    1    3    3    0    0  0.13620219469E+02 -0.88207631095E+01  0.22518958930E+02  0.27756436217E+02  0.00000000000E+00 0.  1.
</event>
<event>
 7    1  0.3434711E-013  0.7246158E+02  0.7816164E-02  0.1226708E+00
        -11   -1    0    0    0    0  0.00000000000E+00  0.00000000000E+00  0.45593999997E+02  0.45594000000E+02  0.51100000000E-03 0.  1.
         11   -1    0    0    0    0 -0.00000000000E+00 -0.00000000000E+00 -0.45593999997E+02  0.45594000000E+02  0.51100000000E-03 0. -1.
    9900012    2    1    2    0    0  0.38868902260E+01  0.12748738445E+02  0.13154482996E+02  0.72461583619E+02  0.70000017358E+02 0.  0.
         12    1    1    2    0    0 -0.38868902260E+01 -0.12748738445E+02 -0.13154482996E+02  0.18726416381E+02  0.00000000000E+00 0. -1.
         11    1    3    3    0    0  0.63718466390E+01 -0.19815664668E+01  0.49134290726E+01  0.82866652379E+01  0.51100000000E-03 0. -1.
        -11    1    3    3    0    0  0.24733280984E+02  0.11665935341E+02  0.20489421464E+02  0.34170830072E+02  0.51100000000E-03 0.  1.
         12    1    3    3    0    0 -0.27218237397E+02  0.30643695711E+01 -0.12248367540E+02  0.30004088310E+02  0.00000000000E+00 0. -1.
</event>
<event>
 7    1  0.3434711E-013  0.7246159E+02  0.7816164E-02  0.1226708E+00
        -11   -1    0    0    0    0  0.00000000000E+00  0.00000000000E+00  0.45593999997E+02  0.45594000000E+02  0.51100000000E-03 0. -1.
         11   -1    0    0    0    0 -0.00000000000E+00 -0.00000000000E+00 -0.45593999997E+02  0.45594000000E+02  0.51100000000E-03 0.  1.
    9900012    2    1    2    0    0 -0.92077130644E+01 -0.91855458343E+01  0.13473022383E+02  0.72461586455E+02  0.70000021052E+02 0.  0.
         12    1    1    2    0    0  0.92077130644E+01  0.91855458343E+01 -0.13473022383E+02  0.18726413545E+02  0.00000000000E+00 0. -1.
         11    1    3    3    0    0  0.11439994658E+02  0.40640769394E+01  0.10027621888E+02  0.15746218598E+02  0.51100000000E-03 0. -1.
        -11    1    3    3    0    0 -0.26112052944E+02 -0.27311298042E+02 -0.69167070678E+01  0.38413371977E+02  0.51100000000E-03 0.  1.
         12    1    3    3    0    0  0.54643452210E+01  0.14061675269E+02  0.10362107563E+02  0.18301995880E+02  0.00000000000E+00 0. -1.
</event>
<event>
 7    1  0.3434711E-013  0.7246159E+02  0.7816164E-02  0.1226708E+00
        -11   -1    0    0    0    0  0.00000000000E+00  0.00000000000E+00  0.45593999997E+02  0.45594000000E+02  0.51100000000E-03 0. -1.
         11   -1    0    0    0    0 -0.00000000000E+00 -0.00000000000E+00 -0.45593999997E+02  0.45594000000E+02  0.51100000000E-03 0.  1.
    9900012    2    1    2    0    0  0.61094583445E+01 -0.14548833293E+02 -0.10083866338E+02  0.72461591061E+02  0.70000027052E+02 0.  0.
         12    1    1    2    0    0 -0.61094583445E+01  0.14548833293E+02  0.10083866338E+02  0.18726408939E+02  0.00000000000E+00 0. -1.
         11    1    3    3    0    0 -0.35689344768E+01  0.38228161897E+01  0.21038445132E+01  0.56371427973E+01  0.51100000000E-03 0. -1.
        -11    1    3    3    0    0 -0.12409618022E+02 -0.10170923512E+02 -0.32157903249E+02  0.35938517585E+02  0.51100000000E-03 0.  1.
         12    1    3    3    0    0  0.22088010844E+02 -0.82007259699E+01  0.19970192398E+02  0.30885930679E+02  0.00000000000E+00 0. -1.
</event>
<event>
 7    1  0.3434711E-013  0.7246155E+02  0.7816164E-02  0.1226708E+00
        -11   -1    0    0    0    0  0.00000000000E+00  0.00000000000E+00  0.45593999997E+02  0.45594000000E+02  0.51100000000E-03 0.  1.
         11   -1    0    0    0    0 -0.00000000000E+00 -0.00000000000E+00 -0.45593999997E+02  0.45594000000E+02  0.51100000000E-03 0. -1.
    9900012    2    1    2    0    0  0.17164792259E+02 -0.30299743665E+01  0.68461008876E+01  0.72461549848E+02  0.69999973364E+02 0.  0.
         12    1    1    2    0    0 -0.17164792259E+02  0.30299743665E+01 -0.68461008876E+01  0.18726450152E+02  0.00000000000E+00 0. -1.
         11    1    3    3    0    0  0.67306603308E+01 -0.64467989981E+01 -0.71632208818E+01  0.11754775177E+02  0.51100000000E-03 0. -1.
        -11    1    3    3    0    0  0.56228751486E+00 -0.27008691845E+02  0.49788022209E+01  0.27469511722E+02  0.51100000000E-03 0.  1.
        -12    1    3    3    0    0  0.98718444130E+01  0.30425516477E+02  0.90305195484E+01  0.33237262948E+02  0.00000000000E+00 0.  1.
</event>
<event>
 7    1  0.3434711E-013  0.7246150E+02  0.7816164E-02  0.1226708E+00
        -11   -1    0    0    0    0  0.00000000000E+00  0.00000000000E+00  0.45593999997E+02  0.45594000000E+02  0.51100000000E-03 0. -1.
         11   -1    0    0    0    0 -0.00000000000E+00 -0.00000000000E+00 -0.45593999997E+02  0.45594000000E+02  0.51100000000E-03 0.  1.
    9900012    2    1    2    0    0 -0.80957901374E+00  0.14383630783E+02 -0.11964007970E+02  0.72461501678E+02  0.69999910614E+02 0.  0.
         12    1    1    2    0    0  0.80957901374E+00 -0.14383630783E+02  0.11964007970E+02  0.18726498322E+02  0.00000000000E+00 0. -1.
         11    1    3    3    0    0  0.76954093399E+01  0.93248023339E+01 -0.20740781496E+01  0.12266746264E+02  0.51100000000E-03 0. -1.
        -11    1    3    3    0    0  0.15636355959E+02  0.88140986802E+01 -0.25513351429E+02  0.31194792268E+02  0.51100000000E-03 0.  1.
         12    1    3    3    0    0 -0.24141344312E+02 -0.37552702307E+01  0.15623421608E+02  0.28999963146E+02  0.00000000000E+00 0. -1.
</event>
<event>
 7    1  0.3434711E-013  0.7246198E+02  0.7816164E-02  0.1226707E+00
        -11   -1    0    0    0    0  0.00000000000E+00  0.00000000000E+00  0.45593999997E+02  0.45594000000E+02  0.51100000000E-03 0.  1.
         11   -1    0    0    0    0 -0.00000000000E+00 -0.00000000000E+00 -0.45593999997E+02  0.45594000000E+02  0.51100000000E-03 0. -1.
    9900012    2    1    2    0    0  0.86904412549E+01 -0.67196395281E+01  0.15165303630E+02  0.72461981769E+02  0.70000536020E+02 0.  0.
         12    1    1    2    0    0 -0.86904412549E+01  0.67196395281E+01 -0.15165303630E+02  0.18726018231E+02  0.00000000000E+00 0. -1.
         11    1    3    3    0    0  0.26750903600E+02 -0.35904506105E+01  0.69924794661E+01  0.27881839042E+02  0.51100000000E-03 0. -1.
        -11    1    3    3    0    0  0.47696680412E+01 -0.13356521726E+02 -0.64752235816E+01  0.15590860353E+02  0.51100000000E-03 0.  1.
        -12    1    3    3    0    0 -0.22830130386E+02  0.10227332809E+02  0.14648047746E+02  0.28989282375E+02  0.00000000000E+00 0.  1.
</event>
<event>
 7    1  0.3434711E-013  0.7246150E+02  0.7816164E-02  0.1226708E+00
        -11   -1    0    0    0    0  0.00000000000E+00  0.00000000000E+00  0.45593999997E+02  0.45594000000E+02  0.51100000000E-03 0.  1.
         11   -1    0    0    0    0 -0.00000000000E+00 -0.00000000000E+00 -0.45593999997E+02  0.45594000000E+02  0.51100000000E-03 0. -1.
    9900012    2    1    2    0    0 -0.18487024999E+02 -0.18618159856E+01  0.23335157126E+01  0.72461501458E+02  0.69999910327E+02 0.  0.
         12    1    1    2    0    0  0.18487024999E+02  0.18618159856E+01 -0.23335157126E+01  0.18726498542E+02  0.00000000000E+00 0. -1.
         11    1    3    3    0    0 -0.19420821644E+01 -0.20812482664E+02  0.45872243211E+00  0.20907930178E+02  0.51100000000E-03 0.  1.
        -11    1    3    3    0    0 -0.15676727610E+02 -0.70054849988E+01 -0.13079680544E+02  0.21585056220E+02  0.51100000000E-03 0. -1.
        -12    1    3    3    0    0 -0.86821522469E+00  0.25956151677E+02  0.14954473824E+02  0.29968515060E+02  0.00000000000E+00 0.  1.
</event>
<event>
 7    1  0.3434711E-013  0.7246169E+02  0.7816164E-02  0.1226708E+00
        -11   -1    0    0    0    0  0.00000000000E+00  0.00000000000E+00  0.45593999997E+02  0.45594000000E+02  0.51100000000E-03 0. -1.
         11   -1    0    0    0    0 -0.00000000000E+00 -0.00000000000E+00 -0.45593999997E+02  0.45594000000E+02  0.51100000000E-03 0.  1.
    9900012    2    1    2    0    0  0.30001974253E+01  0.34184900324E+01 -0.18165558734E+02  0.72461687421E+02  0.70000152579E+02 0.  0.
         12    1    1    2    0    0 -0.30001974253E+01 -0.34184900324E+01  0.18165558734E+02  0.18726312579E+02  0.00000000000E+00 0. -1.
         11    1    3    3    0    0  0.10860453715E+02 -0.94178569981E+01  0.85497132365E-01  0.14375423310E+02  0.51100000000E-03 0. -1.
        -11    1    3    3    0    0  0.11242852100E+02 -0.15593577485E+02  0.10825047597E+00  0.19224284137E+02  0.51100000000E-03 0.  1.
        -12    1    3    3    0    0 -0.19103108390E+02  0.28429924516E+02 -0.18359306342E+02  0.38861979974E+02  0.00000000000E+00 0.  1.
</event>
<event>
 7    1  0.3434711E-013  0.7246151E+02  0.7816164E-02  0.1226708E+00
        -11   -1    0    0    0    0  0.00000000000E+00  0.00000000000E+00  0.45593999997E+02  0.45594000000E+02  0.51100000000E-03 0. -1.
         11   -1    0    0    0    0 -0.00000000000E+00 -0.00000000000E+00 -0.45593999997E+02  0.45594000000E+02  0.51100000000E-03 0.  1.
    9900012    2    1    2    0    0 -0.62508848197E+01  0.59618157059E+00 -0.17642349859E+02  0.72461508016E+02  0.69999918871E+02 0.  0.
         12    1    1    2    0    0  0.62508848197E+01 -0.59618157059E+00  0.17642349859E+02  0.18726491984E+02  0.00000000000E+00 0. -1.
         11    1    3    3    0    0  0.12377920954E+02 -0.59680166570E+01  0.34616399112E+01  0.14170853930E+02  0.51100000000E-03 0. -1.
        -11    1    3    3    0    0  0.47139318101E+01  0.18741965595E+02  0.62630141870E+01  0.20315210421E+02  0.51100000000E-03 0.  1.
         12    1    3    3    0    0 -0.23342737584E+02 -0.12177767367E+02 -0.27367003957E+02  0.37975443665E+02  0.00000000000E+00 0. -1.
</event>
<event>
 7    1  0.3434711E-013  0.7246155E+02  0.7816164E-02  0.1226708E+00
        -11   -1    0    0    0    0  0.00000000000E+00  0.00000000000E+00  0.45593999997E+02  0.45594000000E+02  0.51100000000E-03 0. -1.
         11   -1    0    0    0    0 -0.00000000000E+00 -0.00000000000E+00 -0.45593999997E+02  0.45594000000E+02  0.51100000000E-03 0.  1.
    9900012    2    1    2    0    0 -0.12958381336E+02 -0.83869473295E+01  0.10602797372E+02  0.72461552273E+02  0.69999976524E+02 0.  0.
         12    1    1    2    0    0  0.12958381336E+02  0.83869473295E+01 -0.10602797372E+02  0.18726447727E+02  0.00000000000E+00 0. -1.
         11    1    3    3    0    0  0.10580357849E+01 -0.67760063392E+01 -0.14937354393E+02  0.16436491662E+02  0.51100000000E-03 0. -1.
        -11    1    3    3    0    0 -0.58449204095E+01 -0.13115869669E+01 -0.14221349404E+02  0.15431465715E+02  0.51100000000E-03 0.  1.
         12    1    3    3    0    0 -0.81714967116E+01 -0.29935402340E+00  0.39761501169E+02  0.40593594896E+02  0.00000000000E+00 0. -1.
</event>
<event>
 7    1  0.3434711E-013  0.7246155E+02  0.7816164E-02  0.1226708E+00
        -11   -1    0    0    0    0  0.00000000000E+00  0.00000000000E+00  0.45593999997E+02  0.45594000000E+02  0.51100000000E-03 0. -1.
         11   -1    0    0    0    0 -0.00000000000E+00 -0.00000000000E+00 -0.45593999997E+02  0.45594000000E+02  0.51100000000E-03 0.  1.
    9900012    2    1    2    0    0  0.19693099838E+01  0.11838261364E+02 -0.14375576394E+02  0.72461553177E+02  0.69999977702E+02 0.  0.
         12    1    1    2    0    0 -0.19693099838E+01 -0.11838261364E+02  0.14375576394E+02  0.18726446823E+02  0.00000000000E+00 0. -1.
         11    1    3    3    0    0 -0.19973190692E+02 -0.77521016127E+01  0.13850313306E+02  0.25511852241E+02  0.51100000000E-03 0. -1.
        -11    1    3    3    0    0  0.23439469818E+01  0.63418660383E+01  0.33093775056E+01  0.75276378790E+01  0.51100000000E-03 0.  1.
        -12    1    3    3    0    0  0.19598553694E+02  0.13248496939E+02 -0.31535267205E+02  0.39422063058E+02  0.00000000000E+00 0.  1.
</event>
<event>
 7    1  0.3434711E-013  0.7246151E+02  0.7816164E-02  0.1226708E+00
        -11   -1    0    0    0    0  0.00000000000E+00  0.00000000000E+00  0.45593999997E+02  0.45594000000E+02  0.51100000000E-03 0.  1.
         11   -1    0    0    0    0 -0.00000000000E+00 -0.00000000000E+00 -0.45593999997E+02  0.45594000000E+02  0.51100000000E-03 0. -1.
    9900012    2    1    2    0    0  0.29747094406E+01  0.62678432747E+01  0.17393872363E+02  0.72461506699E+02  0.69999917155E+02 0.  0.
         12    1    1    2    0    0 -0.29747094406E+01 -0.62678432747E+01 -0.17393872363E+02  0.18726493301E+02  0.00000000000E+00 0. -1.
         11    1    3    3    0    0  0.66923159074E+01 -0.13570666724E+02 -0.94845850099E+01  0.17857979746E+02  0.51100000000E-03 0. -1.
        -11    1    3    3    0    0  0.82356566651E+01 -0.42522352291E+01  0.26102375715E+02  0.27699125679E+02  0.51100000000E-03 0.  1.
         12    1    3    3    0    0 -0.11953263132E+02  0.24090745228E+02  0.77608165805E+00  0.26904401274E+02  0.00000000000E+00 0. -1.
</event>
<event>
 7    1  0.3434711E-013  0.7246155E+02  0.7816164E-02  0.1226708E+00
        -11   -1    0    0    0    0  0.00000000000E+00  0.00000000000E+00  0.45593999997E+02  0.45594000000E+02  0.51100000000E-03 0. -1.
         11   -1    0    0    0    0 -0.00000000000E+00 -0.00000000000E+00 -0.45593999997E+02  0.45594000000E+02  0.51100000000E-03 0.  1.
    9900012    2    1    2    0    0  0.13761598509E+02 -0.13954550195E+01 -0.12623433620E+02  0.72461549066E+02  0.69999972346E+02 0.  0.
         12    1    1    2    0    0 -0.13761598509E+02  0.13954550195E+01  0.12623433620E+02  0.18726450934E+02  0.00000000000E+00 0. -1.
         11    1    3    3    0    0  0.20780245017E+01  0.18293607530E+02  0.90749013981E+01  0.20526278229E+02  0.51100000000E-03 0. -1.
        -11    1    3    3    0    0 -0.14796764613E+02 -0.36600927052E+01 -0.12299030093E+02  0.19585879176E+02  0.51100000000E-03 0.  1.
        -12    1    3    3    0    0  0.26480338620E+02 -0.16028969844E+02 -0.93993049254E+01  0.32349391660E+02  0.00000000000E+00 0.  1.
</event>
<event>
 7    1  0.3434711E-013  0.7246160E+02  0.7816164E-02  0.1226708E+00
        -11   -1    0    0    0    0  0.00000000000E+00  0.00000000000E+00  0.45593999997E+02  0.45594000000E+02  0.51100000000E-03 0.  1.
         11   -1    0    0    0    0 -0.00000000000E+00 -0.00000000000E+00 -0.45593999997E+02  0.45594000000E+02  0.51100000000E-03 0. -1.
    9900012    2    1    2    0    0 -0.36522606379E+01 -0.15311230032E+02  0.10144230180E+02  0.72461596746E+02  0.70000034458E+02 0.  0.
         12    1    1    2    0    0  0.36522606379E+01  0.15311230032E+02 -0.10144230180E+02  0.18726403254E+02  0.00000000000E+00 0. -1.
         11    1    3    3    0    0  0.25487538571E+02  0.10133196173E+02 -0.39005663822E+01  0.27703983567E+02  0.51100000000E-03 0. -1.
        -11    1    3    3    0    0  0.24198312599E+01 -0.12129363404E+01  0.82098491144E+00  0.28285710842E+01  0.51100000000E-03 0.  1.
        -12    1    3    3    0    0 -0.31559630469E+02 -0.24231489865E+02  0.13223811651E+02  0.41929042095E+02  0.00000000000E+00 0.  1.
</event>
<event>
 7    1  0.3434711E-013  0.7246153E+02  0.7816164E-02  0.1226708E+00
        -11   -1    0    0    0    0  0.00000000000E+00  0.00000000000E+00  0.45593999997E+02  0.45594000000E+02  0.51100000000E-03 0. -1.
         11   -1    0    0    0    0 -0.00000000000E+00 -0.00000000000E+00 -0.45593999997E+02  0.45594000000E+02  0.51100000000E-03 0.  1.
    9900012    2    1    2    0    0  0.12140455909E+02 -0.14243883920E+02 -0.63385469470E+00  0.72461530216E+02  0.69999947791E+02 0.  0.
         12    1    1    2    0    0 -0.12140455909E+02  0.14243883920E+02  0.63385469470E+00  0.18726469784E+02  0.00000000000E+00 0. -1.
         11    1    3    3    0    0  0.19104432036E+02 -0.26300922821E+02  0.12483283860E+02  0.34821692102E+02  0.51100000000E-03 0. -1.
        -11    1    3    3    0    0  0.93561690047E+01 -0.52263186131E+01 -0.78709917506E+01  0.13296797212E+02  0.51100000000E-03 0.  1.
         12    1    3    3    0    0 -0.16320145132E+02  0.17283357514E+02 -0.52461468042E+01  0.24343040902E+02  0.00000000000E+00 0. -1.
</event>
<event>
 7    1  0.3434711E-013  0.7246158E+02  0.7816164E-02  0.1226708E+00
        -11   -1    0    0    0    0  0.00000000000E+00  0.00000000000E+00  0.45593999997E+02  0.45594000000E+02  0.51100000000E-03 0.  1.
         11   -1    0    0    0    0 -0.00000000000E+00 -0.00000000000E+00 -0.45593999997E+02  0.45594000000E+02  0.51100000000E-03 0. -1.
    9900012    2    1    2    0    0  0.18605160989E+02 -0.18522288941E+01 -0.10469961140E+01  0.72461575671E+02  0.70000007004E+02 0.  0.
         12    1    1    2    0    0 -0.18605160989E+02  0.18522288941E+01  0.10469961140E+01  0.18726424329E+02  0.00000000000E+00 0. -1.
         11    1    3    3    0    0 -0.45091922348E+01  0.13210140440E+02  0.22331001892E+01  0.14136030623E+02  0.51100000000E-03 0. -1.
        -11    1    3    3    0    0 -0.64139189082E+01  0.11866711252E+02  0.93508960367E+01  0.16413300968E+02  0.51100000000E-03 0.  1.
         12    1    3    3    0    0  0.29528272132E+02 -0.26929080587E+02 -0.12630992340E+02  0.41912244080E+02  0.00000000000E+00 0. -1.
</event>
<event>
 7    1  0.3434711E-013  0.7246150E+02  0.7816164E-02  0.1226708E+00
        -11   -1    0    0    0    0  0.00000000000E+00  0.00000000000E+00  0.45593999997E+02  0.45594000000E+02  0.51100000000E-03 0.  1.
         11   -1    0    0    0    0 -0.00000000000E+00 -0.00000000000E+00 -0.45593999997E+02  0.45594000000E+02  0.51100000000E-03 0. -1.
    9900012    2    1    2    0    0 -0.18191546510E+02  0.27239393884E+01 -0.35113575070E+01  0.72461498945E+02  0.69999907055E+02 0.  0.
         12    1    1    2    0    0  0.18191546510E+02 -0.27239393884E+01  0.35113575070E+01  0.18726501055E+02  0.00000000000E+00 0. -1.
         11    1    3    3    0    0  0.64753846759E+01  0.27989020083E+02 -0.64749192070E+01  0.29448946176E+02  0.51100000000E-03 0. -1.
        -11    1    3    3    0    0 -0.25765284418E+02 -0.10112328785E+02  0.10337842563E+01  0.27697974380E+02  0.51100000000E-03 0.  1.
        -12    1    3    3    0    0  0.10983532329E+01 -0.15152751909E+02  0.19297774437E+01  0.15314578389E+02  0.00000000000E+00 0.  1.
</event>
<event>
 7    1  0.3434711E-013  0.7246157E+02  0.7816164E-02  0.1226708E+00
        -11   -1    0    0    0    0  0.00000000000E+00  0.00000000000E+00  0.45593999997E+02  0.45594000000E+02  0.51100000000E-03 0.  1.
         11   -1    0    0    0    0 -0.00000000000E+00 -0.00000000000E+00 -0.45593999997E+02  0.45594000000E+02  0.51100000000E-03 0. -1.
    9900012    2    1    2    0    0  0.12844826778E+02  0.69322033481E+01  0.11731761952E+02  0.72461567966E+02  0.69999996967E+02 0.  0.
         12    1    1    2    0    0 -0.12844826778E+02 -0.69322033481E+01 -0.11731761952E+02  0.18726432034E+02  0.00000000000E+00 0. -1.
         11    1    3    3    0    0  0.16400056778E+02 -0.16720999528E+01 -0.25880304477E+02  0.30684653178E+02  0.51100000000E-03 0. -1.
        -11    1    3    3    0    0  0.64462320460E+00  0.64574443141E+00 -0.14382041645E+01  0.17032194299E+01  0.51100000000E-03 0.  1.
        -12    1    3    3    0    0 -0.41998532049E+01  0.79585588695E+01  0.39050270594E+02  0.40073695358E+02  0.00000000000E+00 0.  1.
</event>
<event>
 7    1  0.4155965E-013  0.7246170E+02  0.7816164E-02  0.1226708E+00
        -11   -1    0    0    0    0  0.00000000000E+00  0.00000000000E+00  0.45593999997E+02  0.45594000000E+02  0.51100000000E-03 0.  1.
         11   -1    0    0    0    0 -0.00000000000E+00 -0.00000000000E+00 -0.45593999997E+02  0.45594000000E+02  0.51100000000E-03 0. -1.
    9900012    2    1    2    0    0 -0.27531017654E+01  0.17261241999E+02  0.67189583815E+01  0.72461696402E+02  0.70000164279E+02 0.  0.
         12    1    1    2    0    0  0.27531017654E+01 -0.17261241999E+02 -0.67189583815E+01  0.18726303598E+02  0.00000000000E+00 0. -1.
         11    1    3    3    0    0 -0.81135665855E+01  0.32888743359E+01 -0.20850354855E+00  0.87572901702E+01  0.51100000000E-03 0. -1.
        -11    1    3    3    0    0  0.73921958853E+01  0.34211478028E+02  0.19226797598E+02  0.39934190050E+02  0.51100000000E-03 0.  1.
         12    1    3    3    0    0 -0.20317310652E+01 -0.20239110364E+02 -0.12299335668E+02  0.23770216182E+02  0.00000000000E+00 0. -1.
</event>
<event>
 7    1  0.3434711E-013  0.7246153E+02  0.7816164E-02  0.1226708E+00
        -11   -1    0    0    0    0  0.00000000000E+00  0.00000000000E+00  0.45593999997E+02  0.45594000000E+02  0.51100000000E-03 0.  1.
         11   -1    0    0    0    0 -0.00000000000E+00 -0.00000000000E+00 -0.45593999997E+02  0.45594000000E+02  0.51100000000E-03 0. -1.
    9900012    2    1    2    0    0 -0.29769502621E+01 -0.11320647692E+02  0.14617165303E+02  0.72461526266E+02  0.69999942645E+02 0.  0.
         12    1    1    2    0    0  0.29769502621E+01  0.11320647692E+02 -0.14617165303E+02  0.18726473734E+02  0.00000000000E+00 0. -1.
         11    1    3    3    0    0  0.92250912538E+01  0.87457166877E+01  0.15543937061E+02  0.20079936470E+02  0.51100000000E-03 0. -1.
        -11    1    3    3    0    0  0.10999403987E+02 -0.25226867964E+02 -0.57843145238E+01  0.28121878496E+02  0.51100000000E-03 0.  1.
         12    1    3    3    0    0 -0.23201445503E+02  0.51605035847E+01  0.48575427654E+01  0.24259711300E+02  0.00000000000E+00 0. -1.
</event>
<event>
 7    1  0.3434711E-013  0.7246158E+02  0.7816164E-02  0.1226708E+00
        -11   -1    0    0    0    0  0.00000000000E+00  0.00000000000E+00  0.45593999997E+02  0.45594000000E+02  0.51100000000E-03 0. -1.
         11   -1    0    0    0    0 -0.00000000000E+00 -0.00000000000E+00 -0.45593999997E+02  0.45594000000E+02  0.51100000000E-03 0.  1.
    9900012    2    1    2    0    0  0.10373190419E+01 -0.56998607598E+01 -0.17807701518E+02  0.72461583449E+02  0.70000017137E+02 0.  0.
         12    1    1    2    0    0 -0.10373190419E+01  0.56998607598E+01  0.17807701518E+02  0.18726416551E+02  0.00000000000E+00 0. -1.
         11    1    3    3    0    0  0.27870679442E+01 -0.26150928852E+01 -0.22363315105E+01  0.44280511977E+01  0.51100000000E-03 0. -1.
        -11    1    3    3    0    0  0.31949554806E+02 -0.45631038289E+01 -0.48319188371E+01  0.32633470683E+02  0.51100000000E-03 0.  1.
         12    1    3    3    0    0 -0.33699303709E+02  0.14783359543E+01 -0.10739451170E+02  0.35400061569E+02  0.00000000000E+00 0. -1.
</event>
<event>
 7    1  0.3434711E-013  0.7246159E+02  0.7816164E-02  0.1226708E+00
        -11   -1    0    0    0    0  0.00000000000E+00  0.00000000000E+00  0.45593999997E+02  0.45594000000E+02  0.51100000000E-03 0. -1.
         11   -1    0    0    0    0 -0.00000000000E+00 -0.00000000000E+00 -0.45593999997E+02  0.45594000000E+02  0.51100000000E-03 0.  1.
    9900012    2    1    2    0    0  0.20000577688E+01 -0.35451732235E+01 -0.18278679596E+02  0.72461585179E+02  0.70000019390E+02 0.  0.
         12    1    1    2    0    0 -0.20000577688E+01  0.35451732235E+01  0.18278679596E+02  0.18726414821E+02  0.00000000000E+00 0. -1.
         11    1    3    3    0    0  0.55725680202E+01  0.98858622859E+01  0.15505724840E+02  0.19214871599E+02  0.51100000000E-03 0. -1.
        -11    1    3    3    0    0  0.45786516932E+00  0.97296085392E+01  0.24596421609E+01  0.10046131726E+02  0.51100000000E-03 0.  1.
         12    1    3    3    0    0 -0.40303754208E+01 -0.23160644049E+02 -0.36244046597E+02  0.43200581854E+02  0.00000000000E+00 0. -1.
</event>
<event>
 7    1  0.3434711E-013  0.7246156E+02  0.7816164E-02  0.1226708E+00
        -11   -1    0    0    0    0  0.00000000000E+00  0.00000000000E+00  0.45593999997E+02  0.45594000000E+02  0.51100000000E-03 0. -1.
         11   -1    0    0    0    0 -0.00000000000E+00 -0.00000000000E+00 -0.45593999997E+02  0.45594000000E+02  0.51100000000E-03 0.  1.
    9900012    2    1    2    0    0  0.11669668477E+02  0.14134166973E+02  0.38371382734E+01  0.72461562311E+02  0.69999989600E+02 0.  0.
         12    1    1    2    0    0 -0.11669668477E+02 -0.14134166973E+02 -0.38371382734E+01  0.18726437689E+02  0.00000000000E+00 0. -1.
         11    1    3    3    0    0 -0.22341335783E+01 -0.84571773941E+01  0.72563720841E+01  0.11365304149E+02  0.51100000000E-03 0. -1.
        -11    1    3    3    0    0 -0.19777570410E+02 -0.80571153163E+00 -0.34114754443E+01  0.20085806615E+02  0.51100000000E-03 0.  1.
         12    1    3    3    0    0  0.33681372466E+02  0.23397055899E+02 -0.77583664311E-02  0.41010451547E+02  0.00000000000E+00 0. -1.
</event>
<event>
 7    1  0.3434711E-013  0.7246152E+02  0.7816164E-02  0.1226708E+00
        -11   -1    0    0    0    0  0.00000000000E+00  0.00000000000E+00  0.45593999997E+02  0.45594000000E+02  0.51100000000E-03 0. -1.
         11   -1    0    0    0    0 -0.00000000000E+00 -0.00000000000E+00 -0.45593999997E+02  0.45594000000E+02  0.51100000000E-03 0.  1.
    9900012    2    1    2    0    0 -0.15771442025E+02  0.45380055197E+01 -0.90193852721E+01  0.72461516392E+02  0.69999929782E+02 0.  0.
         12    1    1    2    0    0  0.15771442025E+02 -0.45380055197E+01  0.90193852721E+01  0.18726483608E+02  0.00000000000E+00 0. -1.
         11    1    3    3    0    0 -0.44739701066E+01  0.18456914985E+02  0.62554565300E+01  0.19995120804E+02  0.51100000000E-03 0. -1.
        -11    1    3    3    0    0  0.11718501717E+02  0.10826930836E+02 -0.82022019490E+01  0.17939393270E+02  0.51100000000E-03 0.  1.
        -12    1    3    3    0    0 -0.23015973635E+02 -0.24745840301E+02 -0.70726398531E+01  0.34527002318E+02  0.00000000000E+00 0.  1.
</event>
<event>
 7    1  0.3434711E-013  0.7246155E+02  0.7816164E-02  0.1226708E+00
        -11   -1    0    0    0    0  0.00000000000E+00  0.00000000000E+00  0.45593999997E+02  0.45594000000E+02  0.51100000000E-03 0. -1.
         11   -1    0    0    0    0 -0.00000000000E+00 -0.00000000000E+00 -0.45593999997E+02  0.45594000000E+02  0.51100000000E-03 0.  1.
    9900012    2    1    2    0    0  0.17089397193E+02 -0.67488007668E+01  0.36174548041E+01  0.72461553795E+02  0.69999978507E+02 0.  0.
         12    1    1    2    0    0 -0.17089397193E+02  0.67488007668E+01 -0.36174548041E+01  0.18726446205E+02  0.00000000000E+00 0. -1.
         11    1    3    3    0    0 -0.28914700214E+01 -0.16301901808E+02  0.13838376404E+02  0.21578073667E+02  0.51100000000E-03 0. -1.
        -11    1    3    3    0    0  0.27183567704E+01 -0.12036125654E+02 -0.18312105160E+02  0.22081462360E+02  0.51100000000E-03 0.  1.
         12    1    3    3    0    0  0.17262510444E+02  0.21589226695E+02  0.80911835601E+01  0.28802017768E+02  0.00000000000E+00 0. -1.
</event>
<event>
 7    1  0.3434711E-013  0.7246160E+02  0.7816164E-02  0.1226708E+00
        -11   -1    0    0    0    0  0.00000000000E+00  0.00000000000E+00  0.45593999997E+02  0.45594000000E+02  0.51100000000E-03 0.  1.
         11   -1    0    0    0    0 -0.00000000000E+00 -0.00000000000E+00 -0.45593999997E+02  0.45594000000E+02  0.51100000000E-03 0. -1.
    9900012    2    1    2    0    0 -0.13653683144E+02  0.12615037139E+02 -0.22618617793E+01  0.72461595003E+02  0.70000032188E+02 0.  0.
         12    1    1    2    0    0  0.13653683144E+02 -0.12615037139E+02  0.22618617793E+01  0.18726404997E+02  0.00000000000E+00 0. -1.
         11    1    3    3    0    0  0.88297304808E+01 -0.50010124921E+01  0.95548865337E+01  0.13938081763E+02  0.51100000000E-03 0. -1.
        -11    1    3    3    0    0  0.23371046578E+01 -0.13573903419E+00  0.16636831622E+02  0.16800733613E+02  0.51100000000E-03 0.  1.
        -12    1    3    3    0    0 -0.24820518283E+02  0.17751788665E+02 -0.28453579935E+02  0.41722779626E+02  0.00000000000E+00 0.  1.
</event>
<event>
 7    1  0.3434711E-013  0.7246156E+02  0.7816164E-02  0.1226708E+00
        -11   -1    0    0    0    0  0.00000000000E+00  0.00000000000E+00  0.45593999997E+02  0.45594000000E+02  0.51100000000E-03 0.  1.
         11   -1    0    0    0    0 -0.00000000000E+00 -0.00000000000E+00 -0.45593999997E+02  0.45594000000E+02  0.51100000000E-03 0. -1.
    9900012    2    1    2    0    0 -0.10389069686E+02  0.11565322224E+02  0.10439838815E+02  0.72461556622E+02  0.69999982189E+02 0.  0.
         12    1    1    2    0    0  0.10389069686E+02 -0.11565322224E+02 -0.10439838815E+02  0.18726443378E+02  0.00000000000E+00 0. -1.
         11    1    3    3    0    0 -0.15629505075E+02 -0.17624282318E+02 -0.47713540157E+01  0.24034612031E+02  0.51100000000E-03 0. -1.
        -11    1    3    3    0    0 -0.38548830965E+00 -0.78973229169E+01 -0.10987345841E+00  0.79074890407E+01  0.51100000000E-03 0.  1.
        -12    1    3    3    0    0  0.56259236981E+01  0.37086927459E+02  0.15321066289E+02  0.40519455550E+02  0.00000000000E+00 0.  1.
</event>
<event>
 7    1  0.3434711E-013  0.7246154E+02  0.7816164E-02  0.1226708E+00
        -11   -1    0    0    0    0  0.00000000000E+00  0.00000000000E+00  0.45593999997E+02  0.45594000000E+02  0.51100000000E-03 0.  1.
         11   -1    0    0    0    0 -0.00000000000E+00 -0.00000000000E+00 -0.45593999997E+02  0.45594000000E+02  0.51100000000E-03 0. -1.
    9900012    2    1    2    0    0  0.17303989037E+02  0.69692432907E+01  0.16376971054E+01  0.72461536360E+02  0.69999955794E+02 0.  0.
         12    1    1    2    0    0 -0.17303989037E+02 -0.69692432907E+01 -0.16376971054E+01  0.18726463640E+02  0.00000000000E+00 0. -1.
         11    1    3    3    0    0  0.30535778043E+02  0.12503896112E+02 -0.18624386682E+02  0.37889958277E+02  0.51100000000E-03 0. -1.
        -11    1    3    3    0    0 -0.49408122007E+01  0.83819161765E+01  0.16014977123E+01  0.98606764056E+01  0.51100000000E-03 0.  1.
        -12    1    3    3    0    0 -0.82909768049E+01 -0.13916568998E+02  0.18660586075E+02  0.24710901678E+02  0.00000000000E+00 0.  1.
</event>
<event>
 7    1  0.3434711E-013  0.7246149E+02  0.7816164E-02  0.1226708E+00
        -11   -1    0    0    0    0  0.00000000000E+00  0.00000000000E+00  0.45593999997E+02  0.45594000000E+02  0.51100000000E-03 0. -1.
         11   -1    0    0    0    0 -0.00000000000E+00 -0.00000000000E+00 -0.45593999997E+02  0.45594000000E+02  0.51100000000E-03 0.  1.
    9900012    2    1    2    0    0 -0.61685953626E+01  0.10932552148E+02 -0.13896402948E+02  0.72461487242E+02  0.69999891808E+02 0.  0.
         12    1    1    2    0    0  0.61685953626E+01 -0.10932552148E+02  0.13896402948E+02  0.18726512758E+02  0.00000000000E+00 0. -1.
         11    1    3    3    0    0  0.94232005881E+01  0.36459342552E+01 -0.78082711014E+01  0.12769441796E+02  0.51100000000E-03 0. -1.
        -11    1    3    3    0    0  0.19015652553E+02 -0.82478701215E+01 -0.66054799972E+01  0.21754419547E+02  0.51100000000E-03 0.  1.
        -12    1    3    3    0    0 -0.34607448504E+02  0.15534488014E+02  0.51734815107E+00  0.37937625899E+02  0.00000000000E+00 0.  1.
</event>
<event>
 7    1  0.3434711E-013  0.7246224E+02  0.7816164E-02  0.1226706E+00
        -11   -1    0    0    0    0  0.00000000000E+00  0.00000000000E+00  0.45593999997E+02  0.45594000000E+02  0.51100000000E-03 0. -1.
         11   -1    0    0    0    0 -0.00000000000E+00 -0.00000000000E+00 -0.45593999997E+02  0.45594000000E+02  0.51100000000E-03 0.  1.
    9900012    2    1    2    0    0 -0.13771137078E+02  0.63515924520E+01 -0.10984851734E+02  0.72462244723E+02  0.70000878563E+02 0.  0.
         12    1    1    2    0    0  0.13771137078E+02 -0.63515924520E+01  0.10984851734E+02  0.18725755277E+02  0.00000000000E+00 0. -1.
         11    1    3    3    0    0  0.27754379010E+01  0.25980445609E+02  0.24731708675E+01  0.26245060182E+02  0.51100000000E-03 0. -1.
        -11    1    3    3    0    0 -0.48817456805E+00 -0.15943905541E+01  0.11423390296E+02  0.11544446360E+02  0.51100000000E-03 0.  1.
        -12    1    3    3    0    0 -0.16058400411E+02 -0.18034462603E+02 -0.24881412897E+02  0.34672738180E+02  0.00000000000E+00 0.  1.
</event>
<event>
 7    1  0.3434711E-013  0.7246161E+02  0.7816164E-02  0.1226708E+00
        -11   -1    0    0    0    0  0.00000000000E+00  0.00000000000E+00  0.45593999997E+02  0.45594000000E+02  0.51100000000E-03 0. -1.
         11   -1    0    0    0    0 -0.00000000000E+00 -0.00000000000E+00 -0.45593999997E+02  0.45594000000E+02  0.51100000000E-03 0.  1.
    9900012    2    1    2    0    0 -0.30189011530E+01  0.12819127657E+02 -0.13312926607E+02  0.72461606516E+02  0.70000047185E+02 0.  0.
         12    1    1    2    0    0  0.30189011530E+01 -0.12819127657E+02  0.13312926607E+02  0.18726393484E+02  0.00000000000E+00 0. -1.
         11    1    3    3    0    0 -0.27119790827E+02  0.10138463228E+02  0.10188372760E+01  0.28970839145E+02  0.51100000000E-03 0. -1.
        -11    1    3    3    0    0  0.14048982229E+01  0.13430241867E+02  0.18295771852E+01  0.13626903117E+02  0.51100000000E-03 0.  1.
         12    1    3    3    0    0  0.22695991451E+02 -0.10749577437E+02 -0.16161341069E+02  0.29863864254E+02  0.00000000000E+00 0. -1.
</event>
<event>
 7    1  0.3434711E-013  0.7246160E+02  0.7816164E-02  0.1226708E+00
        -11   -1    0    0    0    0  0.00000000000E+00  0.00000000000E+00  0.45593999997E+02  0.45594000000E+02  0.51100000000E-03 0.  1.
         11   -1    0    0    0    0 -0.00000000000E+00 -0.00000000000E+00 -0.45593999997E+02  0.45594000000E+02  0.51100000000E-03 0. -1.
    9900012    2    1    2    0    0  0.15209166670E+02 -0.40813781141E+01  0.10134180361E+02  0.72461601262E+02  0.70000040342E+02 0.  0.
         12    1    1    2    0    0 -0.15209166670E+02  0.40813781141E+01 -0.10134180361E+02  0.18726398738E+02  0.00000000000E+00 0. -1.
         11    1    3    3    0    0 -0.33135884036E+01  0.74980647421E+00  0.17280577625E+02  0.17611372495E+02  0.51100000000E-03 0. -1.
        -11    1    3    3    0    0  0.23393882793E+02  0.88956056094E+01  0.14375533988E+02  0.28862805286E+02  0.51100000000E-03 0.  1.
         12    1    3    3    0    0 -0.48711277198E+01 -0.13726790198E+02 -0.21521931252E+02  0.25987423481E+02  0.00000000000E+00 0. -1.
</event>
<event>
 7    1  0.3434711E-013  0.7246158E+02  0.7816164E-02  0.1226708E+00
        -11   -1    0    0    0    0  0.00000000000E+00  0.00000000000E+00  0.45593999997E+02  0.45594000000E+02  0.51100000000E-03 0.  1.
         11   -1    0    0    0    0 -0.00000000000E+00 -0.00000000000E+00 -0.45593999997E+02  0.45594000000E+02  0.51100000000E-03 0. -1.
    9900012    2    1    2    0    0  0.15260592575E+02  0.10852422917E+02 -0.13362709183E+00  0.72461584830E+02  0.70000018935E+02 0.  0.
         12    1    1    2    0    0 -0.15260592575E+02 -0.10852422917E+02  0.13362709183E+00  0.18726415170E+02  0.00000000000E+00 0. -1.
         11    1    3    3    0    0  0.19174182150E+02 -0.24145046445E+01 -0.14866014980E+01  0.19382700485E+02  0.51100000000E-03 0. -1.
        -11    1    3    3    0    0  0.21408051484E+02 -0.47839562276E+01  0.14183732187E+01  0.21981871812E+02  0.51100000000E-03 0.  1.
        -12    1    3    3    0    0 -0.25321641058E+02  0.18050883789E+02 -0.65398812531E-01  0.31097012533E+02  0.00000000000E+00 0.  1.
</event>
<event>
 7    1  0.3434711E-013  0.7246154E+02  0.7816164E-02  0.1226708E+00
        -11   -1    0    0    0    0  0.00000000000E+00  0.00000000000E+00  0.45593999997E+02  0.45594000000E+02  0.51100000000E-03 0. -1.
         11   -1    0    0    0    0 -0.00000000000E+00 -0.00000000000E+00 -0.45593999997E+02  0.45594000000E+02  0.51100000000E-03 0.  1.
    9900012    2    1    2    0    0 -0.50021763161E+01  0.13515801860E+02 -0.11957495737E+02  0.72461538185E+02  0.69999958171E+02 0.  0.
         12    1    1    2    0    0  0.50021763161E+01 -0.13515801860E+02  0.11957495737E+02  0.18726461815E+02  0.00000000000E+00 0. -1.
         11    1    3    3    0    0  0.55072782004E+01 -0.57582487581E+01 -0.39477986279E+01  0.88922807088E+01  0.51100000000E-03 0. -1.
        -11    1    3    3    0    0  0.14570595254E+02 -0.14789791148E+02 -0.27384397850E+01  0.20941328062E+02  0.51100000000E-03 0.  1.
         12    1    3    3    0    0 -0.25080049771E+02  0.34063841766E+02 -0.52712573237E+01  0.42627929414E+02  0.00000000000E+00 0. -1.
</event>
<event>
 7    1  0.3434711E-013  0.7246161E+02  0.7816164E-02  0.1226708E+00
        -11   -1    0    0    0    0  0.00000000000E+00  0.00000000000E+00  0.45593999997E+02  0.45594000000E+02  0.51100000000E-03 0.  1.
         11   -1    0    0    0    0 -0.00000000000E+00 -0.00000000000E+00 -0.45593999997E+02  0.45594000000E+02  0.51100000000E-03 0. -1.
    9900012    2    1    2    0    0  0.18691177461E+02  0.10031202666E+01  0.55803286712E+00  0.72461607774E+02  0.70000048824E+02 0.  0.
         12    1    1    2    0    0 -0.18691177461E+02 -0.10031202666E+01 -0.55803286712E+00  0.18726392226E+02  0.00000000000E+00 0. -1.
         11    1    3    3    0    0 -0.60674961748E+01  0.34775058248E+01 -0.52986934595E+01  0.87740360857E+01  0.51100000000E-03 0.  1.
        -11    1    3    3    0    0 -0.16296448629E+02 -0.48938978566E+01 -0.98536863227E+01  0.19662645004E+02  0.51100000000E-03 0. -1.
        -12    1    3    3    0    0  0.41055122264E+02  0.24195122983E+01  0.15710412649E+02  0.44024926684E+02  0.00000000000E+00 0.  1.
</event>
<event>
 7    1  0.3434711E-013  0.7246157E+02  0.7816164E-02  0.1226708E+00
        -11   -1    0    0    0    0  0.00000000000E+00  0.00000000000E+00  0.45593999997E+02  0.45594000000E+02  0.51100000000E-03 0.  1.
         11   -1    0    0    0    0 -0.00000000000E+00 -0.00000000000E+00 -0.45593999997E+02  0.45594000000E+02  0.51100000000E-03 0. -1.
    9900012    2    1    2    0    0  0.14595514598E+02 -0.62158171259E+00  0.11715961527E+02  0.72461570423E+02  0.70000000168E+02 0.  0.
         12    1    1    2    0    0 -0.14595514598E+02  0.62158171259E+00 -0.11715961527E+02  0.18726429577E+02  0.00000000000E+00 0. -1.
         11    1    3    3    0    0  0.13486514418E+02  0.25854220028E+02  0.21473739992E+02  0.36213923758E+02  0.51100000000E-03 0. -1.
        -11    1    3    3    0    0 -0.34362186876E+00 -0.22632296930E+01  0.66036890766E+01  0.69892055567E+01  0.51100000000E-03 0.  1.
         12    1    3    3    0    0  0.14526220486E+01 -0.24212572048E+02 -0.16361467542E+02  0.29258441109E+02  0.00000000000E+00 0. -1.
</event>
<event>
 7    1  0.3434711E-013  0.7246156E+02  0.7816164E-02  0.1226708E+00
        -11   -1    0    0    0    0  0.00000000000E+00  0.00000000000E+00  0.45593999997E+02  0.45594000000E+02  0.51100000000E-03 0.  1.
         11   -1    0    0    0    0 -0.00000000000E+00 -0.00000000000E+00 -0.45593999997E+02  0.45594000000E+02  0.51100000000E-03 0. -1.
    9900012    2    1    2    0    0 -0.13827168953E+02  0.40496955655E+01  0.11961976928E+02  0.72461560737E+02  0.69999987550E+02 0.  0.
         12    1    1    2    0    0  0.13827168953E+02 -0.40496955655E+01 -0.11961976928E+02  0.18726439263E+02  0.00000000000E+00 0. -1.
         11    1    3    3    0    0  0.67596367848E+00  0.69539286313E+00  0.75024564013E+01  0.75648761023E+01  0.51100000000E-03 0. -1.
        -11    1    3    3    0    0  0.15087272154E+02  0.99610771983E+01  0.23078831350E+02  0.29316911446E+02  0.51100000000E-03 0.  1.
         12    1    3    3    0    0 -0.29590404785E+02 -0.66067744959E+01 -0.18619310824E+02  0.35579773189E+02  0.00000000000E+00 0. -1.
</event>
<event>
 7    1  0.3434711E-013  0.7246107E+02  0.7816164E-02  0.1226709E+00
        -11   -1    0    0    0    0  0.00000000000E+00  0.00000000000E+00  0.45593999997E+02  0.45594000000E+02  0.51100000000E-03 0. -1.
         11   -1    0    0    0    0 -0.00000000000E+00 -0.00000000000E+00 -0.45593999997E+02  0.45594000000E+02  0.51100000000E-03 0.  1.
    9900012    2    1    2    0    0  0.89407154721E+01  0.15996474933E+02  0.38567292267E+01  0.72461068491E+02  0.69999346305E+02 0.  0.
         12    1    1    2    0    0 -0.89407154721E+01 -0.15996474933E+02 -0.38567292267E+01  0.18726931509E+02  0.00000000000E+00 0. -1.
         11    1    3    3    0    0  0.14725127087E+01 -0.11351107050E+02 -0.11977547409E+02  0.16567364520E+02  0.51100000000E-03 0. -1.
        -11    1    3    3    0    0 -0.99075479265E+01 -0.79080229007E+01 -0.18189815054E+01  0.12806444709E+02  0.51100000000E-03 0.  1.
         12    1    3    3    0    0  0.17375750690E+02  0.35255604883E+02  0.17653258141E+02  0.43087259262E+02  0.00000000000E+00 0. -1.
</event>
<event>
 7    1  0.3434711E-013  0.7246153E+02  0.7816164E-02  0.1226708E+00
        -11   -1    0    0    0    0  0.00000000000E+00  0.00000000000E+00  0.45593999997E+02  0.45594000000E+02  0.51100000000E-03 0.  1.
         11   -1    0    0    0    0 -0.00000000000E+00 -0.00000000000E+00 -0.45593999997E+02  0.45594000000E+02  0.51100000000E-03 0. -1.
    9900012    2    1    2    0    0  0.16579074359E+02  0.72858426282E+01  0.47677420090E+01  0.72461532814E+02  0.69999951175E+02 0.  0.
         12    1    1    2    0    0 -0.16579074359E+02 -0.72858426282E+01 -0.47677420090E+01  0.18726467186E+02  0.00000000000E+00 0. -1.
         11    1    3    3    0    0 -0.20246715254E+01 -0.14957567385E+02  0.26821421612E+02  0.30776887016E+02  0.51100000000E-03 0. -1.
        -11    1    3    3    0    0  0.10630306348E+02  0.12774394212E+02 -0.26032465829E+00  0.16620960554E+02  0.51100000000E-03 0.  1.
        -12    1    3    3    0    0  0.79734395361E+01  0.94690158014E+01 -0.21793354944E+02  0.25063685244E+02  0.00000000000E+00 0.  1.
</event>
<event>
 7    1  0.3453830E-013  0.7246156E+02  0.7816164E-02  0.1226708E+00
        -11   -1    0    0    0    0  0.00000000000E+00  0.00000000000E+00  0.45593999997E+02  0.45594000000E+02  0.51100000000E-03 0. -1.
         11   -1    0    0    0    0 -0.00000000000E+00 -0.00000000000E+00 -0.45593999997E+02  0.45594000000E+02  0.51100000000E-03 0.  1.
    9900012    2    1    2    0    0 -0.10250968886E+02  0.15049308299E+02  0.43721225217E+01  0.72461561505E+02  0.69999988550E+02 0.  0.
         12    1    1    2    0    0  0.10250968886E+02 -0.15049308299E+02 -0.43721225217E+01  0.18726438495E+02  0.00000000000E+00 0. -1.
         11    1    3    3    0    0  0.14810146699E+02  0.15154307441E+02  0.36099439690E+01  0.21494770876E+02  0.51100000000E-03 0. -1.
        -11    1    3    3    0    0 -0.11116808521E+02 -0.19269531538E+01  0.22445967941E+02  0.25122063156E+02  0.51100000000E-03 0.  1.
         12    1    3    3    0    0 -0.13944307064E+02  0.18219540115E+01 -0.21683789388E+02  0.25844727473E+02  0.00000000000E+00 0. -1.
</event>
<event>
 7    1  0.3434711E-013  0.7246143E+02  0.7816164E-02  0.1226708E+00
        -11   -1    0    0    0    0  0.00000000000E+00  0.00000000000E+00  0.45593999997E+02  0.45594000000E+02  0.51100000000E-03 0.  1.
         11   -1    0    0    0    0 -0.00000000000E+00 -0.00000000000E+00 -0.45593999997E+02  0.45594000000E+02  0.51100000000E-03 0. -1.
    9900012    2    1    2    0    0  0.14522496420E+02  0.97621404925E+01  0.66695047708E+01  0.72461425749E+02  0.69999811703E+02 0.  0.
         12    1    1    2    0    0 -0.14522496420E+02 -0.97621404925E+01 -0.66695047708E+01  0.18726574251E+02  0.00000000000E+00 0. -1.
         11    1    3    3    0    0 -0.10287746361E+02  0.28361685331E+01  0.14879286942E+02  0.18310509477E+02  0.51100000000E-03 0. -1.
        -11    1    3    3    0    0  0.16841360344E+02  0.22770738447E+02  0.87179282822E+01  0.29633430808E+02  0.51100000000E-03 0.  1.
         12    1    3    3    0    0  0.79688824375E+01 -0.15844766488E+02 -0.16927710453E+02  0.24517485465E+02  0.00000000000E+00 0. -1.
</event>
<event>
 7    1  0.3434711E-013  0.7246152E+02  0.7816164E-02  0.1226708E+00
        -11   -1    0    0    0    0  0.00000000000E+00  0.00000000000E+00  0.45593999997E+02  0.45594000000E+02  0.51100000000E-03 0.  1.
         11   -1    0    0    0    0 -0.00000000000E+00 -0.00000000000E+00 -0.45593999997E+02  0.45594000000E+02  0.51100000000E-03 0. -1.
    9900012    2    1    2    0    0 -0.15842162215E+00 -0.15333541472E+02  0.10748879819E+02  0.72461521184E+02  0.69999936025E+02 0.  0.
         12    1    1    2    0    0  0.15842162215E+00  0.15333541472E+02 -0.10748879819E+02  0.18726478816E+02  0.00000000000E+00 0. -1.
         11    1    3    3    0    0  0.18101331065E+01 -0.26033081320E+01  0.63460255150E+00  0.32336536229E+01  0.51100000000E-03 0. -1.
        -11    1    3    3    0    0  0.37305431752E+01 -0.38639815476E+02 -0.42641072524E+01  0.39052975601E+02  0.51100000000E-03 0.  1.
         12    1    3    3    0    0 -0.56990979038E+01  0.25909582136E+02  0.14378384520E+02  0.30174891960E+02  0.00000000000E+00 0. -1.
</event>
<event>
 7    1  0.3434711E-013  0.7246129E+02  0.7816164E-02  0.1226709E+00
        -11   -1    0    0    0    0  0.00000000000E+00  0.00000000000E+00  0.45593999997E+02  0.45594000000E+02  0.51100000000E-03 0. -1.
         11   -1    0    0    0    0 -0.00000000000E+00 -0.00000000000E+00 -0.45593999997E+02  0.45594000000E+02  0.51100000000E-03 0.  1.
    9900012    2    1    2    0    0 -0.16046395007E+01  0.20331837303E+01 -0.18546725089E+02  0.72461288715E+02  0.69999633190E+02 0.  0.
         12    1    1    2    0    0  0.16046395007E+01 -0.20331837303E+01  0.18546725089E+02  0.18726711285E+02  0.00000000000E+00 0. -1.
         11    1    3    3    0    0  0.19057131104E+01 -0.46214664874E+01  0.10371130545E+01  0.51054185629E+01  0.51100000000E-03 0. -1.
        -11    1    3    3    0    0  0.92277319218E+01  0.10798322394E+01 -0.40879947544E+02  0.41922394797E+02  0.51100000000E-03 0.  1.
         12    1    3    3    0    0 -0.12738084533E+02  0.55748179783E+01  0.21296109400E+02  0.25433475355E+02  0.00000000000E+00 0. -1.
</event>
<event>
 7    1  0.3434711E-013  0.7246158E+02  0.7816164E-02  0.1226708E+00
        -11   -1    0    0    0    0  0.00000000000E+00  0.00000000000E+00  0.45593999997E+02  0.45594000000E+02  0.51100000000E-03 0. -1.
         11   -1    0    0    0    0 -0.00000000000E+00 -0.00000000000E+00 -0.45593999997E+02  0.45594000000E+02  0.51100000000E-03 0.  1.
    9900012    2    1    2    0    0  0.16434294069E+02  0.76757621144E+01  0.46556957892E+01  0.72461578855E+02  0.70000011152E+02 0.  0.
         12    1    1    2    0    0 -0.16434294069E+02 -0.76757621144E+01 -0.46556957892E+01  0.18726421145E+02  0.00000000000E+00 0. -1.
         11    1    3    3    0    0 -0.53548004072E+01 -0.82636417025E+00  0.85690831278E+01  0.10138340646E+02  0.51100000000E-03 0. -1.
        -11    1    3    3    0    0 -0.39889438120E+00 -0.48687216294E+01  0.23853413089E+02  0.24348488316E+02  0.51100000000E-03 0.  1.
        -12    1    3    3    0    0  0.22187988858E+02  0.13370847914E+02 -0.27766800427E+02  0.37974749893E+02  0.00000000000E+00 0.  1.
</event>
<event>
 7    1  0.3434711E-013  0.7246158E+02  0.7816164E-02  0.1226708E+00
        -11   -1    0    0    0    0  0.00000000000E+00  0.00000000000E+00  0.45593999997E+02  0.45594000000E+02  0.51100000000E-03 0.  1.
         11   -1    0    0    0    0 -0.00000000000E+00 -0.00000000000E+00 -0.45593999997E+02  0.45594000000E+02  0.51100000000E-03 0. -1.
    9900012    2    1    2    0    0 -0.19215741772E+01 -0.14734278923E+02  0.11396817177E+02  0.72461578439E+02  0.70000010610E+02 0.  0.
         12    1    1    2    0    0  0.19215741772E+01  0.14734278923E+02 -0.11396817177E+02  0.18726421561E+02  0.00000000000E+00 0. -1.
         11    1    3    3    0    0  0.23634281266E+02  0.13777984443E+01 -0.43821934914E+01  0.24076569514E+02  0.51100000000E-03 0. -1.
        -11    1    3    3    0    0  0.40719669389E+01  0.69831663807E+01  0.16528743879E+01  0.82509103410E+01  0.51100000000E-03 0.  1.
        -12    1    3    3    0    0 -0.29627822382E+02 -0.23095243748E+02  0.14126136281E+02  0.40134098584E+02  0.00000000000E+00 0.  1.
</event>
<event>
 7    1  0.3434711E-013  0.7246148E+02  0.7816164E-02  0.1226708E+00
        -11   -1    0    0    0    0  0.00000000000E+00  0.00000000000E+00  0.45593999997E+02  0.45594000000E+02  0.51100000000E-03 0. -1.
         11   -1    0    0    0    0 -0.00000000000E+00 -0.00000000000E+00 -0.45593999997E+02  0.45594000000E+02  0.51100000000E-03 0.  1.
    9900012    2    1    2    0    0  0.13922786549E+02  0.12369004006E+02  0.19612289228E+01  0.72461476984E+02  0.69999878446E+02 0.  0.
         12    1    1    2    0    0 -0.13922786549E+02 -0.12369004006E+02 -0.19612289228E+01  0.18726523016E+02  0.00000000000E+00 0. -1.
         11    1    3    3    0    0 -0.75294440661E+01  0.16731834694E+02 -0.22548809272E+01  0.18485975994E+02  0.51100000000E-03 0. -1.
        -11    1    3    3    0    0 -0.24537201163E+01  0.19722982801E+02  0.15773072857E+01  0.19937519693E+02  0.51100000000E-03 0.  1.
        -12    1    3    3    0    0  0.23905950731E+02 -0.24085813489E+02  0.26388025643E+01  0.34037981297E+02  0.00000000000E+00 0.  1.
</event>
<event>
 7    1  0.3434711E-013  0.7246184E+02  0.7816164E-02  0.1226707E+00
        -11   -1    0    0    0    0  0.00000000000E+00  0.00000000000E+00  0.45593999997E+02  0.45594000000E+02  0.51100000000E-03 0.  1.
         11   -1    0    0    0    0 -0.00000000000E+00 -0.00000000000E+00 -0.45593999997E+02  0.45594000000E+02  0.51100000000E-03 0. -1.
    9900012    2    1    2    0    0 -0.12666853705E+02  0.13750143236E+02 -0.10739473443E+01  0.72461842234E+02  0.70000354251E+02 0.  0.
         12    1    1    2    0    0  0.12666853705E+02 -0.13750143236E+02  0.10739473443E+01  0.18726157766E+02  0.00000000000E+00 0. -1.
         11    1    3    3    0    0  0.35821031658E+01 -0.41793327630E+01 -0.64537801324E+01  0.84823088657E+01  0.51100000000E-03 0. -1.
        -11    1    3    3    0    0  0.14474998747E+02 -0.59515078376E+01  0.17253891265E+02  0.23294694638E+02  0.51100000000E-03 0.  1.
         12    1    3    3    0    0 -0.30723955618E+02  0.23880983836E+02 -0.11874058477E+02  0.40684838730E+02  0.00000000000E+00 0. -1.
</event>
<event>
 7    1  0.3434711E-013  0.7246162E+02  0.7816164E-02  0.1226708E+00
        -11   -1    0    0    0    0  0.00000000000E+00  0.00000000000E+00  0.45593999997E+02  0.45594000000E+02  0.51100000000E-03 0.  1.
         11   -1    0    0    0    0 -0.00000000000E+00 -0.00000000000E+00 -0.45593999997E+02  0.45594000000E+02  0.51100000000E-03 0. -1.
    9900012    2    1    2    0    0  0.18270923875E+01  0.57191020888E+01  0.17737839391E+02  0.72461619101E+02  0.70000063580E+02 0.  0.
         12    1    1    2    0    0 -0.18270923875E+01 -0.57191020888E+01 -0.17737839391E+02  0.18726380899E+02  0.00000000000E+00 0. -1.
         11    1    3    3    0    0  0.22570169821E+02 -0.19966339695E+02  0.49196055759E+01  0.30533093617E+02  0.51100000000E-03 0. -1.
        -11    1    3    3    0    0 -0.15048664993E+02  0.67821729189E+01 -0.28167114512E+01  0.16744970924E+02  0.51100000000E-03 0.  1.
        -12    1    3    3    0    0 -0.56944124402E+01  0.18903268865E+02  0.15634945266E+02  0.25183554560E+02  0.00000000000E+00 0.  1.
</event>
<event>
 7    1  0.3434711E-013  0.7246153E+02  0.7816164E-02  0.1226708E+00
        -11   -1    0    0    0    0  0.00000000000E+00  0.00000000000E+00  0.45593999997E+02  0.45594000000E+02  0.51100000000E-03 0. -1.
         11   -1    0    0    0    0 -0.00000000000E+00 -0.00000000000E+00 -0.45593999997E+02  0.45594000000E+02  0.51100000000E-03 0.  1.
    9900012    2    1    2    0    0 -0.15688067362E+02 -0.26101720935E+01 -0.98869639200E+01  0.72461534464E+02  0.69999953324E+02 0.  0.
         12    1    1    2    0    0  0.15688067362E+02  0.26101720935E+01  0.98869639200E+01  0.18726465536E+02  0.00000000000E+00 0. -1.
         11    1    3    3    0    0 -0.15298047036E+01 -0.10186259358E+02  0.35731150935E+01  0.10902629677E+02  0.51100000000E-03 0. -1.
        -11    1    3    3    0    0  0.69321090771E+01 -0.18510945463E+02  0.84444871878E+01  0.21494617985E+02  0.51100000000E-03 0.  1.
         12    1    3    3    0    0 -0.21090371736E+02  0.26087032728E+02 -0.21904566201E+02  0.40064286802E+02  0.00000000000E+00 0. -1.
</event>
<event>
 7    1  0.3434711E-013  0.7246159E+02  0.7816164E-02  0.1226708E+00
        -11   -1    0    0    0    0  0.00000000000E+00  0.00000000000E+00  0.45593999997E+02  0.45594000000E+02  0.51100000000E-03 0.  1.
         11   -1    0    0    0    0 -0.00000000000E+00 -0.00000000000E+00 -0.45593999997E+02  0.45594000000E+02  0.51100000000E-03 0. -1.
    9900012    2    1    2    0    0 -0.74170299788E+01  0.16222184448E+02 -0.57014807732E+01  0.72461588572E+02  0.70000023810E+02 0.  0.
         12    1    1    2    0    0  0.74170299788E+01 -0.16222184448E+02  0.57014807732E+01  0.18726411428E+02  0.00000000000E+00 0. -1.
         11    1    3    3    0    0 -0.66762520241E+01 -0.44029717340E+01 -0.12677287836E+02  0.14989066960E+02  0.51100000000E-03 0. -1.
        -11    1    3    3    0    0  0.19451385987E+02  0.16280732206E+02  0.20644529307E+02  0.32704972841E+02  0.51100000000E-03 0.  1.
         12    1    3    3    0    0 -0.20192163942E+02  0.43444239756E+01 -0.13668722244E+02  0.24767548771E+02  0.00000000000E+00 0. -1.
</event>
<event>
 7    1  0.3434711E-013  0.7246161E+02  0.7816164E-02  0.1226708E+00
        -11   -1    0    0    0    0  0.00000000000E+00  0.00000000000E+00  0.45593999997E+02  0.45594000000E+02  0.51100000000E-03 0. -1.
         11   -1    0    0    0    0 -0.00000000000E+00 -0.00000000000E+00 -0.45593999997E+02  0.45594000000E+02  0.51100000000E-03 0.  1.
    9900012    2    1    2    0    0 -0.92292511373E+01  0.16116151242E+02 -0.24017442394E+01  0.72461607320E+02  0.70000048233E+02 0.  0.
         12    1    1    2    0    0  0.92292511373E+01 -0.16116151242E+02  0.24017442394E+01  0.18726392680E+02  0.00000000000E+00 0. -1.
         11    1    3    3    0    0  0.15724789013E+02  0.14348471713E+02 -0.34543299049E+01  0.21565714117E+02  0.51100000000E-03 0. -1.
        -11    1    3    3    0    0  0.10475607697E+02 -0.89638114846E+01  0.15435716060E+01  0.13873387709E+02  0.51100000000E-03 0.  1.
        -12    1    3    3    0    0 -0.35429647847E+02  0.10731491013E+02 -0.49098594052E+00  0.37022505495E+02  0.00000000000E+00 0.  1.
</event>
<event>
 7    1  0.3434711E-013  0.7246154E+02  0.7816164E-02  0.1226708E+00
        -11   -1    0    0    0    0  0.00000000000E+00  0.00000000000E+00  0.45593999997E+02  0.45594000000E+02  0.51100000000E-03 0.  1.
         11   -1    0    0    0    0 -0.00000000000E+00 -0.00000000000E+00 -0.45593999997E+02  0.45594000000E+02  0.51100000000E-03 0. -1.
    9900012    2    1    2    0    0  0.10131243632E+02 -0.96662461666E+01  0.12433895753E+02  0.72461543419E+02  0.69999964990E+02 0.  0.
         12    1    1    2    0    0 -0.10131243632E+02  0.96662461666E+01 -0.12433895753E+02  0.18726456581E+02  0.00000000000E+00 0. -1.
         11    1    3    3    0    0 -0.16526495108E+02 -0.26701400631E+01  0.69778243782E+01  0.18136833291E+02  0.51100000000E-03 0. -1.
        -11    1    3    3    0    0 -0.11946583299E+02  0.58789933671E+01  0.44064193271E+00  0.13322071202E+02  0.51100000000E-03 0.  1.
         12    1    3    3    0    0  0.38604322039E+02 -0.12875099471E+02  0.50154294419E+01  0.41002638926E+02  0.00000000000E+00 0. -1.
</event>
<event>
 7    1  0.3434711E-013  0.7246157E+02  0.7816164E-02  0.1226708E+00
        -11   -1    0    0    0    0  0.00000000000E+00  0.00000000000E+00  0.45593999997E+02  0.45594000000E+02  0.51100000000E-03 0.  1.
         11   -1    0    0    0    0 -0.00000000000E+00 -0.00000000000E+00 -0.45593999997E+02  0.45594000000E+02  0.51100000000E-03 0. -1.
    9900012    2    1    2    0    0 -0.23497460901E+01 -0.13779264538E+02  0.12461536588E+02  0.72461565955E+02  0.69999994348E+02 0.  0.
         12    1    1    2    0    0  0.23497460901E+01  0.13779264538E+02 -0.12461536588E+02  0.18726434045E+02  0.00000000000E+00 0. -1.
         11    1    3    3    0    0 -0.13319436634E+02 -0.18892767128E+02 -0.35270023216E+01  0.23383408384E+02  0.51100000000E-03 0. -1.
        -11    1    3    3    0    0 -0.42187942237E+01 -0.15351448696E+02 -0.43137050568E+01  0.16494643171E+02  0.51100000000E-03 0.  1.
         12    1    3    3    0    0  0.15188484768E+02  0.20464951285E+02  0.20302243966E+02  0.32583514401E+02  0.00000000000E+00 0. -1.
</event>
<event>
 7    1  0.3434711E-013  0.7246159E+02  0.7816164E-02  0.1226708E+00
        -11   -1    0    0    0    0  0.00000000000E+00  0.00000000000E+00  0.45593999997E+02  0.45594000000E+02  0.51100000000E-03 0.  1.
         11   -1    0    0    0    0 -0.00000000000E+00 -0.00000000000E+00 -0.45593999997E+02  0.45594000000E+02  0.51100000000E-03 0. -1.
    9900012    2    1    2    0    0  0.14267715407E+02  0.82734622869E+01 -0.88690685353E+01  0.72461594637E+02  0.70000031710E+02 0.  0.
         12    1    1    2    0    0 -0.14267715407E+02 -0.82734622869E+01  0.88690685353E+01  0.18726405363E+02  0.00000000000E+00 0. -1.
         11    1    3    3    0    0  0.18069500314E+02  0.72504757206E+01  0.49923161523E+01  0.20099737824E+02  0.51100000000E-03 0. -1.
        -11    1    3    3    0    0  0.11472497254E+02 -0.12034752400E+02  0.11342805689E+02  0.20127411650E+02  0.51100000000E-03 0.  1.
         12    1    3    3    0    0 -0.15274282161E+02  0.13057738966E+02 -0.25204190377E+02  0.32234445163E+02  0.00000000000E+00 0. -1.
</event>
<event>
 7    1  0.3434711E-013  0.7246157E+02  0.7816164E-02  0.1226708E+00
        -11   -1    0    0    0    0  0.00000000000E+00  0.00000000000E+00  0.45593999997E+02  0.45594000000E+02  0.51100000000E-03 0.  1.
         11   -1    0    0    0    0 -0.00000000000E+00 -0.00000000000E+00 -0.45593999997E+02  0.45594000000E+02  0.51100000000E-03 0. -1.
    9900012    2    1    2    0    0  0.17448254728E+02 -0.11454748393E+01  0.67026372838E+01  0.72461573426E+02  0.70000004080E+02 0.  0.
         12    1    1    2    0    0 -0.17448254728E+02  0.11454748393E+01 -0.67026372838E+01  0.18726426574E+02  0.00000000000E+00 0. -1.
         11    1    3    3    0    0  0.12642451335E+02 -0.25633076221E+02 -0.19290838787E+02  0.34482207494E+02  0.51100000000E-03 0. -1.
        -11    1    3    3    0    0  0.49441303806E+01  0.22565242584E+01  0.44864318644E+01  0.70472972184E+01  0.51100000000E-03 0.  1.
        -12    1    3    3    0    0 -0.13832698756E+00  0.22231077123E+02  0.21507044206E+02  0.30932068714E+02  0.00000000000E+00 0.  1.
</event>
<event>
 7    1  0.3434711E-013  0.7246158E+02  0.7816164E-02  0.1226708E+00
        -11   -1    0    0    0    0  0.00000000000E+00  0.00000000000E+00  0.45593999997E+02  0.45594000000E+02  0.51100000000E-03 0.  1.
         11   -1    0    0    0    0 -0.00000000000E+00 -0.00000000000E+00 -0.45593999997E+02  0.45594000000E+02  0.51100000000E-03 0. -1.
    9900012    2    1    2    0    0 -0.28055666889E+01  0.16196404493E+02  0.89712855575E+01  0.72461583164E+02  0.70000016766E+02 0.  0.
         12    1    1    2    0    0  0.28055666889E+01 -0.16196404493E+02 -0.89712855575E+01  0.18726416836E+02  0.00000000000E+00 0. -1.
         11    1    3    3    0    0 -0.84879026224E+01 -0.16161056873E+02  0.10507913526E+02  0.21062775152E+02  0.51100000000E-03 0. -1.
        -11    1    3    3    0    0  0.89936293573E+01 -0.28691264094E+01  0.10411441063E+02  0.14054015819E+02  0.51100000000E-03 0.  1.
         12    1    3    3    0    0 -0.33112934237E+01  0.35226587775E+02 -0.11948069031E+02  0.37344792194E+02  0.00000000000E+00 0. -1.
</event>
<event>
 7    1  0.3434711E-013  0.7246156E+02  0.7816164E-02  0.1226708E+00
        -11   -1    0    0    0    0  0.00000000000E+00  0.00000000000E+00  0.45593999997E+02  0.45594000000E+02  0.51100000000E-03 0. -1.
         11   -1    0    0    0    0 -0.00000000000E+00 -0.00000000000E+00 -0.45593999997E+02  0.45594000000E+02  0.51100000000E-03 0.  1.
    9900012    2    1    2    0    0  0.61325471326E+01  0.15228609096E+02  0.90089312931E+01  0.72461561140E+02  0.69999988075E+02 0.  0.
         12    1    1    2    0    0 -0.61325471326E+01 -0.15228609096E+02 -0.90089312931E+01  0.18726438860E+02  0.00000000000E+00 0. -1.
         11    1    3    3    0    0  0.60777579707E+01  0.45448226676E+00  0.33505141458E+00  0.61039295370E+01  0.51100000000E-03 0. -1.
        -11    1    3    3    0    0  0.16414112427E+02  0.33812355763E+02 -0.47622843780E+01  0.37886380690E+02  0.51100000000E-03 0.  1.
         12    1    3    3    0    0 -0.16359323265E+02 -0.19038228934E+02  0.13436164256E+02  0.28471250913E+02  0.00000000000E+00 0. -1.
</event>
<event>
 7    1  0.3434711E-013  0.7246168E+02  0.7816164E-02  0.1226708E+00
        -11   -1    0    0    0    0  0.00000000000E+00  0.00000000000E+00  0.45593999997E+02  0.45594000000E+02  0.51100000000E-03 0. -1.
         11   -1    0    0    0    0 -0.00000000000E+00 -0.00000000000E+00 -0.45593999997E+02  0.45594000000E+02  0.51100000000E-03 0.  1.
    9900012    2    1    2    0    0  0.41810049170E+01  0.92237042250E+01 -0.15751745946E+02  0.72461681032E+02  0.70000144256E+02 0.  0.
         12    1    1    2    0    0 -0.41810049170E+01 -0.92237042250E+01  0.15751745946E+02  0.18726318968E+02  0.00000000000E+00 0. -1.
         11    1    3    3    0    0  0.24012404473E+01 -0.22008507259E+02 -0.23634756540E+02  0.32384287308E+02  0.51100000000E-03 0. -1.
        -11    1    3    3    0    0 -0.23351781650E+00 -0.39516052662E+01 -0.29776113677E-01  0.39586110732E+01  0.51100000000E-03 0.  1.
        -12    1    3    3    0    0  0.20132822862E+01  0.35183816750E+02  0.79127867083E+01  0.36118782651E+02  0.00000000000E+00 0.  1.
</event>
<event>
 7    1  0.3434711E-013  0.7246129E+02  0.7816164E-02  0.1226709E+00
        -11   -1    0    0    0    0  0.00000000000E+00  0.00000000000E+00  0.45593999997E+02  0.45594000000E+02  0.51100000000E-03 0.  1.
         11   -1    0    0    0    0 -0.00000000000E+00 -0.00000000000E+00 -0.45593999997E+02  0.45594000000E+02  0.51100000000E-03 0. -1.
    9900012    2    1    2    0    0 -0.42434229366E+01  0.18239592757E+02 -0.15757581186E-01  0.72461290987E+02  0.69999636149E+02 0.  0.
         12    1    1    2    0    0  0.42434229366E+01 -0.18239592757E+02  0.15757581186E-01  0.18726709013E+02  0.00000000000E+00 0. -1.
         11    1    3    3    0    0 -0.74065288890E+01 -0.85806945024E+01  0.14577302613E+02  0.18465717968E+02  0.51100000000E-03 0. -1.
        -11    1    3    3    0    0 -0.12488884659E+02  0.74151553328E+01  0.11035634788E+02  0.18241217176E+02  0.51100000000E-03 0.  1.
         12    1    3    3    0    0  0.15651990612E+02  0.19405131927E+02 -0.25628694982E+02  0.35754355842E+02  0.00000000000E+00 0. -1.
</event>
<event>
 7    1  0.3434711E-013  0.7246157E+02  0.7816164E-02  0.1226708E+00
        -11   -1    0    0    0    0  0.00000000000E+00  0.00000000000E+00  0.45593999997E+02  0.45594000000E+02  0.51100000000E-03 0.  1.
         11   -1    0    0    0    0 -0.00000000000E+00 -0.00000000000E+00 -0.45593999997E+02  0.45594000000E+02  0.51100000000E-03 0. -1.
    9900012    2    1    2    0    0  0.13630973078E+02 -0.10317271428E+02 -0.76439329415E+01  0.72461568744E+02  0.69999997980E+02 0.  0.
         12    1    1    2    0    0 -0.13630973078E+02  0.10317271428E+02  0.76439329415E+01  0.18726431256E+02  0.00000000000E+00 0. -1.
         11    1    3    3    0    0  0.58195462482E+01 -0.14307867268E+02 -0.13542710707E+02  0.20542326982E+02  0.51100000000E-03 0. -1.
        -11    1    3    3    0    0 -0.25638599275E+01 -0.22752664014E+02  0.24528549671E+01  0.23027670208E+02  0.51100000000E-03 0.  1.
        -12    1    3    3    0    0  0.10375286757E+02  0.26743259853E+02  0.34459227986E+01  0.28891571553E+02  0.00000000000E+00 0.  1.
</event>
<event>
 7    1  0.3434711E-013  0.7246156E+02  0.7816164E-02  0.1226708E+00
        -11   -1    0    0    0    0  0.00000000000E+00  0.00000000000E+00  0.45593999997E+02  0.45594000000E+02  0.51100000000E-03 0.  1.
         11   -1    0    0    0    0 -0.00000000000E+00 -0.00000000000E+00 -0.45593999997E+02  0.45594000000E+02  0.51100000000E-03 0. -1.
    9900012    2    1    2    0    0 -0.96964028177E+01 -0.15317980134E+02 -0.46924397834E+01  0.72461555220E+02  0.69999980362E+02 0.  0.
         12    1    1    2    0    0  0.96964028177E+01  0.15317980134E+02  0.46924397834E+01  0.18726444780E+02  0.00000000000E+00 0. -1.
         11    1    3    3    0    0 -0.35495412118E+01 -0.99017480799E+01 -0.57878754796E+01  0.12005971876E+02  0.51100000000E-03 0. -1.
        -11    1    3    3    0    0 -0.30007690987E+01 -0.25519368845E+02  0.20092412969E+02  0.32618213633E+02  0.51100000000E-03 0.  1.
         12    1    3    3    0    0 -0.31460925071E+01  0.20103136791E+02 -0.18996977273E+02  0.27837369711E+02  0.00000000000E+00 0. -1.
</event>
<event>
 7    1  0.3434711E-013  0.7246155E+02  0.7816164E-02  0.1226708E+00
        -11   -1    0    0    0    0  0.00000000000E+00  0.00000000000E+00  0.45593999997E+02  0.45594000000E+02  0.51100000000E-03 0. -1.
         11   -1    0    0    0    0 -0.00000000000E+00 -0.00000000000E+00 -0.45593999997E+02  0.45594000000E+02  0.51100000000E-03 0.  1.
    9900012    2    1    2    0    0 -0.83251217822E+01  0.98496357058E+01 -0.13577809909E+02  0.72461550840E+02  0.69999974657E+02 0.  0.
         12    1    1    2    0    0  0.83251217822E+01 -0.98496357058E+01  0.13577809909E+02  0.18726449160E+02  0.00000000000E+00 0. -1.
         11    1    3    3    0    0  0.11091489383E+02 -0.16833015004E+02  0.83517875763E+01  0.21820263217E+02  0.51100000000E-03 0. -1.
        -11    1    3    3    0    0  0.74635661632E+01  0.30919972243E+01 -0.10181324499E+02  0.12997101043E+02  0.51100000000E-03 0.  1.
        -12    1    3    3    0    0 -0.26880177328E+02  0.23590653486E+02 -0.11748272986E+02  0.37644186580E+02  0.00000000000E+00 0.  1.
</event>
<event>
 7    1  0.3434711E-013  0.7246152E+02  0.7816164E-02  0.1226708E+00
        -11   -1    0    0    0    0  0.00000000000E+00  0.00000000000E+00  0.45593999997E+02  0.45594000000E+02  0.51100000000E-03 0.  1.
         11   -1    0    0    0    0 -0.00000000000E+00 -0.00000000000E+00 -0.45593999997E+02  0.45594000000E+02  0.51100000000E-03 0. -1.
    9900012    2    1    2    0    0  0.93353367163E+01  0.14985668972E+02  0.62419717042E+01  0.72461521503E+02  0.69999936440E+02 0.  0.
         12    1    1    2    0    0 -0.93353367163E+01 -0.14985668972E+02 -0.62419717042E+01  0.18726478497E+02  0.00000000000E+00 0. -1.
         11    1    3    3    0    0 -0.28896425337E+01  0.12203633893E+02 -0.45478204564E+01  0.13340216840E+02  0.51100000000E-03 0. -1.
        -11    1    3    3    0    0 -0.97448515963E+01 -0.90605767194E+01 -0.17117846876E+02  0.21681256076E+02  0.51100000000E-03 0.  1.
         12    1    3    3    0    0  0.21969830846E+02  0.11842611799E+02  0.27907639036E+02  0.37440048587E+02  0.00000000000E+00 0. -1.
</event>
<event>
 7    1  0.3434711E-013  0.7246157E+02  0.7816164E-02  0.1226708E+00
        -11   -1    0    0    0    0  0.00000000000E+00  0.00000000000E+00  0.45593999997E+02  0.45594000000E+02  0.51100000000E-03 0. -1.
         11   -1    0    0    0    0 -0.00000000000E+00 -0.00000000000E+00 -0.45593999997E+02  0.45594000000E+02  0.51100000000E-03 0.  1.
    9900012    2    1    2    0    0 -0.17164649147E+02 -0.27718814175E+00 -0.74817981170E+01  0.72461566366E+02  0.69999994882E+02 0.  0.
         12    1    1    2    0    0  0.17164649147E+02  0.27718814175E+00  0.74817981170E+01  0.18726433634E+02  0.00000000000E+00 0. -1.
         11    1    3    3    0    0 -0.19808980967E+01 -0.24873754678E+02  0.76032849845E-02  0.24952508633E+02  0.51100000000E-03 0. -1.
        -11    1    3    3    0    0 -0.15002378782E+02 -0.66013289163E-01 -0.15505931149E+02  0.21575672132E+02  0.51100000000E-03 0.  1.
         12    1    3    3    0    0 -0.18137226779E+00  0.24662579825E+02  0.80165297473E+01  0.25933385601E+02  0.00000000000E+00 0. -1.
</event>
<event>
 7    1  0.3434711E-013  0.7246136E+02  0.7816164E-02  0.1226709E+00
        -11   -1    0    0    0    0  0.00000000000E+00  0.00000000000E+00  0.45593999997E+02  0.45594000000E+02  0.51100000000E-03 0.  1.
         11   -1    0    0    0    0 -0.00000000000E+00 -0.00000000000E+00 -0.45593999997E+02  0.45594000000E+02  0.51100000000E-03 0. -1.
    9900012    2    1    2    0    0  0.10000065429E+02 -0.18046296829E+01  0.15729872288E+02  0.72461364449E+02  0.69999731847E+02 0.  0.
         12    1    1    2    0    0 -0.10000065429E+02  0.18046296829E+01 -0.15729872288E+02  0.18726635551E+02  0.00000000000E+00 0. -1.
         11    1    3    3    0    0  0.51095379840E+01 -0.40356295645E+01 -0.14557480607E+02  0.15947223152E+02  0.51100000000E-03 0. -1.
        -11    1    3    3    0    0  0.80294094958E+01 -0.18199568204E+02  0.29810951595E+02  0.35838366800E+02  0.51100000000E-03 0.  1.
         12    1    3    3    0    0 -0.31388820510E+01  0.20430568085E+02  0.47640129931E+00  0.20675774496E+02  0.00000000000E+00 0. -1.
</event>
<event>
 7    1  0.3434711E-013  0.7246155E+02  0.7816164E-02  0.1226708E+00
        -11   -1    0    0    0    0  0.00000000000E+00  0.00000000000E+00  0.45593999997E+02  0.45594000000E+02  0.51100000000E-03 0. -1.
         11   -1    0    0    0    0 -0.00000000000E+00 -0.00000000000E+00 -0.45593999997E+02  0.45594000000E+02  0.51100000000E-03 0.  1.
    9900012    2    1    2    0    0  0.12824255441E+02  0.52621700911E+01 -0.12590783400E+02  0.72461553773E+02  0.69999978477E+02 0.  0.
         12    1    1    2    0    0 -0.12824255441E+02 -0.52621700911E+01  0.12590783400E+02  0.18726446227E+02  0.00000000000E+00 0. -1.
         11    1    3    3    0    0  0.11008733388E+02  0.29407333404E+00  0.74124970000E+01  0.13274931336E+02  0.51100000000E-03 0. -1.
        -11    1    3    3    0    0  0.20297972869E+02  0.12565426723E+02  0.76504588913E+01  0.25068449749E+02  0.51100000000E-03 0.  1.
        -12    1    3    3    0    0 -0.18482450816E+02 -0.75973299657E+01 -0.27653739291E+02  0.34118172688E+02  0.00000000000E+00 0.  1.
</event>
<event>
 7    1  0.3434711E-013  0.7246157E+02  0.7816164E-02  0.1226708E+00
        -11   -1    0    0    0    0  0.00000000000E+00  0.00000000000E+00  0.45593999997E+02  0.45594000000E+02  0.51100000000E-03 0.  1.
         11   -1    0    0    0    0 -0.00000000000E+00 -0.00000000000E+00 -0.45593999997E+02  0.45594000000E+02  0.51100000000E-03 0. -1.
    9900012    2    1    2    0    0 -0.15319543073E+02  0.70067421303E+01  0.81790205035E+01  0.72461569170E+02  0.69999998535E+02 0.  0.
         12    1    1    2    0    0  0.15319543073E+02 -0.70067421303E+01 -0.81790205035E+01  0.18726430830E+02  0.00000000000E+00 0. -1.
         11    1    3    3    0    0 -0.19898683040E+02  0.43420019431E+01  0.19464395536E+02  0.28172207252E+02  0.51100000000E-03 0. -1.
        -11    1    3    3    0    0 -0.91400564668E+01 -0.17693891593E+01  0.13033947090E+02  0.16017338956E+02  0.51100000000E-03 0.  1.
         12    1    3    3    0    0  0.13719196433E+02  0.44341293466E+01 -0.24319322123E+02  0.28272022962E+02  0.00000000000E+00 0. -1.
</event>
<event>
 7    1  0.3434711E-013  0.7246160E+02  0.7816164E-02  0.1226708E+00
        -11   -1    0    0    0    0  0.00000000000E+00  0.00000000000E+00  0.45593999997E+02  0.45594000000E+02  0.51100000000E-03 0.  1.
         11   -1    0    0    0    0 -0.00000000000E+00 -0.00000000000E+00 -0.45593999997E+02  0.45594000000E+02  0.51100000000E-03 0. -1.
    9900012    2    1    2    0    0 -0.86416407965E+01  0.14807231226E+02  0.75329958697E+01  0.72461599411E+02  0.70000037930E+02 0.  0.
         12    1    1    2    0    0  0.86416407965E+01 -0.14807231226E+02 -0.75329958697E+01  0.18726400589E+02  0.00000000000E+00 0. -1.
         11    1    3    3    0    0  0.15947243794E+02  0.12051997470E+02  0.84595190843E+01  0.21705499097E+02  0.51100000000E-03 0. -1.
        -11    1    3    3    0    0 -0.29959332535E+02  0.16813063170E+01 -0.16502710899E+02  0.34245114456E+02  0.51100000000E-03 0.  1.
         12    1    3    3    0    0  0.53704479439E+01  0.10739274392E+01  0.15576187684E+02  0.16510985859E+02  0.00000000000E+00 0. -1.
</event>
<event>
 7    1  0.3434711E-013  0.7246205E+02  0.7816164E-02  0.1226707E+00
        -11   -1    0    0    0    0  0.00000000000E+00  0.00000000000E+00  0.45593999997E+02  0.45594000000E+02  0.51100000000E-03 0.  1.
         11   -1    0    0    0    0 -0.00000000000E+00 -0.00000000000E+00 -0.45593999997E+02  0.45594000000E+02  0.51100000000E-03 0. -1.
    9900012    2    1    2    0    0  0.11778385420E+02 -0.48230943376E+00  0.14549857011E+02  0.72462046766E+02  0.70000620690E+02 0.  0.
         12    1    1    2    0    0 -0.11778385420E+02  0.48230943376E+00 -0.14549857011E+02  0.18725953234E+02  0.00000000000E+00 0. -1.
         11    1    3    3    0    0  0.20355337938E+02 -0.10462402292E+01 -0.10553764883E+02  0.22952480359E+02  0.51100000000E-03 0. -1.
        -11    1    3    3    0    0  0.14114297304E+02  0.68281333776E+00 -0.18774611352E+01  0.14254980990E+02  0.51100000000E-03 0.  1.
        -12    1    3    3    0    0 -0.22691249822E+02 -0.11888254236E+00  0.26981083029E+02  0.35254585417E+02  0.00000000000E+00 0.  1.
</event>
<event>
 7    1  0.3434711E-013  0.7246154E+02  0.7816164E-02  0.1226708E+00
        -11   -1    0    0    0    0  0.00000000000E+00  0.00000000000E+00  0.45593999997E+02  0.45594000000E+02  0.51100000000E-03 0.  1.
         11   -1    0    0    0    0 -0.00000000000E+00 -0.00000000000E+00 -0.45593999997E+02  0.45594000000E+02  0.51100000000E-03 0. -1.
    9900012    2    1    2    0    0 -0.79159971716E+01 -0.75784108854E+01  0.15185028840E+02  0.72461536809E+02  0.69999956379E+02 0.  0.
         12    1    1    2    0    0  0.79159971716E+01  0.75784108854E+01 -0.15185028840E+02  0.18726463191E+02  0.00000000000E+00 0. -1.
         11    1    3    3    0    0  0.23230979142E+01  0.26685796505E+00 -0.18979311143E+02  0.19122820107E+02  0.51100000000E-03 0. -1.
        -11    1    3    3    0    0 -0.18783501721E+02  0.60590321710E+01  0.57260479452E+01  0.20550411993E+02  0.51100000000E-03 0.  1.
        -12    1    3    3    0    0  0.85444066357E+01 -0.13904301021E+02  0.28438292038E+02  0.32788304709E+02  0.00000000000E+00 0.  1.
</event>
<event>
 7    1  0.3434711E-013  0.7246162E+02  0.7816164E-02  0.1226708E+00
        -11   -1    0    0    0    0  0.00000000000E+00  0.00000000000E+00  0.45593999997E+02  0.45594000000E+02  0.51100000000E-03 0.  1.
         11   -1    0    0    0    0 -0.00000000000E+00 -0.00000000000E+00 -0.45593999997E+02  0.45594000000E+02  0.51100000000E-03 0. -1.
    9900012    2    1    2    0    0 -0.45419322033E+01  0.25744011469E+01  0.17983897941E+02  0.72461620890E+02  0.70000065910E+02 0.  0.
         12    1    1    2    0    0  0.45419322033E+01 -0.25744011469E+01 -0.17983897941E+02  0.18726379110E+02  0.00000000000E+00 0. -1.
         11    1    3    3    0    0 -0.53870181996E+01  0.28907373955E+02 -0.90461530953E+01  0.30765063305E+02  0.51100000000E-03 0. -1.
        -11    1    3    3    0    0  0.83464933465E+01 -0.81742588033E+01  0.69014606208E+01  0.13568810454E+02  0.51100000000E-03 0.  1.
        -12    1    3    3    0    0 -0.75014073503E+01 -0.18158714005E+02  0.20128590416E+02  0.28127747131E+02  0.00000000000E+00 0.  1.
</event>
<event>
 7    1  0.3434711E-013  0.7246158E+02  0.7816164E-02  0.1226708E+00
        -11   -1    0    0    0    0  0.00000000000E+00  0.00000000000E+00  0.45593999997E+02  0.45594000000E+02  0.51100000000E-03 0.  1.
         11   -1    0    0    0    0 -0.00000000000E+00 -0.00000000000E+00 -0.45593999997E+02  0.45594000000E+02  0.51100000000E-03 0. -1.
    9900012    2    1    2    0    0  0.22141579142E+01  0.16965579437E+02 -0.76121930651E+01  0.72461578448E+02  0.70000010621E+02 0.  0.
         12    1    1    2    0    0 -0.22141579142E+01 -0.16965579437E+02  0.76121930651E+01  0.18726421552E+02  0.00000000000E+00 0. -1.
         11    1    3    3    0    0 -0.10827749149E+01  0.32091882407E+02 -0.57185171116E+01  0.32615376069E+02  0.51100000000E-03 0. -1.
        -11    1    3    3    0    0 -0.21208191403E+01  0.10190167968E+02 -0.81401699128E+01  0.13213620379E+02  0.51100000000E-03 0.  1.
        -12    1    3    3    0    0  0.54177519694E+01 -0.25316470938E+02  0.62464939592E+01  0.26632581999E+02  0.00000000000E+00 0.  1.
</event>
<event>
 7    1  0.3434711E-013  0.7246157E+02  0.7816164E-02  0.1226708E+00
        -11   -1    0    0    0    0  0.00000000000E+00  0.00000000000E+00  0.45593999997E+02  0.45594000000E+02  0.51100000000E-03 0.  1.
         11   -1    0    0    0    0 -0.00000000000E+00 -0.00000000000E+00 -0.45593999997E+02  0.45594000000E+02  0.51100000000E-03 0. -1.
    9900012    2    1    2    0    0  0.61374670526E+01 -0.14676315708E+02  0.98800949610E+01  0.72461574259E+02  0.70000005165E+02 0.  0.
         12    1    1    2    0    0 -0.61374670526E+01  0.14676315708E+02 -0.98800949610E+01  0.18726425741E+02  0.00000000000E+00 0. -1.
         11    1    3    3    0    0  0.53730033325E+01  0.81490582559E+01 -0.36646978151E+01  0.10426232570E+02  0.51100000000E-03 0. -1.
        -11    1    3    3    0    0 -0.11800020518E+02  0.12307334801E+02  0.17599116227E+02  0.24503874518E+02  0.51100000000E-03 0.  1.
         12    1    3    3    0    0  0.12564484238E+02 -0.35132708766E+02 -0.40543234509E+01  0.37531467171E+02  0.00000000000E+00 0. -1.
</event>
<event>
 7    1  0.3434711E-013  0.7246159E+02  0.7816164E-02  0.1226708E+00
        -11   -1    0    0    0    0  0.00000000000E+00  0.00000000000E+00  0.45593999997E+02  0.45594000000E+02  0.51100000000E-03 0.  1.
         11   -1    0    0    0    0 -0.00000000000E+00 -0.00000000000E+00 -0.45593999997E+02  0.45594000000E+02  0.51100000000E-03 0. -1.
    9900012    2    1    2    0    0  0.17289885228E+02 -0.36160449513E+01 -0.62179135273E+01  0.72461591884E+02  0.70000028124E+02 0.  0.
         12    1    1    2    0    0 -0.17289885228E+02  0.36160449513E+01  0.62179135273E+01  0.18726408116E+02  0.00000000000E+00 0. -1.
         11    1    3    3    0    0 -0.94387266564E+01  0.45311143039E+01  0.72107251790E+00  0.10494784589E+02  0.51100000000E-03 0. -1.
        -11    1    3    3    0    0  0.11879990027E+02  0.23581905714E+02 -0.50530255160E+01  0.26884447312E+02  0.51100000000E-03 0.  1.
         12    1    3    3    0    0  0.14848621857E+02 -0.31729064969E+02 -0.18859605292E+01  0.35082359983E+02  0.00000000000E+00 0. -1.
</event>
<event>
 7    1  0.3434711E-013  0.7246158E+02  0.7816164E-02  0.1226708E+00
        -11   -1    0    0    0    0  0.00000000000E+00  0.00000000000E+00  0.45593999997E+02  0.45594000000E+02  0.51100000000E-03 0.  1.
         11   -1    0    0    0    0 -0.00000000000E+00 -0.00000000000E+00 -0.45593999997E+02  0.45594000000E+02  0.51100000000E-03 0. -1.
    9900012    2    1    2    0    0 -0.66945509988E+01  0.10196584460E+02  0.14208851516E+02  0.72461579917E+02  0.70000012535E+02 0.  0.
         12    1    1    2    0    0  0.66945509988E+01 -0.10196584460E+02 -0.14208851516E+02  0.18726420083E+02  0.00000000000E+00 0. -1.
         11    1    3    3    0    0  0.20548158062E+02 -0.69415133977E+01  0.37250801912E+01  0.22006536090E+02  0.51100000000E-03 0. -1.
        -11    1    3    3    0    0 -0.93403609783E+01 -0.47535188776E+01 -0.10808974570E+02  0.15055637364E+02  0.51100000000E-03 0.  1.
        -12    1    3    3    0    0 -0.17902348083E+02  0.21891616735E+02  0.21292745895E+02  0.35399406462E+02  0.00000000000E+00 0.  1.
</event>
<event>
 7    1  0.3434711E-013  0.7246156E+02  0.7816164E-02  0.1226708E+00
        -11   -1    0    0    0    0  0.00000000000E+00  0.00000000000E+00  0.45593999997E+02  0.45594000000E+02  0.51100000000E-03 0.  1.
         11   -1    0    0    0    0 -0.00000000000E+00 -0.00000000000E+00 -0.45593999997E+02  0.45594000000E+02  0.51100000000E-03 0. -1.
    9900012    2    1    2    0    0 -0.94043074491E+01 -0.15869384369E+02  0.32250711130E+01  0.72461563005E+02  0.69999990504E+02 0.  0.
         12    1    1    2    0    0  0.94043074491E+01  0.15869384369E+02 -0.32250711130E+01  0.18726436995E+02  0.00000000000E+00 0. -1.
         11    1    3    3    0    0  0.30235233117E+01 -0.17422862724E+02 -0.34522806114E+01  0.18017105217E+02  0.51100000000E-03 0. -1.
        -11    1    3    3    0    0 -0.16710262276E+02 -0.20950036268E+02 -0.70876440314E+01  0.27719516286E+02  0.51100000000E-03 0.  1.
        -12    1    3    3    0    0  0.42824315153E+01  0.22503514623E+02  0.13764995756E+02  0.26724941501E+02  0.00000000000E+00 0.  1.
</event>
<event>
 7    1  0.3434711E-013  0.7246159E+02  0.7816164E-02  0.1226708E+00
        -11   -1    0    0    0    0  0.00000000000E+00  0.00000000000E+00  0.45593999997E+02  0.45594000000E+02  0.51100000000E-03 0.  1.
         11   -1    0    0    0    0 -0.00000000000E+00 -0.00000000000E+00 -0.45593999997E+02  0.45594000000E+02  0.51100000000E-03 0. -1.
    9900012    2    1    2    0    0 -0.54526333689E+01  0.17370566943E+02  0.43829917890E+01  0.72461590211E+02  0.70000025945E+02 0.  0.
         12    1    1    2    0    0  0.54526333689E+01 -0.17370566943E+02 -0.43829917890E+01  0.18726409789E+02  0.00000000000E+00 0. -1.
         11    1    3    3    0    0 -0.12818183592E+02  0.11992105547E+02  0.77044285272E+01  0.19169628198E+02  0.51100000000E-03 0.  1.
        -11    1    3    3    0    0 -0.93362128005E+00  0.27873305757E+02  0.41091036415E+01  0.28190025816E+02  0.51100000000E-03 0. -1.
        -12    1    3    3    0    0  0.82991715035E+01 -0.22494844362E+02 -0.74305403796E+01  0.25101936197E+02  0.00000000000E+00 0.  1.
</event>
<event>
 7    1  0.3434711E-013  0.7246157E+02  0.7816164E-02  0.1226708E+00
        -11   -1    0    0    0    0  0.00000000000E+00  0.00000000000E+00  0.45593999997E+02  0.45594000000E+02  0.51100000000E-03 0. -1.
         11   -1    0    0    0    0 -0.00000000000E+00 -0.00000000000E+00 -0.45593999997E+02  0.45594000000E+02  0.51100000000E-03 0.  1.
    9900012    2    1    2    0    0 -0.12932604359E+02 -0.51434737642E+01 -0.12528825135E+02  0.72461573829E+02  0.70000004605E+02 0.  0.
         12    1    1    2    0    0  0.12932604359E+02  0.51434737642E+01  0.12528825135E+02  0.18726426171E+02  0.00000000000E+00 0. -1.
         11    1    3    3    0    0 -0.13289072197E+02  0.81368726165E+01  0.20730122806E+01  0.15719590199E+02  0.51100000000E-03 0. -1.
        -11    1    3    3    0    0 -0.35060384978E+01  0.19637716458E+02 -0.12479522289E+02  0.23530208041E+02  0.51100000000E-03 0.  1.
        -12    1    3    3    0    0  0.38625063358E+01 -0.32918062839E+02 -0.21223151259E+01  0.33211775589E+02  0.00000000000E+00 0.  1.
</event>
<event>
 7    1  0.3434711E-013  0.7246154E+02  0.7816164E-02  0.1226708E+00
        -11   -1    0    0    0    0  0.00000000000E+00  0.00000000000E+00  0.45593999997E+02  0.45594000000E+02  0.51100000000E-03 0.  1.
         11   -1    0    0    0    0 -0.00000000000E+00 -0.00000000000E+00 -0.45593999997E+02  0.45594000000E+02  0.51100000000E-03 0. -1.
    9900012    2    1    2    0    0  0.71116248865E+01  0.14734132190E+01  0.17260765211E+02  0.72461543562E+02  0.69999965177E+02 0.  0.
         12    1    1    2    0    0 -0.71116248865E+01 -0.14734132190E+01 -0.17260765211E+02  0.18726456438E+02  0.00000000000E+00 0. -1.
         11    1    3    3    0    0  0.30529592481E+01 -0.69316217525E+01 -0.24544092395E+02  0.25686191077E+02  0.51100000000E-03 0. -1.
        -11    1    3    3    0    0  0.89929559391E+01  0.16926599485E+01  0.86578985787E+01  0.12597522069E+02  0.51100000000E-03 0.  1.
        -12    1    3    3    0    0 -0.49342903007E+01  0.67123750230E+01  0.33146959027E+02  0.34177830416E+02  0.00000000000E+00 0.  1.
</event>
<event>
 7    1  0.3434711E-013  0.7246160E+02  0.7816164E-02  0.1226708E+00
        -11   -1    0    0    0    0  0.00000000000E+00  0.00000000000E+00  0.45593999997E+02  0.45594000000E+02  0.51100000000E-03 0.  1.
         11   -1    0    0    0    0 -0.00000000000E+00 -0.00000000000E+00 -0.45593999997E+02  0.45594000000E+02  0.51100000000E-03 0. -1.
    9900012    2    1    2    0    0 -0.19498005955E+01 -0.18565420953E+02  0.14837973122E+01  0.72461595326E+02  0.70000032609E+02 0.  0.
         12    1    1    2    0    0  0.19498005955E+01  0.18565420953E+02 -0.14837973122E+01  0.18726404674E+02  0.00000000000E+00 0. -1.
         11    1    3    3    0    0 -0.96866136238E+01 -0.85850824240E+01 -0.92522868551E+01  0.15910340538E+02  0.51100000000E-03 0. -1.
        -11    1    3    3    0    0  0.67348515186E+00 -0.12738264057E+02  0.31747040497E+02  0.34213908487E+02  0.51100000000E-03 0.  1.
         12    1    3    3    0    0  0.70633278764E+01  0.27579255272E+01 -0.21010956329E+02  0.22337346301E+02  0.00000000000E+00 0. -1.
</event>
<event>
 7    1  0.3434711E-013  0.7246161E+02  0.7816164E-02  0.1226708E+00
        -11   -1    0    0    0    0  0.00000000000E+00  0.00000000000E+00  0.45593999997E+02  0.45594000000E+02  0.51100000000E-03 0.  1.
         11   -1    0    0    0    0 -0.00000000000E+00 -0.00000000000E+00 -0.45593999997E+02  0.45594000000E+02  0.51100000000E-03 0. -1.
    9900012    2    1    2    0    0  0.53540497003E+01  0.80680662778E+01  0.16028666856E+02  0.72461609456E+02  0.70000051015E+02 0.  0.
         12    1    1    2    0    0 -0.53540497003E+01 -0.80680662778E+01 -0.16028666856E+02  0.18726390544E+02  0.00000000000E+00 0. -1.
         11    1    3    3    0    0 -0.11749940982E+01 -0.44813253589E+01 -0.46769728292E-01  0.46330417408E+01  0.51100000000E-03 0. -1.
        -11    1    3    3    0    0  0.22595011778E+02 -0.73212879507E+01 -0.14618836616E+02  0.27889894206E+02  0.51100000000E-03 0.  1.
         12    1    3    3    0    0 -0.16065967980E+02  0.19870679587E+02  0.30694273200E+02  0.39938673509E+02  0.00000000000E+00 0. -1.
</event>
<event>
 7    1  0.3434711E-013  0.7246156E+02  0.7816164E-02  0.1226708E+00
        -11   -1    0    0    0    0  0.00000000000E+00  0.00000000000E+00  0.45593999997E+02  0.45594000000E+02  0.51100000000E-03 0.  1.
         11   -1    0    0    0    0 -0.00000000000E+00 -0.00000000000E+00 -0.45593999997E+02  0.45594000000E+02  0.51100000000E-03 0. -1.
    9900012    2    1    2    0    0  0.98098601483E+01 -0.13099159719E+02  0.91026539229E+01  0.72461557468E+02  0.69999983291E+02 0.  0.
         12    1    1    2    0    0 -0.98098601483E+01  0.13099159719E+02 -0.91026539229E+01  0.18726442532E+02  0.00000000000E+00 0. -1.
         11    1    3    3    0    0 -0.13661422249E+02 -0.43386245124E+00  0.12211106639E+02  0.18328497486E+02  0.51100000000E-03 0. -1.
        -11    1    3    3    0    0  0.22090171475E+00  0.80449448883E+01  0.15780928162E+02  0.17714616274E+02  0.51100000000E-03 0.  1.
         12    1    3    3    0    0  0.23250380683E+02 -0.20710242156E+02 -0.18889380878E+02  0.36418443707E+02  0.00000000000E+00 0. -1.
</event>
<event>
 7    1  0.3434711E-013  0.7246158E+02  0.7816164E-02  0.1226708E+00
        -11   -1    0    0    0    0  0.00000000000E+00  0.00000000000E+00  0.45593999997E+02  0.45594000000E+02  0.51100000000E-03 0. -1.
         11   -1    0    0    0    0 -0.00000000000E+00 -0.00000000000E+00 -0.45593999997E+02  0.45594000000E+02  0.51100000000E-03 0.  1.
    9900012    2    1    2    0    0 -0.32849123819E+01 -0.18423176488E+02 -0.68903003401E+00  0.72461578995E+02  0.70000011334E+02 0.  0.
         12    1    1    2    0    0  0.32849123819E+01  0.18423176488E+02  0.68903003401E+00  0.18726421005E+02  0.00000000000E+00 0. -1.
         11    1    3    3    0    0 -0.23772004545E+01  0.98675082561E+01  0.41317837224E+01  0.10958578292E+02  0.51100000000E-03 0. -1.
        -11    1    3    3    0    0 -0.18789888703E+02  0.36968631634E+01 -0.14002883648E+02  0.23723563507E+02  0.51100000000E-03 0.  1.
        -12    1    3    3    0    0  0.17882176776E+02 -0.31987547908E+02  0.91820698920E+01  0.37779437197E+02  0.00000000000E+00 0.  1.
</event>
<event>
 7    1  0.3625542E-013  0.7246157E+02  0.7816164E-02  0.1226708E+00
        -11   -1    0    0    0    0  0.00000000000E+00  0.00000000000E+00  0.45593999997E+02  0.45594000000E+02  0.51100000000E-03 0. -1.
         11   -1    0    0    0    0 -0.00000000000E+00 -0.00000000000E+00 -0.45593999997E+02  0.45594000000E+02  0.51100000000E-03 0.  1.
    9900012    2    1    2    0    0 -0.90566987148E+00 -0.64187803255E+01 -0.17568673137E+02  0.72461568023E+02  0.69999997041E+02 0.  0.
         12    1    1    2    0    0  0.90566987148E+00  0.64187803255E+01  0.17568673137E+02  0.18726431977E+02  0.00000000000E+00 0. -1.
         11    1    3    3    0    0 -0.39097996370E+01  0.77953232999E+01  0.76656598726E+01  0.11611026660E+02  0.51100000000E-03 0. -1.
        -11    1    3    3    0    0  0.31348310717E+01  0.14540363120E+02 -0.28261534654E+02  0.31936870022E+02  0.51100000000E-03 0.  1.
         12    1    3    3    0    0 -0.13070130617E+00 -0.28754466745E+02  0.30272016444E+01  0.28913671341E+02  0.00000000000E+00 0. -1.
</event>
<event>
 7    1  0.3434711E-013  0.7246136E+02  0.7816164E-02  0.1226709E+00
        -11   -1    0    0    0    0  0.00000000000E+00  0.00000000000E+00  0.45593999997E+02  0.45594000000E+02  0.51100000000E-03 0.  1.
         11   -1    0    0    0    0 -0.00000000000E+00 -0.00000000000E+00 -0.45593999997E+02  0.45594000000E+02  0.51100000000E-03 0. -1.
    9900012    2    1    2    0    0 -0.17621736637E+02 -0.54974383848E+01 -0.31527045333E+01  0.72461361840E+02  0.69999728450E+02 0.  0.
         12    1    1    2    0    0  0.17621736637E+02  0.54974383848E+01  0.31527045333E+01  0.18726638160E+02  0.00000000000E+00 0. -1.
         11    1    3    3    0    0  0.20714853811E+02 -0.33216200013E+01 -0.10887246028E+02  0.23636210656E+02  0.51100000000E-03 0. -1.
        -11    1    3    3    0    0  0.26327437150E+01 -0.32319176795E+01  0.66248172886E+01  0.78271856835E+01  0.51100000000E-03 0.  1.
        -12    1    3    3    0    0 -0.40969334162E+02  0.10560992960E+01  0.11097242060E+01  0.40997965501E+02  0.00000000000E+00 0.  1.
</event>
<event>
 7    1  0.3434711E-013  0.7246155E+02  0.7816164E-02  0.1226708E+00
        -11   -1    0    0    0    0  0.00000000000E+00  0.00000000000E+00  0.45593999997E+02  0.45594000000E+02  0.51100000000E-03 0. -1.
         11   -1    0    0    0    0 -0.00000000000E+00 -0.00000000000E+00 -0.45593999997E+02  0.45594000000E+02  0.51100000000E-03 0.  1.
    9900012    2    1    2    0    0 -0.10482258764E+02 -0.14846846735E+02  0.45136660062E+01  0.72461553792E+02  0.69999978503E+02 0.  0.
         12    1    1    2    0    0  0.10482258764E+02  0.14846846735E+02 -0.45136660062E+01  0.18726446208E+02  0.00000000000E+00 0. -1.
         11    1    3    3    0    0 -0.16120420535E+01 -0.12343646872E+02  0.72766248442E+01  0.14419208267E+02  0.51100000000E-03 0. -1.
        -11    1    3    3    0    0 -0.15079373786E+02 -0.12244480834E+02  0.22822638648E+02  0.29969779108E+02  0.51100000000E-03 0.  1.
         12    1    3    3    0    0  0.62091570760E+01  0.97412809700E+01 -0.25585597486E+02  0.28072566417E+02  0.00000000000E+00 0. -1.
</event>
<event>
 7    1  0.3434711E-013  0.7246158E+02  0.7816164E-02  0.1226708E+00
        -11   -1    0    0    0    0  0.00000000000E+00  0.00000000000E+00  0.45593999997E+02  0.45594000000E+02  0.51100000000E-03 0. -1.
         11   -1    0    0    0    0 -0.00000000000E+00 -0.00000000000E+00 -0.45593999997E+02  0.45594000000E+02  0.51100000000E-03 0.  1.
    9900012    2    1    2    0    0 -0.15160252328E+02 -0.62225254444E+01  0.90623331250E+01  0.72461576016E+02  0.70000007454E+02 0.  0.
         12    1    1    2    0    0  0.15160252328E+02  0.62225254444E+01 -0.90623331250E+01  0.18726423984E+02  0.00000000000E+00 0. -1.
         11    1    3    3    0    0  0.21200191125E+01  0.26013629747E+02  0.36465822547E+01  0.26353386424E+02  0.51100000000E-03 0. -1.
        -11    1    3    3    0    0 -0.59698927122E+01  0.32201852654E+01  0.57467073480E+01  0.88900988602E+01  0.51100000000E-03 0.  1.
        -12    1    3    3    0    0 -0.11310378728E+02 -0.35456340456E+02 -0.33095647772E+00  0.37218090732E+02  0.00000000000E+00 0.  1.
</event>
<event>
 7    1  0.3434711E-013  0.7246162E+02  0.7816164E-02  0.1226708E+00
        -11   -1    0    0    0    0  0.00000000000E+00  0.00000000000E+00  0.45593999997E+02  0.45594000000E+02  0.51100000000E-03 0.  1.
         11   -1    0    0    0    0 -0.00000000000E+00 -0.00000000000E+00 -0.45593999997E+02  0.45594000000E+02  0.51100000000E-03 0. -1.
    9900012    2    1    2    0    0 -0.75808077456E+01 -0.40217476885E-01  0.17123290695E+02  0.72461618936E+02  0.70000063365E+02 0.  0.
         12    1    1    2    0    0  0.75808077456E+01  0.40217476885E-01 -0.17123290695E+02  0.18726381064E+02  0.00000000000E+00 0. -1.
         11    1    3    3    0    0 -0.26734048138E+02 -0.30499490348E+01 -0.84421456680E+01  0.28200733017E+02  0.51100000000E-03 0. -1.
        -11    1    3    3    0    0 -0.64817476568E+01  0.41779898990E+01 -0.44238577560E+00  0.77242706917E+01  0.51100000000E-03 0.  1.
        -12    1    3    3    0    0  0.25634988049E+02 -0.11682583411E+01  0.26007822139E+02  0.36536615227E+02  0.00000000000E+00 0.  1.
</event>
<event>
 7    1  0.3434711E-013  0.7246163E+02  0.7816164E-02  0.1226708E+00
        -11   -1    0    0    0    0  0.00000000000E+00  0.00000000000E+00  0.45593999997E+02  0.45594000000E+02  0.51100000000E-03 0. -1.
         11   -1    0    0    0    0 -0.00000000000E+00 -0.00000000000E+00 -0.45593999997E+02  0.45594000000E+02  0.51100000000E-03 0.  1.
    9900012    2    1    2    0    0  0.49549471098E+01  0.17653355546E+02 -0.38058447740E+01  0.72461630428E+02  0.70000078336E+02 0.  0.
         12    1    1    2    0    0 -0.49549471098E+01 -0.17653355546E+02  0.38058447740E+01  0.18726369572E+02  0.00000000000E+00 0. -1.
         11    1    3    3    0    0  0.96578854213E+00  0.77834207895E+01  0.11820405168E+02  0.14185780391E+02  0.51100000000E-03 0. -1.
        -11    1    3    3    0    0  0.11447806133E+02  0.30271441730E+02 -0.16911079823E+02  0.36515709916E+02  0.51100000000E-03 0.  1.
         12    1    3    3    0    0 -0.74586475648E+01 -0.20401506973E+02  0.12848298802E+01  0.21760140121E+02  0.00000000000E+00 0. -1.
</event>
<event>
 7    1  0.3434711E-013  0.7246156E+02  0.7816164E-02  0.1226708E+00
        -11   -1    0    0    0    0  0.00000000000E+00  0.00000000000E+00  0.45593999997E+02  0.45594000000E+02  0.51100000000E-03 0.  1.
         11   -1    0    0    0    0 -0.00000000000E+00 -0.00000000000E+00 -0.45593999997E+02  0.45594000000E+02  0.51100000000E-03 0. -1.
    9900012    2    1    2    0    0 -0.14692417808E+02 -0.98536137193E+01 -0.61415570486E+01  0.72461559672E+02  0.69999986162E+02 0.  0.
         12    1    1    2    0    0  0.14692417808E+02  0.98536137193E+01  0.61415570486E+01  0.18726440328E+02  0.00000000000E+00 0. -1.
         11    1    3    3    0    0 -0.25858523351E+02  0.89998580578E+01 -0.75560749420E+01  0.28403431901E+02  0.51100000000E-03 0. -1.
        -11    1    3    3    0    0 -0.61731365606E+01  0.62395939955E+01  0.90590357548E+01  0.12613733678E+02  0.51100000000E-03 0.  1.
        -12    1    3    3    0    0  0.17339242103E+02 -0.25093065773E+02 -0.76445178614E+01  0.31444394094E+02  0.00000000000E+00 0.  1.
</event>
<event>
 7    1  0.3434711E-013  0.7246161E+02  0.7816164E-02  0.1226708E+00
        -11   -1    0    0    0    0  0.00000000000E+00  0.00000000000E+00  0.45593999997E+02  0.45594000000E+02  0.51100000000E-03 0.  1.
         11   -1    0    0    0    0 -0.00000000000E+00 -0.00000000000E+00 -0.45593999997E+02  0.45594000000E+02  0.51100000000E-03 0. -1.
    9900012    2    1    2    0    0  0.17049120859E+02  0.95665312873E+00  0.76870057999E+01  0.72461607784E+02  0.70000048837E+02 0.  0.
         12    1    1    2    0    0 -0.17049120859E+02 -0.95665312873E+00 -0.76870057999E+01  0.18726392216E+02  0.00000000000E+00 0. -1.
         11    1    3    3    0    0  0.19605623220E+02 -0.42203129915E+01  0.11888663876E+02  0.23313769164E+02  0.51100000000E-03 0. -1.
        -11    1    3    3    0    0  0.75089295278E-01 -0.12821539944E+02  0.16948211199E+02  0.21251809054E+02  0.51100000000E-03 0.  1.
        -12    1    3    3    0    0 -0.26315916567E+01  0.17998506065E+02 -0.21149869275E+02  0.27896029566E+02  0.00000000000E+00 0.  1.
</event>
<event>
 7    1  0.3720423E-013  0.7246152E+02  0.7816164E-02  0.1226708E+00
        -11   -1    0    0    0    0  0.00000000000E+00  0.00000000000E+00  0.45593999997E+02  0.45594000000E+02  0.51100000000E-03 0. -1.
         11   -1    0    0    0    0 -0.00000000000E+00 -0.00000000000E+00 -0.45593999997E+02  0.45594000000E+02  0.51100000000E-03 0.  1.
    9900012    2    1    2    0    0  0.11620322664E+02  0.98207320705E+00 -0.14652127834E+02  0.72461515636E+02  0.69999928797E+02 0.  0.
         12    1    1    2    0    0 -0.11620322664E+02 -0.98207320705E+00  0.14652127834E+02  0.18726484364E+02  0.00000000000E+00 0. -1.
         11    1    3    3    0    0 -0.36599144223E+01 -0.11004653525E+02 -0.70978640060E+01  0.13596949897E+02  0.51100000000E-03 0. -1.
        -11    1    3    3    0    0  0.27636417558E+02  0.53735357549E+00 -0.23038586293E+02  0.35983840581E+02  0.51100000000E-03 0.  1.
         12    1    3    3    0    0 -0.12356180471E+02  0.11449373157E+02  0.15484322466E+02  0.22880725158E+02  0.00000000000E+00 0. -1.
</event>
<event>
 7    1  0.3434711E-013  0.7246156E+02  0.7816164E-02  0.1226708E+00
        -11   -1    0    0    0    0  0.00000000000E+00  0.00000000000E+00  0.45593999997E+02  0.45594000000E+02  0.51100000000E-03 0. -1.
         11   -1    0    0    0    0 -0.00000000000E+00 -0.00000000000E+00 -0.45593999997E+02  0.45594000000E+02  0.51100000000E-03 0.  1.
    9900012    2    1    2    0    0 -0.44709640710E+01  0.15141714241E+02 -0.10070682000E+02  0.72461557043E+02  0.69999982738E+02 0.  0.
         12    1    1    2    0    0  0.44709640710E+01 -0.15141714241E+02  0.10070682000E+02  0.18726442957E+02  0.00000000000E+00 0. -1.
         11    1    3    3    0    0 -0.23964696771E+02  0.28812520024E+01  0.99440976935E+01  0.26105428241E+02  0.51100000000E-03 0. -1.
        -11    1    3    3    0    0  0.24652156208E+01  0.97045283827E+00  0.98339475248E+01  0.10184576130E+02  0.51100000000E-03 0.  1.
        -12    1    3    3    0    0  0.17028517079E+02  0.11290009400E+02 -0.29848727218E+02  0.36171552672E+02  0.00000000000E+00 0.  1.
</event>
<event>
 7    1  0.3434711E-013  0.7246158E+02  0.7816164E-02  0.1226708E+00
        -11   -1    0    0    0    0  0.00000000000E+00  0.00000000000E+00  0.45593999997E+02  0.45594000000E+02  0.51100000000E-03 0.  1.
         11   -1    0    0    0    0 -0.00000000000E+00 -0.00000000000E+00 -0.45593999997E+02  0.45594000000E+02  0.51100000000E-03 0. -1.
    9900012    2    1    2    0    0 -0.43795841020E+00  0.15991303811E+02 -0.97347349002E+01  0.72461583666E+02  0.70000017419E+02 0.  0.
         12    1    1    2    0    0  0.43795841020E+00 -0.15991303811E+02  0.97347349002E+01  0.18726416334E+02  0.00000000000E+00 0. -1.
         11    1    3    3    0    0 -0.19856897393E+02  0.31116586250E+02 -0.15460877311E+02  0.40019708163E+02  0.51100000000E-03 0. -1.
        -11    1    3    3    0    0  0.42953889962E+01  0.47840969295E+01  0.35520943468E+01  0.73454288213E+01  0.51100000000E-03 0.  1.
        -12    1    3    3    0    0  0.15123549987E+02 -0.19909379369E+02  0.21740480635E+01  0.25096446682E+02  0.00000000000E+00 0.  1.
</event>
<event>
 7    1  0.3434711E-013  0.7246170E+02  0.7816164E-02  0.1226708E+00
        -11   -1    0    0    0    0  0.00000000000E+00  0.00000000000E+00  0.45593999997E+02  0.45594000000E+02  0.51100000000E-03 0.  1.
         11   -1    0    0    0    0 -0.00000000000E+00 -0.00000000000E+00 -0.45593999997E+02  0.45594000000E+02  0.51100000000E-03 0. -1.
    9900012    2    1    2    0    0 -0.10192148875E+02 -0.15070405744E+02  0.44359289233E+01  0.72461695149E+02  0.70000162646E+02 0.  0.
         12    1    1    2    0    0  0.10192148875E+02  0.15070405744E+02 -0.44359289233E+01  0.18726304851E+02  0.00000000000E+00 0. -1.
         11    1    3    3    0    0 -0.14159129280E+02  0.14019342977E+02  0.12739871630E+02  0.23650100399E+02  0.51100000000E-03 0. -1.
        -11    1    3    3    0    0 -0.79787458899E+01 -0.61138623646E+01  0.12181086886E+02  0.15792991388E+02  0.51100000000E-03 0.  1.
        -12    1    3    3    0    0  0.11945726295E+02 -0.22975886356E+02 -0.20485029593E+02  0.33018603362E+02  0.00000000000E+00 0.  1.
</event>
<event>
 7    1  0.3434711E-013  0.7246152E+02  0.7816164E-02  0.1226708E+00
        -11   -1    0    0    0    0  0.00000000000E+00  0.00000000000E+00  0.45593999997E+02  0.45594000000E+02  0.51100000000E-03 0.  1.
         11   -1    0    0    0    0 -0.00000000000E+00 -0.00000000000E+00 -0.45593999997E+02  0.45594000000E+02  0.51100000000E-03 0. -1.
    9900012    2    1    2    0    0  0.92969114822E+01 -0.78593741449E+01 -0.14229507596E+02  0.72461515773E+02  0.69999928976E+02 0.  0.
         12    1    1    2    0    0 -0.92969114822E+01  0.78593741449E+01  0.14229507596E+02  0.18726484227E+02  0.00000000000E+00 0. -1.
         11    1    3    3    0    0 -0.82735082183E+01 -0.20657118989E+02 -0.21517972362E+01  0.22356156530E+02  0.51100000000E-03 0. -1.
        -11    1    3    3    0    0 -0.12758920376E+02 -0.43520787660E+01 -0.88641447155E+00  0.13509861939E+02  0.51100000000E-03 0.  1.
         12    1    3    3    0    0  0.30329340076E+02  0.17149823610E+02 -0.11191295888E+02  0.36595497305E+02  0.00000000000E+00 0. -1.
</event>
<event>
 7    1  0.3434711E-013  0.7246161E+02  0.7816164E-02  0.1226708E+00
        -11   -1    0    0    0    0  0.00000000000E+00  0.00000000000E+00  0.45593999997E+02  0.45594000000E+02  0.51100000000E-03 0. -1.
         11   -1    0    0    0    0 -0.00000000000E+00 -0.00000000000E+00 -0.45593999997E+02  0.45594000000E+02  0.51100000000E-03 0.  1.
    9900012    2    1    2    0    0 -0.74619688415E+01 -0.12467440950E+02 -0.11813535963E+02  0.72461609670E+02  0.70000051295E+02 0.  0.
         12    1    1    2    0    0  0.74619688415E+01  0.12467440950E+02  0.11813535963E+02  0.18726390330E+02  0.00000000000E+00 0. -1.
         11    1    3    3    0    0 -0.45466883509E+01 -0.41933316935E+01 -0.21455366122E+00  0.61888964434E+01  0.51100000000E-03 0. -1.
        -11    1    3    3    0    0 -0.98135016199E+01 -0.35601228568E+02 -0.44526271610E+01  0.37196480727E+02  0.51100000000E-03 0.  1.
         12    1    3    3    0    0  0.68982211293E+01  0.27327119311E+02 -0.71463551408E+01  0.29076232500E+02  0.00000000000E+00 0. -1.
</event>
<event>
 7    1  0.3434711E-013  0.7246159E+02  0.7816164E-02  0.1226708E+00
        -11   -1    0    0    0    0  0.00000000000E+00  0.00000000000E+00  0.45593999997E+02  0.45594000000E+02  0.51100000000E-03 0. -1.
         11   -1    0    0    0    0 -0.00000000000E+00 -0.00000000000E+00 -0.45593999997E+02  0.45594000000E+02  0.51100000000E-03 0.  1.
    9900012    2    1    2    0    0 -0.18428117389E+02  0.10013533268E+01  0.31749183673E+01  0.72461592827E+02  0.70000029352E+02 0.  0.
         12    1    1    2    0    0  0.18428117389E+02 -0.10013533268E+01 -0.31749183673E+01  0.18726407173E+02  0.00000000000E+00 0. -1.
         11    1    3    3    0    0  0.67501474436E+01  0.15001266372E+02  0.38699787647E+01  0.16899089300E+02  0.51100000000E-03 0. -1.
        -11    1    3    3    0    0 -0.23784382045E+02  0.64347610889E+01 -0.16532099803E+02  0.29671759363E+02  0.51100000000E-03 0.  1.
         12    1    3    3    0    0 -0.13938827872E+01 -0.20434674134E+02  0.15837039406E+02  0.25890744163E+02  0.00000000000E+00 0. -1.
</event>
<event>
 7    1  0.3434711E-013  0.7246152E+02  0.7816164E-02  0.1226708E+00
        -11   -1    0    0    0    0  0.00000000000E+00  0.00000000000E+00  0.45593999997E+02  0.45594000000E+02  0.51100000000E-03 0. -1.
         11   -1    0    0    0    0 -0.00000000000E+00 -0.00000000000E+00 -0.45593999997E+02  0.45594000000E+02  0.51100000000E-03 0.  1.
    9900012    2    1    2    0    0 -0.86873291756E+01  0.51080190832E+01 -0.15783522306E+02  0.72461518121E+02  0.69999932035E+02 0.  0.
         12    1    1    2    0    0  0.86873291756E+01 -0.51080190832E+01  0.15783522306E+02  0.18726481879E+02  0.00000000000E+00 0. -1.
         11    1    3    3    0    0 -0.27566172053E+01 -0.45722301029E+01  0.92553681859E+01  0.10684852224E+02  0.51100000000E-03 0. -1.
        -11    1    3    3    0    0  0.99714971948E+01 -0.20156445040E+02 -0.12410853658E+02  0.25685449611E+02  0.51100000000E-03 0.  1.
         12    1    3    3    0    0 -0.15902209165E+02  0.29836694226E+02 -0.12628036835E+02  0.36091216286E+02  0.00000000000E+00 0. -1.
</event>
<event>
 7    1  0.3434711E-013  0.7246157E+02  0.7816164E-02  0.1226708E+00
        -11   -1    0    0    0    0  0.00000000000E+00  0.00000000000E+00  0.45593999997E+02  0.45594000000E+02  0.51100000000E-03 0.  1.
         11   -1    0    0    0    0 -0.00000000000E+00 -0.00000000000E+00 -0.45593999997E+02  0.45594000000E+02  0.51100000000E-03 0. -1.
    9900012    2    1    2    0    0 -0.46983647477E+01  0.17438775765E+02  0.49490990806E+01  0.72461571798E+02  0.70000001959E+02 0.  0.
         12    1    1    2    0    0  0.46983647477E+01 -0.17438775765E+02 -0.49490990806E+01  0.18726428202E+02  0.00000000000E+00 0. -1.
         11    1    3    3    0    0 -0.55768982378E+01 -0.54434435404E+01  0.13470177317E+02  0.15562086902E+02  0.51100000000E-03 0. -1.
        -11    1    3    3    0    0  0.17875077150E+02  0.10813254747E+02  0.14813157230E+02  0.25610046636E+02  0.51100000000E-03 0.  1.
         12    1    3    3    0    0 -0.16996543659E+02  0.12068964559E+02 -0.23334235466E+02  0.31289438261E+02  0.00000000000E+00 0. -1.
</event>
<event>
 7    1  0.3434711E-013  0.7246217E+02  0.7816164E-02  0.1226706E+00
        -11   -1    0    0    0    0  0.00000000000E+00  0.00000000000E+00  0.45593999997E+02  0.45594000000E+02  0.51100000000E-03 0.  1.
         11   -1    0    0    0    0 -0.00000000000E+00 -0.00000000000E+00 -0.45593999997E+02  0.45594000000E+02  0.51100000000E-03 0. -1.
    9900012    2    1    2    0    0 -0.11136912960E+02  0.36573520635E+01  0.14603065950E+02  0.72462173195E+02  0.70000785386E+02 0.  0.
         12    1    1    2    0    0  0.11136912960E+02 -0.36573520635E+01 -0.14603065950E+02  0.18725826805E+02  0.00000000000E+00 0. -1.
         11    1    3    3    0    0  0.58219222203E+01 -0.22150350477E+02  0.22598725795E+02  0.32175071288E+02  0.51100000000E-03 0. -1.
        -11    1    3    3    0    0 -0.13392428973E+01 -0.34995656389E+01  0.35163910363E+01  0.51386318588E+01  0.51100000000E-03 0.  1.
        -12    1    3    3    0    0 -0.15619592283E+02  0.29307268179E+02 -0.11512050882E+02  0.35148470048E+02  0.00000000000E+00 0.  1.
</event>
<event>
 7    1  0.3434711E-013  0.7246168E+02  0.7816164E-02  0.1226708E+00
        -11   -1    0    0    0    0  0.00000000000E+00  0.00000000000E+00  0.45593999997E+02  0.45594000000E+02  0.51100000000E-03 0.  1.
         11   -1    0    0    0    0 -0.00000000000E+00 -0.00000000000E+00 -0.45593999997E+02  0.45594000000E+02  0.51100000000E-03 0. -1.
    9900012    2    1    2    0    0  0.49650641300E+01 -0.55038579217E+00  0.18047722555E+02  0.72461679599E+02  0.70000142390E+02 0.  0.
         12    1    1    2    0    0 -0.49650641300E+01  0.55038579217E+00 -0.18047722555E+02  0.18726320401E+02  0.00000000000E+00 0. -1.
         11    1    3    3    0    0  0.35502765979E+02 -0.51030281736E+01  0.16793809786E+02  0.39604536811E+02  0.51100000000E-03 0.  1.
        -11    1    3    3    0    0 -0.16233799610E+02  0.73582206166E+01  0.33349641514E+01  0.18132888533E+02  0.51100000000E-03 0. -1.
        -12    1    3    3    0    0 -0.14303902239E+02 -0.28055782352E+01 -0.20810513821E+01  0.14724254254E+02  0.00000000000E+00 0.  1.
</event>
<event>
 7    1  0.3434711E-013  0.7246077E+02  0.7816164E-02  0.1226710E+00
        -11   -1    0    0    0    0  0.00000000000E+00  0.00000000000E+00  0.45593999997E+02  0.45594000000E+02  0.51100000000E-03 0.  1.
         11   -1    0    0    0    0 -0.00000000000E+00 -0.00000000000E+00 -0.45593999997E+02  0.45594000000E+02  0.51100000000E-03 0. -1.
    9900012    2    1    2    0    0 -0.90782440468E+01  0.11823344519E+01  0.16336971823E+02  0.72460771746E+02  0.69998959735E+02 0.  0.
         12    1    1    2    0    0  0.90782440468E+01 -0.11823344519E+01 -0.16336971823E+02  0.18727228254E+02  0.00000000000E+00 0. -1.
         11    1    3    3    0    0  0.67614740833E+01  0.60122597633E+01  0.17487392748E+01  0.92153615530E+01  0.51100000000E-03 0. -1.
        -11    1    3    3    0    0 -0.91489181155E+00  0.12346113562E+01  0.36231835016E+02  0.36264406256E+02  0.51100000000E-03 0.  1.
         12    1    3    3    0    0 -0.14924826319E+02 -0.60645366677E+01 -0.21643602468E+02  0.26981003937E+02  0.00000000000E+00 0. -1.
</event>
<event>
 7    1  0.3434711E-013  0.7246158E+02  0.7816164E-02  0.1226708E+00
        -11   -1    0    0    0    0  0.00000000000E+00  0.00000000000E+00  0.45593999997E+02  0.45594000000E+02  0.51100000000E-03 0.  1.
         11   -1    0    0    0    0 -0.00000000000E+00 -0.00000000000E+00 -0.45593999997E+02  0.45594000000E+02  0.51100000000E-03 0. -1.
    9900012    2    1    2    0    0 -0.14412984091E+02 -0.11940427256E+02 -0.60900642413E+00  0.72461580100E+02  0.70000012773E+02 0.  0.
         12    1    1    2    0    0  0.14412984091E+02  0.11940427256E+02  0.60900642413E+00  0.18726419900E+02  0.00000000000E+00 0. -1.
         11    1    3    3    0    0 -0.14358839268E+01 -0.12113062115E+02 -0.14471919460E+02  0.18926819320E+02  0.51100000000E-03 0. -1.
        -11    1    3    3    0    0 -0.25387034700E+02 -0.12274325001E+02  0.20376389388E+02  0.34790197324E+02  0.51100000000E-03 0.  1.
         12    1    3    3    0    0  0.12409934536E+02  0.12446959860E+02 -0.65134763517E+01  0.18744563455E+02  0.00000000000E+00 0. -1.
</event>
<event>
 7    1  0.3434711E-013  0.7246158E+02  0.7816164E-02  0.1226708E+00
        -11   -1    0    0    0    0  0.00000000000E+00  0.00000000000E+00  0.45593999997E+02  0.45594000000E+02  0.51100000000E-03 0.  1.
         11   -1    0    0    0    0 -0.00000000000E+00 -0.00000000000E+00 -0.45593999997E+02  0.45594000000E+02  0.51100000000E-03 0. -1.
    9900012    2    1    2    0    0  0.73943480352E+01  0.94186229249E+01  0.14397636552E+02  0.72461580722E+02  0.70000013584E+02 0.  0.
         12    1    1    2    0    0 -0.73943480352E+01 -0.94186229249E+01 -0.14397636552E+02  0.18726419278E+02  0.00000000000E+00 0. -1.
         11    1    3    3    0    0 -0.35397747533E+01 -0.25400014005E+01 -0.60980152602E+01  0.74944914966E+01  0.51100000000E-03 0. -1.
        -11    1    3    3    0    0 -0.10967077651E+02 -0.14043066000E+02 -0.89970594217E+01  0.19960750823E+02  0.51100000000E-03 0.  1.
        -12    1    3    3    0    0  0.21901200440E+02  0.26001690326E+02  0.29492711234E+02  0.45006338403E+02  0.00000000000E+00 0.  1.
</event>
