<event>
 7    1  0.1351543E-013  0.7246156E+02  0.7816164E-02  0.1226708E+00
        -11   -1    0    0    0    0  0.00000000000E+00  0.00000000000E+00  0.45593999997E+02  0.45594000000E+02  0.51100000000E-03 0.  1.
         11   -1    0    0    0    0 -0.00000000000E+00 -0.00000000000E+00 -0.45593999997E+02  0.45594000000E+02  0.51100000000E-03 0. -1.
    9900012    2    1    2    0    0  0.65011605545E+01 -0.12372178876E+02  0.12463691622E+02  0.72461561269E+02  0.69999988243E+02 0.  0.
         12    1    1    2    0    0 -0.65011605545E+01  0.12372178876E+02 -0.12463691622E+02  0.18726438731E+02  0.00000000000E+00 0. -1.
         11    1    3    3    0    0 -0.25987270908E+02  0.12458968883E+02  0.11489292106E+01  0.28842402699E+02  0.51100000000E-03 0. -1.
        -11    1    3    3    0    0  0.24715932546E+02 -0.19721138307E+02  0.12960758839E+02  0.34172823818E+02  0.51100000000E-03 0.  1.
         12    1    3    3    0    0  0.77724989167E+01 -0.51100094509E+01 -0.16459964275E+01  0.94463347515E+01  0.00000000000E+00 0. -1.
</event>
<event>
 7    1  0.1351543E-013  0.7246164E+02  0.7816164E-02  0.1226708E+00
        -11   -1    0    0    0    0  0.00000000000E+00  0.00000000000E+00  0.45593999997E+02  0.45594000000E+02  0.51100000000E-03 0.  1.
         11   -1    0    0    0    0 -0.00000000000E+00 -0.00000000000E+00 -0.45593999997E+02  0.45594000000E+02  0.51100000000E-03 0. -1.
    9900012    2    1    2    0    0  0.15868670351E+02  0.85527772949E+01  0.50707002118E+01  0.72461636263E+02  0.70000085937E+02 0.  0.
         12    1    1    2    0    0 -0.15868670351E+02 -0.85527772949E+01 -0.50707002118E+01  0.18726363737E+02  0.00000000000E+00 0. -1.
         11    1    3    3    0    0 -0.22354061344E+01 -0.22498227720E+02 -0.68393463551E+00  0.22619351405E+02  0.51100000000E-03 0. -1.
        -11    1    3    3    0    0  0.20257324919E+02  0.41136801422E+01  0.91522008031E+01  0.22606290209E+02  0.51100000000E-03 0.  1.
         12    1    3    3    0    0 -0.21532484341E+01  0.26937324873E+02 -0.33975659558E+01  0.27235994649E+02  0.00000000000E+00 0. -1.
</event>
<event>
 7    1  0.1351543E-013  0.7246158E+02  0.7816164E-02  0.1226708E+00
        -11   -1    0    0    0    0  0.00000000000E+00  0.00000000000E+00  0.45593999997E+02  0.45594000000E+02  0.51100000000E-03 0. -1.
         11   -1    0    0    0    0 -0.00000000000E+00 -0.00000000000E+00 -0.45593999997E+02  0.45594000000E+02  0.51100000000E-03 0.  1.
    9900012    2    1    2    0    0  0.33221306498E+01  0.18336497403E+02 -0.18480154758E+01  0.72461578819E+02  0.70000011105E+02 0.  0.
         12    1    1    2    0    0 -0.33221306498E+01 -0.18336497403E+02  0.18480154758E+01  0.18726421181E+02  0.00000000000E+00 0. -1.
         11    1    3    3    0    0  0.22456753706E+02  0.14643879268E+02  0.26241516831E+02  0.37514879620E+02  0.51100000000E-03 0. -1.
        -11    1    3    3    0    0 -0.25708348671E+01  0.58781208854E+00 -0.94830461134E+01  0.98429100786E+01  0.51100000000E-03 0.  1.
         12    1    3    3    0    0 -0.16563788189E+02  0.31048060464E+01 -0.18606486193E+02  0.25103789121E+02  0.00000000000E+00 0. -1.
</event>
<event>
 7    1  0.1351543E-013  0.7246150E+02  0.7816164E-02  0.1226708E+00
        -11   -1    0    0    0    0  0.00000000000E+00  0.00000000000E+00  0.45593999997E+02  0.45594000000E+02  0.51100000000E-03 0.  1.
         11   -1    0    0    0    0 -0.00000000000E+00 -0.00000000000E+00 -0.45593999997E+02  0.45594000000E+02  0.51100000000E-03 0. -1.
    9900012    2    1    2    0    0 -0.74449100773E+01  0.75581476556E+01  0.15431445858E+02  0.72461499972E+02  0.69999908392E+02 0.  0.
         12    1    1    2    0    0  0.74449100773E+01 -0.75581476556E+01 -0.15431445858E+02  0.18726500028E+02  0.00000000000E+00 0. -1.
         11    1    3    3    0    0  0.16071594020E+02 -0.47526518074E+01  0.25471763631E+02  0.30490893334E+02  0.51100000000E-03 0.  1.
        -11    1    3    3    0    0 -0.19967734761E+02  0.14511327086E+02  0.59943092365E+01  0.25401196601E+02  0.51100000000E-03 0. -1.
         12    1    3    3    0    0 -0.35487693359E+01 -0.22005276226E+01 -0.16034627010E+02  0.16569410037E+02  0.00000000000E+00 0. -1.
</event>
<event>
 7    1  0.1351543E-013  0.7246152E+02  0.7816164E-02  0.1226708E+00
        -11   -1    0    0    0    0  0.00000000000E+00  0.00000000000E+00  0.45593999997E+02  0.45594000000E+02  0.51100000000E-03 0.  1.
         11   -1    0    0    0    0 -0.00000000000E+00 -0.00000000000E+00 -0.45593999997E+02  0.45594000000E+02  0.51100000000E-03 0. -1.
    9900012    2    1    2    0    0 -0.87588117943E+01 -0.12290054420E+02 -0.11086872307E+02  0.72461522508E+02  0.69999937750E+02 0.  0.
         12    1    1    2    0    0  0.87588117943E+01  0.12290054420E+02  0.11086872307E+02  0.18726477492E+02  0.00000000000E+00 0. -1.
         11    1    3    3    0    0 -0.20912808467E+02 -0.25494253765E+02 -0.13547314316E+01  0.33002088275E+02  0.51100000000E-03 0.  1.
        -11    1    3    3    0    0  0.61560666768E+01  0.24181410936E+02 -0.10163151419E+02  0.26943040638E+02  0.51100000000E-03 0. -1.
        -12    1    3    3    0    0  0.59979299958E+01 -0.10977211591E+02  0.43101054362E+00  0.12516393595E+02  0.00000000000E+00 0.  1.
</event>
<event>
 7    1  0.1351543E-013  0.7246160E+02  0.7816164E-02  0.1226708E+00
        -11   -1    0    0    0    0  0.00000000000E+00  0.00000000000E+00  0.45593999997E+02  0.45594000000E+02  0.51100000000E-03 0.  1.
         11   -1    0    0    0    0 -0.00000000000E+00 -0.00000000000E+00 -0.45593999997E+02  0.45594000000E+02  0.51100000000E-03 0. -1.
    9900012    2    1    2    0    0 -0.18601364602E+02  0.16520552358E+00 -0.21540869701E+01  0.72461597553E+02  0.70000035510E+02 0.  0.
         12    1    1    2    0    0  0.18601364602E+02 -0.16520552358E+00  0.21540869701E+01  0.18726402447E+02  0.00000000000E+00 0. -1.
         11    1    3    3    0    0 -0.25499672743E+02 -0.77592609710E+01 -0.98212859842E+01  0.28405934230E+02  0.51100000000E-03 0. -1.
        -11    1    3    3    0    0  0.22047142455E+02  0.24318258248E+01  0.14556590921E+02  0.26530823711E+02  0.51100000000E-03 0.  1.
        -12    1    3    3    0    0 -0.15148834314E+02  0.54926406698E+01 -0.68893919068E+01  0.17524839613E+02  0.00000000000E+00 0.  1.
</event>
<event>
 7    1  0.1351543E-013  0.7246158E+02  0.7816164E-02  0.1226708E+00
        -11   -1    0    0    0    0  0.00000000000E+00  0.00000000000E+00  0.45593999997E+02  0.45594000000E+02  0.51100000000E-03 0.  1.
         11   -1    0    0    0    0 -0.00000000000E+00 -0.00000000000E+00 -0.45593999997E+02  0.45594000000E+02  0.51100000000E-03 0. -1.
    9900012    2    1    2    0    0 -0.16199285604E+02  0.20323880159E+01  0.91723150574E+01  0.72461579663E+02  0.70000012204E+02 0.  0.
         12    1    1    2    0    0  0.16199285604E+02 -0.20323880159E+01 -0.91723150574E+01  0.18726420337E+02  0.00000000000E+00 0. -1.
         11    1    3    3    0    0 -0.51134180911E+01 -0.92916017838E+01 -0.26465245754E+02  0.28511228339E+02  0.51100000000E-03 0. -1.
        -11    1    3    3    0    0 -0.54501901787E+01  0.15378886704E+02  0.14952615144E+02  0.22131322354E+02  0.51100000000E-03 0.  1.
         12    1    3    3    0    0 -0.56356773340E+01 -0.40548969047E+01  0.20684945668E+02  0.21819028970E+02  0.00000000000E+00 0. -1.
</event>
<event>
 7    1  0.1351543E-013  0.7246156E+02  0.7816164E-02  0.1226708E+00
        -11   -1    0    0    0    0  0.00000000000E+00  0.00000000000E+00  0.45593999997E+02  0.45594000000E+02  0.51100000000E-03 0.  1.
         11   -1    0    0    0    0 -0.00000000000E+00 -0.00000000000E+00 -0.45593999997E+02  0.45594000000E+02  0.51100000000E-03 0. -1.
    9900012    2    1    2    0    0 -0.30774636767E+01 -0.17145627554E+02  0.68728494878E+01  0.72461564488E+02  0.69999992437E+02 0.  0.
         12    1    1    2    0    0  0.30774636767E+01  0.17145627554E+02 -0.68728494878E+01  0.18726435512E+02  0.00000000000E+00 0. -1.
         11    1    3    3    0    0 -0.14487853065E+02  0.12718625002E+01 -0.12284754627E+02  0.19037613221E+02  0.51100000000E-03 0. -1.
        -11    1    3    3    0    0  0.11290249892E+02  0.83493675692E+01  0.22424431659E+02  0.26458208876E+02  0.51100000000E-03 0.  1.
        -12    1    3    3    0    0  0.12013949657E+00 -0.26766857623E+02 -0.32668275444E+01  0.26965742391E+02  0.00000000000E+00 0.  1.
</event>
<event>
 7    1  0.1351543E-013  0.7246173E+02  0.7816164E-02  0.1226708E+00
        -11   -1    0    0    0    0  0.00000000000E+00  0.00000000000E+00  0.45593999997E+02  0.45594000000E+02  0.51100000000E-03 0.  1.
         11   -1    0    0    0    0 -0.00000000000E+00 -0.00000000000E+00 -0.45593999997E+02  0.45594000000E+02  0.51100000000E-03 0. -1.
    9900012    2    1    2    0    0 -0.82942523694E+01  0.13080038357E+02  0.10525744147E+02  0.72461726595E+02  0.70000203610E+02 0.  0.
         12    1    1    2    0    0  0.82942523694E+01 -0.13080038357E+02 -0.10525744147E+02  0.18726273405E+02  0.00000000000E+00 0. -1.
         11    1    3    3    0    0 -0.23445044589E+02 -0.93395900337E+01  0.13522143198E+01  0.25273039817E+02  0.51100000000E-03 0. -1.
        -11    1    3    3    0    0  0.19145632910E+02  0.31604158531E+01  0.17213921258E+02  0.25939594701E+02  0.51100000000E-03 0.  1.
        -12    1    3    3    0    0 -0.39948406908E+01  0.19259212538E+02 -0.80403914306E+01  0.21249092077E+02  0.00000000000E+00 0.  1.
</event>
<event>
 7    1  0.1351543E-013  0.7246160E+02  0.7816164E-02  0.1226708E+00
        -11   -1    0    0    0    0  0.00000000000E+00  0.00000000000E+00  0.45593999997E+02  0.45594000000E+02  0.51100000000E-03 0.  1.
         11   -1    0    0    0    0 -0.00000000000E+00 -0.00000000000E+00 -0.45593999997E+02  0.45594000000E+02  0.51100000000E-03 0. -1.
    9900012    2    1    2    0    0 -0.15595920342E+02 -0.63028425475E+01  0.82291970758E+01  0.72461595112E+02  0.70000032330E+02 0.  0.
         12    1    1    2    0    0  0.15595920342E+02  0.63028425475E+01 -0.82291970758E+01  0.18726404888E+02  0.00000000000E+00 0. -1.
         11    1    3    3    0    0  0.17267236451E+02  0.15846666205E+02 -0.48819483427E+01  0.23939668008E+02  0.51100000000E-03 0. -1.
        -11    1    3    3    0    0 -0.19584837844E+02 -0.12460686666E+01  0.13387893207E+02  0.23756141212E+02  0.51100000000E-03 0.  1.
         12    1    3    3    0    0 -0.13278318949E+02 -0.20903440086E+02 -0.27674778865E+00  0.24765785892E+02  0.00000000000E+00 0. -1.
</event>
<event>
 7    1  0.1351543E-013  0.7246156E+02  0.7816164E-02  0.1226708E+00
        -11   -1    0    0    0    0  0.00000000000E+00  0.00000000000E+00  0.45593999997E+02  0.45594000000E+02  0.51100000000E-03 0.  1.
         11   -1    0    0    0    0 -0.00000000000E+00 -0.00000000000E+00 -0.45593999997E+02  0.45594000000E+02  0.51100000000E-03 0. -1.
    9900012    2    1    2    0    0  0.14969360898E+02 -0.86364238198E+01  0.72117834335E+01  0.72461564077E+02  0.69999991900E+02 0.  0.
         12    1    1    2    0    0 -0.14969360898E+02  0.86364238198E+01 -0.72117834335E+01  0.18726435923E+02  0.00000000000E+00 0. -1.
         11    1    3    3    0    0  0.12073226625E+02  0.16694333421E+02 -0.56765938187E+01  0.21370243030E+02  0.51100000000E-03 0. -1.
        -11    1    3    3    0    0 -0.19649329146E+02 -0.92275403390E+01  0.48560185838E+01  0.22244652242E+02  0.51100000000E-03 0.  1.
         12    1    3    3    0    0  0.22545463419E+02 -0.16103216902E+02  0.80323586685E+01  0.28846668805E+02  0.00000000000E+00 0. -1.
</event>
<event>
 7    1  0.1351543E-013  0.7246152E+02  0.7816164E-02  0.1226708E+00
        -11   -1    0    0    0    0  0.00000000000E+00  0.00000000000E+00  0.45593999997E+02  0.45594000000E+02  0.51100000000E-03 0.  1.
         11   -1    0    0    0    0 -0.00000000000E+00 -0.00000000000E+00 -0.45593999997E+02  0.45594000000E+02  0.51100000000E-03 0. -1.
    9900012    2    1    2    0    0 -0.60014665925E+01 -0.75577739250E-01  0.17738596656E+02  0.72461518093E+02  0.69999931999E+02 0.  0.
         12    1    1    2    0    0  0.60014665925E+01  0.75577739250E-01 -0.17738596656E+02  0.18726481907E+02  0.00000000000E+00 0. -1.
         11    1    3    3    0    0  0.20427783039E+01  0.21812464339E+02 -0.47422792793E+01  0.22415301844E+02  0.51100000000E-03 0. -1.
        -11    1    3    3    0    0 -0.23478781024E+02 -0.13274844889E+02  0.14902203532E+02  0.30814774631E+02  0.51100000000E-03 0.  1.
        -12    1    3    3    0    0  0.15434536128E+02 -0.86131971893E+01  0.75786724035E+01  0.19231441618E+02  0.00000000000E+00 0.  1.
</event>
<event>
 7    1  0.1351543E-013  0.7246166E+02  0.7816164E-02  0.1226708E+00
        -11   -1    0    0    0    0  0.00000000000E+00  0.00000000000E+00  0.45593999997E+02  0.45594000000E+02  0.51100000000E-03 0. -1.
         11   -1    0    0    0    0 -0.00000000000E+00 -0.00000000000E+00 -0.45593999997E+02  0.45594000000E+02  0.51100000000E-03 0.  1.
    9900012    2    1    2    0    0  0.17212416908E+02  0.34904360199E+01 -0.64981176773E+01  0.72461655648E+02  0.70000111189E+02 0.  0.
         12    1    1    2    0    0 -0.17212416908E+02 -0.34904360199E+01  0.64981176773E+01  0.18726344352E+02  0.00000000000E+00 0. -1.
         11    1    3    3    0    0  0.13237290759E+02 -0.22363818184E+01  0.29236052928E+02  0.32171012749E+02  0.51100000000E-03 0. -1.
        -11    1    3    3    0    0 -0.29878272691E+01  0.95777598722E+01 -0.14660890562E+02  0.17765199360E+02  0.51100000000E-03 0.  1.
         12    1    3    3    0    0  0.69629534189E+01 -0.38509420339E+01 -0.21073280043E+02  0.22525443539E+02  0.00000000000E+00 0. -1.
</event>
<event>
 7    1  0.1351543E-013  0.7246157E+02  0.7816164E-02  0.1226708E+00
        -11   -1    0    0    0    0  0.00000000000E+00  0.00000000000E+00  0.45593999997E+02  0.45594000000E+02  0.51100000000E-03 0.  1.
         11   -1    0    0    0    0 -0.00000000000E+00 -0.00000000000E+00 -0.45593999997E+02  0.45594000000E+02  0.51100000000E-03 0. -1.
    9900012    2    1    2    0    0  0.47560910717E+01  0.16062796829E+02  0.83692997762E+01  0.72461574206E+02  0.70000005096E+02 0.  0.
         12    1    1    2    0    0 -0.47560910717E+01 -0.16062796829E+02 -0.83692997762E+01  0.18726425794E+02  0.00000000000E+00 0. -1.
         11    1    3    3    0    0  0.10933540970E+02  0.30380276954E+02 -0.67685102766E+01  0.32989638943E+02  0.51100000000E-03 0. -1.
        -11    1    3    3    0    0  0.28403451245E+01 -0.17342292963E+02  0.21694776189E+02  0.27919276492E+02  0.51100000000E-03 0.  1.
        -12    1    3    3    0    0 -0.90177950229E+01  0.30248128386E+01 -0.65569661365E+01  0.11552658772E+02  0.00000000000E+00 0.  1.
</event>
<event>
 7    1  0.1351543E-013  0.7246158E+02  0.7816164E-02  0.1226708E+00
        -11   -1    0    0    0    0  0.00000000000E+00  0.00000000000E+00  0.45593999997E+02  0.45594000000E+02  0.51100000000E-03 0. -1.
         11   -1    0    0    0    0 -0.00000000000E+00 -0.00000000000E+00 -0.45593999997E+02  0.45594000000E+02  0.51100000000E-03 0.  1.
    9900012    2    1    2    0    0 -0.56004675627E+01  0.11185994257E+02 -0.13935108373E+02  0.72461576161E+02  0.70000007642E+02 0.  0.
         12    1    1    2    0    0  0.56004675627E+01 -0.11185994257E+02  0.13935108373E+02  0.18726423839E+02  0.00000000000E+00 0. -1.
         11    1    3    3    0    0  0.17837682028E+02  0.19168307817E+02 -0.16541947900E+02  0.30971647765E+02  0.51100000000E-03 0. -1.
        -11    1    3    3    0    0 -0.28973284276E+02 -0.92440183062E+01 -0.61750709903E+01  0.31032798427E+02  0.51100000000E-03 0.  1.
         12    1    3    3    0    0  0.55351346861E+01  0.12617047466E+01  0.87819105169E+01  0.10457129969E+02  0.00000000000E+00 0. -1.
</event>
<event>
 7    1  0.1351543E-013  0.7246169E+02  0.7816164E-02  0.1226708E+00
        -11   -1    0    0    0    0  0.00000000000E+00  0.00000000000E+00  0.45593999997E+02  0.45594000000E+02  0.51100000000E-03 0.  1.
         11   -1    0    0    0    0 -0.00000000000E+00 -0.00000000000E+00 -0.45593999997E+02  0.45594000000E+02  0.51100000000E-03 0. -1.
    9900012    2    1    2    0    0  0.80406960176E+01  0.15342381232E+02  0.71157112664E+01  0.72461686931E+02  0.70000151941E+02 0.  0.
         12    1    1    2    0    0 -0.80406960176E+01 -0.15342381232E+02 -0.71157112664E+01  0.18726313069E+02  0.00000000000E+00 0. -1.
         11    1    3    3    0    0 -0.35602998511E+01 -0.36219551102E+01 -0.93933263788E+01  0.10678430342E+02  0.51100000000E-03 0. -1.
        -11    1    3    3    0    0  0.16319114877E+02  0.22396681012E+02  0.33699265015E+02  0.43629866990E+02  0.51100000000E-03 0.  1.
        -12    1    3    3    0    0 -0.47181190088E+01 -0.34323446698E+01 -0.17190227370E+02  0.18153389599E+02  0.00000000000E+00 0.  1.
</event>
<event>
 7    1  0.1351543E-013  0.7246157E+02  0.7816164E-02  0.1226708E+00
        -11   -1    0    0    0    0  0.00000000000E+00  0.00000000000E+00  0.45593999997E+02  0.45594000000E+02  0.51100000000E-03 0.  1.
         11   -1    0    0    0    0 -0.00000000000E+00 -0.00000000000E+00 -0.45593999997E+02  0.45594000000E+02  0.51100000000E-03 0. -1.
    9900012    2    1    2    0    0 -0.17529931922E+02 -0.65085865332E+01  0.10093919564E+01  0.72461572579E+02  0.70000002976E+02 0.  0.
         12    1    1    2    0    0  0.17529931922E+02  0.65085865332E+01 -0.10093919564E+01  0.18726427421E+02  0.00000000000E+00 0. -1.
         11    1    3    3    0    0  0.19564709933E+02 -0.72270930915E+01 -0.11577483555E+02  0.23854703416E+02  0.51100000000E-03 0. -1.
        -11    1    3    3    0    0 -0.35525226197E+02 -0.88462773637E+01  0.13144187119E+02  0.38898174441E+02  0.51100000000E-03 0.  1.
         12    1    3    3    0    0 -0.15694156572E+01  0.95647839221E+01 -0.55731160752E+00  0.97086947222E+01  0.00000000000E+00 0. -1.
</event>
<event>
 7    1  0.1351543E-013  0.7246153E+02  0.7816164E-02  0.1226708E+00
        -11   -1    0    0    0    0  0.00000000000E+00  0.00000000000E+00  0.45593999997E+02  0.45594000000E+02  0.51100000000E-03 0. -1.
         11   -1    0    0    0    0 -0.00000000000E+00 -0.00000000000E+00 -0.45593999997E+02  0.45594000000E+02  0.51100000000E-03 0.  1.
    9900012    2    1    2    0    0  0.11625636915E+02  0.62766976368E+01 -0.13271335467E+02  0.72461529110E+02  0.69999946350E+02 0.  0.
         12    1    1    2    0    0 -0.11625636915E+02 -0.62766976368E+01  0.13271335467E+02  0.18726470890E+02  0.00000000000E+00 0. -1.
         11    1    3    3    0    0  0.37075521105E+02  0.15675241881E+02 -0.34901454011E+01  0.40404066483E+02  0.51100000000E-03 0. -1.
        -11    1    3    3    0    0 -0.33640569809E+00 -0.82056464132E+00 -0.50174637055E+01  0.50952367385E+01  0.51100000000E-03 0.  1.
         12    1    3    3    0    0 -0.25113478492E+02 -0.85779796026E+01 -0.47637263606E+01  0.26962225888E+02  0.00000000000E+00 0. -1.
</event>
<event>
 7    1  0.1351543E-013  0.7246155E+02  0.7816164E-02  0.1226708E+00
        -11   -1    0    0    0    0  0.00000000000E+00  0.00000000000E+00  0.45593999997E+02  0.45594000000E+02  0.51100000000E-03 0.  1.
         11   -1    0    0    0    0 -0.00000000000E+00 -0.00000000000E+00 -0.45593999997E+02  0.45594000000E+02  0.51100000000E-03 0. -1.
    9900012    2    1    2    0    0  0.15692711227E+02 -0.90434382329E+01  0.47576335596E+01  0.72461547111E+02  0.69999969799E+02 0.  0.
         12    1    1    2    0    0 -0.15692711227E+02  0.90434382329E+01 -0.47576335596E+01  0.18726452889E+02  0.00000000000E+00 0. -1.
         11    1    3    3    0    0  0.23669364411E+02 -0.24320100111E+02 -0.14194976892E+02  0.36785913747E+02  0.51100000000E-03 0. -1.
        -11    1    3    3    0    0 -0.67446075819E+01 -0.16079950880E+01  0.17333496852E+02  0.18668837484E+02  0.51100000000E-03 0.  1.
         12    1    3    3    0    0 -0.12320456021E+01  0.16884656966E+02  0.16191135992E+01  0.17006795879E+02  0.00000000000E+00 0. -1.
</event>
<event>
 7    1  0.1351543E-013  0.7246229E+02  0.7816164E-02  0.1226706E+00
        -11   -1    0    0    0    0  0.00000000000E+00  0.00000000000E+00  0.45593999997E+02  0.45594000000E+02  0.51100000000E-03 0.  1.
         11   -1    0    0    0    0 -0.00000000000E+00 -0.00000000000E+00 -0.45593999997E+02  0.45594000000E+02  0.51100000000E-03 0. -1.
    9900012    2    1    2    0    0 -0.12187906564E+02 -0.13593816943E+02  0.41611473931E+01  0.72462293789E+02  0.70000942479E+02 0.  0.
         12    1    1    2    0    0  0.12187906564E+02  0.13593816943E+02 -0.41611473931E+01  0.18725706211E+02  0.00000000000E+00 0. -1.
         11    1    3    3    0    0  0.58598966086E+01  0.75301200552E+00  0.24522095473E+01  0.63967763185E+01  0.51100000000E-03 0. -1.
        -11    1    3    3    0    0 -0.37622311663E+02 -0.11316891682E+02  0.15172365305E+02  0.42115448964E+02  0.51100000000E-03 0.  1.
        -12    1    3    3    0    0  0.19574508491E+02 -0.30299372666E+01 -0.13463427459E+02  0.23950068506E+02  0.00000000000E+00 0.  1.
</event>
<event>
 7    1  0.1351543E-013  0.7246147E+02  0.7816164E-02  0.1226708E+00
        -11   -1    0    0    0    0  0.00000000000E+00  0.00000000000E+00  0.45593999997E+02  0.45594000000E+02  0.51100000000E-03 0. -1.
         11   -1    0    0    0    0 -0.00000000000E+00 -0.00000000000E+00 -0.45593999997E+02  0.45594000000E+02  0.51100000000E-03 0.  1.
    9900012    2    1    2    0    0 -0.13764526115E+02  0.10518661953E+02  0.71118673000E+01  0.72461465752E+02  0.69999863815E+02 0.  0.
         12    1    1    2    0    0  0.13764526115E+02 -0.10518661953E+02 -0.71118673000E+01  0.18726534248E+02  0.00000000000E+00 0. -1.
         11    1    3    3    0    0 -0.13650040958E+02 -0.39016489333E+01 -0.23147413249E+02  0.27154175055E+02  0.51100000000E-03 0.  1.
        -11    1    3    3    0    0  0.63360494795E+01  0.12328037928E+01  0.29935100210E+02  0.30623121217E+02  0.51100000000E-03 0. -1.
         12    1    3    3    0    0 -0.64505346361E+01  0.13187507093E+02  0.32418033877E+00  0.14684169480E+02  0.00000000000E+00 0. -1.
</event>
<event>
 7    1  0.1351543E-013  0.7246157E+02  0.7816164E-02  0.1226708E+00
        -11   -1    0    0    0    0  0.00000000000E+00  0.00000000000E+00  0.45593999997E+02  0.45594000000E+02  0.51100000000E-03 0. -1.
         11   -1    0    0    0    0 -0.00000000000E+00 -0.00000000000E+00 -0.45593999997E+02  0.45594000000E+02  0.51100000000E-03 0.  1.
    9900012    2    1    2    0    0 -0.16225359789E+02  0.85898943457E+01  0.36919552412E+01  0.72461571653E+02  0.70000001769E+02 0.  0.
         12    1    1    2    0    0  0.16225359789E+02 -0.85898943457E+01 -0.36919552412E+01  0.18726428347E+02  0.00000000000E+00 0. -1.
         11    1    3    3    0    0  0.92377094452E+00  0.10389916763E+02  0.70210230544E+01  0.12573722125E+02  0.51100000000E-03 0. -1.
        -11    1    3    3    0    0  0.95358136266E+01 -0.87081171076E+01 -0.22756287129E+02  0.26165084545E+02  0.51100000000E-03 0.  1.
        -12    1    3    3    0    0 -0.26684944360E+02  0.69080946907E+01  0.19427219316E+02  0.33722764983E+02  0.00000000000E+00 0.  1.
</event>
<event>
 7    1  0.1351543E-013  0.7246155E+02  0.7816164E-02  0.1226708E+00
        -11   -1    0    0    0    0  0.00000000000E+00  0.00000000000E+00  0.45593999997E+02  0.45594000000E+02  0.51100000000E-03 0.  1.
         11   -1    0    0    0    0 -0.00000000000E+00 -0.00000000000E+00 -0.45593999997E+02  0.45594000000E+02  0.51100000000E-03 0. -1.
    9900012    2    1    2    0    0 -0.18070719701E+02  0.49120907885E+01  0.14566145997E-01  0.72461554566E+02  0.69999979511E+02 0.  0.
         12    1    1    2    0    0  0.18070719701E+02 -0.49120907885E+01 -0.14566145997E-01  0.18726445434E+02  0.00000000000E+00 0. -1.
         11    1    3    3    0    0 -0.21673055496E+02  0.22451264990E+02  0.21266729759E+02  0.37763135848E+02  0.51100000000E-03 0. -1.
        -11    1    3    3    0    0 -0.37503674424E+01 -0.53763169024E+01  0.25025329066E+01  0.70166024967E+01  0.51100000000E-03 0.  1.
         12    1    3    3    0    0  0.73527032370E+01 -0.12162857299E+02 -0.23754696520E+02  0.27681816221E+02  0.00000000000E+00 0. -1.
</event>
<event>
 7    1  0.1351543E-013  0.7246156E+02  0.7816164E-02  0.1226708E+00
        -11   -1    0    0    0    0  0.00000000000E+00  0.00000000000E+00  0.45593999997E+02  0.45594000000E+02  0.51100000000E-03 0. -1.
         11   -1    0    0    0    0 -0.00000000000E+00 -0.00000000000E+00 -0.45593999997E+02  0.45594000000E+02  0.51100000000E-03 0.  1.
    9900012    2    1    2    0    0 -0.85528159945E+01  0.12137465628E+02 -0.11410989805E+02  0.72461563563E+02  0.69999991232E+02 0.  0.
         12    1    1    2    0    0  0.85528159945E+01 -0.12137465628E+02  0.11410989805E+02  0.18726436437E+02  0.00000000000E+00 0. -1.
         11    1    3    3    0    0 -0.88916061853E+01  0.24304782197E+02  0.14858167922E+02  0.29842055098E+02  0.51100000000E-03 0. -1.
        -11    1    3    3    0    0  0.67612073715E+01 -0.21161797766E+02 -0.20117192267E+02  0.29970602843E+02  0.51100000000E-03 0.  1.
         12    1    3    3    0    0 -0.64224171807E+01  0.89944811965E+01 -0.61519654595E+01  0.12648905623E+02  0.00000000000E+00 0. -1.
</event>
<event>
 7    1  0.1351543E-013  0.7246163E+02  0.7816164E-02  0.1226708E+00
        -11   -1    0    0    0    0  0.00000000000E+00  0.00000000000E+00  0.45593999997E+02  0.45594000000E+02  0.51100000000E-03 0. -1.
         11   -1    0    0    0    0 -0.00000000000E+00 -0.00000000000E+00 -0.45593999997E+02  0.45594000000E+02  0.51100000000E-03 0.  1.
    9900012    2    1    2    0    0  0.15939864498E+02  0.63497768786E+01 -0.75018552378E+01  0.72461634131E+02  0.70000083160E+02 0.  0.
         12    1    1    2    0    0 -0.15939864498E+02 -0.63497768786E+01  0.75018552378E+01  0.18726365869E+02  0.00000000000E+00 0. -1.
         11    1    3    3    0    0  0.21488852517E+01  0.59172527558E+00  0.64926120277E+01  0.68645362429E+01  0.51100000000E-03 0. -1.
        -11    1    3    3    0    0 -0.19935084010E+02  0.19050441978E+02 -0.89886101284E+01  0.29002103827E+02  0.51100000000E-03 0.  1.
        -12    1    3    3    0    0  0.33726063257E+02 -0.13292390375E+02 -0.50058571370E+01  0.36594994062E+02  0.00000000000E+00 0.  1.
</event>
<event>
 7    1  0.1351543E-013  0.7246160E+02  0.7816164E-02  0.1226708E+00
        -11   -1    0    0    0    0  0.00000000000E+00  0.00000000000E+00  0.45593999997E+02  0.45594000000E+02  0.51100000000E-03 0. -1.
         11   -1    0    0    0    0 -0.00000000000E+00 -0.00000000000E+00 -0.45593999997E+02  0.45594000000E+02  0.51100000000E-03 0.  1.
    9900012    2    1    2    0    0  0.18181416952E+02 -0.42905812108E+01 -0.13057071208E+01  0.72461604709E+02  0.70000044832E+02 0.  0.
         12    1    1    2    0    0 -0.18181416952E+02  0.42905812108E+01  0.13057071208E+01  0.18726395291E+02  0.00000000000E+00 0. -1.
         11    1    3    3    0    0  0.75603179453E+01  0.13151845479E+02  0.21318501051E+02  0.26165013553E+02  0.51100000000E-03 0. -1.
        -11    1    3    3    0    0  0.19407465766E+02 -0.86336810072E+01 -0.25836267868E+02  0.33447016501E+02  0.51100000000E-03 0.  1.
         12    1    3    3    0    0 -0.87863667594E+01 -0.88087456824E+01  0.32120596961E+01  0.12849574655E+02  0.00000000000E+00 0. -1.
</event>
<event>
 7    1  0.1351543E-013  0.7246158E+02  0.7816164E-02  0.1226708E+00
        -11   -1    0    0    0    0  0.00000000000E+00  0.00000000000E+00  0.45593999997E+02  0.45594000000E+02  0.51100000000E-03 0.  1.
         11   -1    0    0    0    0 -0.00000000000E+00 -0.00000000000E+00 -0.45593999997E+02  0.45594000000E+02  0.51100000000E-03 0. -1.
    9900012    2    1    2    0    0  0.14673606878E+02 -0.38327506930E+01  0.10985170452E+02  0.72461583190E+02  0.70000016798E+02 0.  0.
         12    1    1    2    0    0 -0.14673606878E+02  0.38327506930E+01 -0.10985170452E+02  0.18726416810E+02  0.00000000000E+00 0. -1.
         11    1    3    3    0    0  0.52434743931E+01  0.10182876089E+02  0.41168919713E+01  0.12171022509E+02  0.51100000000E-03 0. -1.
        -11    1    3    3    0    0  0.14321638919E+02 -0.26014748055E+02  0.24438278788E+02  0.38459146221E+02  0.51100000000E-03 0.  1.
        -12    1    3    3    0    0 -0.48915064334E+01  0.11999121274E+02 -0.17570000307E+02  0.21831414460E+02  0.00000000000E+00 0.  1.
</event>
<event>
 7    1  0.1351543E-013  0.7246156E+02  0.7816164E-02  0.1226708E+00
        -11   -1    0    0    0    0  0.00000000000E+00  0.00000000000E+00  0.45593999997E+02  0.45594000000E+02  0.51100000000E-03 0.  1.
         11   -1    0    0    0    0 -0.00000000000E+00 -0.00000000000E+00 -0.45593999997E+02  0.45594000000E+02  0.51100000000E-03 0. -1.
    9900012    2    1    2    0    0 -0.13387756379E+02 -0.12699372551E+02 -0.31895902698E+01  0.72461559597E+02  0.69999986065E+02 0.  0.
         12    1    1    2    0    0  0.13387756379E+02  0.12699372551E+02  0.31895902698E+01  0.18726440403E+02  0.00000000000E+00 0. -1.
         11    1    3    3    0    0  0.18226812179E+02 -0.32506419294E+01  0.13526840668E+02  0.22929430300E+02  0.51100000000E-03 0.  1.
        -11    1    3    3    0    0 -0.24391297996E+02 -0.82311738244E+01 -0.26739758781E+02  0.37117412900E+02  0.51100000000E-03 0. -1.
         12    1    3    3    0    0 -0.72232705620E+01 -0.12175567977E+01  0.10023327843E+02  0.12414716397E+02  0.00000000000E+00 0. -1.
</event>
<event>
 7    1  0.1351543E-013  0.7246153E+02  0.7816164E-02  0.1226708E+00
        -11   -1    0    0    0    0  0.00000000000E+00  0.00000000000E+00  0.45593999997E+02  0.45594000000E+02  0.51100000000E-03 0. -1.
         11   -1    0    0    0    0 -0.00000000000E+00 -0.00000000000E+00 -0.45593999997E+02  0.45594000000E+02  0.51100000000E-03 0.  1.
    9900012    2    1    2    0    0 -0.56214809541E+01 -0.39085367836E+01 -0.17429945345E+02  0.72461529360E+02  0.69999946675E+02 0.  0.
         12    1    1    2    0    0  0.56214809541E+01  0.39085367836E+01  0.17429945345E+02  0.18726470640E+02  0.00000000000E+00 0. -1.
         11    1    3    3    0    0  0.28706775338E+00 -0.34635778969E+01 -0.83867162284E+01  0.90783142212E+01  0.51100000000E-03 0. -1.
        -11    1    3    3    0    0  0.61841399624E+01 -0.30546794112E+01  0.25644285950E+02  0.26555678404E+02  0.51100000000E-03 0.  1.
        -12    1    3    3    0    0 -0.12092688670E+02  0.26097205245E+01 -0.34687515066E+02  0.36827536735E+02  0.00000000000E+00 0.  1.
</event>
<event>
 7    1  0.1351543E-013  0.7246157E+02  0.7816164E-02  0.1226708E+00
        -11   -1    0    0    0    0  0.00000000000E+00  0.00000000000E+00  0.45593999997E+02  0.45594000000E+02  0.51100000000E-03 0. -1.
         11   -1    0    0    0    0 -0.00000000000E+00 -0.00000000000E+00 -0.45593999997E+02  0.45594000000E+02  0.51100000000E-03 0.  1.
    9900012    2    1    2    0    0 -0.19987718303E+01  0.14842749652E+02 -0.11241748475E+02  0.72461569084E+02  0.69999998424E+02 0.  0.
         12    1    1    2    0    0  0.19987718303E+01 -0.14842749652E+02  0.11241748475E+02  0.18726430916E+02  0.00000000000E+00 0. -1.
         11    1    3    3    0    0 -0.16550890727E+02  0.54061259061E+01  0.38095661795E+01  0.17823326735E+02  0.51100000000E-03 0. -1.
        -11    1    3    3    0    0  0.25968050202E+02 -0.48979255800E+01 -0.22645984498E+02  0.34801866623E+02  0.51100000000E-03 0.  1.
        -12    1    3    3    0    0 -0.11415931306E+02  0.14334549326E+02  0.75946698433E+01  0.19836375727E+02  0.00000000000E+00 0.  1.
</event>
<event>
 7    1  0.1351543E-013  0.7246163E+02  0.7816164E-02  0.1226708E+00
        -11   -1    0    0    0    0  0.00000000000E+00  0.00000000000E+00  0.45593999997E+02  0.45594000000E+02  0.51100000000E-03 0.  1.
         11   -1    0    0    0    0 -0.00000000000E+00 -0.00000000000E+00 -0.45593999997E+02  0.45594000000E+02  0.51100000000E-03 0. -1.
    9900012    2    1    2    0    0  0.18251916778E+02 -0.41268403230E+01 -0.71666089859E+00  0.72461631426E+02  0.70000079635E+02 0.  0.
         12    1    1    2    0    0 -0.18251916778E+02  0.41268403230E+01  0.71666089859E+00  0.18726368574E+02  0.00000000000E+00 0. -1.
         11    1    3    3    0    0  0.89516313047E+01  0.59608020566E+01  0.20745931619E+02  0.23367852772E+02  0.51100000000E-03 0.  1.
        -11    1    3    3    0    0  0.13151664260E+02  0.37342171849E+00 -0.31472300078E+02  0.34111748549E+02  0.51100000000E-03 0. -1.
         12    1    3    3    0    0 -0.38513787866E+01 -0.10461064098E+02  0.10009707560E+02  0.14982030105E+02  0.00000000000E+00 0. -1.
</event>
<event>
 7    1  0.1351543E-013  0.7246171E+02  0.7816164E-02  0.1226708E+00
        -11   -1    0    0    0    0  0.00000000000E+00  0.00000000000E+00  0.45593999997E+02  0.45594000000E+02  0.51100000000E-03 0.  1.
         11   -1    0    0    0    0 -0.00000000000E+00 -0.00000000000E+00 -0.45593999997E+02  0.45594000000E+02  0.51100000000E-03 0. -1.
    9900012    2    1    2    0    0 -0.13423505202E+02 -0.12049486772E+02 -0.50292413448E+01  0.72461711209E+02  0.70000183567E+02 0.  0.
         12    1    1    2    0    0  0.13423505202E+02  0.12049486772E+02  0.50292413448E+01  0.18726288791E+02  0.00000000000E+00 0. -1.
         11    1    3    3    0    0 -0.29605767985E+02 -0.16579809160E+02 -0.81400638450E+01  0.34894873684E+02  0.51100000000E-03 0. -1.
        -11    1    3    3    0    0  0.82656102422E+01 -0.12721415982E+02  0.90657238606E+01  0.17673202501E+02  0.51100000000E-03 0.  1.
         12    1    3    3    0    0  0.79166525407E+01  0.17251738370E+02 -0.59549013604E+01  0.19893635024E+02  0.00000000000E+00 0. -1.
</event>
<event>
 7    1  0.1380711E-013  0.7246158E+02  0.7816164E-02  0.1226708E+00
        -11   -1    0    0    0    0  0.00000000000E+00  0.00000000000E+00  0.45593999997E+02  0.45594000000E+02  0.51100000000E-03 0. -1.
         11   -1    0    0    0    0 -0.00000000000E+00 -0.00000000000E+00 -0.45593999997E+02  0.45594000000E+02  0.51100000000E-03 0.  1.
    9900012    2    1    2    0    0 -0.12553003479E+02 -0.64932590660E+01 -0.12285710174E+02  0.72461575245E+02  0.70000006449E+02 0.  0.
         12    1    1    2    0    0  0.12553003479E+02  0.64932590660E+01  0.12285710174E+02  0.18726424755E+02  0.00000000000E+00 0. -1.
         11    1    3    3    0    0  0.25015828911E+00  0.22444182851E+02  0.21154817029E+01  0.22545047929E+02  0.51100000000E-03 0. -1.
        -11    1    3    3    0    0 -0.21373306918E+02 -0.19058022340E+02 -0.20764369440E+02  0.35372100624E+02  0.51100000000E-03 0.  1.
         12    1    3    3    0    0  0.85701451502E+01 -0.98794195776E+01  0.63631775626E+01  0.14544426691E+02  0.00000000000E+00 0. -1.
</event>
<event>
 7    1  0.1351543E-013  0.7246159E+02  0.7816164E-02  0.1226708E+00
        -11   -1    0    0    0    0  0.00000000000E+00  0.00000000000E+00  0.45593999997E+02  0.45594000000E+02  0.51100000000E-03 0.  1.
         11   -1    0    0    0    0 -0.00000000000E+00 -0.00000000000E+00 -0.45593999997E+02  0.45594000000E+02  0.51100000000E-03 0. -1.
    9900012    2    1    2    0    0 -0.12716032391E+02  0.16065206063E+01  0.13652844909E+02  0.72461586507E+02  0.70000021119E+02 0.  0.
         12    1    1    2    0    0  0.12716032391E+02 -0.16065206063E+01 -0.13652844909E+02  0.18726413493E+02  0.00000000000E+00 0. -1.
         11    1    3    3    0    0 -0.82078680630E+01  0.29387935095E+02  0.67867995148E+01  0.31258286504E+02  0.51100000000E-03 0. -1.
        -11    1    3    3    0    0  0.71057620104E+01 -0.26665511459E+02  0.96030231233E+01  0.29219161666E+02  0.51100000000E-03 0.  1.
         12    1    3    3    0    0 -0.11613926338E+02 -0.11159030297E+01 -0.27369777292E+01  0.11984138336E+02  0.00000000000E+00 0. -1.
</event>
<event>
 7    1  0.1351543E-013  0.7246160E+02  0.7816164E-02  0.1226708E+00
        -11   -1    0    0    0    0  0.00000000000E+00  0.00000000000E+00  0.45593999997E+02  0.45594000000E+02  0.51100000000E-03 0. -1.
         11   -1    0    0    0    0 -0.00000000000E+00 -0.00000000000E+00 -0.45593999997E+02  0.45594000000E+02  0.51100000000E-03 0.  1.
    9900012    2    1    2    0    0  0.39659603753E+01  0.11109757350E+02 -0.14543816160E+02  0.72461597821E+02  0.70000035859E+02 0.  0.
         12    1    1    2    0    0 -0.39659603753E+01 -0.11109757350E+02  0.14543816160E+02  0.18726402179E+02  0.00000000000E+00 0. -1.
         11    1    3    3    0    0  0.41186764518E+01 -0.69532046564E+01  0.21242907939E+02  0.22728213495E+02  0.51100000000E-03 0. -1.
        -11    1    3    3    0    0 -0.10351780159E+02  0.60707824981E+01 -0.16137544158E+01  0.12108590181E+02  0.51100000000E-03 0.  1.
         12    1    3    3    0    0  0.10199064082E+02  0.11992179508E+02 -0.34172969683E+02  0.37624794145E+02  0.00000000000E+00 0. -1.
</event>
<event>
 7    1  0.1351543E-013  0.7246161E+02  0.7816164E-02  0.1226708E+00
        -11   -1    0    0    0    0  0.00000000000E+00  0.00000000000E+00  0.45593999997E+02  0.45594000000E+02  0.51100000000E-03 0.  1.
         11   -1    0    0    0    0 -0.00000000000E+00 -0.00000000000E+00 -0.45593999997E+02  0.45594000000E+02  0.51100000000E-03 0. -1.
    9900012    2    1    2    0    0 -0.12923917568E+02  0.12499287164E+02  0.52362233657E+01  0.72461605258E+02  0.70000045547E+02 0.  0.
         12    1    1    2    0    0  0.12923917568E+02 -0.12499287164E+02 -0.52362233657E+01  0.18726394742E+02  0.00000000000E+00 0. -1.
         11    1    3    3    0    0  0.18093043647E+02  0.12223844519E+02 -0.11970250578E+01  0.21868092566E+02  0.51100000000E-03 0. -1.
        -11    1    3    3    0    0 -0.37605052283E+02  0.89382253748E+01  0.16015710016E+01  0.38685874166E+02  0.51100000000E-03 0.  1.
        -12    1    3    3    0    0  0.65880910691E+01 -0.86627827293E+01  0.48316774218E+01  0.11907638526E+02  0.00000000000E+00 0.  1.
</event>
<event>
 7    1  0.1351543E-013  0.7246159E+02  0.7816164E-02  0.1226708E+00
        -11   -1    0    0    0    0  0.00000000000E+00  0.00000000000E+00  0.45593999997E+02  0.45594000000E+02  0.51100000000E-03 0. -1.
         11   -1    0    0    0    0 -0.00000000000E+00 -0.00000000000E+00 -0.45593999997E+02  0.45594000000E+02  0.51100000000E-03 0.  1.
    9900012    2    1    2    0    0 -0.30602499784E+01  0.30639276357E+01 -0.18218830068E+02  0.72461586795E+02  0.70000021495E+02 0.  0.
         12    1    1    2    0    0  0.30602499784E+01 -0.30639276357E+01  0.18218830068E+02  0.18726413205E+02  0.00000000000E+00 0. -1.
         11    1    3    3    0    0  0.60693801962E+01  0.13315905376E+01  0.25345711166E+02  0.26096275292E+02  0.51100000000E-03 0. -1.
        -11    1    3    3    0    0  0.25110351654E+01  0.27809716537E+00 -0.21375186021E+01  0.33093234461E+01  0.51100000000E-03 0.  1.
         12    1    3    3    0    0 -0.11640665340E+02  0.14542399327E+01 -0.41427022632E+02  0.43055988057E+02  0.00000000000E+00 0. -1.
</event>
<event>
 7    1  0.1351543E-013  0.7246154E+02  0.7816164E-02  0.1226708E+00
        -11   -1    0    0    0    0  0.00000000000E+00  0.00000000000E+00  0.45593999997E+02  0.45594000000E+02  0.51100000000E-03 0.  1.
         11   -1    0    0    0    0 -0.00000000000E+00 -0.00000000000E+00 -0.45593999997E+02  0.45594000000E+02  0.51100000000E-03 0. -1.
    9900012    2    1    2    0    0 -0.14272466378E+02  0.30731055088E+01  0.11727449896E+02  0.72461538641E+02  0.69999958766E+02 0.  0.
         12    1    1    2    0    0  0.14272466378E+02 -0.30731055088E+01 -0.11727449896E+02  0.18726461359E+02  0.00000000000E+00 0. -1.
         11    1    3    3    0    0  0.64719424579E+01  0.11755145349E+02 -0.18707285680E+02  0.23022424267E+02  0.51100000000E-03 0. -1.
        -11    1    3    3    0    0 -0.75731163547E+01 -0.89009088980E+01  0.33866592532E+02  0.35826308218E+02  0.51100000000E-03 0.  1.
         12    1    3    3    0    0 -0.13171292481E+02  0.21886905785E+00 -0.34318569562E+01  0.13612806156E+02  0.00000000000E+00 0. -1.
</event>
<event>
 7    1  0.1351543E-013  0.7246156E+02  0.7816164E-02  0.1226708E+00
        -11   -1    0    0    0    0  0.00000000000E+00  0.00000000000E+00  0.45593999997E+02  0.45594000000E+02  0.51100000000E-03 0.  1.
         11   -1    0    0    0    0 -0.00000000000E+00 -0.00000000000E+00 -0.45593999997E+02  0.45594000000E+02  0.51100000000E-03 0. -1.
    9900012    2    1    2    0    0 -0.88356247323E+01  0.12468242423E+02  0.10823780715E+02  0.72461559802E+02  0.69999986332E+02 0.  0.
         12    1    1    2    0    0  0.88356247323E+01 -0.12468242423E+02 -0.10823780715E+02  0.18726440198E+02  0.00000000000E+00 0. -1.
         11    1    3    3    0    0  0.10716575315E+02  0.16943589988E+02  0.14506998260E+02  0.24746378057E+02  0.51100000000E-03 0. -1.
        -11    1    3    3    0    0  0.53030010133E+01 -0.16368439604E+02  0.64235888380E+01  0.18366004699E+02  0.51100000000E-03 0.  1.
         12    1    3    3    0    0 -0.24855201060E+02  0.11893092039E+02 -0.10106806383E+02  0.29349177046E+02  0.00000000000E+00 0. -1.
</event>
<event>
 7    1  0.1351543E-013  0.7246160E+02  0.7816164E-02  0.1226708E+00
        -11   -1    0    0    0    0  0.00000000000E+00  0.00000000000E+00  0.45593999997E+02  0.45594000000E+02  0.51100000000E-03 0.  1.
         11   -1    0    0    0    0 -0.00000000000E+00 -0.00000000000E+00 -0.45593999997E+02  0.45594000000E+02  0.51100000000E-03 0. -1.
    9900012    2    1    2    0    0 -0.99091546025E+01  0.56063309150E+01  0.14867945473E+02  0.72461599015E+02  0.70000037414E+02 0.  0.
         12    1    1    2    0    0  0.99091546025E+01 -0.56063309150E+01 -0.14867945473E+02  0.18726400985E+02  0.00000000000E+00 0. -1.
         11    1    3    3    0    0  0.79968352688E+01 -0.11500088277E+02 -0.11883860000E+01  0.14057512804E+02  0.51100000000E-03 0. -1.
        -11    1    3    3    0    0 -0.22964996472E+02  0.24979355897E+02  0.27460794074E+02  0.43651511949E+02  0.51100000000E-03 0.  1.
        -12    1    3    3    0    0  0.50590066010E+01 -0.78729367047E+01 -0.11404462600E+02  0.14752574262E+02  0.00000000000E+00 0.  1.
</event>
<event>
 7    1  0.1351543E-013  0.7246167E+02  0.7816164E-02  0.1226708E+00
        -11   -1    0    0    0    0  0.00000000000E+00  0.00000000000E+00  0.45593999997E+02  0.45594000000E+02  0.51100000000E-03 0. -1.
         11   -1    0    0    0    0 -0.00000000000E+00 -0.00000000000E+00 -0.45593999997E+02  0.45594000000E+02  0.51100000000E-03 0.  1.
    9900012    2    1    2    0    0  0.12770436779E+02  0.13372270097E+01 -0.13630959838E+02  0.72461673673E+02  0.70000134670E+02 0.  0.
         12    1    1    2    0    0 -0.12770436779E+02 -0.13372270097E+01  0.13630959838E+02  0.18726326327E+02  0.00000000000E+00 0. -1.
         11    1    3    3    0    0 -0.12514150982E+02  0.21535846520E+02  0.15034446756E+02  0.29093491534E+02  0.51100000000E-03 0. -1.
        -11    1    3    3    0    0  0.52881484792E+01 -0.60582811723E+01 -0.75808387881E+01  0.11051533925E+02  0.51100000000E-03 0.  1.
         12    1    3    3    0    0  0.19996439282E+02 -0.14140338338E+02 -0.21084567806E+02  0.32316648214E+02  0.00000000000E+00 0. -1.
</event>
<event>
 7    1  0.1351543E-013  0.7246167E+02  0.7816164E-02  0.1226708E+00
        -11   -1    0    0    0    0  0.00000000000E+00  0.00000000000E+00  0.45593999997E+02  0.45594000000E+02  0.51100000000E-03 0. -1.
         11   -1    0    0    0    0 -0.00000000000E+00 -0.00000000000E+00 -0.45593999997E+02  0.45594000000E+02  0.51100000000E-03 0.  1.
    9900012    2    1    2    0    0 -0.12012048425E+02 -0.11676056779E+01 -0.14318612717E+02  0.72461674132E+02  0.70000135268E+02 0.  0.
         12    1    1    2    0    0  0.12012048425E+02  0.11676056779E+01  0.14318612717E+02  0.18726325868E+02  0.00000000000E+00 0. -1.
         11    1    3    3    0    0  0.86900958489E+00 -0.87618103989E+01 -0.66803668689E+01  0.11052230584E+02  0.51100000000E-03 0. -1.
        -11    1    3    3    0    0 -0.30653674097E+02  0.35915992712E+01 -0.22256927951E+02  0.38051519852E+02  0.51100000000E-03 0.  1.
        -12    1    3    3    0    0  0.17772616087E+02  0.40026054499E+01  0.14618682103E+02  0.23357923696E+02  0.00000000000E+00 0.  1.
</event>
<event>
 7    1  0.1351543E-013  0.7246160E+02  0.7816164E-02  0.1226708E+00
        -11   -1    0    0    0    0  0.00000000000E+00  0.00000000000E+00  0.45593999997E+02  0.45594000000E+02  0.51100000000E-03 0.  1.
         11   -1    0    0    0    0 -0.00000000000E+00 -0.00000000000E+00 -0.45593999997E+02  0.45594000000E+02  0.51100000000E-03 0. -1.
    9900012    2    1    2    0    0 -0.10521961948E+02  0.94204076724E+01  0.12297253123E+02  0.72461596225E+02  0.70000033780E+02 0.  0.
         12    1    1    2    0    0  0.10521961948E+02 -0.94204076724E+01 -0.12297253123E+02  0.18726403775E+02  0.00000000000E+00 0. -1.
         11    1    3    3    0    0  0.16366971337E+02 -0.10835144330E+02  0.16058678407E+02  0.25360584691E+02  0.51100000000E-03 0. -1.
        -11    1    3    3    0    0 -0.10734564664E+00  0.17860626050E+02 -0.85294909705E+01  0.19793072082E+02  0.51100000000E-03 0.  1.
        -12    1    3    3    0    0 -0.26781587638E+02  0.23949259531E+01  0.47680656865E+01  0.27307939452E+02  0.00000000000E+00 0.  1.
</event>
<event>
 7    1  0.1351543E-013  0.7246160E+02  0.7816164E-02  0.1226708E+00
        -11   -1    0    0    0    0  0.00000000000E+00  0.00000000000E+00  0.45593999997E+02  0.45594000000E+02  0.51100000000E-03 0.  1.
         11   -1    0    0    0    0 -0.00000000000E+00 -0.00000000000E+00 -0.45593999997E+02  0.45594000000E+02  0.51100000000E-03 0. -1.
    9900012    2    1    2    0    0  0.10663641143E+02  0.44505089015E+01  0.14736270206E+02  0.72461603350E+02  0.70000043062E+02 0.  0.
         12    1    1    2    0    0 -0.10663641143E+02 -0.44505089015E+01 -0.14736270206E+02  0.18726396650E+02  0.00000000000E+00 0. -1.
         11    1    3    3    0    0  0.71882486579E+01  0.75221141307E+01 -0.19511847209E+02  0.22112559814E+02  0.51100000000E-03 0.  1.
        -11    1    3    3    0    0  0.35268252431E+01 -0.19455512819E+02  0.23692272064E+02  0.30859021876E+02  0.51100000000E-03 0. -1.
        -12    1    3    3    0    0 -0.51432757966E-01  0.16383907590E+02  0.10555845351E+02  0.19490021660E+02  0.00000000000E+00 0.  1.
</event>
<event>
 7    1  0.1351543E-013  0.7246189E+02  0.7816164E-02  0.1226707E+00
        -11   -1    0    0    0    0  0.00000000000E+00  0.00000000000E+00  0.45593999997E+02  0.45594000000E+02  0.51100000000E-03 0.  1.
         11   -1    0    0    0    0 -0.00000000000E+00 -0.00000000000E+00 -0.45593999997E+02  0.45594000000E+02  0.51100000000E-03 0. -1.
    9900012    2    1    2    0    0 -0.66776457614E+01  0.17124525280E+02  0.35814773133E+01  0.72461887250E+02  0.70000412893E+02 0.  0.
         12    1    1    2    0    0  0.66776457614E+01 -0.17124525280E+02 -0.35814773133E+01  0.18726112750E+02  0.00000000000E+00 0. -1.
         11    1    3    3    0    0  0.34619966599E+01  0.33483778976E+01  0.29130720608E+02  0.29526190727E+02  0.51100000000E-03 0.  1.
        -11    1    3    3    0    0  0.13527970587E+01  0.13480707968E+00 -0.25054885216E+02  0.25091741795E+02  0.51100000000E-03 0. -1.
        -12    1    3    3    0    0 -0.11492439480E+02  0.13641340303E+02 -0.49435807879E+00  0.17843954729E+02  0.00000000000E+00 0.  1.
</event>
<event>
 7    1  0.1351543E-013  0.7246147E+02  0.7816164E-02  0.1226708E+00
        -11   -1    0    0    0    0  0.00000000000E+00  0.00000000000E+00  0.45593999997E+02  0.45594000000E+02  0.51100000000E-03 0.  1.
         11   -1    0    0    0    0 -0.00000000000E+00 -0.00000000000E+00 -0.45593999997E+02  0.45594000000E+02  0.51100000000E-03 0. -1.
    9900012    2    1    2    0    0  0.16005389097E+02 -0.96756386191E+01 -0.94467338305E+00  0.72461471474E+02  0.69999871268E+02 0.  0.
         12    1    1    2    0    0 -0.16005389097E+02  0.96756386191E+01  0.94467338305E+00  0.18726528526E+02  0.00000000000E+00 0. -1.
         11    1    3    3    0    0 -0.55894509499E+01  0.20488849063E+01 -0.23018903485E+02  0.23776244640E+02  0.51100000000E-03 0. -1.
        -11    1    3    3    0    0  0.15523593178E+02  0.85529224096E+01  0.21016025317E+02  0.27491957866E+02  0.51100000000E-03 0.  1.
         12    1    3    3    0    0  0.60712468685E+01 -0.20277445935E+02  0.10582047845E+01  0.21193268968E+02  0.00000000000E+00 0. -1.
</event>
<event>
 7    1  0.1351543E-013  0.7246159E+02  0.7816164E-02  0.1226708E+00
        -11   -1    0    0    0    0  0.00000000000E+00  0.00000000000E+00  0.45593999997E+02  0.45594000000E+02  0.51100000000E-03 0. -1.
         11   -1    0    0    0    0 -0.00000000000E+00 -0.00000000000E+00 -0.45593999997E+02  0.45594000000E+02  0.51100000000E-03 0.  1.
    9900012    2    1    2    0    0  0.12377137298E+02 -0.95496597331E+01 -0.10309652703E+02  0.72461589037E+02  0.70000024415E+02 0.  0.
         12    1    1    2    0    0 -0.12377137298E+02  0.95496597331E+01  0.10309652703E+02  0.18726410963E+02  0.00000000000E+00 0. -1.
         11    1    3    3    0    0 -0.11252461334E+02 -0.54224756008E+01 -0.13853882396E+02  0.18653449692E+02  0.51100000000E-03 0. -1.
        -11    1    3    3    0    0  0.25004055412E+02 -0.23157739553E+02 -0.13605073752E+01  0.34107692224E+02  0.51100000000E-03 0.  1.
        -12    1    3    3    0    0 -0.13744567804E+01  0.19030555420E+02  0.49047370676E+01  0.19700447120E+02  0.00000000000E+00 0.  1.
</event>
<event>
 7    1  0.1351543E-013  0.7246158E+02  0.7816164E-02  0.1226708E+00
        -11   -1    0    0    0    0  0.00000000000E+00  0.00000000000E+00  0.45593999997E+02  0.45594000000E+02  0.51100000000E-03 0.  1.
         11   -1    0    0    0    0 -0.00000000000E+00 -0.00000000000E+00 -0.45593999997E+02  0.45594000000E+02  0.51100000000E-03 0. -1.
    9900012    2    1    2    0    0 -0.45364143735E+01 -0.63656851721E+01  0.17016985127E+02  0.72461580537E+02  0.70000013343E+02 0.  0.
         12    1    1    2    0    0  0.45364143735E+01  0.63656851721E+01 -0.17016985127E+02  0.18726419463E+02  0.00000000000E+00 0. -1.
         11    1    3    3    0    0 -0.11980438639E+01  0.63668685589E+01 -0.52399848263E+01  0.83324525553E+01  0.51100000000E-03 0. -1.
        -11    1    3    3    0    0 -0.12729274300E+02 -0.33768806494E+02  0.19235460563E+02  0.40894616511E+02  0.51100000000E-03 0.  1.
        -12    1    3    3    0    0  0.93909037901E+01  0.21036252763E+02  0.30215093909E+01  0.23234511471E+02  0.00000000000E+00 0.  1.
</event>
<event>
 7    1  0.1351543E-013  0.7246160E+02  0.7816164E-02  0.1226708E+00
        -11   -1    0    0    0    0  0.00000000000E+00  0.00000000000E+00  0.45593999997E+02  0.45594000000E+02  0.51100000000E-03 0. -1.
         11   -1    0    0    0    0 -0.00000000000E+00 -0.00000000000E+00 -0.45593999997E+02  0.45594000000E+02  0.51100000000E-03 0.  1.
    9900012    2    1    2    0    0 -0.11209054010E+02  0.23975527437E+01 -0.14808344884E+02  0.72461595402E+02  0.70000032707E+02 0.  0.
         12    1    1    2    0    0  0.11209054010E+02 -0.23975527437E+01  0.14808344884E+02  0.18726404598E+02  0.00000000000E+00 0. -1.
         11    1    3    3    0    0 -0.56582074126E+01  0.23407108938E+02 -0.96711045952E+01  0.25950690248E+02  0.51100000000E-03 0. -1.
        -11    1    3    3    0    0 -0.26342137361E+01 -0.26804509486E+02 -0.17799251084E+02  0.32283651439E+02  0.51100000000E-03 0.  1.
         12    1    3    3    0    0 -0.29166328612E+01  0.57949532917E+01  0.12662010795E+02  0.14227253715E+02  0.00000000000E+00 0. -1.
</event>
<event>
 7    1  0.1351543E-013  0.7246157E+02  0.7816164E-02  0.1226708E+00
        -11   -1    0    0    0    0  0.00000000000E+00  0.00000000000E+00  0.45593999997E+02  0.45594000000E+02  0.51100000000E-03 0.  1.
         11   -1    0    0    0    0 -0.00000000000E+00 -0.00000000000E+00 -0.45593999997E+02  0.45594000000E+02  0.51100000000E-03 0. -1.
    9900012    2    1    2    0    0  0.61947023453E+01 -0.16811278371E+02  0.54484654183E+01  0.72461569667E+02  0.69999999182E+02 0.  0.
         12    1    1    2    0    0 -0.61947023453E+01  0.16811278371E+02 -0.54484654183E+01  0.18726430333E+02  0.00000000000E+00 0. -1.
         11    1    3    3    0    0 -0.61030998319E+01 -0.24386771961E+02 -0.25348516087E+02  0.35700276502E+02  0.51100000000E-03 0. -1.
        -11    1    3    3    0    0  0.22312049072E+01  0.38328202814E+00  0.20613167056E+02  0.20737112548E+02  0.51100000000E-03 0.  1.
         12    1    3    3    0    0  0.10066597270E+02  0.71922115619E+01  0.10183814448E+02  0.16024180618E+02  0.00000000000E+00 0. -1.
</event>
<event>
 7    1  0.1351543E-013  0.7246155E+02  0.7816164E-02  0.1226708E+00
        -11   -1    0    0    0    0  0.00000000000E+00  0.00000000000E+00  0.45593999997E+02  0.45594000000E+02  0.51100000000E-03 0.  1.
         11   -1    0    0    0    0 -0.00000000000E+00 -0.00000000000E+00 -0.45593999997E+02  0.45594000000E+02  0.51100000000E-03 0. -1.
    9900012    2    1    2    0    0 -0.14957942430E+02 -0.78291417631E+00  0.11239531055E+02  0.72461546660E+02  0.69999969212E+02 0.  0.
         12    1    1    2    0    0  0.14957942430E+02  0.78291417631E+00 -0.11239531055E+02  0.18726453340E+02  0.00000000000E+00 0. -1.
         11    1    3    3    0    0  0.18260193088E+02 -0.65013590138E+01 -0.85754353460E+01  0.21195292219E+02  0.51100000000E-03 0. -1.
        -11    1    3    3    0    0 -0.93653186964E+01  0.43476063210E+01  0.24796453453E+02  0.26860286281E+02  0.51100000000E-03 0.  1.
         12    1    3    3    0    0 -0.23852816821E+02  0.13708385165E+01 -0.49814870517E+01  0.24405968159E+02  0.00000000000E+00 0. -1.
</event>
<event>
 7    1  0.1351543E-013  0.7246155E+02  0.7816164E-02  0.1226708E+00
        -11   -1    0    0    0    0  0.00000000000E+00  0.00000000000E+00  0.45593999997E+02  0.45594000000E+02  0.51100000000E-03 0. -1.
         11   -1    0    0    0    0 -0.00000000000E+00 -0.00000000000E+00 -0.45593999997E+02  0.45594000000E+02  0.51100000000E-03 0.  1.
    9900012    2    1    2    0    0  0.39641351800E+01 -0.14345624904E+02  0.11365242529E+02  0.72461546536E+02  0.69999969050E+02 0.  0.
         12    1    1    2    0    0 -0.39641351800E+01  0.14345624904E+02 -0.11365242529E+02  0.18726453464E+02  0.00000000000E+00 0. -1.
         11    1    3    3    0    0  0.11364772096E+02 -0.30284291492E+02 -0.11850767183E+02  0.34449049901E+02  0.51100000000E-03 0.  1.
        -11    1    3    3    0    0 -0.10390588389E+01  0.42476948607E+00  0.21079514399E+02  0.21109381800E+02  0.51100000000E-03 0. -1.
         12    1    3    3    0    0 -0.63615780775E+01  0.15513897102E+02  0.21364953125E+01  0.16903114836E+02  0.00000000000E+00 0. -1.
</event>
<event>
 7    1  0.1351543E-013  0.7246160E+02  0.7816164E-02  0.1226708E+00
        -11   -1    0    0    0    0  0.00000000000E+00  0.00000000000E+00  0.45593999997E+02  0.45594000000E+02  0.51100000000E-03 0.  1.
         11   -1    0    0    0    0 -0.00000000000E+00 -0.00000000000E+00 -0.45593999997E+02  0.45594000000E+02  0.51100000000E-03 0. -1.
    9900012    2    1    2    0    0 -0.62418846119E+01 -0.15310454267E+02  0.87924455655E+01  0.72461595316E+02  0.70000032596E+02 0.  0.
         12    1    1    2    0    0  0.62418846119E+01  0.15310454267E+02 -0.87924455655E+01  0.18726404684E+02  0.00000000000E+00 0. -1.
         11    1    3    3    0    0 -0.34577025324E+02 -0.24631009126E-01  0.69374423722E+01  0.35266122467E+02  0.51100000000E-03 0. -1.
        -11    1    3    3    0    0  0.15447567707E+02 -0.16207220912E+02 -0.44357795155E+01  0.22824931498E+02  0.51100000000E-03 0.  1.
        -12    1    3    3    0    0  0.12887573006E+02  0.92139765426E+00  0.62907827089E+01  0.14370541350E+02  0.00000000000E+00 0.  1.
</event>
<event>
 7    1  0.1351543E-013  0.7246158E+02  0.7816164E-02  0.1226708E+00
        -11   -1    0    0    0    0  0.00000000000E+00  0.00000000000E+00  0.45593999997E+02  0.45594000000E+02  0.51100000000E-03 0.  1.
         11   -1    0    0    0    0 -0.00000000000E+00 -0.00000000000E+00 -0.45593999997E+02  0.45594000000E+02  0.51100000000E-03 0. -1.
    9900012    2    1    2    0    0 -0.17363787093E+02  0.28123119818E+01  0.64240673945E+01  0.72461579018E+02  0.70000011364E+02 0.  0.
         12    1    1    2    0    0  0.17363787093E+02 -0.28123119818E+01 -0.64240673945E+01  0.18726420982E+02  0.00000000000E+00 0. -1.
         11    1    3    3    0    0 -0.16398982364E+02  0.22273767089E+02 -0.10917248129E+02  0.29736066146E+02  0.51100000000E-03 0. -1.
        -11    1    3    3    0    0  0.87467930663E+01 -0.14590071457E+02  0.24417943008E+02  0.29759242515E+02  0.51100000000E-03 0.  1.
         12    1    3    3    0    0 -0.97115977959E+01 -0.48713836498E+01 -0.70766274842E+01  0.12966270357E+02  0.00000000000E+00 0. -1.
</event>
<event>
 8    1  0.1351543E-013  0.7246164E+02  0.7816164E-02  0.1226708E+00
        -11   -1    0    0    0    0  0.00000000000E+00  0.00000000000E+00  0.45593999997E+02  0.45594000000E+02  0.51100000000E-03 0. -1.
         11   -1    0    0    0    0 -0.00000000000E+00 -0.00000000000E+00 -0.45593999997E+02  0.45594000000E+02  0.51100000000E-03 0.  1.
    9900012    2    1    2    0    0  0.19042587960E+01 -0.18511889951E+02  0.20881472381E+01  0.72461638100E+02  0.70000088329E+02 0.  0.
         24    2    3    3    0    0 -0.23735566150E+01 -0.30686805156E+02 -0.46972653792E+01  0.57881854508E+02  0.48794784533E+02 0.  0.
         12    1    1    2    0    0 -0.19042587960E+01  0.18511889951E+02 -0.20881472381E+01  0.18726361900E+02  0.00000000000E+00 0. -1.
         11    1    3    3    0    0  0.42778154110E+01  0.12174915204E+02  0.67854126173E+01  0.14579783591E+02  0.51100000000E-03 0. -1.
        -11    1    4    4    0    0 -0.25282021735E+02 -0.13871398296E+02 -0.59168882343E+01  0.29438170465E+02  0.51100000000E-03 0.  1.
         12    1    4    4    0    0  0.22908465120E+02 -0.16815406860E+02  0.12196228551E+01  0.28443684043E+02  0.00000000000E+00 0. -1.
</event>
<event>
 7    1  0.1351543E-013  0.7246159E+02  0.7816164E-02  0.1226708E+00
        -11   -1    0    0    0    0  0.00000000000E+00  0.00000000000E+00  0.45593999997E+02  0.45594000000E+02  0.51100000000E-03 0. -1.
         11   -1    0    0    0    0 -0.00000000000E+00 -0.00000000000E+00 -0.45593999997E+02  0.45594000000E+02  0.51100000000E-03 0.  1.
    9900012    2    1    2    0    0 -0.14137230943E+02  0.11026249849E+02 -0.54072953583E+01  0.72461592774E+02  0.70000029284E+02 0.  0.
         12    1    1    2    0    0  0.14137230943E+02 -0.11026249849E+02  0.54072953583E+01  0.18726407226E+02  0.00000000000E+00 0. -1.
         11    1    3    3    0    0 -0.88803152629E+00  0.18323497755E+02 -0.10915147384E+02  0.21346653430E+02  0.51100000000E-03 0. -1.
        -11    1    3    3    0    0 -0.13594252974E+02 -0.24982641798E+02 -0.71947476891E+01  0.29337697587E+02  0.51100000000E-03 0.  1.
         12    1    3    3    0    0  0.34505355728E+00  0.17685393892E+02  0.12702599715E+02  0.21777241758E+02  0.00000000000E+00 0. -1.
</event>
<event>
 7    1  0.1351543E-013  0.7246156E+02  0.7816164E-02  0.1226708E+00
        -11   -1    0    0    0    0  0.00000000000E+00  0.00000000000E+00  0.45593999997E+02  0.45594000000E+02  0.51100000000E-03 0.  1.
         11   -1    0    0    0    0 -0.00000000000E+00 -0.00000000000E+00 -0.45593999997E+02  0.45594000000E+02  0.51100000000E-03 0. -1.
    9900012    2    1    2    0    0  0.43414421881E+01 -0.33395192155E+01  0.17907511622E+02  0.72461561968E+02  0.69999989153E+02 0.  0.
         12    1    1    2    0    0 -0.43414421881E+01  0.33395192155E+01 -0.17907511622E+02  0.18726438032E+02  0.00000000000E+00 0. -1.
         11    1    3    3    0    0 -0.87144505959E+01  0.23956224035E+02  0.91469962587E+01  0.27083387159E+02  0.51100000000E-03 0.  1.
        -11    1    3    3    0    0  0.49975742902E+01 -0.17607585367E+02  0.20968466018E+02  0.27833062689E+02  0.51100000000E-03 0. -1.
        -12    1    3    3    0    0  0.80583184938E+01 -0.96881578838E+01 -0.12207950654E+02  0.17545112120E+02  0.00000000000E+00 0.  1.
</event>
<event>
 7    1  0.1351543E-013  0.7246165E+02  0.7816164E-02  0.1226708E+00
        -11   -1    0    0    0    0  0.00000000000E+00  0.00000000000E+00  0.45593999997E+02  0.45594000000E+02  0.51100000000E-03 0. -1.
         11   -1    0    0    0    0 -0.00000000000E+00 -0.00000000000E+00 -0.45593999997E+02  0.45594000000E+02  0.51100000000E-03 0.  1.
    9900012    2    1    2    0    0 -0.10358757192E+02 -0.29332402016E+00 -0.15597639934E+02  0.72461647951E+02  0.70000101162E+02 0.  0.
         12    1    1    2    0    0  0.10358757192E+02  0.29332402016E+00  0.15597639934E+02  0.18726352049E+02  0.00000000000E+00 0. -1.
         11    1    3    3    0    0 -0.11065771181E+02  0.24085266705E+02  0.61040306945E+01  0.27199458727E+02  0.51100000000E-03 0. -1.
        -11    1    3    3    0    0 -0.43482063676E+00 -0.25860794017E+02 -0.28338200242E+02  0.38366956217E+02  0.51100000000E-03 0.  1.
        -12    1    3    3    0    0  0.11418346256E+01  0.14822032924E+01  0.66365296129E+01  0.68952330066E+01  0.00000000000E+00 0.  1.
</event>
<event>
 7    1  0.1351543E-013  0.7246163E+02  0.7816164E-02  0.1226708E+00
        -11   -1    0    0    0    0  0.00000000000E+00  0.00000000000E+00  0.45593999997E+02  0.45594000000E+02  0.51100000000E-03 0. -1.
         11   -1    0    0    0    0 -0.00000000000E+00 -0.00000000000E+00 -0.45593999997E+02  0.45594000000E+02  0.51100000000E-03 0.  1.
    9900012    2    1    2    0    0  0.18680442438E+02 -0.81242723294E+00  0.10285840436E+01  0.72461629480E+02  0.70000077101E+02 0.  0.
         12    1    1    2    0    0 -0.18680442438E+02  0.81242723294E+00 -0.10285840436E+01  0.18726370520E+02  0.00000000000E+00 0. -1.
         11    1    3    3    0    0 -0.57959391956E+01  0.14136210692E+02 -0.50715062709E+01  0.16097998012E+02  0.51100000000E-03 0. -1.
        -11    1    3    3    0    0  0.34982981127E+02 -0.46743670898E+01  0.15890059064E+02  0.38705976975E+02  0.51100000000E-03 0.  1.
        -12    1    3    3    0    0 -0.10506599493E+02 -0.10274270835E+02 -0.97899687494E+01  0.17657654494E+02  0.00000000000E+00 0.  1.
</event>
<event>
 7    1  0.1351543E-013  0.7246156E+02  0.7816164E-02  0.1226708E+00
        -11   -1    0    0    0    0  0.00000000000E+00  0.00000000000E+00  0.45593999997E+02  0.45594000000E+02  0.51100000000E-03 0.  1.
         11   -1    0    0    0    0 -0.00000000000E+00 -0.00000000000E+00 -0.45593999997E+02  0.45594000000E+02  0.51100000000E-03 0. -1.
    9900012    2    1    2    0    0 -0.85804873855E+00  0.24528107616E+01  0.18545271184E+02  0.72461558492E+02  0.69999984625E+02 0.  0.
         12    1    1    2    0    0  0.85804873855E+00 -0.24528107616E+01 -0.18545271184E+02  0.18726441508E+02  0.00000000000E+00 0. -1.
         11    1    3    3    0    0  0.22136512583E+02 -0.10029409567E+01 -0.56892135257E+01  0.22877898302E+02  0.51100000000E-03 0. -1.
        -11    1    3    3    0    0 -0.20642635648E+02  0.14009662826E+01 -0.40874889347E+01  0.21090013729E+02  0.51100000000E-03 0.  1.
        -12    1    3    3    0    0 -0.23519256731E+01  0.20547854357E+01  0.28321973644E+02  0.28493646461E+02  0.00000000000E+00 0.  1.
</event>
<event>
 7    1  0.1351543E-013  0.7246159E+02  0.7816164E-02  0.1226708E+00
        -11   -1    0    0    0    0  0.00000000000E+00  0.00000000000E+00  0.45593999997E+02  0.45594000000E+02  0.51100000000E-03 0. -1.
         11   -1    0    0    0    0 -0.00000000000E+00 -0.00000000000E+00 -0.45593999997E+02  0.45594000000E+02  0.51100000000E-03 0.  1.
    9900012    2    1    2    0    0 -0.11643073920E+02 -0.15677418771E+01 -0.14582849042E+02  0.72461588943E+02  0.70000024293E+02 0.  0.
         12    1    1    2    0    0  0.11643073920E+02  0.15677418771E+01  0.14582849042E+02  0.18726411057E+02  0.00000000000E+00 0. -1.
         11    1    3    3    0    0 -0.35390032181E+02 -0.46836030698E+00  0.10382773003E+02  0.36884627077E+02  0.51100000000E-03 0.  1.
        -11    1    3    3    0    0  0.20400533154E+02  0.55652727595E+00 -0.24385434997E+02  0.31798442035E+02  0.51100000000E-03 0. -1.
        -12    1    3    3    0    0  0.33464251068E+01 -0.16559088461E+01 -0.58018704748E+00  0.37785198308E+01  0.00000000000E+00 0.  1.
</event>
<event>
 7    1  0.1351543E-013  0.7246171E+02  0.7816164E-02  0.1226708E+00
        -11   -1    0    0    0    0  0.00000000000E+00  0.00000000000E+00  0.45593999997E+02  0.45594000000E+02  0.51100000000E-03 0. -1.
         11   -1    0    0    0    0 -0.00000000000E+00 -0.00000000000E+00 -0.45593999997E+02  0.45594000000E+02  0.51100000000E-03 0.  1.
    9900012    2    1    2    0    0 -0.14067285033E+02 -0.35052849556E+01 -0.11853200600E+02  0.72461711118E+02  0.70000183448E+02 0.  0.
         12    1    1    2    0    0  0.14067285033E+02  0.35052849556E+01  0.11853200600E+02  0.18726288882E+02  0.00000000000E+00 0. -1.
         11    1    3    3    0    0 -0.22209969859E+02 -0.51385150716E+01  0.18595958741E+02  0.29419326642E+02  0.51100000000E-03 0. -1.
        -11    1    3    3    0    0 -0.21062944525E+01  0.12010594858E+02 -0.24351177350E+02  0.27233631850E+02  0.51100000000E-03 0.  1.
        -12    1    3    3    0    0  0.10248979279E+02 -0.10377364742E+02 -0.60979819909E+01  0.15808752626E+02  0.00000000000E+00 0.  1.
</event>
<event>
 7    1  0.1351543E-013  0.7246196E+02  0.7816164E-02  0.1226707E+00
        -11   -1    0    0    0    0  0.00000000000E+00  0.00000000000E+00  0.45593999997E+02  0.45594000000E+02  0.51100000000E-03 0.  1.
         11   -1    0    0    0    0 -0.00000000000E+00 -0.00000000000E+00 -0.45593999997E+02  0.45594000000E+02  0.51100000000E-03 0. -1.
    9900012    2    1    2    0    0  0.13623896531E+02 -0.12468079835E+02 -0.30985368762E+01  0.72461961918E+02  0.70000510161E+02 0.  0.
         12    1    1    2    0    0 -0.13623896531E+02  0.12468079835E+02  0.30985368762E+01  0.18726038082E+02  0.00000000000E+00 0. -1.
         11    1    3    3    0    0 -0.13879370925E+02  0.12198608445E+02  0.24334691816E+01  0.18637724050E+02  0.51100000000E-03 0. -1.
        -11    1    3    3    0    0  0.26200774943E+02 -0.18613912184E+00  0.57700221613E+01  0.26829245450E+02  0.51100000000E-03 0.  1.
         12    1    3    3    0    0  0.13024925128E+01 -0.24480549158E+02 -0.11302028219E+02  0.26994992418E+02  0.00000000000E+00 0. -1.
</event>
<event>
 7    1  0.1351543E-013  0.7246171E+02  0.7816164E-02  0.1226708E+00
        -11   -1    0    0    0    0  0.00000000000E+00  0.00000000000E+00  0.45593999997E+02  0.45594000000E+02  0.51100000000E-03 0.  1.
         11   -1    0    0    0    0 -0.00000000000E+00 -0.00000000000E+00 -0.45593999997E+02  0.45594000000E+02  0.51100000000E-03 0. -1.
    9900012    2    1    2    0    0  0.15798161604E+02  0.61978627303E+01 -0.79169799675E+01  0.72461708742E+02  0.70000180353E+02 0.  0.
         12    1    1    2    0    0 -0.15798161604E+02 -0.61978627303E+01  0.79169799675E+01  0.18726291258E+02  0.00000000000E+00 0. -1.
         11    1    3    3    0    0  0.17857113210E+02 -0.17815620636E+02  0.19696340656E+00  0.25225218050E+02  0.51100000000E-03 0.  1.
        -11    1    3    3    0    0 -0.18841191988E+02  0.63894274484E+01  0.36157484853E+01  0.20221002350E+02  0.51100000000E-03 0. -1.
         12    1    3    3    0    0  0.16782240382E+02  0.17624055918E+02 -0.11729691859E+02  0.27015488342E+02  0.00000000000E+00 0. -1.
</event>
<event>
 7    1  0.1351543E-013  0.7246160E+02  0.7816164E-02  0.1226708E+00
        -11   -1    0    0    0    0  0.00000000000E+00  0.00000000000E+00  0.45593999997E+02  0.45594000000E+02  0.51100000000E-03 0.  1.
         11   -1    0    0    0    0 -0.00000000000E+00 -0.00000000000E+00 -0.45593999997E+02  0.45594000000E+02  0.51100000000E-03 0. -1.
    9900012    2    1    2    0    0  0.18404991768E+02  0.25109254738E+01 -0.23726878757E+01  0.72461598411E+02  0.70000036627E+02 0.  0.
         12    1    1    2    0    0 -0.18404991768E+02 -0.25109254738E+01  0.23726878757E+01  0.18726401589E+02  0.00000000000E+00 0. -1.
         11    1    3    3    0    0  0.28433794962E+02  0.18336996741E+02  0.12311998561E+02  0.36004325493E+02  0.51100000000E-03 0.  1.
        -11    1    3    3    0    0 -0.18291034903E+02 -0.11671733766E+02 -0.16210307589E+02  0.27084412479E+02  0.51100000000E-03 0. -1.
         12    1    3    3    0    0  0.82622317097E+01 -0.41543375014E+01  0.15256211527E+01  0.93728604387E+01  0.00000000000E+00 0. -1.
</event>
<event>
 7    1  0.1351543E-013  0.7246158E+02  0.7816164E-02  0.1226708E+00
        -11   -1    0    0    0    0  0.00000000000E+00  0.00000000000E+00  0.45593999997E+02  0.45594000000E+02  0.51100000000E-03 0. -1.
         11   -1    0    0    0    0 -0.00000000000E+00 -0.00000000000E+00 -0.45593999997E+02  0.45594000000E+02  0.51100000000E-03 0.  1.
    9900012    2    1    2    0    0 -0.69956356508E+01 -0.16883629805E+02  0.40844604017E+01  0.72461583089E+02  0.70000016667E+02 0.  0.
         12    1    1    2    0    0  0.69956356508E+01  0.16883629805E+02 -0.40844604017E+01  0.18726416911E+02  0.00000000000E+00 0. -1.
         11    1    3    3    0    0 -0.62965589773E+01 -0.20976361558E+02 -0.34348400051E+01  0.22168728545E+02  0.51100000000E-03 0. -1.
        -11    1    3    3    0    0  0.96364596863E+01  0.12430974096E+02  0.24267423584E+02  0.28918822935E+02  0.51100000000E-03 0.  1.
        -12    1    3    3    0    0 -0.10335536360E+02 -0.83382423438E+01 -0.16748123178E+02  0.21374031609E+02  0.00000000000E+00 0.  1.
</event>
<event>
 7    1  0.1351543E-013  0.7246161E+02  0.7816164E-02  0.1226708E+00
        -11   -1    0    0    0    0  0.00000000000E+00  0.00000000000E+00  0.45593999997E+02  0.45594000000E+02  0.51100000000E-03 0. -1.
         11   -1    0    0    0    0 -0.00000000000E+00 -0.00000000000E+00 -0.45593999997E+02  0.45594000000E+02  0.51100000000E-03 0.  1.
    9900012    2    1    2    0    0 -0.16923649932E+02 -0.74882214567E+01 -0.28625979274E+01  0.72461605406E+02  0.70000045740E+02 0.  0.
         12    1    1    2    0    0  0.16923649932E+02  0.74882214567E+01  0.28625979274E+01  0.18726394594E+02  0.00000000000E+00 0. -1.
         11    1    3    3    0    0  0.11125211070E+02  0.11073021622E+02 -0.20221681570E+02  0.25598799483E+02  0.51100000000E-03 0. -1.
        -11    1    3    3    0    0 -0.13186757888E+02  0.62610648017E+01  0.58407148394E+01  0.15722769035E+02  0.51100000000E-03 0.  1.
         12    1    3    3    0    0 -0.14862103114E+02 -0.24822307880E+02  0.11518368803E+02  0.31140036888E+02  0.00000000000E+00 0. -1.
</event>
<event>
 7    1  0.1351543E-013  0.7246160E+02  0.7816164E-02  0.1226708E+00
        -11   -1    0    0    0    0  0.00000000000E+00  0.00000000000E+00  0.45593999997E+02  0.45594000000E+02  0.51100000000E-03 0. -1.
         11   -1    0    0    0    0 -0.00000000000E+00 -0.00000000000E+00 -0.45593999997E+02  0.45594000000E+02  0.51100000000E-03 0.  1.
    9900012    2    1    2    0    0  0.70356893276E+01 -0.82906571087E+01 -0.15246059060E+02  0.72461595207E+02  0.70000032454E+02 0.  0.
         12    1    1    2    0    0 -0.70356893276E+01  0.82906571087E+01  0.15246059060E+02  0.18726404793E+02  0.00000000000E+00 0. -1.
         11    1    3    3    0    0  0.53864945418E+01  0.19649005228E+02  0.17384691349E+02  0.26782927836E+02  0.51100000000E-03 0. -1.
        -11    1    3    3    0    0  0.46069913040E+01 -0.14327163638E+02 -0.26465308937E+02  0.30445107393E+02  0.51100000000E-03 0.  1.
        -12    1    3    3    0    0 -0.29577965182E+01 -0.13612498698E+02 -0.61654414719E+01  0.15233559978E+02  0.00000000000E+00 0.  1.
</event>
<event>
 7    1  0.1351543E-013  0.7246160E+02  0.7816164E-02  0.1226708E+00
        -11   -1    0    0    0    0  0.00000000000E+00  0.00000000000E+00  0.45593999997E+02  0.45594000000E+02  0.51100000000E-03 0.  1.
         11   -1    0    0    0    0 -0.00000000000E+00 -0.00000000000E+00 -0.45593999997E+02  0.45594000000E+02  0.51100000000E-03 0. -1.
    9900012    2    1    2    0    0 -0.13358828057E+01 -0.18524659724E+02 -0.23938077488E+01  0.72461603756E+02  0.70000043590E+02 0.  0.
         12    1    1    2    0    0  0.13358828057E+01  0.18524659724E+02  0.23938077488E+01  0.18726396244E+02  0.00000000000E+00 0. -1.
         11    1    3    3    0    0 -0.14295159713E+01  0.10915073091E+02 -0.27719204389E+02  0.29825100648E+02  0.51100000000E-03 0. -1.
        -11    1    3    3    0    0  0.78472352881E+01 -0.11346181911E+02  0.15104422022E+02  0.20456258468E+02  0.51100000000E-03 0.  1.
         12    1    3    3    0    0 -0.77536021225E+01 -0.18093550903E+02  0.10220974618E+02  0.22180244640E+02  0.00000000000E+00 0. -1.
</event>
<event>
 7    1  0.1351543E-013  0.7246157E+02  0.7816164E-02  0.1226708E+00
        -11   -1    0    0    0    0  0.00000000000E+00  0.00000000000E+00  0.45593999997E+02  0.45594000000E+02  0.51100000000E-03 0. -1.
         11   -1    0    0    0    0 -0.00000000000E+00 -0.00000000000E+00 -0.45593999997E+02  0.45594000000E+02  0.51100000000E-03 0.  1.
    9900012    2    1    2    0    0  0.64186908921E+00  0.12021492065E+02 -0.14344020300E+02  0.72461569861E+02  0.69999999435E+02 0.  0.
         12    1    1    2    0    0 -0.64186908921E+00 -0.12021492065E+02  0.14344020300E+02  0.18726430139E+02  0.00000000000E+00 0. -1.
         11    1    3    3    0    0 -0.10733921343E+02  0.64565993631E+01  0.17980056034E+02  0.21913173161E+02  0.51100000000E-03 0. -1.
        -11    1    3    3    0    0  0.17170546414E+02 -0.95980298147E+01 -0.27118438686E+02  0.33501635147E+02  0.51100000000E-03 0.  1.
         12    1    3    3    0    0 -0.57947559822E+01  0.15162922516E+02 -0.52056376481E+01  0.17046761553E+02  0.00000000000E+00 0. -1.
</event>
<event>
 7    1  0.1351543E-013  0.7246157E+02  0.7816164E-02  0.1226708E+00
        -11   -1    0    0    0    0  0.00000000000E+00  0.00000000000E+00  0.45593999997E+02  0.45594000000E+02  0.51100000000E-03 0. -1.
         11   -1    0    0    0    0 -0.00000000000E+00 -0.00000000000E+00 -0.45593999997E+02  0.45594000000E+02  0.51100000000E-03 0.  1.
    9900012    2    1    2    0    0 -0.78568657650E+01  0.36847260295E+01 -0.16594323215E+02  0.72461571923E+02  0.70000002122E+02 0.  0.
         12    1    1    2    0    0  0.78568657650E+01 -0.36847260295E+01  0.16594323215E+02  0.18726428077E+02  0.00000000000E+00 0. -1.
         11    1    3    3    0    0  0.19394734122E+02 -0.59249072162E+01  0.11669533644E+02  0.23397398422E+02  0.51100000000E-03 0. -1.
        -11    1    3    3    0    0 -0.19342944059E+02  0.19382233318E+02 -0.17356176216E+02  0.32420013979E+02  0.51100000000E-03 0.  1.
         12    1    3    3    0    0 -0.79086558287E+01 -0.97726000728E+01 -0.10907680643E+02  0.16644159522E+02  0.00000000000E+00 0. -1.
</event>
<event>
 7    1  0.1351543E-013  0.7246176E+02  0.7816164E-02  0.1226708E+00
        -11   -1    0    0    0    0  0.00000000000E+00  0.00000000000E+00  0.45593999997E+02  0.45594000000E+02  0.51100000000E-03 0.  1.
         11   -1    0    0    0    0 -0.00000000000E+00 -0.00000000000E+00 -0.45593999997E+02  0.45594000000E+02  0.51100000000E-03 0. -1.
    9900012    2    1    2    0    0 -0.16335013914E+02 -0.58181302172E+01  0.70702780228E+01  0.72461757715E+02  0.70000244150E+02 0.  0.
         12    1    1    2    0    0  0.16335013914E+02  0.58181302172E+01 -0.70702780228E+01  0.18726242285E+02  0.00000000000E+00 0. -1.
         11    1    3    3    0    0  0.17447086258E+02 -0.13387391180E+02 -0.11381957472E+02  0.24762310426E+02  0.51100000000E-03 0. -1.
        -11    1    3    3    0    0 -0.76963723227E+01  0.70266438164E+01  0.18923975069E+02  0.21603812231E+02  0.51100000000E-03 0.  1.
        -12    1    3    3    0    0 -0.26085727850E+02  0.54261714643E+00 -0.47173957472E+00  0.26095635057E+02  0.00000000000E+00 0.  1.
</event>
<event>
 7    1  0.1351543E-013  0.7246158E+02  0.7816164E-02  0.1226708E+00
        -11   -1    0    0    0    0  0.00000000000E+00  0.00000000000E+00  0.45593999997E+02  0.45594000000E+02  0.51100000000E-03 0. -1.
         11   -1    0    0    0    0 -0.00000000000E+00 -0.00000000000E+00 -0.45593999997E+02  0.45594000000E+02  0.51100000000E-03 0.  1.
    9900012    2    1    2    0    0  0.74955523328E+01  0.44300010626E+01 -0.16579220867E+02  0.72461580728E+02  0.70000013592E+02 0.  0.
         12    1    1    2    0    0 -0.74955523328E+01 -0.44300010626E+01  0.16579220867E+02  0.18726419272E+02  0.00000000000E+00 0. -1.
         11    1    3    3    0    0 -0.24033382905E+02 -0.17924357895E+02 -0.42667024162E+01  0.30283507881E+02  0.51100000000E-03 0. -1.
        -11    1    3    3    0    0  0.23242971226E+02  0.18538413526E+02 -0.43067795877E+01  0.30040919396E+02  0.51100000000E-03 0.  1.
         12    1    3    3    0    0  0.82859640120E+01  0.38159454311E+01 -0.80057388630E+01  0.12137153451E+02  0.00000000000E+00 0. -1.
</event>
<event>
 7    1  0.1351543E-013  0.7246156E+02  0.7816164E-02  0.1226708E+00
        -11   -1    0    0    0    0  0.00000000000E+00  0.00000000000E+00  0.45593999997E+02  0.45594000000E+02  0.51100000000E-03 0. -1.
         11   -1    0    0    0    0 -0.00000000000E+00 -0.00000000000E+00 -0.45593999997E+02  0.45594000000E+02  0.51100000000E-03 0.  1.
    9900012    2    1    2    0    0 -0.49345979799E+01  0.12614347041E+02 -0.12930872851E+02  0.72461561973E+02  0.69999989159E+02 0.  0.
         12    1    1    2    0    0  0.49345979799E+01 -0.12614347041E+02  0.12930872851E+02  0.18726438027E+02  0.00000000000E+00 0. -1.
         11    1    3    3    0    0  0.72303290573E+01 -0.24711702541E+02  0.61799055488E+01  0.26478994195E+02  0.51100000000E-03 0. -1.
        -11    1    3    3    0    0 -0.23254037001E+01  0.12426625290E+02 -0.13748975976E+02  0.18677870840E+02  0.51100000000E-03 0.  1.
         12    1    3    3    0    0 -0.98395233371E+01  0.24899424293E+02 -0.53618024237E+01  0.27304696937E+02  0.00000000000E+00 0. -1.
</event>
<event>
 7    1  0.1351543E-013  0.7246156E+02  0.7816164E-02  0.1226708E+00
        -11   -1    0    0    0    0  0.00000000000E+00  0.00000000000E+00  0.45593999997E+02  0.45594000000E+02  0.51100000000E-03 0. -1.
         11   -1    0    0    0    0 -0.00000000000E+00 -0.00000000000E+00 -0.45593999997E+02  0.45594000000E+02  0.51100000000E-03 0.  1.
    9900012    2    1    2    0    0  0.18071028460E+02  0.48678125719E+01  0.64961291514E+00  0.72461557044E+02  0.69999982739E+02 0.  0.
         12    1    1    2    0    0 -0.18071028460E+02 -0.48678125719E+01 -0.64961291514E+00  0.18726442956E+02  0.00000000000E+00 0. -1.
         11    1    3    3    0    0  0.40252682175E+02 -0.13950331057E+02 -0.35281923949E+01  0.42747377706E+02  0.51100000000E-03 0. -1.
        -11    1    3    3    0    0 -0.13576832569E+02  0.10728401041E+02  0.45696468803E+01  0.17897224488E+02  0.51100000000E-03 0.  1.
         12    1    3    3    0    0 -0.86048211465E+01  0.80897425880E+01 -0.39184157023E+00  0.11816954850E+02  0.00000000000E+00 0. -1.
</event>
<event>
 7    1  0.1351543E-013  0.7246159E+02  0.7816164E-02  0.1226708E+00
        -11   -1    0    0    0    0  0.00000000000E+00  0.00000000000E+00  0.45593999997E+02  0.45594000000E+02  0.51100000000E-03 0.  1.
         11   -1    0    0    0    0 -0.00000000000E+00 -0.00000000000E+00 -0.45593999997E+02  0.45594000000E+02  0.51100000000E-03 0. -1.
    9900012    2    1    2    0    0 -0.62786033455E+01 -0.77187365947E+01  0.15864385264E+02  0.72461588855E+02  0.70000024178E+02 0.  0.
         12    1    1    2    0    0  0.62786033455E+01  0.77187365947E+01 -0.15864385264E+02  0.18726411145E+02  0.00000000000E+00 0. -1.
         11    1    3    3    0    0  0.80065116084E+01  0.21380743697E+02  0.15539020868E+01  0.22883510244E+02  0.51100000000E-03 0. -1.
        -11    1    3    3    0    0 -0.42409325544E+00 -0.19442090814E+02  0.23374673940E+02  0.30406415974E+02  0.51100000000E-03 0.  1.
         12    1    3    3    0    0 -0.13861021698E+02 -0.96573894768E+01 -0.90641907635E+01  0.19171662636E+02  0.00000000000E+00 0. -1.
</event>
<event>
 7    1  0.1351543E-013  0.7246153E+02  0.7816164E-02  0.1226708E+00
        -11   -1    0    0    0    0  0.00000000000E+00  0.00000000000E+00  0.45593999997E+02  0.45594000000E+02  0.51100000000E-03 0. -1.
         11   -1    0    0    0    0 -0.00000000000E+00 -0.00000000000E+00 -0.45593999997E+02  0.45594000000E+02  0.51100000000E-03 0.  1.
    9900012    2    1    2    0    0 -0.11446911102E+02 -0.14808924839E+02  0.58704289016E+00  0.72461530818E+02  0.69999948575E+02 0.  0.
         12    1    1    2    0    0  0.11446911102E+02  0.14808924839E+02 -0.58704289016E+00  0.18726469182E+02  0.00000000000E+00 0. -1.
         11    1    3    3    0    0 -0.24941555069E+02 -0.11636450339E+02  0.16525193651E+02  0.32102494781E+02  0.51100000000E-03 0. -1.
        -11    1    3    3    0    0 -0.23253549416E+01  0.16998299516E+01 -0.22403512370E+02  0.22587918546E+02  0.51100000000E-03 0.  1.
        -12    1    3    3    0    0  0.15819998908E+02 -0.48723044521E+01  0.64653616094E+01  0.17771117491E+02  0.00000000000E+00 0.  1.
</event>
<event>
 7    1  0.1351543E-013  0.7246157E+02  0.7816164E-02  0.1226708E+00
        -11   -1    0    0    0    0  0.00000000000E+00  0.00000000000E+00  0.45593999997E+02  0.45594000000E+02  0.51100000000E-03 0.  1.
         11   -1    0    0    0    0 -0.00000000000E+00 -0.00000000000E+00 -0.45593999997E+02  0.45594000000E+02  0.51100000000E-03 0. -1.
    9900012    2    1    2    0    0 -0.11628723615E+02  0.97260319301E+00  0.14646021863E+02  0.72461571448E+02  0.70000001503E+02 0.  0.
         12    1    1    2    0    0  0.11628723615E+02 -0.97260319301E+00 -0.14646021863E+02  0.18726428552E+02  0.00000000000E+00 0. -1.
         11    1    3    3    0    0 -0.92969406712E+01 -0.84058586882E+01 -0.44050952707E+01  0.13285195924E+02  0.51100000000E-03 0. -1.
        -11    1    3    3    0    0  0.20165502523E+02  0.22253674893E+02  0.11736000267E+02  0.32242940945E+02  0.51100000000E-03 0.  1.
        -12    1    3    3    0    0 -0.22497285466E+02 -0.12875213012E+02  0.73151168674E+01  0.26933434580E+02  0.00000000000E+00 0.  1.
</event>
<event>
 7    1  0.1351543E-013  0.7246153E+02  0.7816164E-02  0.1226708E+00
        -11   -1    0    0    0    0  0.00000000000E+00  0.00000000000E+00  0.45593999997E+02  0.45594000000E+02  0.51100000000E-03 0. -1.
         11   -1    0    0    0    0 -0.00000000000E+00 -0.00000000000E+00 -0.45593999997E+02  0.45594000000E+02  0.51100000000E-03 0.  1.
    9900012    2    1    2    0    0 -0.51136285504E+01 -0.12561297696E+02 -0.12912989413E+02  0.72461529635E+02  0.69999947034E+02 0.  0.
         12    1    1    2    0    0  0.51136285504E+01  0.12561297696E+02  0.12912989413E+02  0.18726470365E+02  0.00000000000E+00 0. -1.
         11    1    3    3    0    0  0.12186208061E+02 -0.37256190720E+02 -0.86494613800E+01  0.40141507150E+02  0.51100000000E-03 0.  1.
        -11    1    3    3    0    0 -0.16281245706E+02  0.19196901651E+02  0.18922653917E+00  0.25172123503E+02  0.51100000000E-03 0. -1.
        -12    1    3    3    0    0 -0.10185909058E+01  0.54979913735E+01 -0.44527545722E+01  0.71478989820E+01  0.00000000000E+00 0.  1.
</event>
<event>
 7    1  0.1351543E-013  0.7246159E+02  0.7816164E-02  0.1226708E+00
        -11   -1    0    0    0    0  0.00000000000E+00  0.00000000000E+00  0.45593999997E+02  0.45594000000E+02  0.51100000000E-03 0.  1.
         11   -1    0    0    0    0 -0.00000000000E+00 -0.00000000000E+00 -0.45593999997E+02  0.45594000000E+02  0.51100000000E-03 0. -1.
    9900012    2    1    2    0    0 -0.81127550030E+01 -0.52284845533E+01  0.16047572577E+02  0.72461590037E+02  0.70000025719E+02 0.  0.
         12    1    1    2    0    0  0.81127550030E+01  0.52284845533E+01 -0.16047572577E+02  0.18726409963E+02  0.00000000000E+00 0. -1.
         11    1    3    3    0    0 -0.86623369668E+01 -0.23178627123E+02  0.14888833489E+02  0.28878403695E+02  0.51100000000E-03 0. -1.
        -11    1    3    3    0    0 -0.14236623938E+02  0.23744517391E+02  0.57277556119E+00  0.27691363986E+02  0.51100000000E-03 0.  1.
         12    1    3    3    0    0  0.14786205902E+02 -0.57943748215E+01  0.58596352738E+00  0.15891822356E+02  0.00000000000E+00 0. -1.
</event>
<event>
 7    1  0.1351543E-013  0.7246156E+02  0.7816164E-02  0.1226708E+00
        -11   -1    0    0    0    0  0.00000000000E+00  0.00000000000E+00  0.45593999997E+02  0.45594000000E+02  0.51100000000E-03 0. -1.
         11   -1    0    0    0    0 -0.00000000000E+00 -0.00000000000E+00 -0.45593999997E+02  0.45594000000E+02  0.51100000000E-03 0.  1.
    9900012    2    1    2    0    0  0.39347630646E+01 -0.12508781585E+02 -0.13368907323E+02  0.72461557195E+02  0.69999982936E+02 0.  0.
         12    1    1    2    0    0 -0.39347630646E+01  0.12508781585E+02  0.13368907323E+02  0.18726442805E+02  0.00000000000E+00 0. -1.
         11    1    3    3    0    0  0.54562843667E+01  0.56686332521E+01 -0.35789725411E+02  0.36644356827E+02  0.51100000000E-03 0.  1.
        -11    1    3    3    0    0  0.36782845147E+01 -0.21027226547E+02  0.14036233778E+02  0.25547796229E+02  0.51100000000E-03 0. -1.
        -12    1    3    3    0    0 -0.51998058168E+01  0.28498117102E+01  0.83845843100E+01  0.10269404139E+02  0.00000000000E+00 0.  1.
</event>
<event>
 7    1  0.1351543E-013  0.7246159E+02  0.7816164E-02  0.1226708E+00
        -11   -1    0    0    0    0  0.00000000000E+00  0.00000000000E+00  0.45593999997E+02  0.45594000000E+02  0.51100000000E-03 0.  1.
         11   -1    0    0    0    0 -0.00000000000E+00 -0.00000000000E+00 -0.45593999997E+02  0.45594000000E+02  0.51100000000E-03 0. -1.
    9900012    2    1    2    0    0 -0.15272684161E+02  0.10511633253E+02  0.26323285811E+01  0.72461589001E+02  0.70000024370E+02 0.  0.
         12    1    1    2    0    0  0.15272684161E+02 -0.10511633253E+02 -0.26323285811E+01  0.18726410999E+02  0.00000000000E+00 0. -1.
         11    1    3    3    0    0 -0.81592124018E+01  0.25919842735E+02 -0.26547450009E+02  0.37989183944E+02  0.51100000000E-03 0. -1.
        -11    1    3    3    0    0 -0.34635209496E+01 -0.23005681834E+01  0.11038074291E+02  0.11795239533E+02  0.51100000000E-03 0.  1.
         12    1    3    3    0    0 -0.36499508098E+01 -0.13107641299E+02  0.18141704300E+02  0.22677165525E+02  0.00000000000E+00 0. -1.
</event>
<event>
 7    1  0.1351543E-013  0.7246154E+02  0.7816164E-02  0.1226708E+00
        -11   -1    0    0    0    0  0.00000000000E+00  0.00000000000E+00  0.45593999997E+02  0.45594000000E+02  0.51100000000E-03 0.  1.
         11   -1    0    0    0    0 -0.00000000000E+00 -0.00000000000E+00 -0.45593999997E+02  0.45594000000E+02  0.51100000000E-03 0. -1.
    9900012    2    1    2    0    0 -0.36550488364E+01  0.14701788694E+02  0.11008098196E+02  0.72461542815E+02  0.69999964203E+02 0.  0.
         12    1    1    2    0    0  0.36550488364E+01 -0.14701788694E+02 -0.11008098196E+02  0.18726457185E+02  0.00000000000E+00 0. -1.
         11    1    3    3    0    0 -0.26513667522E+02 -0.44096899480E+01  0.69885134156E+01  0.27771554709E+02  0.51100000000E-03 0. -1.
        -11    1    3    3    0    0  0.24565537308E+01  0.23501875177E+02  0.26030648632E+01  0.23772857212E+02  0.51100000000E-03 0.  1.
         12    1    3    3    0    0  0.20402064955E+02 -0.43903965351E+01  0.14165199172E+01  0.20917130894E+02  0.00000000000E+00 0. -1.
</event>
<event>
 7    1  0.1351543E-013  0.7246159E+02  0.7816164E-02  0.1226708E+00
        -11   -1    0    0    0    0  0.00000000000E+00  0.00000000000E+00  0.45593999997E+02  0.45594000000E+02  0.51100000000E-03 0.  1.
         11   -1    0    0    0    0 -0.00000000000E+00 -0.00000000000E+00 -0.45593999997E+02  0.45594000000E+02  0.51100000000E-03 0. -1.
    9900012    2    1    2    0    0 -0.79617514651E+01  0.15486989099E+02 -0.68878235326E+01  0.72461590020E+02  0.70000025696E+02 0.  0.
         12    1    1    2    0    0  0.79617514651E+01 -0.15486989099E+02  0.68878235326E+01  0.18726409980E+02  0.00000000000E+00 0. -1.
         11    1    3    3    0    0 -0.19833489573E+02  0.77962931596E+01 -0.26044948025E+02  0.33652471136E+02  0.51100000000E-03 0. -1.
        -11    1    3    3    0    0  0.11933848713E+02  0.18627462709E+02  0.16376221902E+02  0.27524166765E+02  0.51100000000E-03 0.  1.
        -12    1    3    3    0    0 -0.62110605220E-01 -0.10936766769E+02  0.27809025911E+01  0.11284952119E+02  0.00000000000E+00 0.  1.
</event>
<event>
 7    1  0.1351543E-013  0.7246125E+02  0.7816164E-02  0.1226709E+00
        -11   -1    0    0    0    0  0.00000000000E+00  0.00000000000E+00  0.45593999997E+02  0.45594000000E+02  0.51100000000E-03 0.  1.
         11   -1    0    0    0    0 -0.00000000000E+00 -0.00000000000E+00 -0.45593999997E+02  0.45594000000E+02  0.51100000000E-03 0. -1.
    9900012    2    1    2    0    0  0.12588813129E+02  0.96655744991E+01  0.99392989425E+01  0.72461248817E+02  0.69999581215E+02 0.  0.
         12    1    1    2    0    0 -0.12588813129E+02 -0.96655744991E+01 -0.99392989425E+01  0.18726751183E+02  0.00000000000E+00 0. -1.
         11    1    3    3    0    0  0.20671206222E+02  0.32875964016E+02  0.45201817059E+01  0.39096800631E+02  0.51100000000E-03 0. -1.
        -11    1    3    3    0    0  0.63340433550E+01 -0.63599895674E+01 -0.32613245224E+01  0.95501733190E+01  0.51100000000E-03 0.  1.
         12    1    3    3    0    0 -0.14416436448E+02 -0.16850399950E+02  0.86804417591E+01  0.23814274867E+02  0.00000000000E+00 0. -1.
</event>
<event>
 7    1  0.1351543E-013  0.7246157E+02  0.7816164E-02  0.1226708E+00
        -11   -1    0    0    0    0  0.00000000000E+00  0.00000000000E+00  0.45593999997E+02  0.45594000000E+02  0.51100000000E-03 0. -1.
         11   -1    0    0    0    0 -0.00000000000E+00 -0.00000000000E+00 -0.45593999997E+02  0.45594000000E+02  0.51100000000E-03 0.  1.
    9900012    2    1    2    0    0 -0.97060707482E+00 -0.62256822803E+01 -0.17634563948E+02  0.72461573657E+02  0.70000004380E+02 0.  0.
         12    1    1    2    0    0  0.97060707482E+00  0.62256822803E+01  0.17634563948E+02  0.18726426343E+02  0.00000000000E+00 0. -1.
         11    1    3    3    0    0 -0.17451603119E+02 -0.30170347557E+02  0.43150371560E+01  0.35120191757E+02  0.51100000000E-03 0. -1.
        -11    1    3    3    0    0  0.11640473836E+02  0.20732807152E+02 -0.20400016469E+02  0.31329069500E+02  0.51100000000E-03 0.  1.
         12    1    3    3    0    0  0.48405222080E+01  0.32118581239E+01 -0.15495846349E+01  0.60123124000E+01  0.00000000000E+00 0. -1.
</event>
<event>
 7    1  0.1351543E-013  0.7246167E+02  0.7816164E-02  0.1226708E+00
        -11   -1    0    0    0    0  0.00000000000E+00  0.00000000000E+00  0.45593999997E+02  0.45594000000E+02  0.51100000000E-03 0. -1.
         11   -1    0    0    0    0 -0.00000000000E+00 -0.00000000000E+00 -0.45593999997E+02  0.45594000000E+02  0.51100000000E-03 0.  1.
    9900012    2    1    2    0    0 -0.56136834250E+01 -0.17044112694E+02 -0.53535314517E+01  0.72461667788E+02  0.70000127003E+02 0.  0.
         12    1    1    2    0    0  0.56136834250E+01  0.17044112694E+02  0.53535314517E+01  0.18726332212E+02  0.00000000000E+00 0. -1.
         11    1    3    3    0    0 -0.14922483023E+02 -0.18745060955E+02  0.22144504769E+01  0.24061620913E+02  0.51100000000E-03 0. -1.
        -11    1    3    3    0    0  0.38227440252E+01 -0.31352197113E-01 -0.27443585629E+02  0.27708568120E+02  0.51100000000E-03 0.  1.
         12    1    3    3    0    0  0.54860555725E+01  0.17323004582E+01  0.19875603700E+02  0.20691478755E+02  0.00000000000E+00 0. -1.
</event>
<event>
 7    1  0.1351543E-013  0.7246157E+02  0.7816164E-02  0.1226708E+00
        -11   -1    0    0    0    0  0.00000000000E+00  0.00000000000E+00  0.45593999997E+02  0.45594000000E+02  0.51100000000E-03 0. -1.
         11   -1    0    0    0    0 -0.00000000000E+00 -0.00000000000E+00 -0.45593999997E+02  0.45594000000E+02  0.51100000000E-03 0.  1.
    9900012    2    1    2    0    0  0.13336203217E+02 -0.88200427189E+01 -0.97484214153E+01  0.72461569750E+02  0.69999999291E+02 0.  0.
         12    1    1    2    0    0 -0.13336203217E+02  0.88200427189E+01  0.97484214153E+01  0.18726430250E+02  0.00000000000E+00 0. -1.
         11    1    3    3    0    0 -0.10377228871E+01 -0.12700771141E+02 -0.31341199371E+02  0.33832783430E+02  0.51100000000E-03 0.  1.
        -11    1    3    3    0    0  0.21970742223E+02  0.68171386737E+01  0.19653886365E+02  0.30256604949E+02  0.51100000000E-03 0. -1.
         12    1    3    3    0    0 -0.75968161189E+01 -0.29364102518E+01  0.19388915910E+01  0.83721813712E+01  0.00000000000E+00 0. -1.
</event>
<event>
 7    1  0.1351543E-013  0.7246145E+02  0.7816164E-02  0.1226708E+00
        -11   -1    0    0    0    0  0.00000000000E+00  0.00000000000E+00  0.45593999997E+02  0.45594000000E+02  0.51100000000E-03 0.  1.
         11   -1    0    0    0    0 -0.00000000000E+00 -0.00000000000E+00 -0.45593999997E+02  0.45594000000E+02  0.51100000000E-03 0. -1.
    9900012    2    1    2    0    0 -0.91104108802E+01 -0.13041382006E+02  0.98795901381E+01  0.72461453807E+02  0.69999848253E+02 0.  0.
         12    1    1    2    0    0  0.91104108802E+01  0.13041382006E+02 -0.98795901381E+01  0.18726546193E+02  0.00000000000E+00 0. -1.
         11    1    3    3    0    0 -0.63663835419E+01  0.10251667967E+02 -0.11506211488E+02  0.16673944901E+02  0.51100000000E-03 0. -1.
        -11    1    3    3    0    0  0.21623474297E+01 -0.36658453085E+02  0.11598042521E+02  0.38510161250E+02  0.51100000000E-03 0.  1.
         12    1    3    3    0    0 -0.49063747680E+01  0.13365403112E+02  0.97877591050E+01  0.17277347655E+02  0.00000000000E+00 0. -1.
</event>
<event>
 7    1  0.1351543E-013  0.7246158E+02  0.7816164E-02  0.1226708E+00
        -11   -1    0    0    0    0  0.00000000000E+00  0.00000000000E+00  0.45593999997E+02  0.45594000000E+02  0.51100000000E-03 0. -1.
         11   -1    0    0    0    0 -0.00000000000E+00 -0.00000000000E+00 -0.45593999997E+02  0.45594000000E+02  0.51100000000E-03 0.  1.
    9900012    2    1    2    0    0 -0.12157825005E+02  0.82533129308E+01 -0.11608134884E+02  0.72461583400E+02  0.70000017073E+02 0.  0.
         12    1    1    2    0    0  0.12157825005E+02 -0.82533129308E+01  0.11608134884E+02  0.18726416600E+02  0.00000000000E+00 0. -1.
         11    1    3    3    0    0 -0.28040311976E+02  0.50716296723E+01 -0.45228300806E+01  0.28851975937E+02  0.51100000000E-03 0. -1.
        -11    1    3    3    0    0  0.22248155767E+02  0.23055543982E+01  0.10630140119E+02  0.24764811635E+02  0.51100000000E-03 0.  1.
         12    1    3    3    0    0 -0.63656687951E+01  0.87612886034E+00 -0.17715444923E+02  0.18844795828E+02  0.00000000000E+00 0. -1.
</event>
<event>
 7    1  0.1351543E-013  0.7246151E+02  0.7816164E-02  0.1226708E+00
        -11   -1    0    0    0    0  0.00000000000E+00  0.00000000000E+00  0.45593999997E+02  0.45594000000E+02  0.51100000000E-03 0. -1.
         11   -1    0    0    0    0 -0.00000000000E+00 -0.00000000000E+00 -0.45593999997E+02  0.45594000000E+02  0.51100000000E-03 0.  1.
    9900012    2    1    2    0    0  0.11557257047E+02 -0.23938161086E+01 -0.14538943651E+02  0.72461509980E+02  0.69999921429E+02 0.  0.
         12    1    1    2    0    0 -0.11557257047E+02  0.23938161086E+01  0.14538943651E+02  0.18726490020E+02  0.00000000000E+00 0. -1.
         11    1    3    3    0    0  0.41947956009E+01  0.15345452565E+02 -0.21184952668E+02  0.26493045208E+02  0.51100000000E-03 0.  1.
        -11    1    3    3    0    0  0.20973965645E+02 -0.16641103848E+02  0.14258975900E+02  0.30334006761E+02  0.51100000000E-03 0. -1.
        -12    1    3    3    0    0 -0.13611504199E+02 -0.10981648257E+01 -0.76129668825E+01  0.15634458011E+02  0.00000000000E+00 0.  1.
</event>
<event>
 7    1  0.1351543E-013  0.7246099E+02  0.7816164E-02  0.1226710E+00
        -11   -1    0    0    0    0  0.00000000000E+00  0.00000000000E+00  0.45593999997E+02  0.45594000000E+02  0.51100000000E-03 0.  1.
         11   -1    0    0    0    0 -0.00000000000E+00 -0.00000000000E+00 -0.45593999997E+02  0.45594000000E+02  0.51100000000E-03 0. -1.
    9900012    2    1    2    0    0  0.78569729087E+01  0.15914094967E+02 -0.59758172822E+01  0.72460991854E+02  0.69999246470E+02 0.  0.
         12    1    1    2    0    0 -0.78569729087E+01 -0.15914094967E+02  0.59758172822E+01  0.18727008146E+02  0.00000000000E+00 0. -1.
         11    1    3    3    0    0  0.14664168124E+02  0.18437175708E+02 -0.56556491261E+01  0.24227126164E+02  0.51100000000E-03 0. -1.
        -11    1    3    3    0    0 -0.24846526538E+02  0.39758115799E+00 -0.10880935359E+02  0.27127526727E+02  0.51100000000E-03 0.  1.
        -12    1    3    3    0    0  0.18039331323E+02 -0.29206618996E+01  0.10560767203E+02  0.21106338963E+02  0.00000000000E+00 0.  1.
</event>
<event>
 7    1  0.1351543E-013  0.7246158E+02  0.7816164E-02  0.1226708E+00
        -11   -1    0    0    0    0  0.00000000000E+00  0.00000000000E+00  0.45593999997E+02  0.45594000000E+02  0.51100000000E-03 0. -1.
         11   -1    0    0    0    0 -0.00000000000E+00 -0.00000000000E+00 -0.45593999997E+02  0.45594000000E+02  0.51100000000E-03 0.  1.
    9900012    2    1    2    0    0  0.14943223096E+02  0.99425043502E+01 -0.53409222963E+01  0.72461581222E+02  0.70000014236E+02 0.  0.
         12    1    1    2    0    0 -0.14943223096E+02 -0.99425043502E+01  0.53409222963E+01  0.18726418778E+02  0.00000000000E+00 0. -1.
         11    1    3    3    0    0  0.64309671922E+01 -0.47308284353E+01  0.83509237812E+01  0.11553181595E+02  0.51100000000E-03 0. -1.
        -11    1    3    3    0    0 -0.13066163115E+02  0.29854194425E+02 -0.10968925964E+02  0.34384805952E+02  0.51100000000E-03 0.  1.
        -12    1    3    3    0    0  0.21578419019E+02 -0.15180861640E+02 -0.27229201138E+01  0.26523593675E+02  0.00000000000E+00 0.  1.
</event>
<event>
 7    1  0.1351543E-013  0.7246139E+02  0.7816164E-02  0.1226708E+00
        -11   -1    0    0    0    0  0.00000000000E+00  0.00000000000E+00  0.45593999997E+02  0.45594000000E+02  0.51100000000E-03 0.  1.
         11   -1    0    0    0    0 -0.00000000000E+00 -0.00000000000E+00 -0.45593999997E+02  0.45594000000E+02  0.51100000000E-03 0. -1.
    9900012    2    1    2    0    0  0.17469647445E+02  0.55987124919E+01 -0.37618621070E+01  0.72461394062E+02  0.69999770425E+02 0.  0.
         12    1    1    2    0    0 -0.17469647445E+02 -0.55987124919E+01  0.37618621070E+01  0.18726605938E+02  0.00000000000E+00 0. -1.
         11    1    3    3    0    0  0.14657405451E+02  0.10429763068E+02 -0.26648022064E+02  0.32151774016E+02  0.51100000000E-03 0. -1.
        -11    1    3    3    0    0 -0.11758666414E+02 -0.83523443783E+01  0.20597918812E+02  0.25145618945E+02  0.51100000000E-03 0.  1.
         12    1    3    3    0    0  0.14570908408E+02  0.35212938025E+01  0.22882411445E+01  0.15164001102E+02  0.00000000000E+00 0. -1.
</event>
<event>
 7    1  0.1351543E-013  0.7246158E+02  0.7816164E-02  0.1226708E+00
        -11   -1    0    0    0    0  0.00000000000E+00  0.00000000000E+00  0.45593999997E+02  0.45594000000E+02  0.51100000000E-03 0.  1.
         11   -1    0    0    0    0 -0.00000000000E+00 -0.00000000000E+00 -0.45593999997E+02  0.45594000000E+02  0.51100000000E-03 0. -1.
    9900012    2    1    2    0    0  0.14798800164E+02  0.36359012710E+01  0.10883677953E+02  0.72461582560E+02  0.70000015979E+02 0.  0.
         12    1    1    2    0    0 -0.14798800164E+02 -0.36359012710E+01 -0.10883677953E+02  0.18726417440E+02  0.00000000000E+00 0. -1.
         11    1    3    3    0    0  0.13875792398E+02 -0.20915131281E+02 -0.46178541769E+00  0.25103656650E+02  0.51100000000E-03 0. -1.
        -11    1    3    3    0    0 -0.58535342718E+01  0.33272828478E+02  0.12982295258E+02  0.36192333011E+02  0.51100000000E-03 0.  1.
        -12    1    3    3    0    0  0.67765420379E+01 -0.87217959258E+01 -0.16368318871E+01  0.11165592899E+02  0.00000000000E+00 0.  1.
</event>
<event>
 7    1  0.1351543E-013  0.7246160E+02  0.7816164E-02  0.1226708E+00
        -11   -1    0    0    0    0  0.00000000000E+00  0.00000000000E+00  0.45593999997E+02  0.45594000000E+02  0.51100000000E-03 0. -1.
         11   -1    0    0    0    0 -0.00000000000E+00 -0.00000000000E+00 -0.45593999997E+02  0.45594000000E+02  0.51100000000E-03 0.  1.
    9900012    2    1    2    0    0  0.47807961029E+01  0.50600217544E+01 -0.17384430080E+02  0.72461595093E+02  0.70000032305E+02 0.  0.
         12    1    1    2    0    0 -0.47807961029E+01 -0.50600217544E+01  0.17384430080E+02  0.18726404907E+02  0.00000000000E+00 0. -1.
         11    1    3    3    0    0 -0.62434118826E+01  0.27753844636E+02 -0.14735600384E+02  0.32037384459E+02  0.51100000000E-03 0.  1.
        -11    1    3    3    0    0  0.55345298784E+01 -0.11989116103E+02  0.14413061319E+02  0.19547538534E+02  0.51100000000E-03 0. -1.
        -12    1    3    3    0    0  0.54896781071E+01 -0.10704706779E+02 -0.17061891015E+02  0.20876672100E+02  0.00000000000E+00 0.  1.
</event>
<event>
 7    1  0.1351543E-013  0.7246156E+02  0.7816164E-02  0.1226708E+00
        -11   -1    0    0    0    0  0.00000000000E+00  0.00000000000E+00  0.45593999997E+02  0.45594000000E+02  0.51100000000E-03 0. -1.
         11   -1    0    0    0    0 -0.00000000000E+00 -0.00000000000E+00 -0.45593999997E+02  0.45594000000E+02  0.51100000000E-03 0.  1.
    9900012    2    1    2    0    0  0.17756536083E+02 -0.17205073485E+01 -0.56942794527E+01  0.72461560464E+02  0.69999987195E+02 0.  0.
         12    1    1    2    0    0 -0.17756536083E+02  0.17205073485E+01  0.56942794527E+01  0.18726439536E+02  0.00000000000E+00 0. -1.
         11    1    3    3    0    0 -0.79576064655E+01 -0.51029760293E+01 -0.17461183551E+02  0.19855900792E+02  0.51100000000E-03 0. -1.
        -11    1    3    3    0    0 -0.42645573308E+01  0.17261735354E+02  0.74914920480E+01  0.19294465787E+02  0.51100000000E-03 0.  1.
         12    1    3    3    0    0  0.29978699879E+02 -0.13879266673E+02  0.42754120502E+01  0.33311193885E+02  0.00000000000E+00 0. -1.
</event>
<event>
 7    1  0.1351543E-013  0.7246164E+02  0.7816164E-02  0.1226708E+00
        -11   -1    0    0    0    0  0.00000000000E+00  0.00000000000E+00  0.45593999997E+02  0.45594000000E+02  0.51100000000E-03 0. -1.
         11   -1    0    0    0    0 -0.00000000000E+00 -0.00000000000E+00 -0.45593999997E+02  0.45594000000E+02  0.51100000000E-03 0.  1.
    9900012    2    1    2    0    0 -0.10499907198E+02  0.12564317343E+02  0.90866083963E+01  0.72461639606E+02  0.70000090291E+02 0.  0.
         12    1    1    2    0    0  0.10499907198E+02 -0.12564317343E+02 -0.90866083963E+01  0.18726360394E+02  0.00000000000E+00 0. -1.
         11    1    3    3    0    0  0.10316309717E+02  0.95499852934E+01  0.28355619562E+02  0.31649164701E+02  0.51100000000E-03 0. -1.
        -11    1    3    3    0    0 -0.15717108419E+01 -0.44051424878E+01 -0.19634636849E+02  0.20184016443E+02  0.51100000000E-03 0.  1.
         12    1    3    3    0    0 -0.19244506073E+02  0.74194745375E+01  0.36562568358E+00  0.20628458462E+02  0.00000000000E+00 0. -1.
</event>
<event>
 7    1  0.1351543E-013  0.7246126E+02  0.7816164E-02  0.1226709E+00
        -11   -1    0    0    0    0  0.00000000000E+00  0.00000000000E+00  0.45593999997E+02  0.45594000000E+02  0.51100000000E-03 0. -1.
         11   -1    0    0    0    0 -0.00000000000E+00 -0.00000000000E+00 -0.45593999997E+02  0.45594000000E+02  0.51100000000E-03 0.  1.
    9900012    2    1    2    0    0  0.13658970539E+01  0.36388254543E+01 -0.18318952196E+02  0.72461261496E+02  0.69999597731E+02 0.  0.
         12    1    1    2    0    0 -0.13658970539E+01 -0.36388254543E+01  0.18318952196E+02  0.18726738504E+02  0.00000000000E+00 0. -1.
         11    1    3    3    0    0  0.91265261858E+01  0.42101773766E+01  0.61704026682E+01  0.11793767130E+02  0.51100000000E-03 0. -1.
        -11    1    3    3    0    0 -0.34218454260E+00 -0.20295323265E+02 -0.32337771727E+02  0.38180475602E+02  0.51100000000E-03 0.  1.
        -12    1    3    3    0    0 -0.74184445893E+01  0.19723971342E+02  0.78484168623E+01  0.22487018764E+02  0.00000000000E+00 0.  1.
</event>
<event>
 7    1  0.1351543E-013  0.7246156E+02  0.7816164E-02  0.1226708E+00
        -11   -1    0    0    0    0  0.00000000000E+00  0.00000000000E+00  0.45593999997E+02  0.45594000000E+02  0.51100000000E-03 0.  1.
         11   -1    0    0    0    0 -0.00000000000E+00 -0.00000000000E+00 -0.45593999997E+02  0.45594000000E+02  0.51100000000E-03 0. -1.
    9900012    2    1    2    0    0  0.47248557926E+01 -0.83909121813E+01  0.16060759849E+02  0.72461556760E+02  0.69999982369E+02 0.  0.
         12    1    1    2    0    0 -0.47248557926E+01  0.83909121813E+01 -0.16060759849E+02  0.18726443240E+02  0.00000000000E+00 0. -1.
         11    1    3    3    0    0 -0.16468521721E+02  0.54097820104E+00 -0.15883179442E+02  0.22886245968E+02  0.51100000000E-03 0. -1.
        -11    1    3    3    0    0  0.13208827091E+02 -0.14849419717E+02  0.34041269017E+02  0.39418097057E+02  0.51100000000E-03 0.  1.
         12    1    3    3    0    0  0.79845504227E+01  0.59175293343E+01 -0.20973297261E+01  0.10157213735E+02  0.00000000000E+00 0. -1.
</event>
<event>
 7    1  0.1351543E-013  0.7246165E+02  0.7816164E-02  0.1226708E+00
        -11   -1    0    0    0    0  0.00000000000E+00  0.00000000000E+00  0.45593999997E+02  0.45594000000E+02  0.51100000000E-03 0. -1.
         11   -1    0    0    0    0 -0.00000000000E+00 -0.00000000000E+00 -0.45593999997E+02  0.45594000000E+02  0.51100000000E-03 0.  1.
    9900012    2    1    2    0    0 -0.45527948748E+01 -0.15870563306E+02 -0.88359210043E+01  0.72461649026E+02  0.70000102562E+02 0.  0.
         12    1    1    2    0    0  0.45527948748E+01  0.15870563306E+02  0.88359210043E+01  0.18726350974E+02  0.00000000000E+00 0. -1.
         11    1    3    3    0    0 -0.13731938519E+02  0.12920791969E+02  0.94953276813E+01  0.21110998286E+02  0.51100000000E-03 0. -1.
        -11    1    3    3    0    0  0.17991523399E+02 -0.13208031108E+01 -0.12419688280E+02  0.21901782857E+02  0.51100000000E-03 0.  1.
         12    1    3    3    0    0 -0.88123797553E+01 -0.27470552164E+02 -0.59115604053E+01  0.29448867883E+02  0.00000000000E+00 0. -1.
</event>
<event>
 7    1  0.1351543E-013  0.7246157E+02  0.7816164E-02  0.1226708E+00
        -11   -1    0    0    0    0  0.00000000000E+00  0.00000000000E+00  0.45593999997E+02  0.45594000000E+02  0.51100000000E-03 0.  1.
         11   -1    0    0    0    0 -0.00000000000E+00 -0.00000000000E+00 -0.45593999997E+02  0.45594000000E+02  0.51100000000E-03 0. -1.
    9900012    2    1    2    0    0 -0.17512414308E+02  0.40790868724E+01  0.52302687371E+01  0.72461566392E+02  0.69999994917E+02 0.  0.
         12    1    1    2    0    0  0.17512414308E+02 -0.40790868724E+01 -0.52302687371E+01  0.18726433608E+02  0.00000000000E+00 0. -1.
         11    1    3    3    0    0  0.20866212666E+02 -0.71312435702E+01  0.31681309495E+01  0.22277578859E+02  0.51100000000E-03 0. -1.
        -11    1    3    3    0    0 -0.16037039325E+02 -0.66949921699E+01 -0.89013527739E+01  0.19525461119E+02  0.51100000000E-03 0.  1.
         12    1    3    3    0    0 -0.22341587649E+02  0.17905322612E+02  0.10963490561E+02  0.30658526413E+02  0.00000000000E+00 0. -1.
</event>
<event>
 7    1  0.1351543E-013  0.7246173E+02  0.7816164E-02  0.1226708E+00
        -11   -1    0    0    0    0  0.00000000000E+00  0.00000000000E+00  0.45593999997E+02  0.45594000000E+02  0.51100000000E-03 0.  1.
         11   -1    0    0    0    0 -0.00000000000E+00 -0.00000000000E+00 -0.45593999997E+02  0.45594000000E+02  0.51100000000E-03 0. -1.
    9900012    2    1    2    0    0  0.11614711282E+02  0.14591098361E+02  0.16945307217E+01  0.72461732248E+02  0.70000210975E+02 0.  0.
         12    1    1    2    0    0 -0.11614711282E+02 -0.14591098361E+02 -0.16945307217E+01  0.18726267752E+02  0.00000000000E+00 0. -1.
         11    1    3    3    0    0 -0.16094662606E+02  0.11019125800E+02  0.57615531013E+01  0.20338505162E+02  0.51100000000E-03 0.  1.
        -11    1    3    3    0    0  0.30418623988E+02  0.19280800256E+02 -0.32688663423E+01  0.36162514172E+02  0.51100000000E-03 0. -1.
        -12    1    3    3    0    0 -0.27092500996E+01 -0.15708827695E+02 -0.79815603729E+00  0.15960712914E+02  0.00000000000E+00 0.  1.
</event>
<event>
 7    1  0.1351543E-013  0.7246156E+02  0.7816164E-02  0.1226708E+00
        -11   -1    0    0    0    0  0.00000000000E+00  0.00000000000E+00  0.45593999997E+02  0.45594000000E+02  0.51100000000E-03 0. -1.
         11   -1    0    0    0    0 -0.00000000000E+00 -0.00000000000E+00 -0.45593999997E+02  0.45594000000E+02  0.51100000000E-03 0.  1.
    9900012    2    1    2    0    0 -0.15685864676E+02  0.98575988548E+01  0.27314747933E+01  0.72461559859E+02  0.69999986406E+02 0.  0.
         12    1    1    2    0    0  0.15685864676E+02 -0.98575988548E+01 -0.27314747933E+01  0.18726440141E+02  0.00000000000E+00 0. -1.
         11    1    3    3    0    0  0.32356602209E+01  0.13632093836E+02  0.17090719273E+02  0.22099686988E+02  0.51100000000E-03 0. -1.
        -11    1    3    3    0    0 -0.17674185707E+02 -0.21697170062E+02 -0.10523105641E+01  0.28004488692E+02  0.51100000000E-03 0.  1.
        -12    1    3    3    0    0 -0.12473391900E+01  0.17922675081E+02 -0.13306933916E+02  0.22357384180E+02  0.00000000000E+00 0.  1.
</event>
<event>
 7    1  0.1351543E-013  0.7246157E+02  0.7816164E-02  0.1226708E+00
        -11   -1    0    0    0    0  0.00000000000E+00  0.00000000000E+00  0.45593999997E+02  0.45594000000E+02  0.51100000000E-03 0.  1.
         11   -1    0    0    0    0 -0.00000000000E+00 -0.00000000000E+00 -0.45593999997E+02  0.45594000000E+02  0.51100000000E-03 0. -1.
    9900012    2    1    2    0    0  0.15768680692E+02 -0.10086503507E+02  0.53877670713E+00  0.72461571507E+02  0.70000001580E+02 0.  0.
         12    1    1    2    0    0 -0.15768680692E+02  0.10086503507E+02 -0.53877670713E+00  0.18726428493E+02  0.00000000000E+00 0. -1.
         11    1    3    3    0    0  0.46899794583E+01 -0.18640545850E+02 -0.11966889008E+02  0.22642267769E+02  0.51100000000E-03 0.  1.
        -11    1    3    3    0    0  0.16326027243E+02  0.23791005843E+02 -0.88383704744E+00  0.28867495436E+02  0.51100000000E-03 0. -1.
        -12    1    3    3    0    0 -0.52473260087E+01 -0.15236963499E+02  0.13389502762E+02  0.20951808302E+02  0.00000000000E+00 0.  1.
</event>
<event>
 7    1  0.1351543E-013  0.7246165E+02  0.7816164E-02  0.1226708E+00
        -11   -1    0    0    0    0  0.00000000000E+00  0.00000000000E+00  0.45593999997E+02  0.45594000000E+02  0.51100000000E-03 0. -1.
         11   -1    0    0    0    0 -0.00000000000E+00 -0.00000000000E+00 -0.45593999997E+02  0.45594000000E+02  0.51100000000E-03 0.  1.
    9900012    2    1    2    0    0  0.95847075332E+01  0.15525350655E+02 -0.42158041563E+01  0.72461651286E+02  0.70000105507E+02 0.  0.
         12    1    1    2    0    0 -0.95847075332E+01 -0.15525350655E+02  0.42158041563E+01  0.18726348714E+02  0.00000000000E+00 0. -1.
         11    1    3    3    0    0 -0.45571472961E+01  0.21692388484E+01  0.75108353387E+01  0.90490793126E+01  0.51100000000E-03 0. -1.
        -11    1    3    3    0    0  0.37078577487E+02  0.42173926801E+01 -0.10143150204E+02  0.38671576200E+02  0.51100000000E-03 0.  1.
        -12    1    3    3    0    0 -0.22936722658E+02  0.91387191267E+01 -0.15834892911E+01  0.24740995774E+02  0.00000000000E+00 0.  1.
</event>
<event>
 7    1  0.1351543E-013  0.7246156E+02  0.7816164E-02  0.1226708E+00
        -11   -1    0    0    0    0  0.00000000000E+00  0.00000000000E+00  0.45593999997E+02  0.45594000000E+02  0.51100000000E-03 0.  1.
         11   -1    0    0    0    0 -0.00000000000E+00 -0.00000000000E+00 -0.45593999997E+02  0.45594000000E+02  0.51100000000E-03 0. -1.
    9900012    2    1    2    0    0  0.63279984322E+00  0.18682753082E+02  0.11107887682E+01  0.72461560134E+02  0.69999986765E+02 0.  0.
         12    1    1    2    0    0 -0.63279984322E+00 -0.18682753082E+02 -0.11107887682E+01  0.18726439866E+02  0.00000000000E+00 0. -1.
         11    1    3    3    0    0  0.29781486531E+01  0.19836801762E+01 -0.86738238452E+01  0.93829407330E+01  0.51100000000E-03 0. -1.
        -11    1    3    3    0    0  0.23378068109E+02 -0.30257566363E+01  0.17975037386E+02  0.29644413319E+02  0.51100000000E-03 0.  1.
        -12    1    3    3    0    0 -0.25723416919E+02  0.19724829542E+02 -0.81904247726E+01  0.33434206083E+02  0.00000000000E+00 0.  1.
</event>
<event>
 7    1  0.1351543E-013  0.7246159E+02  0.7816164E-02  0.1226708E+00
        -11   -1    0    0    0    0  0.00000000000E+00  0.00000000000E+00  0.45593999997E+02  0.45594000000E+02  0.51100000000E-03 0.  1.
         11   -1    0    0    0    0 -0.00000000000E+00 -0.00000000000E+00 -0.45593999997E+02  0.45594000000E+02  0.51100000000E-03 0. -1.
    9900012    2    1    2    0    0  0.11616765399E+02 -0.83877230483E+01  0.12057175411E+02  0.72461585096E+02  0.70000019282E+02 0.  0.
         12    1    1    2    0    0 -0.11616765399E+02  0.83877230483E+01 -0.12057175411E+02  0.18726414904E+02  0.00000000000E+00 0. -1.
         11    1    3    3    0    0  0.80992823993E+01 -0.24414620589E+02  0.25022433372E+02  0.35885850220E+02  0.51100000000E-03 0.  1.
        -11    1    3    3    0    0 -0.91456280500E+01  0.17894840951E+02 -0.29261739557E+01  0.20308381013E+02  0.51100000000E-03 0. -1.
        -12    1    3    3    0    0  0.12663111050E+02 -0.18679434105E+01 -0.10039084005E+02  0.16267353863E+02  0.00000000000E+00 0.  1.
</event>
<event>
 7    1  0.1351543E-013  0.7246156E+02  0.7816164E-02  0.1226708E+00
        -11   -1    0    0    0    0  0.00000000000E+00  0.00000000000E+00  0.45593999997E+02  0.45594000000E+02  0.51100000000E-03 0.  1.
         11   -1    0    0    0    0 -0.00000000000E+00 -0.00000000000E+00 -0.45593999997E+02  0.45594000000E+02  0.51100000000E-03 0. -1.
    9900012    2    1    2    0    0  0.38284217952E+01 -0.39978720951E+01  0.17889658087E+02  0.72461557166E+02  0.69999982898E+02 0.  0.
         12    1    1    2    0    0 -0.38284217952E+01  0.39978720951E+01 -0.17889658087E+02  0.18726442834E+02  0.00000000000E+00 0. -1.
         11    1    3    3    0    0 -0.18101932264E+01  0.17978781747E+02  0.17671322820E+02  0.25274276312E+02  0.51100000000E-03 0. -1.
        -11    1    3    3    0    0 -0.15239693575E+01 -0.15442432573E+02 -0.19674562495E+02  0.25057526135E+02  0.51100000000E-03 0.  1.
        -12    1    3    3    0    0  0.71625843792E+01 -0.65342212691E+01  0.19892897761E+02  0.22129754719E+02  0.00000000000E+00 0.  1.
</event>
<event>
 7    1  0.1351543E-013  0.7246096E+02  0.7816164E-02  0.1226710E+00
        -11   -1    0    0    0    0  0.00000000000E+00  0.00000000000E+00  0.45593999997E+02  0.45594000000E+02  0.51100000000E-03 0.  1.
         11   -1    0    0    0    0 -0.00000000000E+00 -0.00000000000E+00 -0.45593999997E+02  0.45594000000E+02  0.51100000000E-03 0. -1.
    9900012    2    1    2    0    0 -0.12472132729E+01  0.18124800251E+02  0.45429231690E+01  0.72460958696E+02  0.69999203275E+02 0.  0.
         12    1    1    2    0    0  0.12472132729E+01 -0.18124800251E+02 -0.45429231690E+01  0.18727041304E+02  0.00000000000E+00 0. -1.
         11    1    3    3    0    0 -0.63505311693E+01 -0.62594967351E+01  0.30347967233E+02  0.31630834022E+02  0.51100000000E-03 0. -1.
        -11    1    3    3    0    0  0.79235477797E+01  0.19270466944E+02 -0.27726018485E+02  0.34682352962E+02  0.51100000000E-03 0.  1.
        -12    1    3    3    0    0 -0.28202298833E+01  0.51138300422E+01  0.19209744215E+01  0.61477717120E+01  0.00000000000E+00 0.  1.
</event>
<event>
 7    1  0.1351543E-013  0.7246156E+02  0.7816164E-02  0.1226708E+00
        -11   -1    0    0    0    0  0.00000000000E+00  0.00000000000E+00  0.45593999997E+02  0.45594000000E+02  0.51100000000E-03 0.  1.
         11   -1    0    0    0    0 -0.00000000000E+00 -0.00000000000E+00 -0.45593999997E+02  0.45594000000E+02  0.51100000000E-03 0. -1.
    9900012    2    1    2    0    0 -0.43354978741E+01  0.34285151229E+01  0.17892134189E+02  0.72461555500E+02  0.69999980728E+02 0.  0.
         12    1    1    2    0    0  0.43354978741E+01 -0.34285151229E+01 -0.17892134189E+02  0.18726444500E+02  0.00000000000E+00 0. -1.
         11    1    3    3    0    0  0.13061329677E+02  0.11249909656E+01  0.26173872310E+02  0.29273461182E+02  0.51100000000E-03 0.  1.
        -11    1    3    3    0    0 -0.16829800978E+02 -0.10617224016E+02 -0.18139817405E+02  0.26926206984E+02  0.51100000000E-03 0. -1.
         12    1    3    3    0    0 -0.56702657315E+00  0.12920748173E+02  0.98580792847E+01  0.16261887334E+02  0.00000000000E+00 0. -1.
</event>
<event>
 7    1  0.1351543E-013  0.7246131E+02  0.7816164E-02  0.1226709E+00
        -11   -1    0    0    0    0  0.00000000000E+00  0.00000000000E+00  0.45593999997E+02  0.45594000000E+02  0.51100000000E-03 0.  1.
         11   -1    0    0    0    0 -0.00000000000E+00 -0.00000000000E+00 -0.45593999997E+02  0.45594000000E+02  0.51100000000E-03 0. -1.
    9900012    2    1    2    0    0 -0.94678433944E+01 -0.11395465247E+02  0.11453924504E+02  0.72461305864E+02  0.69999655530E+02 0.  0.
         12    1    1    2    0    0  0.94678433944E+01  0.11395465247E+02 -0.11453924504E+02  0.18726694136E+02  0.00000000000E+00 0. -1.
         11    1    3    3    0    0  0.32526456479E+01  0.21078614297E+02 -0.97199443676E+01  0.23438536711E+02  0.51100000000E-03 0. -1.
        -11    1    3    3    0    0 -0.18946861443E+02 -0.17690501793E+02  0.20358732635E+02  0.32960816237E+02  0.51100000000E-03 0.  1.
         12    1    3    3    0    0  0.62263724011E+01 -0.14783577751E+02  0.81513623611E+00  0.16061952916E+02  0.00000000000E+00 0. -1.
</event>
<event>
 7    1  0.1351543E-013  0.7246158E+02  0.7816164E-02  0.1226708E+00
        -11   -1    0    0    0    0  0.00000000000E+00  0.00000000000E+00  0.45593999997E+02  0.45594000000E+02  0.51100000000E-03 0.  1.
         11   -1    0    0    0    0 -0.00000000000E+00 -0.00000000000E+00 -0.45593999997E+02  0.45594000000E+02  0.51100000000E-03 0. -1.
    9900012    2    1    2    0    0  0.48683390681E+01 -0.30772267828E+01  0.17818778508E+02  0.72461577024E+02  0.70000008766E+02 0.  0.
         12    1    1    2    0    0 -0.48683390681E+01  0.30772267828E+01 -0.17818778508E+02  0.18726422976E+02  0.00000000000E+00 0. -1.
         11    1    3    3    0    0 -0.64364876399E+01  0.14435428481E+02  0.33256556407E+01  0.16151469105E+02  0.51100000000E-03 0. -1.
        -11    1    3    3    0    0  0.99581145675E+01 -0.35246770814E+02  0.95680153763E+01  0.37855591622E+02  0.51100000000E-03 0.  1.
        -12    1    3    3    0    0  0.13467121404E+01  0.17734115550E+02  0.49251074913E+01  0.18454516297E+02  0.00000000000E+00 0.  1.
</event>
<event>
 7    1  0.1351543E-013  0.7246164E+02  0.7816164E-02  0.1226708E+00
        -11   -1    0    0    0    0  0.00000000000E+00  0.00000000000E+00  0.45593999997E+02  0.45594000000E+02  0.51100000000E-03 0.  1.
         11   -1    0    0    0    0 -0.00000000000E+00 -0.00000000000E+00 -0.45593999997E+02  0.45594000000E+02  0.51100000000E-03 0. -1.
    9900012    2    1    2    0    0  0.25989362719E+01  0.16465386296E+02  0.85330534002E+01  0.72461643815E+02  0.70000095775E+02 0.  0.
         12    1    1    2    0    0 -0.25989362719E+01 -0.16465386296E+02 -0.85330534002E+01  0.18726356185E+02  0.00000000000E+00 0. -1.
         11    1    3    3    0    0 -0.22883551065E+02  0.31672404602E+01  0.11372742504E+02  0.25749322201E+02  0.51100000000E-03 0. -1.
        -11    1    3    3    0    0  0.14101108045E+02  0.69577036857E+01 -0.19826298480E+02  0.25304801922E+02  0.51100000000E-03 0.  1.
        -12    1    3    3    0    0  0.11381379293E+02  0.63404421502E+01  0.16986609376E+02  0.21407519692E+02  0.00000000000E+00 0.  1.
</event>
<event>
 7    1  0.1351543E-013  0.7246160E+02  0.7816164E-02  0.1226708E+00
        -11   -1    0    0    0    0  0.00000000000E+00  0.00000000000E+00  0.45593999997E+02  0.45594000000E+02  0.51100000000E-03 0.  1.
         11   -1    0    0    0    0 -0.00000000000E+00 -0.00000000000E+00 -0.45593999997E+02  0.45594000000E+02  0.51100000000E-03 0. -1.
    9900012    2    1    2    0    0  0.54152409369E+01  0.46836049181E+01  0.17303675781E+02  0.72461596582E+02  0.70000034245E+02 0.  0.
         12    1    1    2    0    0 -0.54152409369E+01 -0.46836049181E+01 -0.17303675781E+02  0.18726403418E+02  0.00000000000E+00 0. -1.
         11    1    3    3    0    0 -0.28122297582E+02  0.36301317734E+00 -0.10335139403E+01  0.28143623633E+02  0.51100000000E-03 0. -1.
        -11    1    3    3    0    0  0.12742809468E+02  0.12640246116E+02  0.82602034315E+01  0.19758187569E+02  0.51100000000E-03 0.  1.
         12    1    3    3    0    0  0.20794729051E+02 -0.83196543757E+01  0.10076986290E+02  0.24559785380E+02  0.00000000000E+00 0. -1.
</event>
<event>
 7    1  0.1351543E-013  0.7246153E+02  0.7816164E-02  0.1226708E+00
        -11   -1    0    0    0    0  0.00000000000E+00  0.00000000000E+00  0.45593999997E+02  0.45594000000E+02  0.51100000000E-03 0.  1.
         11   -1    0    0    0    0 -0.00000000000E+00 -0.00000000000E+00 -0.45593999997E+02  0.45594000000E+02  0.51100000000E-03 0. -1.
    9900012    2    1    2    0    0 -0.18587846910E+02 -0.22460588309E+01 -0.35778274789E+00  0.72461525652E+02  0.69999941845E+02 0.  0.
         12    1    1    2    0    0  0.18587846910E+02  0.22460588309E+01  0.35778274789E+00  0.18726474348E+02  0.00000000000E+00 0. -1.
         11    1    3    3    0    0 -0.18228513272E+02 -0.24227097654E+02  0.18020616198E+02  0.35270009430E+02  0.51100000000E-03 0. -1.
        -11    1    3    3    0    0 -0.45095307811E+01  0.25722894100E+02 -0.12086684542E+02  0.28776571933E+02  0.51100000000E-03 0.  1.
         12    1    3    3    0    0  0.41501971432E+01 -0.37418552771E+01 -0.62917144039E+01  0.84149442887E+01  0.00000000000E+00 0. -1.
</event>
<event>
 7    1  0.1351543E-013  0.7246153E+02  0.7816164E-02  0.1226708E+00
        -11   -1    0    0    0    0  0.00000000000E+00  0.00000000000E+00  0.45593999997E+02  0.45594000000E+02  0.51100000000E-03 0.  1.
         11   -1    0    0    0    0 -0.00000000000E+00 -0.00000000000E+00 -0.45593999997E+02  0.45594000000E+02  0.51100000000E-03 0. -1.
    9900012    2    1    2    0    0 -0.38225996629E+01 -0.10361193053E+02  0.15123297888E+02  0.72461528665E+02  0.69999945770E+02 0.  0.
         12    1    1    2    0    0  0.38225996629E+01  0.10361193053E+02 -0.15123297888E+02  0.18726471335E+02  0.00000000000E+00 0. -1.
         11    1    3    3    0    0  0.30608580439E+01 -0.28060123084E+02 -0.13791422220E+02  0.31415643978E+02  0.51100000000E-03 0. -1.
        -11    1    3    3    0    0 -0.14716843411E+02  0.10188579379E+02  0.21118783224E+02  0.27683851518E+02  0.51100000000E-03 0.  1.
         12    1    3    3    0    0  0.78333857039E+01  0.75103506525E+01  0.77959368832E+01  0.13362033168E+02  0.00000000000E+00 0. -1.
</event>
<event>
 7    1  0.1351543E-013  0.7246158E+02  0.7816164E-02  0.1226708E+00
        -11   -1    0    0    0    0  0.00000000000E+00  0.00000000000E+00  0.45593999997E+02  0.45594000000E+02  0.51100000000E-03 0.  1.
         11   -1    0    0    0    0 -0.00000000000E+00 -0.00000000000E+00 -0.45593999997E+02  0.45594000000E+02  0.51100000000E-03 0. -1.
    9900012    2    1    2    0    0 -0.17094860039E+02  0.70610939677E+01 -0.29301276576E+01  0.72461576533E+02  0.70000008127E+02 0.  0.
         12    1    1    2    0    0  0.17094860039E+02 -0.70610939677E+01  0.29301276576E+01  0.18726423467E+02  0.00000000000E+00 0. -1.
         11    1    3    3    0    0 -0.18161231986E+02 -0.12177882529E+02 -0.68259318011E+01  0.22906866118E+02  0.51100000000E-03 0. -1.
        -11    1    3    3    0    0  0.20159120388E+02 -0.53698715470E+00 -0.47884476735E+01  0.20726980518E+02  0.51100000000E-03 0.  1.
        -12    1    3    3    0    0 -0.19092748441E+02  0.19775963651E+02  0.86842518170E+01  0.28827729897E+02  0.00000000000E+00 0.  1.
</event>
<event>
 7    1  0.1351543E-013  0.7246148E+02  0.7816164E-02  0.1226708E+00
        -11   -1    0    0    0    0  0.00000000000E+00  0.00000000000E+00  0.45593999997E+02  0.45594000000E+02  0.51100000000E-03 0.  1.
         11   -1    0    0    0    0 -0.00000000000E+00 -0.00000000000E+00 -0.45593999997E+02  0.45594000000E+02  0.51100000000E-03 0. -1.
    9900012    2    1    2    0    0  0.10125307429E+02 -0.15451627650E+02  0.30672253963E+01  0.72461480857E+02  0.69999883491E+02 0.  0.
         12    1    1    2    0    0 -0.10125307429E+02  0.15451627650E+02 -0.30672253963E+01  0.18726519143E+02  0.00000000000E+00 0. -1.
         11    1    3    3    0    0  0.11041493642E+02 -0.37499972079E+02 -0.11556988026E+02  0.40764279219E+02  0.51100000000E-03 0. -1.
        -11    1    3    3    0    0  0.76312407829E+01  0.55285168612E+01  0.61870813132E+01  0.11272990287E+02  0.51100000000E-03 0.  1.
         12    1    3    3    0    0 -0.85474269953E+01  0.16519827567E+02  0.84371321089E+01  0.20424211351E+02  0.00000000000E+00 0. -1.
</event>
<event>
 7    1  0.1351543E-013  0.7246155E+02  0.7816164E-02  0.1226708E+00
        -11   -1    0    0    0    0  0.00000000000E+00  0.00000000000E+00  0.45593999997E+02  0.45594000000E+02  0.51100000000E-03 0.  1.
         11   -1    0    0    0    0 -0.00000000000E+00 -0.00000000000E+00 -0.45593999997E+02  0.45594000000E+02  0.51100000000E-03 0. -1.
    9900012    2    1    2    0    0  0.59960878056E+01  0.64027612401E+01  0.16544836218E+02  0.72461547428E+02  0.69999970212E+02 0.  0.
         12    1    1    2    0    0 -0.59960878056E+01 -0.64027612401E+01 -0.16544836218E+02  0.18726452572E+02  0.00000000000E+00 0. -1.
         11    1    3    3    0    0 -0.12537211648E+02  0.21785815259E+02  0.30579442217E+02  0.39584159824E+02  0.51100000000E-03 0. -1.
        -11    1    3    3    0    0  0.12759051010E+02 -0.53745838191E+01  0.10399853967E+01  0.13883843264E+02  0.51100000000E-03 0.  1.
         12    1    3    3    0    0  0.57742484439E+01 -0.10008470200E+02 -0.15074591396E+02  0.18993544340E+02  0.00000000000E+00 0. -1.
</event>
<event>
 7    1  0.1351543E-013  0.7246155E+02  0.7816164E-02  0.1226708E+00
        -11   -1    0    0    0    0  0.00000000000E+00  0.00000000000E+00  0.45593999997E+02  0.45594000000E+02  0.51100000000E-03 0.  1.
         11   -1    0    0    0    0 -0.00000000000E+00 -0.00000000000E+00 -0.45593999997E+02  0.45594000000E+02  0.51100000000E-03 0. -1.
    9900012    2    1    2    0    0  0.54196988809E+01 -0.11743260942E+02  0.13542626767E+02  0.72461546699E+02  0.69999969262E+02 0.  0.
         12    1    1    2    0    0 -0.54196988809E+01  0.11743260942E+02 -0.13542626767E+02  0.18726453301E+02  0.00000000000E+00 0. -1.
         11    1    3    3    0    0 -0.29304014234E+02 -0.59344010163E+01  0.14026284307E+02  0.33025429859E+02  0.51100000000E-03 0. -1.
        -11    1    3    3    0    0  0.14139461076E+02 -0.79448031296E+01  0.66744977239E+01  0.17538334482E+02  0.51100000000E-03 0.  1.
         12    1    3    3    0    0  0.20584252039E+02  0.21359432043E+01 -0.71581552646E+01  0.21897782357E+02  0.00000000000E+00 0. -1.
</event>
<event>
 7    1  0.1351543E-013  0.7246157E+02  0.7816164E-02  0.1226708E+00
        -11   -1    0    0    0    0  0.00000000000E+00  0.00000000000E+00  0.45593999997E+02  0.45594000000E+02  0.51100000000E-03 0.  1.
         11   -1    0    0    0    0 -0.00000000000E+00 -0.00000000000E+00 -0.45593999997E+02  0.45594000000E+02  0.51100000000E-03 0. -1.
    9900012    2    1    2    0    0  0.44852162462E+01  0.99896529198E+01  0.15191072434E+02  0.72461574502E+02  0.70000005482E+02 0.  0.
         12    1    1    2    0    0 -0.44852162462E+01 -0.99896529198E+01 -0.15191072434E+02  0.18726425498E+02  0.00000000000E+00 0. -1.
         11    1    3    3    0    0  0.81322848625E+01  0.85297710262E+01 -0.11802988228E+01  0.11844161280E+02  0.51100000000E-03 0. -1.
        -11    1    3    3    0    0 -0.14773499923E+02 -0.25340654916E+02  0.75718545546E+01  0.30294192070E+02  0.51100000000E-03 0.  1.
        -12    1    3    3    0    0  0.11126431306E+02  0.26800536809E+02  0.87995167019E+01  0.30323221153E+02  0.00000000000E+00 0.  1.
</event>
<event>
 7    1  0.1351543E-013  0.7246148E+02  0.7816164E-02  0.1226708E+00
        -11   -1    0    0    0    0  0.00000000000E+00  0.00000000000E+00  0.45593999997E+02  0.45594000000E+02  0.51100000000E-03 0.  1.
         11   -1    0    0    0    0 -0.00000000000E+00 -0.00000000000E+00 -0.45593999997E+02  0.45594000000E+02  0.51100000000E-03 0. -1.
    9900012    2    1    2    0    0  0.68460402786E+01 -0.17421758393E+02  0.54470294215E+00  0.72461477784E+02  0.69999879488E+02 0.  0.
         12    1    1    2    0    0 -0.68460402786E+01  0.17421758393E+02 -0.54470294215E+00  0.18726522216E+02  0.00000000000E+00 0. -1.
         11    1    3    3    0    0 -0.57281403770E+00  0.16221854469E+01 -0.12619856644E+02  0.12736576602E+02  0.51100000000E-03 0. -1.
        -11    1    3    3    0    0 -0.12619719535E+02  0.34139565557E+01  0.24332021301E+02  0.27621724808E+02  0.51100000000E-03 0.  1.
        -12    1    3    3    0    0  0.20038573852E+02 -0.22457900396E+02 -0.11167461715E+02  0.32103176375E+02  0.00000000000E+00 0.  1.
</event>
<event>
 7    1  0.1351543E-013  0.7246156E+02  0.7816164E-02  0.1226708E+00
        -11   -1    0    0    0    0  0.00000000000E+00  0.00000000000E+00  0.45593999997E+02  0.45594000000E+02  0.51100000000E-03 0.  1.
         11   -1    0    0    0    0 -0.00000000000E+00 -0.00000000000E+00 -0.45593999997E+02  0.45594000000E+02  0.51100000000E-03 0. -1.
    9900012    2    1    2    0    0 -0.17587286427E+02  0.19759662253E+01  0.61206523417E+01  0.72461562232E+02  0.69999989497E+02 0.  0.
         12    1    1    2    0    0  0.17587286427E+02 -0.19759662253E+01 -0.61206523417E+01  0.18726437768E+02  0.00000000000E+00 0. -1.
         11    1    3    3    0    0  0.41138893467E+01 -0.18808610069E+02 -0.64420354314E+01  0.20302406730E+02  0.51100000000E-03 0. -1.
        -11    1    3    3    0    0 -0.16382627925E+02  0.23412073197E+02 -0.88707050742E+01  0.29919977905E+02  0.51100000000E-03 0.  1.
        -12    1    3    3    0    0 -0.53185478493E+01 -0.26274969024E+01  0.21433392847E+02  0.22239177596E+02  0.00000000000E+00 0.  1.
</event>
<event>
 7    1  0.1475847E-013  0.7246153E+02  0.7816164E-02  0.1226708E+00
        -11   -1    0    0    0    0  0.00000000000E+00  0.00000000000E+00  0.45593999997E+02  0.45594000000E+02  0.51100000000E-03 0. -1.
         11   -1    0    0    0    0 -0.00000000000E+00 -0.00000000000E+00 -0.45593999997E+02  0.45594000000E+02  0.51100000000E-03 0.  1.
    9900012    2    1    2    0    0  0.14672456423E+02  0.23233928687E+01 -0.11401828403E+02  0.72461526150E+02  0.69999942494E+02 0.  0.
         12    1    1    2    0    0 -0.14672456423E+02 -0.23233928687E+01  0.11401828403E+02  0.18726473850E+02  0.00000000000E+00 0. -1.
         11    1    3    3    0    0  0.78064628610E+01 -0.29131134623E+01  0.24087755067E+02  0.25488174452E+02  0.51100000000E-03 0. -1.
        -11    1    3    3    0    0 -0.11348940908E+02  0.52537822195E+01 -0.15801545930E+02  0.20151663489E+02  0.51100000000E-03 0.  1.
         12    1    3    3    0    0  0.18214934470E+02 -0.17275888466E-01 -0.19688037541E+02  0.26821688209E+02  0.00000000000E+00 0. -1.
</event>
<event>
 7    1  0.1351543E-013  0.7246157E+02  0.7816164E-02  0.1226708E+00
        -11   -1    0    0    0    0  0.00000000000E+00  0.00000000000E+00  0.45593999997E+02  0.45594000000E+02  0.51100000000E-03 0.  1.
         11   -1    0    0    0    0 -0.00000000000E+00 -0.00000000000E+00 -0.45593999997E+02  0.45594000000E+02  0.51100000000E-03 0. -1.
    9900012    2    1    2    0    0  0.10169732847E+02 -0.12490045908E+02  0.95527240185E+01  0.72461568169E+02  0.69999997231E+02 0.  0.
         12    1    1    2    0    0 -0.10169732847E+02  0.12490045908E+02 -0.95527240185E+01  0.18726431831E+02  0.00000000000E+00 0. -1.
         11    1    3    3    0    0  0.83310023084E+01 -0.10706897347E+02 -0.20933613247E+02  0.24945128064E+02  0.51100000000E-03 0. -1.
        -11    1    3    3    0    0 -0.76890073994E+01  0.14356098189E+02  0.77040869001E+01  0.18015863710E+02  0.51100000000E-03 0.  1.
        -12    1    3    3    0    0  0.95277379378E+01 -0.16139246751E+02  0.22782250366E+02  0.29500576395E+02  0.00000000000E+00 0.  1.
</event>
<event>
 7    1  0.1351543E-013  0.7246160E+02  0.7816164E-02  0.1226708E+00
        -11   -1    0    0    0    0  0.00000000000E+00  0.00000000000E+00  0.45593999997E+02  0.45594000000E+02  0.51100000000E-03 0.  1.
         11   -1    0    0    0    0 -0.00000000000E+00 -0.00000000000E+00 -0.45593999997E+02  0.45594000000E+02  0.51100000000E-03 0. -1.
    9900012    2    1    2    0    0  0.17267826650E+02  0.71531263628E+01  0.11545807162E+01  0.72461598568E+02  0.70000036831E+02 0.  0.
         12    1    1    2    0    0 -0.17267826650E+02 -0.71531263628E+01 -0.11545807162E+01  0.18726401432E+02  0.00000000000E+00 0. -1.
         11    1    3    3    0    0 -0.20371283638E+01  0.24880700562E+01 -0.23922959898E+02  0.24138110844E+02  0.51100000000E-03 0. -1.
        -11    1    3    3    0    0  0.19649791156E+02  0.17335672910E+02  0.86924931976E+01  0.27607956933E+02  0.51100000000E-03 0.  1.
        -12    1    3    3    0    0 -0.34483614279E+00 -0.12670616604E+02  0.16385047417E+02  0.20715530791E+02  0.00000000000E+00 0.  1.
</event>
<event>
 7    1  0.1351543E-013  0.7246154E+02  0.7816164E-02  0.1226708E+00
        -11   -1    0    0    0    0  0.00000000000E+00  0.00000000000E+00  0.45593999997E+02  0.45594000000E+02  0.51100000000E-03 0. -1.
         11   -1    0    0    0    0 -0.00000000000E+00 -0.00000000000E+00 -0.45593999997E+02  0.45594000000E+02  0.51100000000E-03 0.  1.
    9900012    2    1    2    0    0  0.11216153371E+02  0.10600420639E+02  0.10607045365E+02  0.72461536758E+02  0.69999956312E+02 0.  0.
         12    1    1    2    0    0 -0.11216153371E+02 -0.10600420639E+02 -0.10607045365E+02  0.18726463242E+02  0.00000000000E+00 0. -1.
         11    1    3    3    0    0  0.13901876496E+02 -0.15414358569E+02 -0.14612075683E+02  0.25384589346E+02  0.51100000000E-03 0. -1.
        -11    1    3    3    0    0 -0.11512946959E+02  0.27856112761E+02  0.15777714392E+02  0.34021276248E+02  0.51100000000E-03 0.  1.
        -12    1    3    3    0    0  0.88272238347E+01 -0.18413335533E+01  0.94414066569E+01  0.13055671164E+02  0.00000000000E+00 0.  1.
</event>
<event>
 7    1  0.1351543E-013  0.7246156E+02  0.7816164E-02  0.1226708E+00
        -11   -1    0    0    0    0  0.00000000000E+00  0.00000000000E+00  0.45593999997E+02  0.45594000000E+02  0.51100000000E-03 0. -1.
         11   -1    0    0    0    0 -0.00000000000E+00 -0.00000000000E+00 -0.45593999997E+02  0.45594000000E+02  0.51100000000E-03 0.  1.
    9900012    2    1    2    0    0 -0.89661536516E+00  0.16700265190E+02 -0.84247701030E+01  0.72461560727E+02  0.69999987537E+02 0.  0.
         12    1    1    2    0    0  0.89661536516E+00 -0.16700265190E+02  0.84247701030E+01  0.18726439273E+02  0.00000000000E+00 0. -1.
         11    1    3    3    0    0 -0.22530378268E+02  0.33958830257E+01  0.35962934112E+00  0.22787700628E+02  0.51100000000E-03 0. -1.
        -11    1    3    3    0    0  0.23249085196E+02 -0.10102015636E+02 -0.59799192171E+01  0.26044771385E+02  0.51100000000E-03 0.  1.
        -12    1    3    3    0    0 -0.16153222940E+01  0.23406397801E+02 -0.28044802271E+01  0.23629088714E+02  0.00000000000E+00 0.  1.
</event>
<event>
 7    1  0.1351543E-013  0.7246149E+02  0.7816164E-02  0.1226708E+00
        -11   -1    0    0    0    0  0.00000000000E+00  0.00000000000E+00  0.45593999997E+02  0.45594000000E+02  0.51100000000E-03 0. -1.
         11   -1    0    0    0    0 -0.00000000000E+00 -0.00000000000E+00 -0.45593999997E+02  0.45594000000E+02  0.51100000000E-03 0.  1.
    9900012    2    1    2    0    0 -0.16924324317E+02  0.67937647612E+01 -0.42537312658E+01  0.72461488769E+02  0.69999893798E+02 0.  0.
         12    1    1    2    0    0  0.16924324317E+02 -0.67937647612E+01  0.42537312658E+01  0.18726511231E+02  0.00000000000E+00 0. -1.
         11    1    3    3    0    0 -0.53150653899E+01  0.19739298893E+02  0.27250652861E+02  0.34065934928E+02  0.51100000000E-03 0. -1.
        -11    1    3    3    0    0 -0.12532706531E+02 -0.68443585489E+01 -0.27650861573E+02  0.31120477550E+02  0.51100000000E-03 0.  1.
        -12    1    3    3    0    0  0.92344760371E+00 -0.61011755827E+01 -0.38535225542E+01  0.72750762912E+01  0.00000000000E+00 0.  1.
</event>
<event>
 7    1  0.1475174E-013  0.7246167E+02  0.7816164E-02  0.1226708E+00
        -11   -1    0    0    0    0  0.00000000000E+00  0.00000000000E+00  0.45593999997E+02  0.45594000000E+02  0.51100000000E-03 0. -1.
         11   -1    0    0    0    0 -0.00000000000E+00 -0.00000000000E+00 -0.45593999997E+02  0.45594000000E+02  0.51100000000E-03 0.  1.
    9900012    2    1    2    0    0  0.17768446693E+02  0.80006004422E-01 -0.59119571403E+01  0.72461672648E+02  0.70000133335E+02 0.  0.
         12    1    1    2    0    0 -0.17768446693E+02 -0.80006004422E-01  0.59119571403E+01  0.18726327352E+02  0.00000000000E+00 0. -1.
         11    1    3    3    0    0  0.17561811246E+02 -0.21487822410E+02  0.53885287264E+01  0.28269771281E+02  0.51100000000E-03 0. -1.
        -11    1    3    3    0    0  0.17214529378E+02  0.18151967754E+02 -0.94658256769E+01  0.26747631877E+02  0.51100000000E-03 0.  1.
         12    1    3    3    0    0 -0.17007893931E+02  0.34158606607E+01 -0.18346601898E+01  0.17444269490E+02  0.00000000000E+00 0. -1.
</event>
<event>
 7    1  0.1351543E-013  0.7246155E+02  0.7816164E-02  0.1226708E+00
        -11   -1    0    0    0    0  0.00000000000E+00  0.00000000000E+00  0.45593999997E+02  0.45594000000E+02  0.51100000000E-03 0.  1.
         11   -1    0    0    0    0 -0.00000000000E+00 -0.00000000000E+00 -0.45593999997E+02  0.45594000000E+02  0.51100000000E-03 0. -1.
    9900012    2    1    2    0    0 -0.94647287928E+01 -0.58345446738E+01  0.15068402070E+02  0.72461554966E+02  0.69999980032E+02 0.  0.
         12    1    1    2    0    0  0.94647287928E+01  0.58345446738E+01 -0.15068402070E+02  0.18726445034E+02  0.00000000000E+00 0. -1.
         11    1    3    3    0    0 -0.15479372056E+01  0.16115809337E+02  0.23641571363E+02  0.28653783641E+02  0.51100000000E-03 0.  1.
        -11    1    3    3    0    0 -0.20735331805E+02 -0.82285447026E+01 -0.11001641687E+02  0.24873661834E+02  0.51100000000E-03 0. -1.
         12    1    3    3    0    0  0.12818540218E+02 -0.13721809309E+02  0.24284723945E+01  0.18934109490E+02  0.00000000000E+00 0. -1.
</event>
<event>
 7    1  0.1351543E-013  0.7246163E+02  0.7816164E-02  0.1226708E+00
        -11   -1    0    0    0    0  0.00000000000E+00  0.00000000000E+00  0.45593999997E+02  0.45594000000E+02  0.51100000000E-03 0.  1.
         11   -1    0    0    0    0 -0.00000000000E+00 -0.00000000000E+00 -0.45593999997E+02  0.45594000000E+02  0.51100000000E-03 0. -1.
    9900012    2    1    2    0    0  0.18604461941E+02  0.21198884442E+01  0.23878751573E+00  0.72461629540E+02  0.70000077179E+02 0.  0.
         12    1    1    2    0    0 -0.18604461941E+02 -0.21198884442E+01 -0.23878751573E+00  0.18726370460E+02  0.00000000000E+00 0. -1.
         11    1    3    3    0    0  0.43031221342E+02  0.87303208642E+00 -0.70925261644E+01  0.43620547026E+02  0.51100000000E-03 0.  1.
        -11    1    3    3    0    0 -0.21099488184E+02 -0.10715143026E+01  0.78599798437E+00  0.21141294606E+02  0.51100000000E-03 0. -1.
        -12    1    3    3    0    0 -0.33272712177E+01  0.23183706604E+01  0.65453156957E+01  0.76997879082E+01  0.00000000000E+00 0.  1.
</event>
<event>
 7    1  0.1351543E-013  0.7246162E+02  0.7816164E-02  0.1226708E+00
        -11   -1    0    0    0    0  0.00000000000E+00  0.00000000000E+00  0.45593999997E+02  0.45594000000E+02  0.51100000000E-03 0.  1.
         11   -1    0    0    0    0 -0.00000000000E+00 -0.00000000000E+00 -0.45593999997E+02  0.45594000000E+02  0.51100000000E-03 0. -1.
    9900012    2    1    2    0    0  0.96365825754E+01 -0.14493460631E+02  0.69103636304E+01  0.72461621538E+02  0.70000066755E+02 0.  0.
         12    1    1    2    0    0 -0.96365825754E+01  0.14493460631E+02 -0.69103636304E+01  0.18726378462E+02  0.00000000000E+00 0. -1.
         11    1    3    3    0    0 -0.15983442779E+02 -0.29002639305E+02  0.27305859238E+01  0.33227693713E+02  0.51100000000E-03 0. -1.
        -11    1    3    3    0    0  0.99101267669E+01 -0.10412164006E+01 -0.90598728925E+01  0.13467592258E+02  0.51100000000E-03 0.  1.
         12    1    3    3    0    0  0.15709898587E+02  0.15550395075E+02  0.13239650599E+02  0.25766335568E+02  0.00000000000E+00 0. -1.
</event>
<event>
 7    1  0.1351543E-013  0.7246159E+02  0.7816164E-02  0.1226708E+00
        -11   -1    0    0    0    0  0.00000000000E+00  0.00000000000E+00  0.45593999997E+02  0.45594000000E+02  0.51100000000E-03 0.  1.
         11   -1    0    0    0    0 -0.00000000000E+00 -0.00000000000E+00 -0.45593999997E+02  0.45594000000E+02  0.51100000000E-03 0. -1.
    9900012    2    1    2    0    0 -0.38198703854E+01 -0.14718904860E+00  0.18332088236E+02  0.72461587277E+02  0.70000022124E+02 0.  0.
         12    1    1    2    0    0  0.38198703854E+01  0.14718904860E+00 -0.18332088236E+02  0.18726412723E+02  0.00000000000E+00 0. -1.
         11    1    3    3    0    0  0.15533904644E+02 -0.11877386248E+02  0.31557496171E+02  0.37124790402E+02  0.51100000000E-03 0.  1.
        -11    1    3    3    0    0 -0.15870673327E+02 -0.15287357686E+01 -0.14522714045E+02  0.21566745893E+02  0.51100000000E-03 0. -1.
        -12    1    3    3    0    0 -0.34831017023E+01  0.13258932968E+02  0.12973061101E+01  0.13770050982E+02  0.00000000000E+00 0.  1.
</event>
<event>
 7    1  0.1351543E-013  0.7246159E+02  0.7816164E-02  0.1226708E+00
        -11   -1    0    0    0    0  0.00000000000E+00  0.00000000000E+00  0.45593999997E+02  0.45594000000E+02  0.51100000000E-03 0. -1.
         11   -1    0    0    0    0 -0.00000000000E+00 -0.00000000000E+00 -0.45593999997E+02  0.45594000000E+02  0.51100000000E-03 0.  1.
    9900012    2    1    2    0    0 -0.18599528259E+02 -0.20648400716E+01  0.68739005556E+00  0.72461587608E+02  0.70000022554E+02 0.  0.
         12    1    1    2    0    0  0.18599528259E+02  0.20648400716E+01 -0.68739005556E+00  0.18726412392E+02  0.00000000000E+00 0. -1.
         11    1    3    3    0    0 -0.11523681727E+02 -0.33641542732E+02 -0.11685657044E+02  0.37431313346E+02  0.51100000000E-03 0.  1.
        -11    1    3    3    0    0 -0.47392336554E+01  0.18856060626E+02  0.10062200668E+02  0.21891990328E+02  0.51100000000E-03 0. -1.
        -12    1    3    3    0    0 -0.23366128766E+01  0.12720642035E+02  0.23108464316E+01  0.13138283935E+02  0.00000000000E+00 0.  1.
</event>
<event>
 7    1  0.1351543E-013  0.7246163E+02  0.7816164E-02  0.1226708E+00
        -11   -1    0    0    0    0  0.00000000000E+00  0.00000000000E+00  0.45593999997E+02  0.45594000000E+02  0.51100000000E-03 0.  1.
         11   -1    0    0    0    0 -0.00000000000E+00 -0.00000000000E+00 -0.45593999997E+02  0.45594000000E+02  0.51100000000E-03 0. -1.
    9900012    2    1    2    0    0  0.27063740357E+01 -0.35751090642E+01  0.18181611601E+02  0.72461631809E+02  0.70000080134E+02 0.  0.
         12    1    1    2    0    0 -0.27063740357E+01  0.35751090642E+01 -0.18181611601E+02  0.18726368191E+02  0.00000000000E+00 0. -1.
         11    1    3    3    0    0  0.16021561117E+02  0.10911309708E+02 -0.17685757529E+02  0.26239914630E+02  0.51100000000E-03 0. -1.
        -11    1    3    3    0    0 -0.98543830614E+01 -0.76409482895E+01  0.34910433723E+01  0.12949144388E+02  0.51100000000E-03 0.  1.
         12    1    3    3    0    0 -0.34608040198E+01 -0.68454704828E+01  0.32376325757E+02  0.33272572791E+02  0.00000000000E+00 0. -1.
</event>
<event>
 7    1  0.1351543E-013  0.7246156E+02  0.7816164E-02  0.1226708E+00
        -11   -1    0    0    0    0  0.00000000000E+00  0.00000000000E+00  0.45593999997E+02  0.45594000000E+02  0.51100000000E-03 0.  1.
         11   -1    0    0    0    0 -0.00000000000E+00 -0.00000000000E+00 -0.45593999997E+02  0.45594000000E+02  0.51100000000E-03 0. -1.
    9900012    2    1    2    0    0  0.13676066406E+02  0.10384908424E+02  0.74698246638E+01  0.72461564252E+02  0.69999992129E+02 0.  0.
         12    1    1    2    0    0 -0.13676066406E+02 -0.10384908424E+02 -0.74698246638E+01  0.18726435748E+02  0.00000000000E+00 0. -1.
         11    1    3    3    0    0  0.10316057139E+02 -0.16644986125E+02 -0.55979176436E+01  0.20366965414E+02  0.51100000000E-03 0. -1.
        -11    1    3    3    0    0 -0.17434111583E+02  0.19590083030E+02  0.14494686631E+02  0.29963570224E+02  0.51100000000E-03 0.  1.
        -12    1    3    3    0    0  0.20794120850E+02  0.74398115190E+01 -0.14269443231E+01  0.22131028613E+02  0.00000000000E+00 0.  1.
</event>
<event>
 7    1  0.1351543E-013  0.7246178E+02  0.7816164E-02  0.1226707E+00
        -11   -1    0    0    0    0  0.00000000000E+00  0.00000000000E+00  0.45593999997E+02  0.45594000000E+02  0.51100000000E-03 0.  1.
         11   -1    0    0    0    0 -0.00000000000E+00 -0.00000000000E+00 -0.45593999997E+02  0.45594000000E+02  0.51100000000E-03 0. -1.
    9900012    2    1    2    0    0 -0.19848638896E+01 -0.18613854013E+02 -0.50613083096E+00  0.72461777362E+02  0.70000269743E+02 0.  0.
         12    1    1    2    0    0  0.19848638896E+01  0.18613854013E+02  0.50613083096E+00  0.18726222638E+02  0.00000000000E+00 0. -1.
         11    1    3    3    0    0  0.26025348614E+02 -0.18245344719E+02 -0.20109594935E+02  0.37611264045E+02  0.51100000000E-03 0. -1.
        -11    1    3    3    0    0 -0.54458766486E+01  0.23552134310E+01  0.26627144630E+01  0.65034338123E+01  0.51100000000E-03 0.  1.
         12    1    3    3    0    0 -0.22564335855E+02 -0.27237227250E+01  0.16940749641E+02  0.28347079505E+02  0.00000000000E+00 0. -1.
</event>
<event>
 7    1  0.1351543E-013  0.7246157E+02  0.7816164E-02  0.1226708E+00
        -11   -1    0    0    0    0  0.00000000000E+00  0.00000000000E+00  0.45593999997E+02  0.45594000000E+02  0.51100000000E-03 0. -1.
         11   -1    0    0    0    0 -0.00000000000E+00 -0.00000000000E+00 -0.45593999997E+02  0.45594000000E+02  0.51100000000E-03 0.  1.
    9900012    2    1    2    0    0  0.12381078345E+02 -0.36497562194E+01 -0.13567147236E+02  0.72461566662E+02  0.69999995268E+02 0.  0.
         12    1    1    2    0    0 -0.12381078345E+02  0.36497562194E+01  0.13567147236E+02  0.18726433338E+02  0.00000000000E+00 0. -1.
         11    1    3    3    0    0 -0.50127815964E+01 -0.13710173025E+01  0.18974763756E+02  0.19673569266E+02  0.51100000000E-03 0. -1.
        -11    1    3    3    0    0 -0.72610161583E+00 -0.71491079237E+01 -0.33244007404E+02  0.34011777316E+02  0.51100000000E-03 0.  1.
        -12    1    3    3    0    0  0.18119961558E+02  0.48703690068E+01  0.70209641243E+00  0.18776220080E+02  0.00000000000E+00 0.  1.
</event>
<event>
 7    1  0.1351543E-013  0.7246136E+02  0.7816164E-02  0.1226709E+00
        -11   -1    0    0    0    0  0.00000000000E+00  0.00000000000E+00  0.45593999997E+02  0.45594000000E+02  0.51100000000E-03 0. -1.
         11   -1    0    0    0    0 -0.00000000000E+00 -0.00000000000E+00 -0.45593999997E+02  0.45594000000E+02  0.51100000000E-03 0.  1.
    9900012    2    1    2    0    0 -0.11062766591E+02  0.15014035719E+02 -0.16973878304E+01  0.72461355915E+02  0.69999720731E+02 0.  0.
         12    1    1    2    0    0  0.11062766591E+02 -0.15014035719E+02  0.16973878304E+01  0.18726644085E+02  0.00000000000E+00 0. -1.
         11    1    3    3    0    0 -0.24959238983E+02 -0.30421739892E+01  0.10857324010E+02  0.27387952061E+02  0.51100000000E-03 0. -1.
        -11    1    3    3    0    0  0.93533239136E+01  0.28145848714E+02 -0.15715362203E+02  0.33565548968E+02  0.51100000000E-03 0.  1.
         12    1    3    3    0    0  0.45431484783E+01 -0.10089639006E+02  0.31606503628E+01  0.11507854886E+02  0.00000000000E+00 0. -1.
</event>
<event>
 7    1  0.1351543E-013  0.7246141E+02  0.7816164E-02  0.1226708E+00
        -11   -1    0    0    0    0  0.00000000000E+00  0.00000000000E+00  0.45593999997E+02  0.45594000000E+02  0.51100000000E-03 0. -1.
         11   -1    0    0    0    0 -0.00000000000E+00 -0.00000000000E+00 -0.45593999997E+02  0.45594000000E+02  0.51100000000E-03 0.  1.
    9900012    2    1    2    0    0  0.12327580582E+02  0.48600106739E+00  0.14088287312E+02  0.72461407159E+02  0.69999787486E+02 0.  0.
         12    1    1    2    0    0 -0.12327580582E+02 -0.48600106739E+00 -0.14088287312E+02  0.18726592841E+02  0.00000000000E+00 0. -1.
         11    1    3    3    0    0  0.33960755231E+02  0.16139078410E+02  0.88892370911E+01  0.38637045489E+02  0.51100000000E-03 0. -1.
        -11    1    3    3    0    0 -0.13413275041E+02 -0.19922078368E+02  0.51458507498E+01  0.24561859336E+02  0.51100000000E-03 0.  1.
        -12    1    3    3    0    0 -0.82198996074E+01  0.42690010252E+01  0.53199470779E-01  0.92625023343E+01  0.00000000000E+00 0.  1.
</event>
<event>
 7    1  0.1351543E-013  0.7246157E+02  0.7816164E-02  0.1226708E+00
        -11   -1    0    0    0    0  0.00000000000E+00  0.00000000000E+00  0.45593999997E+02  0.45594000000E+02  0.51100000000E-03 0.  1.
         11   -1    0    0    0    0 -0.00000000000E+00 -0.00000000000E+00 -0.45593999997E+02  0.45594000000E+02  0.51100000000E-03 0. -1.
    9900012    2    1    2    0    0  0.15323563447E+02 -0.20110090658E+01  0.10574656939E+02  0.72461571521E+02  0.70000001598E+02 0.  0.
         12    1    1    2    0    0 -0.15323563447E+02  0.20110090658E+01 -0.10574656939E+02  0.18726428479E+02  0.00000000000E+00 0. -1.
         11    1    3    3    0    0  0.27690789997E+02 -0.14260420679E+02  0.10202326398E+02  0.32775401032E+02  0.51100000000E-03 0. -1.
        -11    1    3    3    0    0 -0.13448077420E+02 -0.96769746904E+01  0.48872874913E+01  0.17273685326E+02  0.51100000000E-03 0.  1.
         12    1    3    3    0    0  0.10808508697E+01  0.21926386304E+02 -0.45149569499E+01  0.22412485164E+02  0.00000000000E+00 0. -1.
</event>
<event>
 7    1  0.1351543E-013  0.7246161E+02  0.7816164E-02  0.1226708E+00
        -11   -1    0    0    0    0  0.00000000000E+00  0.00000000000E+00  0.45593999997E+02  0.45594000000E+02  0.51100000000E-03 0. -1.
         11   -1    0    0    0    0 -0.00000000000E+00 -0.00000000000E+00 -0.45593999997E+02  0.45594000000E+02  0.51100000000E-03 0.  1.
    9900012    2    1    2    0    0 -0.14861894989E+02 -0.90605565232E+01 -0.69070968359E+01  0.72461612364E+02  0.70000054804E+02 0.  0.
         12    1    1    2    0    0  0.14861894989E+02  0.90605565232E+01  0.69070968359E+01  0.18726387636E+02  0.00000000000E+00 0. -1.
         11    1    3    3    0    0 -0.10943785238E+01  0.15926836740E+02 -0.12467374821E+02  0.20255794926E+02  0.51100000000E-03 0. -1.
        -11    1    3    3    0    0 -0.86291464583E+01 -0.23205225257E+02 -0.16324580797E+02  0.29655296091E+02  0.51100000000E-03 0.  1.
         12    1    3    3    0    0 -0.51383700071E+01 -0.17821680064E+01  0.21884858782E+02  0.22550521347E+02  0.00000000000E+00 0. -1.
</event>
<event>
 7    1  0.1351543E-013  0.7246157E+02  0.7816164E-02  0.1226708E+00
        -11   -1    0    0    0    0  0.00000000000E+00  0.00000000000E+00  0.45593999997E+02  0.45594000000E+02  0.51100000000E-03 0. -1.
         11   -1    0    0    0    0 -0.00000000000E+00 -0.00000000000E+00 -0.45593999997E+02  0.45594000000E+02  0.51100000000E-03 0.  1.
    9900012    2    1    2    0    0  0.12661363748E+02  0.40944161076E+01 -0.13175911855E+02  0.72461574061E+02  0.70000004907E+02 0.  0.
         12    1    1    2    0    0 -0.12661363748E+02 -0.40944161076E+01  0.13175911855E+02  0.18726425939E+02  0.00000000000E+00 0. -1.
         11    1    3    3    0    0 -0.20078681089E+02 -0.11871674861E+02 -0.14617529050E+01  0.23371495890E+02  0.51100000000E-03 0. -1.
        -11    1    3    3    0    0  0.18492178391E+02  0.23156731057E+02 -0.14330596777E+02  0.32917485614E+02  0.51100000000E-03 0.  1.
        -12    1    3    3    0    0  0.14247866446E+02 -0.71906400880E+01  0.26164378272E+01  0.16172592558E+02  0.00000000000E+00 0.  1.
</event>
<event>
 7    1  0.1351543E-013  0.7246160E+02  0.7816164E-02  0.1226708E+00
        -11   -1    0    0    0    0  0.00000000000E+00  0.00000000000E+00  0.45593999997E+02  0.45594000000E+02  0.51100000000E-03 0.  1.
         11   -1    0    0    0    0 -0.00000000000E+00 -0.00000000000E+00 -0.45593999997E+02  0.45594000000E+02  0.51100000000E-03 0. -1.
    9900012    2    1    2    0    0 -0.13989604434E+02 -0.40693247153E+01 -0.11764765482E+02  0.72461597710E+02  0.70000035714E+02 0.  0.
         12    1    1    2    0    0  0.13989604434E+02  0.40693247153E+01  0.11764765482E+02  0.18726402290E+02  0.00000000000E+00 0. -1.
         11    1    3    3    0    0 -0.45924923285E+01  0.14699372471E+02 -0.17149285723E+02  0.23049089741E+02  0.51100000000E-03 0. -1.
        -11    1    3    3    0    0 -0.13422466614E+02 -0.32293379050E+02  0.46847878421E+01  0.35284163273E+02  0.51100000000E-03 0.  1.
        -12    1    3    3    0    0  0.40253545088E+01  0.13524681864E+02  0.69973239798E+00  0.14128344697E+02  0.00000000000E+00 0.  1.
</event>
<event>
 7    1  0.1351543E-013  0.7246144E+02  0.7816164E-02  0.1226708E+00
        -11   -1    0    0    0    0  0.00000000000E+00  0.00000000000E+00  0.45593999997E+02  0.45594000000E+02  0.51100000000E-03 0. -1.
         11   -1    0    0    0    0 -0.00000000000E+00 -0.00000000000E+00 -0.45593999997E+02  0.45594000000E+02  0.51100000000E-03 0.  1.
    9900012    2    1    2    0    0 -0.66908514459E+01  0.16030707966E+02 -0.69952175915E+01  0.72461437045E+02  0.69999826417E+02 0.  0.
         12    1    1    2    0    0  0.66908514459E+01 -0.16030707966E+02  0.69952175915E+01  0.18726562955E+02  0.00000000000E+00 0. -1.
         11    1    3    3    0    0 -0.87119806878E+01  0.20253797801E+02  0.18454905358E+02  0.28752364510E+02  0.51100000000E-03 0. -1.
        -11    1    3    3    0    0  0.15200052485E+02 -0.63099396282E+01 -0.25519072735E+02  0.30365770321E+02  0.51100000000E-03 0.  1.
        -12    1    3    3    0    0 -0.13178923243E+02  0.20868497933E+01  0.68949785774E-01  0.13343302214E+02  0.00000000000E+00 0.  1.
</event>
<event>
 7    1  0.1351543E-013  0.7246157E+02  0.7816164E-02  0.1226708E+00
        -11   -1    0    0    0    0  0.00000000000E+00  0.00000000000E+00  0.45593999997E+02  0.45594000000E+02  0.51100000000E-03 0. -1.
         11   -1    0    0    0    0 -0.00000000000E+00 -0.00000000000E+00 -0.45593999997E+02  0.45594000000E+02  0.51100000000E-03 0.  1.
    9900012    2    1    2    0    0 -0.28626614122E+01  0.15971668003E+02  0.93482669567E+01  0.72461572037E+02  0.70000002270E+02 0.  0.
         12    1    1    2    0    0  0.28626614122E+01 -0.15971668003E+02 -0.93482669567E+01  0.18726427963E+02  0.00000000000E+00 0. -1.
         11    1    3    3    0    0  0.93549635235E+01 -0.13506928096E+02 -0.53828330264E+01  0.17289515342E+02  0.51100000000E-03 0. -1.
        -11    1    3    3    0    0 -0.22052887017E+02  0.23342011706E+02 -0.47909635367E+01  0.32467409323E+02  0.51100000000E-03 0.  1.
        -12    1    3    3    0    0  0.98352620809E+01  0.61365843926E+01  0.19522063520E+02  0.22704647372E+02  0.00000000000E+00 0.  1.
</event>
<event>
 7    1  0.1351543E-013  0.7246153E+02  0.7816164E-02  0.1226708E+00
        -11   -1    0    0    0    0  0.00000000000E+00  0.00000000000E+00  0.45593999997E+02  0.45594000000E+02  0.51100000000E-03 0. -1.
         11   -1    0    0    0    0 -0.00000000000E+00 -0.00000000000E+00 -0.45593999997E+02  0.45594000000E+02  0.51100000000E-03 0.  1.
    9900012    2    1    2    0    0  0.10754775121E+02 -0.12981523879E+02 -0.81544775917E+01  0.72461530634E+02  0.69999948335E+02 0.  0.
         12    1    1    2    0    0 -0.10754775121E+02  0.12981523879E+02  0.81544775917E+01  0.18726469366E+02  0.00000000000E+00 0. -1.
         11    1    3    3    0    0 -0.14385389207E+02  0.29626466239E+01  0.38397292402E+01  0.15180916262E+02  0.51100000000E-03 0. -1.
        -11    1    3    3    0    0  0.25701268428E+02 -0.17621446097E+02 -0.27568388473E+02  0.41606328901E+02  0.51100000000E-03 0.  1.
        -12    1    3    3    0    0 -0.56110410027E+00  0.16772755939E+01  0.15574181641E+02  0.15674285471E+02  0.00000000000E+00 0.  1.
</event>
<event>
 7    1  0.1351543E-013  0.7246166E+02  0.7816164E-02  0.1226708E+00
        -11   -1    0    0    0    0  0.00000000000E+00  0.00000000000E+00  0.45593999997E+02  0.45594000000E+02  0.51100000000E-03 0.  1.
         11   -1    0    0    0    0 -0.00000000000E+00 -0.00000000000E+00 -0.45593999997E+02  0.45594000000E+02  0.51100000000E-03 0. -1.
    9900012    2    1    2    0    0 -0.12421421755E+02 -0.40718058031E+01  0.13409121536E+02  0.72461658625E+02  0.70000115067E+02 0.  0.
         12    1    1    2    0    0  0.12421421755E+02  0.40718058031E+01 -0.13409121536E+02  0.18726341375E+02  0.00000000000E+00 0. -1.
         11    1    3    3    0    0 -0.15360081551E+02 -0.40868533504E+00  0.27029410719E+01  0.15601442871E+02  0.51100000000E-03 0. -1.
        -11    1    3    3    0    0  0.27500934175E+02 -0.98777292979E+00  0.15657781299E+02  0.31661383282E+02  0.51100000000E-03 0.  1.
        -12    1    3    3    0    0 -0.24562274380E+02 -0.26753475383E+01 -0.49516008347E+01  0.25198832473E+02  0.00000000000E+00 0.  1.
</event>
<event>
 7    1  0.1351543E-013  0.7246158E+02  0.7816164E-02  0.1226708E+00
        -11   -1    0    0    0    0  0.00000000000E+00  0.00000000000E+00  0.45593999997E+02  0.45594000000E+02  0.51100000000E-03 0.  1.
         11   -1    0    0    0    0 -0.00000000000E+00 -0.00000000000E+00 -0.45593999997E+02  0.45594000000E+02  0.51100000000E-03 0. -1.
    9900012    2    1    2    0    0  0.12814235229E+02  0.92348628709E+01 -0.10059404064E+02  0.72461576773E+02  0.70000008440E+02 0.  0.
         12    1    1    2    0    0 -0.12814235229E+02 -0.92348628709E+01  0.10059404064E+02  0.18726423227E+02  0.00000000000E+00 0. -1.
         11    1    3    3    0    0  0.12013569498E+02  0.74901836159E+01 -0.21609824845E+02  0.25834342120E+02  0.51100000000E-03 0. -1.
        -11    1    3    3    0    0  0.14869109984E+02  0.14155906954E+02  0.17467754004E+02  0.26955566469E+02  0.51100000000E-03 0.  1.
        -12    1    3    3    0    0 -0.14068444253E+02 -0.12411227699E+02 -0.59173332229E+01  0.19671668185E+02  0.00000000000E+00 0.  1.
</event>
<event>
 7    1  0.1351543E-013  0.7246166E+02  0.7816164E-02  0.1226708E+00
        -11   -1    0    0    0    0  0.00000000000E+00  0.00000000000E+00  0.45593999997E+02  0.45594000000E+02  0.51100000000E-03 0.  1.
         11   -1    0    0    0    0 -0.00000000000E+00 -0.00000000000E+00 -0.45593999997E+02  0.45594000000E+02  0.51100000000E-03 0. -1.
    9900012    2    1    2    0    0  0.11280185936E+02  0.11824393564E+02  0.91442262665E+01  0.72461661546E+02  0.70000118872E+02 0.  0.
         12    1    1    2    0    0 -0.11280185936E+02 -0.11824393564E+02 -0.91442262665E+01  0.18726338454E+02  0.00000000000E+00 0. -1.
         11    1    3    3    0    0 -0.69066654046E+01 -0.19243446541E+02  0.17126859340E+02  0.26670987475E+02  0.51100000000E-03 0. -1.
        -11    1    3    3    0    0  0.22529570485E+02  0.12147635469E+02 -0.59004701701E+01  0.26267130452E+02  0.51100000000E-03 0.  1.
         12    1    3    3    0    0 -0.43427191443E+01  0.18920204636E+02 -0.20821629031E+01  0.19523543618E+02  0.00000000000E+00 0. -1.
</event>
<event>
 7    1  0.1351543E-013  0.7246159E+02  0.7816164E-02  0.1226708E+00
        -11   -1    0    0    0    0  0.00000000000E+00  0.00000000000E+00  0.45593999997E+02  0.45594000000E+02  0.51100000000E-03 0.  1.
         11   -1    0    0    0    0 -0.00000000000E+00 -0.00000000000E+00 -0.45593999997E+02  0.45594000000E+02  0.51100000000E-03 0. -1.
    9900012    2    1    2    0    0  0.17840438083E+01  0.10349187436E+01  0.18612484106E+02  0.72461589941E+02  0.70000025593E+02 0.  0.
         12    1    1    2    0    0 -0.17840438083E+01 -0.10349187436E+01 -0.18612484106E+02  0.18726410059E+02  0.00000000000E+00 0. -1.
         11    1    3    3    0    0  0.12813347868E+02  0.10718268397E+02 -0.16921337623E+01  0.16790666394E+02  0.51100000000E-03 0. -1.
        -11    1    3    3    0    0 -0.18158909899E+02 -0.26932270011E+02  0.17183909892E+02  0.36747516053E+02  0.51100000000E-03 0.  1.
        -12    1    3    3    0    0  0.71296058391E+01  0.17248920357E+02  0.31207079761E+01  0.18923407494E+02  0.00000000000E+00 0.  1.
</event>
<event>
 7    1  0.1351543E-013  0.7246151E+02  0.7816164E-02  0.1226708E+00
        -11   -1    0    0    0    0  0.00000000000E+00  0.00000000000E+00  0.45593999997E+02  0.45594000000E+02  0.51100000000E-03 0.  1.
         11   -1    0    0    0    0 -0.00000000000E+00 -0.00000000000E+00 -0.45593999997E+02  0.45594000000E+02  0.51100000000E-03 0. -1.
    9900012    2    1    2    0    0  0.17986968235E+02 -0.36438377972E+01  0.37246176985E+01  0.72461511884E+02  0.69999923909E+02 0.  0.
         12    1    1    2    0    0 -0.17986968235E+02  0.36438377972E+01 -0.37246176985E+01  0.18726488116E+02  0.00000000000E+00 0. -1.
         11    1    3    3    0    0 -0.86968029228E+01 -0.24565162861E+02 -0.72915229825E+01  0.27060079733E+02  0.51100000000E-03 0.  1.
        -11    1    3    3    0    0  0.30026681592E+02  0.14507211428E+02  0.15623154987E+02  0.36825857259E+02  0.51100000000E-03 0. -1.
         12    1    3    3    0    0 -0.33429104343E+01  0.64141136358E+01 -0.46070143063E+01  0.85755748917E+01  0.00000000000E+00 0. -1.
</event>
<event>
 7    1  0.1351543E-013  0.7246158E+02  0.7816164E-02  0.1226708E+00
        -11   -1    0    0    0    0  0.00000000000E+00  0.00000000000E+00  0.45593999997E+02  0.45594000000E+02  0.51100000000E-03 0.  1.
         11   -1    0    0    0    0 -0.00000000000E+00 -0.00000000000E+00 -0.45593999997E+02  0.45594000000E+02  0.51100000000E-03 0. -1.
    9900012    2    1    2    0    0 -0.39528795086E+01  0.15745455609E+02  0.93345678391E+01  0.72461580548E+02  0.70000013358E+02 0.  0.
         12    1    1    2    0    0  0.39528795086E+01 -0.15745455609E+02 -0.93345678391E+01  0.18726419452E+02  0.00000000000E+00 0. -1.
         11    1    3    3    0    0 -0.15312497371E+02 -0.11069857713E+02  0.25492058527E+02  0.31731047472E+02  0.51100000000E-03 0. -1.
        -11    1    3    3    0    0 -0.33859134541E+01  0.18085018849E+02 -0.20096119481E+01  0.18508669783E+02  0.51100000000E-03 0.  1.
         12    1    3    3    0    0  0.14745531317E+02  0.87302944727E+01 -0.14147878739E+02  0.22221863293E+02  0.00000000000E+00 0. -1.
</event>
<event>
 7    1  0.1351543E-013  0.7246150E+02  0.7816164E-02  0.1226708E+00
        -11   -1    0    0    0    0  0.00000000000E+00  0.00000000000E+00  0.45593999997E+02  0.45594000000E+02  0.51100000000E-03 0.  1.
         11   -1    0    0    0    0 -0.00000000000E+00 -0.00000000000E+00 -0.45593999997E+02  0.45594000000E+02  0.51100000000E-03 0. -1.
    9900012    2    1    2    0    0  0.46672932229E+01  0.91000281885E+01 -0.15687177526E+02  0.72461503323E+02  0.69999912758E+02 0.  0.
         12    1    1    2    0    0 -0.46672932229E+01 -0.91000281885E+01  0.15687177526E+02  0.18726496677E+02  0.00000000000E+00 0. -1.
         11    1    3    3    0    0  0.31708212600E+02  0.35086754882E+01 -0.62590284304E+01  0.32509952125E+02  0.51100000000E-03 0.  1.
        -11    1    3    3    0    0 -0.16078941392E+02  0.16699565289E+02 -0.64620069307E+01  0.24065854877E+02  0.51100000000E-03 0. -1.
        -12    1    3    3    0    0 -0.10961977985E+02 -0.11108212589E+02 -0.29661421647E+01  0.15885696321E+02  0.00000000000E+00 0.  1.
</event>
<event>
 8    1  0.1351543E-013  0.7246155E+02  0.7816164E-02  0.1226708E+00
        -11   -1    0    0    0    0  0.00000000000E+00  0.00000000000E+00  0.45593999997E+02  0.45594000000E+02  0.51100000000E-03 0.  1.
         11   -1    0    0    0    0 -0.00000000000E+00 -0.00000000000E+00 -0.45593999997E+02  0.45594000000E+02  0.51100000000E-03 0. -1.
    9900012    2    1    2    0    0 -0.94077047456E+01  0.67594090701E+00  0.16177703015E+02  0.72461551337E+02  0.69999975304E+02 0.  0.
         24    2    3    3    0    0 -0.32795242519E+01 -0.93355311421E+01  0.70291261252E+01  0.57579326096E+02  0.56285546622E+02 0.  0.
         12    1    1    2    0    0  0.94077047456E+01 -0.67594090701E+00 -0.16177703015E+02  0.18726448663E+02  0.00000000000E+00 0. -1.
         11    1    3    3    0    0 -0.61281804937E+01  0.10011472049E+02  0.91485768898E+01  0.14882225241E+02  0.51100000000E-03 0. -1.
        -11    1    4    4    0    0  0.14680939740E+02 -0.18111114821E+02  0.22424610091E+02  0.32348193299E+02  0.51100000000E-03 0.  1.
         12    1    4    4    0    0 -0.17960463992E+02  0.87755836786E+01 -0.15395483965E+02  0.25231132797E+02  0.00000000000E+00 0. -1.
</event>
<event>
 7    1  0.1351543E-013  0.7246160E+02  0.7816164E-02  0.1226708E+00
        -11   -1    0    0    0    0  0.00000000000E+00  0.00000000000E+00  0.45593999997E+02  0.45594000000E+02  0.51100000000E-03 0.  1.
         11   -1    0    0    0    0 -0.00000000000E+00 -0.00000000000E+00 -0.45593999997E+02  0.45594000000E+02  0.51100000000E-03 0. -1.
    9900012    2    1    2    0    0  0.12364234948E+02  0.12729948877E+02  0.59793040841E+01  0.72461602012E+02  0.70000041318E+02 0.  0.
         12    1    1    2    0    0 -0.12364234948E+02 -0.12729948877E+02 -0.59793040841E+01  0.18726397988E+02  0.00000000000E+00 0. -1.
         11    1    3    3    0    0  0.57787187506E+01  0.75987145932E+01 -0.16090813225E+02  0.18709578412E+02  0.51100000000E-03 0. -1.
        -11    1    3    3    0    0  0.98858360062E+01  0.24833994306E+02  0.20552153106E+02  0.33717176991E+02  0.51100000000E-03 0.  1.
        -12    1    3    3    0    0 -0.33003198089E+01 -0.19702760022E+02  0.15179642027E+01  0.20034846609E+02  0.00000000000E+00 0.  1.
</event>
<event>
 7    1  0.1351543E-013  0.7246160E+02  0.7816164E-02  0.1226708E+00
        -11   -1    0    0    0    0  0.00000000000E+00  0.00000000000E+00  0.45593999997E+02  0.45594000000E+02  0.51100000000E-03 0.  1.
         11   -1    0    0    0    0 -0.00000000000E+00 -0.00000000000E+00 -0.45593999997E+02  0.45594000000E+02  0.51100000000E-03 0. -1.
    9900012    2    1    2    0    0  0.16620445451E+02  0.74225714351E+01 -0.43982293972E+01  0.72461596300E+02  0.70000033877E+02 0.  0.
         12    1    1    2    0    0 -0.16620445451E+02 -0.74225714351E+01  0.43982293972E+01  0.18726403700E+02  0.00000000000E+00 0. -1.
         11    1    3    3    0    0  0.50569535622E+01 -0.28793569073E+02 -0.79297005537E+01  0.30290634698E+02  0.51100000000E-03 0. -1.
        -11    1    3    3    0    0  0.18205999914E+01  0.86155742385E+00  0.50811082382E+01  0.54657594818E+01  0.51100000000E-03 0.  1.
         12    1    3    3    0    0  0.97428918978E+01  0.35354583084E+02 -0.15496370817E+01  0.36705202120E+02  0.00000000000E+00 0. -1.
</event>
<event>
 7    1  0.1351543E-013  0.7246159E+02  0.7816164E-02  0.1226708E+00
        -11   -1    0    0    0    0  0.00000000000E+00  0.00000000000E+00  0.45593999997E+02  0.45594000000E+02  0.51100000000E-03 0.  1.
         11   -1    0    0    0    0 -0.00000000000E+00 -0.00000000000E+00 -0.45593999997E+02  0.45594000000E+02  0.51100000000E-03 0. -1.
    9900012    2    1    2    0    0 -0.16728887060E+02  0.43957217884E+01 -0.71763800122E+01  0.72461589175E+02  0.70000024596E+02 0.  0.
         12    1    1    2    0    0  0.16728887060E+02 -0.43957217884E+01  0.71763800122E+01  0.18726410825E+02  0.00000000000E+00 0. -1.
         11    1    3    3    0    0  0.53735367900E+01  0.58795847760E+01 -0.34734426113E+02  0.35636003879E+02  0.51100000000E-03 0. -1.
        -11    1    3    3    0    0 -0.11753372556E+02  0.85584657097E+00  0.70418231070E+01  0.13728128523E+02  0.51100000000E-03 0.  1.
         12    1    3    3    0    0 -0.10349051293E+02 -0.23397095586E+01  0.20516222994E+02  0.23097456774E+02  0.00000000000E+00 0. -1.
</event>
<event>
 7    1  0.1351543E-013  0.7246158E+02  0.7816164E-02  0.1226708E+00
        -11   -1    0    0    0    0  0.00000000000E+00  0.00000000000E+00  0.45593999997E+02  0.45594000000E+02  0.51100000000E-03 0.  1.
         11   -1    0    0    0    0 -0.00000000000E+00 -0.00000000000E+00 -0.45593999997E+02  0.45594000000E+02  0.51100000000E-03 0. -1.
    9900012    2    1    2    0    0 -0.87644594615E+01  0.13721727960E+02  0.92507938636E+01  0.72461581363E+02  0.70000014419E+02 0.  0.
         12    1    1    2    0    0  0.87644594615E+01 -0.13721727960E+02 -0.92507938636E+01  0.18726418637E+02  0.00000000000E+00 0. -1.
         11    1    3    3    0    0  0.24394979788E+02  0.64527276556E+01  0.78868039528E+01  0.26437745931E+02  0.51100000000E-03 0. -1.
        -11    1    3    3    0    0 -0.18819653859E+02  0.43266073042E+01  0.16182111626E+02  0.25194436669E+02  0.51100000000E-03 0.  1.
        -12    1    3    3    0    0 -0.14339785391E+02  0.29423930003E+01 -0.14818121715E+02  0.20829398763E+02  0.00000000000E+00 0.  1.
</event>
<event>
 7    1  0.1351543E-013  0.7246168E+02  0.7816164E-02  0.1226708E+00
        -11   -1    0    0    0    0  0.00000000000E+00  0.00000000000E+00  0.45593999997E+02  0.45594000000E+02  0.51100000000E-03 0.  1.
         11   -1    0    0    0    0 -0.00000000000E+00 -0.00000000000E+00 -0.45593999997E+02  0.45594000000E+02  0.51100000000E-03 0. -1.
    9900012    2    1    2    0    0  0.35877995651E+01 -0.11839541517E+02  0.14058021959E+02  0.72461680809E+02  0.70000143966E+02 0.  0.
         12    1    1    2    0    0 -0.35877995651E+01  0.11839541517E+02 -0.14058021959E+02  0.18726319191E+02  0.00000000000E+00 0. -1.
         11    1    3    3    0    0 -0.15246476896E+02  0.15505298694E+02 -0.64702013433E+01  0.22687724677E+02  0.51100000000E-03 0. -1.
        -11    1    3    3    0    0  0.10007686308E+02 -0.16401433095E+02  0.27918099178E+02  0.33890722252E+02  0.51100000000E-03 0.  1.
         12    1    3    3    0    0  0.88265901529E+01 -0.10943407116E+02 -0.73898758761E+01  0.15883233880E+02  0.00000000000E+00 0. -1.
</event>
<event>
 7    1  0.1351543E-013  0.7246156E+02  0.7816164E-02  0.1226708E+00
        -11   -1    0    0    0    0  0.00000000000E+00  0.00000000000E+00  0.45593999997E+02  0.45594000000E+02  0.51100000000E-03 0.  1.
         11   -1    0    0    0    0 -0.00000000000E+00 -0.00000000000E+00 -0.45593999997E+02  0.45594000000E+02  0.51100000000E-03 0. -1.
    9900012    2    1    2    0    0 -0.60097747469E+01 -0.12908979455E+02  0.12162254144E+02  0.72461559630E+02  0.69999986107E+02 0.  0.
         12    1    1    2    0    0  0.60097747469E+01  0.12908979455E+02 -0.12162254144E+02  0.18726440370E+02  0.00000000000E+00 0. -1.
         11    1    3    3    0    0 -0.47370984488E+01 -0.40733017006E+01 -0.18989754415E+02  0.19991064540E+02  0.51100000000E-03 0. -1.
        -11    1    3    3    0    0  0.12913270177E+02 -0.14111071457E+02  0.32033473644E+02  0.37309761703E+02  0.51100000000E-03 0.  1.
        -12    1    3    3    0    0 -0.14185946476E+02  0.52753937030E+01 -0.88146508504E+00  0.15160733387E+02  0.00000000000E+00 0.  1.
</event>
<event>
 7    1  0.1351543E-013  0.7246145E+02  0.7816164E-02  0.1226708E+00
        -11   -1    0    0    0    0  0.00000000000E+00  0.00000000000E+00  0.45593999997E+02  0.45594000000E+02  0.51100000000E-03 0.  1.
         11   -1    0    0    0    0 -0.00000000000E+00 -0.00000000000E+00 -0.45593999997E+02  0.45594000000E+02  0.51100000000E-03 0. -1.
    9900012    2    1    2    0    0 -0.34835334562E+01  0.63031560276E+01  0.17286375676E+02  0.72461452928E+02  0.69999847108E+02 0.  0.
         12    1    1    2    0    0  0.34835334562E+01 -0.63031560276E+01 -0.17286375676E+02  0.18726547072E+02  0.00000000000E+00 0. -1.
         11    1    3    3    0    0 -0.82415639067E+00  0.17869560597E+02  0.26059507035E+01  0.18077372846E+02  0.51100000000E-03 0. -1.
        -11    1    3    3    0    0 -0.13457360304E+02  0.23335170630E+01  0.28763907313E+02  0.31841925388E+02  0.51100000000E-03 0.  1.
        -12    1    3    3    0    0  0.10797983239E+02 -0.13899921632E+02 -0.14083482341E+02  0.22542154694E+02  0.00000000000E+00 0.  1.
</event>
<event>
 7    1  0.1351543E-013  0.7246150E+02  0.7816164E-02  0.1226708E+00
        -11   -1    0    0    0    0  0.00000000000E+00  0.00000000000E+00  0.45593999997E+02  0.45594000000E+02  0.51100000000E-03 0.  1.
         11   -1    0    0    0    0 -0.00000000000E+00 -0.00000000000E+00 -0.45593999997E+02  0.45594000000E+02  0.51100000000E-03 0. -1.
    9900012    2    1    2    0    0 -0.39180542322E+01  0.14852509554E+02  0.10711372929E+02  0.72461502755E+02  0.69999912018E+02 0.  0.
         12    1    1    2    0    0  0.39180542322E+01 -0.14852509554E+02 -0.10711372929E+02  0.18726497245E+02  0.00000000000E+00 0. -1.
         11    1    3    3    0    0 -0.19860109684E+01  0.17281243590E+02 -0.23124774147E+02  0.28936841555E+02  0.51100000000E-03 0. -1.
        -11    1    3    3    0    0  0.40130882770E+01  0.11273847552E+02  0.19121481597E+02  0.22557384043E+02  0.51100000000E-03 0.  1.
         12    1    3    3    0    0 -0.59451315408E+01 -0.13702581588E+02  0.14714665480E+02  0.20967277157E+02  0.00000000000E+00 0. -1.
</event>
<event>
 7    1  0.1351543E-013  0.7246160E+02  0.7816164E-02  0.1226708E+00
        -11   -1    0    0    0    0  0.00000000000E+00  0.00000000000E+00  0.45593999997E+02  0.45594000000E+02  0.51100000000E-03 0. -1.
         11   -1    0    0    0    0 -0.00000000000E+00 -0.00000000000E+00 -0.45593999997E+02  0.45594000000E+02  0.51100000000E-03 0.  1.
    9900012    2    1    2    0    0 -0.79584881194E+01 -0.16032401938E+02  0.55047753415E+01  0.72461601612E+02  0.70000040797E+02 0.  0.
         12    1    1    2    0    0  0.79584881194E+01  0.16032401938E+02 -0.55047753415E+01  0.18726398388E+02  0.00000000000E+00 0. -1.
         11    1    3    3    0    0  0.13306485841E+02  0.23184387022E+02  0.49428681031E+01  0.27184744111E+02  0.51100000000E-03 0. -1.
        -11    1    3    3    0    0 -0.64607562392E+01 -0.70543274201E+01 -0.20200453806E+01  0.97767832201E+01  0.51100000000E-03 0.  1.
         12    1    3    3    0    0 -0.14804217721E+02 -0.32162461540E+02  0.25819526190E+01  0.35500074281E+02  0.00000000000E+00 0. -1.
</event>
<event>
 7    1  0.1351543E-013  0.7246154E+02  0.7816164E-02  0.1226708E+00
        -11   -1    0    0    0    0  0.00000000000E+00  0.00000000000E+00  0.45593999997E+02  0.45594000000E+02  0.51100000000E-03 0.  1.
         11   -1    0    0    0    0 -0.00000000000E+00 -0.00000000000E+00 -0.45593999997E+02  0.45594000000E+02  0.51100000000E-03 0. -1.
    9900012    2    1    2    0    0  0.12478395248E+02  0.69661423617E+01  0.12101359532E+02  0.72461537710E+02  0.69999957553E+02 0.  0.
         12    1    1    2    0    0 -0.12478395248E+02 -0.69661423617E+01 -0.12101359532E+02  0.18726462290E+02  0.00000000000E+00 0. -1.
         11    1    3    3    0    0  0.20738972439E+01  0.51336485358E+01  0.26294516704E+00  0.55429719005E+01  0.51100000000E-03 0. -1.
        -11    1    3    3    0    0  0.18919385060E+02 -0.26555077878E+02  0.17100904617E+02  0.36817879232E+02  0.51100000000E-03 0.  1.
        -12    1    3    3    0    0 -0.85148870558E+01  0.28387571704E+02 -0.52624902521E+01  0.30100686578E+02  0.00000000000E+00 0.  1.
</event>
<event>
 7    1  0.1351543E-013  0.7246159E+02  0.7816164E-02  0.1226708E+00
        -11   -1    0    0    0    0  0.00000000000E+00  0.00000000000E+00  0.45593999997E+02  0.45594000000E+02  0.51100000000E-03 0.  1.
         11   -1    0    0    0    0 -0.00000000000E+00 -0.00000000000E+00 -0.45593999997E+02  0.45594000000E+02  0.51100000000E-03 0. -1.
    9900012    2    1    2    0    0  0.11112914978E+02 -0.10265719588E+02  0.11036151111E+02  0.72461587922E+02  0.70000022963E+02 0.  0.
         12    1    1    2    0    0 -0.11112914978E+02  0.10265719588E+02 -0.11036151111E+02  0.18726412078E+02  0.00000000000E+00 0. -1.
         11    1    3    3    0    0  0.17633604907E+02 -0.15905310185E+02  0.62420262372E+01  0.24553733034E+02  0.51100000000E-03 0.  1.
        -11    1    3    3    0    0 -0.23359118733E+02  0.13627214386E+02 -0.39344617611E+01  0.27328179404E+02  0.51100000000E-03 0. -1.
         12    1    3    3    0    0  0.16838428804E+02 -0.79876237893E+01  0.87285866349E+01  0.20579675484E+02  0.00000000000E+00 0. -1.
</event>
<event>
 7    1  0.1351543E-013  0.7246160E+02  0.7816164E-02  0.1226708E+00
        -11   -1    0    0    0    0  0.00000000000E+00  0.00000000000E+00  0.45593999997E+02  0.45594000000E+02  0.51100000000E-03 0. -1.
         11   -1    0    0    0    0 -0.00000000000E+00 -0.00000000000E+00 -0.45593999997E+02  0.45594000000E+02  0.51100000000E-03 0.  1.
    9900012    2    1    2    0    0 -0.18139385763E+02  0.22835108020E+01 -0.40529540019E+01  0.72461596886E+02  0.70000034641E+02 0.  0.
         12    1    1    2    0    0  0.18139385763E+02 -0.22835108020E+01  0.40529540019E+01  0.18726403114E+02  0.00000000000E+00 0. -1.
         11    1    3    3    0    0 -0.56461821657E+01  0.27201599346E+02  0.82214885179E+01  0.28972387781E+02  0.51100000000E-03 0. -1.
        -11    1    3    3    0    0 -0.43005483620E+01 -0.15271980774E+01 -0.17563736083E+02  0.18146952241E+02  0.51100000000E-03 0.  1.
         12    1    3    3    0    0 -0.81926552349E+01 -0.23390890466E+02  0.52892935633E+01  0.25342256865E+02  0.00000000000E+00 0. -1.
</event>
<event>
 7    1  0.1351543E-013  0.7246154E+02  0.7816164E-02  0.1226708E+00
        -11   -1    0    0    0    0  0.00000000000E+00  0.00000000000E+00  0.45593999997E+02  0.45594000000E+02  0.51100000000E-03 0. -1.
         11   -1    0    0    0    0 -0.00000000000E+00 -0.00000000000E+00 -0.45593999997E+02  0.45594000000E+02  0.51100000000E-03 0.  1.
    9900012    2    1    2    0    0 -0.17985192539E+02  0.47234032544E+01 -0.22141716737E+01  0.72461541574E+02  0.69999962586E+02 0.  0.
         12    1    1    2    0    0  0.17985192539E+02 -0.47234032544E+01  0.22141716737E+01  0.18726458426E+02  0.00000000000E+00 0. -1.
         11    1    3    3    0    0  0.16367550845E+02  0.11323839660E+02 -0.20631748135E+02  0.28666968738E+02  0.51100000000E-03 0.  1.
        -11    1    3    3    0    0 -0.23620824938E+02 -0.12943374578E+02  0.15167647267E+02  0.30911678053E+02  0.51100000000E-03 0. -1.
        -12    1    3    3    0    0 -0.10731918446E+02  0.63429381728E+01  0.32499291943E+01  0.12882894782E+02  0.00000000000E+00 0.  1.
</event>
<event>
 7    1  0.1351543E-013  0.7246151E+02  0.7816164E-02  0.1226708E+00
        -11   -1    0    0    0    0  0.00000000000E+00  0.00000000000E+00  0.45593999997E+02  0.45594000000E+02  0.51100000000E-03 0. -1.
         11   -1    0    0    0    0 -0.00000000000E+00 -0.00000000000E+00 -0.45593999997E+02  0.45594000000E+02  0.51100000000E-03 0.  1.
    9900012    2    1    2    0    0  0.11484189898E+02  0.91020617920E+01 -0.11659645668E+02  0.72461508508E+02  0.69999919512E+02 0.  0.
         12    1    1    2    0    0 -0.11484189898E+02 -0.91020617920E+01  0.11659645668E+02  0.18726491492E+02  0.00000000000E+00 0. -1.
         11    1    3    3    0    0  0.54050103226E+01 -0.53961591700E+01  0.87790869246E+01  0.11636367039E+02  0.51100000000E-03 0. -1.
        -11    1    3    3    0    0  0.76855222218E+01 -0.64459398015E+01 -0.34248072740E+02  0.35686802580E+02  0.51100000000E-03 0.  1.
        -12    1    3    3    0    0 -0.16063426460E+01  0.20944160764E+02  0.13809340147E+02  0.25138338889E+02  0.00000000000E+00 0.  1.
</event>
<event>
 7    1  0.1351543E-013  0.7246159E+02  0.7816164E-02  0.1226708E+00
        -11   -1    0    0    0    0  0.00000000000E+00  0.00000000000E+00  0.45593999997E+02  0.45594000000E+02  0.51100000000E-03 0. -1.
         11   -1    0    0    0    0 -0.00000000000E+00 -0.00000000000E+00 -0.45593999997E+02  0.45594000000E+02  0.51100000000E-03 0.  1.
    9900012    2    1    2    0    0 -0.13046646255E+02  0.10697371176E+02 -0.81258645961E+01  0.72461590734E+02  0.70000026626E+02 0.  0.
         12    1    1    2    0    0  0.13046646255E+02 -0.10697371176E+02  0.81258645961E+01  0.18726409266E+02  0.00000000000E+00 0. -1.
         11    1    3    3    0    0 -0.18408232846E+01 -0.59980238860E+01 -0.37390800759E+01  0.73038100316E+01  0.51100000000E-03 0. -1.
        -11    1    3    3    0    0  0.87210305358E+01  0.36120930256E+02 -0.33566857086E+01  0.37310123497E+02  0.51100000000E-03 0.  1.
        -12    1    3    3    0    0 -0.19926853506E+02 -0.19425535194E+02 -0.10300988116E+01  0.27847657205E+02  0.00000000000E+00 0.  1.
</event>
<event>
 7    1  0.1351543E-013  0.7246159E+02  0.7816164E-02  0.1226708E+00
        -11   -1    0    0    0    0  0.00000000000E+00  0.00000000000E+00  0.45593999997E+02  0.45594000000E+02  0.51100000000E-03 0.  1.
         11   -1    0    0    0    0 -0.00000000000E+00 -0.00000000000E+00 -0.45593999997E+02  0.45594000000E+02  0.51100000000E-03 0. -1.
    9900012    2    1    2    0    0  0.10369701612E+02  0.14075509713E+01  0.15529535286E+02  0.72461591443E+02  0.70000027550E+02 0.  0.
         12    1    1    2    0    0 -0.10369701612E+02 -0.14075509713E+01 -0.15529535286E+02  0.18726408557E+02  0.00000000000E+00 0. -1.
         11    1    3    3    0    0  0.21359344047E+02 -0.55472593394E+01 -0.20756479286E+02  0.30295628347E+02  0.51100000000E-03 0. -1.
        -11    1    3    3    0    0  0.17120822308E+00  0.62643737460E+01  0.26736334412E+02  0.27460940784E+02  0.51100000000E-03 0.  1.
        -12    1    3    3    0    0 -0.11160850658E+02  0.69043656467E+00  0.95496801595E+01  0.14705022313E+02  0.00000000000E+00 0.  1.
</event>
<event>
 7    1  0.1351543E-013  0.7246154E+02  0.7816164E-02  0.1226708E+00
        -11   -1    0    0    0    0  0.00000000000E+00  0.00000000000E+00  0.45593999997E+02  0.45594000000E+02  0.51100000000E-03 0.  1.
         11   -1    0    0    0    0 -0.00000000000E+00 -0.00000000000E+00 -0.45593999997E+02  0.45594000000E+02  0.51100000000E-03 0. -1.
    9900012    2    1    2    0    0 -0.30040303268E+01 -0.59518813427E+01  0.17499466277E+02  0.72461537181E+02  0.69999956864E+02 0.  0.
         12    1    1    2    0    0  0.30040303268E+01  0.59518813427E+01 -0.17499466277E+02  0.18726462819E+02  0.00000000000E+00 0. -1.
         11    1    3    3    0    0  0.19237483173E+02  0.11658339062E+02 -0.78460873568E+01  0.23823490835E+02  0.51100000000E-03 0.  1.
        -11    1    3    3    0    0  0.33790795910E+01 -0.10889667785E+02  0.17726218833E+02  0.21076571773E+02  0.51100000000E-03 0. -1.
         12    1    3    3    0    0 -0.25620593091E+02 -0.67205526199E+01  0.76193348010E+01  0.27561474573E+02  0.00000000000E+00 0. -1.
</event>
<event>
 7    1  0.1351543E-013  0.7246154E+02  0.7816164E-02  0.1226708E+00
        -11   -1    0    0    0    0  0.00000000000E+00  0.00000000000E+00  0.45593999997E+02  0.45594000000E+02  0.51100000000E-03 0.  1.
         11   -1    0    0    0    0 -0.00000000000E+00 -0.00000000000E+00 -0.45593999997E+02  0.45594000000E+02  0.51100000000E-03 0. -1.
    9900012    2    1    2    0    0 -0.11969568439E+02  0.83711421293E+01  0.11718940837E+02  0.72461543754E+02  0.69999965427E+02 0.  0.
         12    1    1    2    0    0  0.11969568439E+02 -0.83711421293E+01 -0.11718940837E+02  0.18726456246E+02  0.00000000000E+00 0. -1.
         11    1    3    3    0    0 -0.29261826679E+02 -0.12118920192E+02 -0.97879196222E+01  0.33150054269E+02  0.51100000000E-03 0. -1.
        -11    1    3    3    0    0  0.19011631317E+02  0.10685673472E+02  0.97004588719E+01  0.23868905410E+02  0.51100000000E-03 0.  1.
         12    1    3    3    0    0 -0.17193730766E+01  0.98043888489E+01  0.11806401588E+02  0.15442584076E+02  0.00000000000E+00 0. -1.
</event>
<event>
 7    1  0.1351543E-013  0.7246158E+02  0.7816164E-02  0.1226708E+00
        -11   -1    0    0    0    0  0.00000000000E+00  0.00000000000E+00  0.45593999997E+02  0.45594000000E+02  0.51100000000E-03 0.  1.
         11   -1    0    0    0    0 -0.00000000000E+00 -0.00000000000E+00 -0.45593999997E+02  0.45594000000E+02  0.51100000000E-03 0. -1.
    9900012    2    1    2    0    0 -0.42569037963E+00  0.13738305702E+02  0.12718353634E+02  0.72461580827E+02  0.70000013721E+02 0.  0.
         12    1    1    2    0    0  0.42569037963E+00 -0.13738305702E+02 -0.12718353634E+02  0.18726419173E+02  0.00000000000E+00 0. -1.
         11    1    3    3    0    0  0.16760424553E+02  0.14590948160E+02  0.10493364623E+02  0.24574749251E+02  0.51100000000E-03 0. -1.
        -11    1    3    3    0    0 -0.33935502692E+01 -0.18339423182E+02 -0.11322461185E+02  0.21818541510E+02  0.51100000000E-03 0.  1.
        -12    1    3    3    0    0 -0.13792564663E+02  0.17486780725E+02  0.13547450197E+02  0.26068290065E+02  0.00000000000E+00 0.  1.
</event>
<event>
 7    1  0.1351543E-013  0.7246157E+02  0.7816164E-02  0.1226708E+00
        -11   -1    0    0    0    0  0.00000000000E+00  0.00000000000E+00  0.45593999997E+02  0.45594000000E+02  0.51100000000E-03 0. -1.
         11   -1    0    0    0    0 -0.00000000000E+00 -0.00000000000E+00 -0.45593999997E+02  0.45594000000E+02  0.51100000000E-03 0.  1.
    9900012    2    1    2    0    0 -0.11761137034E+02 -0.12208535238E+02 -0.79565496948E+01  0.72461565208E+02  0.69999993374E+02 0.  0.
         12    1    1    2    0    0  0.11761137034E+02  0.12208535238E+02  0.79565496948E+01  0.18726434792E+02  0.00000000000E+00 0. -1.
         11    1    3    3    0    0  0.12032115194E+02 -0.19597189698E+02 -0.15894684979E+02  0.27954653476E+02  0.51100000000E-03 0. -1.
        -11    1    3    3    0    0 -0.16539646965E+02 -0.10873084476E+02 -0.56885328343E+01  0.20594739470E+02  0.51100000000E-03 0.  1.
         12    1    3    3    0    0 -0.72536052625E+01  0.18261738937E+02  0.13626668119E+02  0.23912172262E+02  0.00000000000E+00 0. -1.
</event>
<event>
 7    1  0.1351543E-013  0.7246159E+02  0.7816164E-02  0.1226708E+00
        -11   -1    0    0    0    0  0.00000000000E+00  0.00000000000E+00  0.45593999997E+02  0.45594000000E+02  0.51100000000E-03 0. -1.
         11   -1    0    0    0    0 -0.00000000000E+00 -0.00000000000E+00 -0.45593999997E+02  0.45594000000E+02  0.51100000000E-03 0.  1.
    9900012    2    1    2    0    0 -0.61768676688E+01 -0.15371910623E+02 -0.87309265356E+01  0.72461590612E+02  0.70000026467E+02 0.  0.
         12    1    1    2    0    0  0.61768676688E+01  0.15371910623E+02  0.87309265356E+01  0.18726409388E+02  0.00000000000E+00 0. -1.
         11    1    3    3    0    0 -0.29193864537E+02 -0.12063416636E+02 -0.18099074868E+02  0.36405827265E+02  0.51100000000E-03 0.  1.
        -11    1    3    3    0    0  0.21004207661E+02 -0.11271428054E+02  0.32522526958E+00  0.23839622513E+02  0.51100000000E-03 0. -1.
         12    1    3    3    0    0  0.20127892074E+01  0.79629340660E+01  0.90429230626E+01  0.12216140833E+02  0.00000000000E+00 0. -1.
</event>
<event>
 7    1  0.1351543E-013  0.7246159E+02  0.7816164E-02  0.1226708E+00
        -11   -1    0    0    0    0  0.00000000000E+00  0.00000000000E+00  0.45593999997E+02  0.45594000000E+02  0.51100000000E-03 0. -1.
         11   -1    0    0    0    0 -0.00000000000E+00 -0.00000000000E+00 -0.45593999997E+02  0.45594000000E+02  0.51100000000E-03 0.  1.
    9900012    2    1    2    0    0 -0.20722302665E+01  0.10665285056E+02 -0.15252405326E+02  0.72461593194E+02  0.70000029832E+02 0.  0.
         12    1    1    2    0    0  0.20722302665E+01 -0.10665285056E+02  0.15252405326E+02  0.18726406806E+02  0.00000000000E+00 0. -1.
         11    1    3    3    0    0  0.16403736605E+01 -0.15856160747E+02 -0.33634195288E+02  0.37220528640E+02  0.51100000000E-03 0. -1.
        -11    1    3    3    0    0 -0.61352439078E+01  0.12718719599E+02  0.30066098089E+01  0.14437685024E+02  0.51100000000E-03 0.  1.
         12    1    3    3    0    0  0.24226399808E+01  0.13802726204E+02  0.15375180152E+02  0.20803379530E+02  0.00000000000E+00 0. -1.
</event>
<event>
 7    1  0.1351543E-013  0.7246156E+02  0.7816164E-02  0.1226708E+00
        -11   -1    0    0    0    0  0.00000000000E+00  0.00000000000E+00  0.45593999997E+02  0.45594000000E+02  0.51100000000E-03 0. -1.
         11   -1    0    0    0    0 -0.00000000000E+00 -0.00000000000E+00 -0.45593999997E+02  0.45594000000E+02  0.51100000000E-03 0.  1.
    9900012    2    1    2    0    0  0.17947833003E+01 -0.28406314136E+01 -0.18422513602E+02  0.72461563037E+02  0.69999990546E+02 0.  0.
         12    1    1    2    0    0 -0.17947833003E+01  0.28406314136E+01  0.18422513602E+02  0.18726436963E+02  0.00000000000E+00 0. -1.
         11    1    3    3    0    0 -0.20682552235E+02 -0.19689036699E+01 -0.10773356967E+02  0.23403199978E+02  0.51100000000E-03 0. -1.
        -11    1    3    3    0    0  0.27646871164E+02 -0.10723733635E+02  0.71885232231E+01  0.30512666462E+02  0.51100000000E-03 0.  1.
        -12    1    3    3    0    0 -0.51695356290E+01  0.98520058913E+01 -0.14837679858E+02  0.18545696597E+02  0.00000000000E+00 0.  1.
</event>
<event>
 7    1  0.1351543E-013  0.7246159E+02  0.7816164E-02  0.1226708E+00
        -11   -1    0    0    0    0  0.00000000000E+00  0.00000000000E+00  0.45593999997E+02  0.45594000000E+02  0.51100000000E-03 0.  1.
         11   -1    0    0    0    0 -0.00000000000E+00 -0.00000000000E+00 -0.45593999997E+02  0.45594000000E+02  0.51100000000E-03 0. -1.
    9900012    2    1    2    0    0 -0.18289287994E+02  0.22915721859E+01  0.33059294655E+01  0.72461587422E+02  0.70000022312E+02 0.  0.
         12    1    1    2    0    0  0.18289287994E+02 -0.22915721859E+01 -0.33059294655E+01  0.18726412578E+02  0.00000000000E+00 0. -1.
         11    1    3    3    0    0  0.15284080924E+02 -0.15616523356E+02 -0.10732997445E+01  0.21877634791E+02  0.51100000000E-03 0. -1.
        -11    1    3    3    0    0 -0.18654615992E+02  0.10830316102E+02  0.18836009595E+02  0.28637138516E+02  0.51100000000E-03 0.  1.
         12    1    3    3    0    0 -0.14918752927E+02  0.70777794402E+01 -0.14456780385E+02  0.21946814115E+02  0.00000000000E+00 0. -1.
</event>
<event>
 7    1  0.1351543E-013  0.7246159E+02  0.7816164E-02  0.1226708E+00
        -11   -1    0    0    0    0  0.00000000000E+00  0.00000000000E+00  0.45593999997E+02  0.45594000000E+02  0.51100000000E-03 0.  1.
         11   -1    0    0    0    0 -0.00000000000E+00 -0.00000000000E+00 -0.45593999997E+02  0.45594000000E+02  0.51100000000E-03 0. -1.
    9900012    2    1    2    0    0 -0.48780616455E+01 -0.15478443166E+02 -0.93434887864E+01  0.72461588946E+02  0.70000024297E+02 0.  0.
         12    1    1    2    0    0  0.48780616455E+01  0.15478443166E+02  0.93434887864E+01  0.18726411054E+02  0.00000000000E+00 0. -1.
         11    1    3    3    0    0  0.17504660318E+02 -0.91883012395E+01 -0.11173454152E+02  0.22708678748E+02  0.51100000000E-03 0.  1.
        -11    1    3    3    0    0 -0.34357604138E+02  0.25553039541E+01  0.40913273329E+01  0.34694574504E+02  0.51100000000E-03 0. -1.
         12    1    3    3    0    0  0.11974882175E+02 -0.88454458805E+01 -0.22613619672E+01  0.15058335694E+02  0.00000000000E+00 0. -1.
</event>
<event>
 7    1  0.1351543E-013  0.7246153E+02  0.7816164E-02  0.1226708E+00
        -11   -1    0    0    0    0  0.00000000000E+00  0.00000000000E+00  0.45593999997E+02  0.45594000000E+02  0.51100000000E-03 0. -1.
         11   -1    0    0    0    0 -0.00000000000E+00 -0.00000000000E+00 -0.45593999997E+02  0.45594000000E+02  0.51100000000E-03 0.  1.
    9900012    2    1    2    0    0 -0.16196894335E+02  0.64412324698E+01  0.68448318422E+01  0.72461532507E+02  0.69999950775E+02 0.  0.
         12    1    1    2    0    0  0.16196894335E+02 -0.64412324698E+01 -0.68448318422E+01  0.18726467493E+02  0.00000000000E+00 0. -1.
         11    1    3    3    0    0 -0.78405648729E+00  0.78085925497E+01  0.33983236989E+02  0.34877632642E+02  0.51100000000E-03 0. -1.
        -11    1    3    3    0    0  0.37995566710E+01  0.37325769311E+01 -0.10034499671E+02  0.11360455332E+02  0.51100000000E-03 0.  1.
         12    1    3    3    0    0 -0.19212394519E+02 -0.50999370110E+01 -0.17103905476E+02  0.26223444533E+02  0.00000000000E+00 0. -1.
</event>
<event>
 7    1  0.1351543E-013  0.7246154E+02  0.7816164E-02  0.1226708E+00
        -11   -1    0    0    0    0  0.00000000000E+00  0.00000000000E+00  0.45593999997E+02  0.45594000000E+02  0.51100000000E-03 0.  1.
         11   -1    0    0    0    0 -0.00000000000E+00 -0.00000000000E+00 -0.45593999997E+02  0.45594000000E+02  0.51100000000E-03 0. -1.
    9900012    2    1    2    0    0  0.29386070263E+01  0.10254793433E+02 -0.15391037428E+02  0.72461541907E+02  0.69999963020E+02 0.  0.
         12    1    1    2    0    0 -0.29386070263E+01 -0.10254793433E+02  0.15391037428E+02  0.18726458093E+02  0.00000000000E+00 0. -1.
         11    1    3    3    0    0  0.21650111217E+02  0.30191963819E+00  0.19841729548E+02  0.29368566579E+02  0.51100000000E-03 0. -1.
        -11    1    3    3    0    0 -0.28768770711E+01 -0.51740447258E+00  0.16348996369E+00  0.29276028248E+01  0.51100000000E-03 0.  1.
         12    1    3    3    0    0 -0.15834627120E+02  0.10470278268E+02 -0.35396256939E+02  0.40165372503E+02  0.00000000000E+00 0. -1.
</event>
<event>
 7    1  0.1351543E-013  0.7246157E+02  0.7816164E-02  0.1226708E+00
        -11   -1    0    0    0    0  0.00000000000E+00  0.00000000000E+00  0.45593999997E+02  0.45594000000E+02  0.51100000000E-03 0.  1.
         11   -1    0    0    0    0 -0.00000000000E+00 -0.00000000000E+00 -0.45593999997E+02  0.45594000000E+02  0.51100000000E-03 0. -1.
    9900012    2    1    2    0    0  0.30298635346E+01 -0.27446583882E+01  0.18274737734E+02  0.72461567827E+02  0.69999996785E+02 0.  0.
         12    1    1    2    0    0 -0.30298635346E+01  0.27446583882E+01 -0.18274737734E+02  0.18726432173E+02  0.00000000000E+00 0. -1.
         11    1    3    3    0    0  0.79433396703E+01 -0.14374144704E+02 -0.12974897629E+02  0.20929898467E+02  0.51100000000E-03 0. -1.
        -11    1    3    3    0    0  0.10322026118E+02  0.40685482274E+01  0.32632519681E+02  0.34467066149E+02  0.51100000000E-03 0.  1.
         12    1    3    3    0    0 -0.15235502254E+02  0.75609380882E+01 -0.13828843182E+01  0.17064603211E+02  0.00000000000E+00 0. -1.
</event>
<event>
 7    1  0.1351543E-013  0.7246161E+02  0.7816164E-02  0.1226708E+00
        -11   -1    0    0    0    0  0.00000000000E+00  0.00000000000E+00  0.45593999997E+02  0.45594000000E+02  0.51100000000E-03 0.  1.
         11   -1    0    0    0    0 -0.00000000000E+00 -0.00000000000E+00 -0.45593999997E+02  0.45594000000E+02  0.51100000000E-03 0. -1.
    9900012    2    1    2    0    0 -0.96065002356E+01  0.15796975810E+02  0.29746520828E+01  0.72461605619E+02  0.70000046017E+02 0.  0.
         12    1    1    2    0    0  0.96065002356E+01 -0.15796975810E+02 -0.29746520828E+01  0.18726394381E+02  0.00000000000E+00 0. -1.
         11    1    3    3    0    0 -0.16084644730E+02  0.19126281547E+01 -0.11320099747E+02  0.19761543489E+02  0.51100000000E-03 0. -1.
        -11    1    3    3    0    0 -0.13776105409E+02  0.22088799590E+02  0.16365347342E+02  0.30749320992E+02  0.51100000000E-03 0.  1.
         12    1    3    3    0    0  0.20254249904E+02 -0.82044519349E+01 -0.20705955127E+01  0.21950741137E+02  0.00000000000E+00 0. -1.
</event>
<event>
 7    1  0.1351543E-013  0.7246161E+02  0.7816164E-02  0.1226708E+00
        -11   -1    0    0    0    0  0.00000000000E+00  0.00000000000E+00  0.45593999997E+02  0.45594000000E+02  0.51100000000E-03 0.  1.
         11   -1    0    0    0    0 -0.00000000000E+00 -0.00000000000E+00 -0.45593999997E+02  0.45594000000E+02  0.51100000000E-03 0. -1.
    9900012    2    1    2    0    0  0.17006081854E+02  0.47649234652E+01  0.62262717807E+01  0.72461607504E+02  0.70000048472E+02 0.  0.
         12    1    1    2    0    0 -0.17006081854E+02 -0.47649234652E+01 -0.62262717807E+01  0.18726392496E+02  0.00000000000E+00 0. -1.
         11    1    3    3    0    0  0.11422783754E+02 -0.18100132479E+02  0.21088969285E+02  0.30047286237E+02  0.51100000000E-03 0. -1.
        -11    1    3    3    0    0  0.10491626723E+02  0.12004673436E+02  0.70794887536E+01  0.17444356591E+02  0.51100000000E-03 0.  1.
         12    1    3    3    0    0 -0.49083286232E+01  0.10860382508E+02 -0.21942186258E+02  0.24969964675E+02  0.00000000000E+00 0. -1.
</event>
<event>
 7    1  0.1351543E-013  0.7246168E+02  0.7816164E-02  0.1226708E+00
        -11   -1    0    0    0    0  0.00000000000E+00  0.00000000000E+00  0.45593999997E+02  0.45594000000E+02  0.51100000000E-03 0.  1.
         11   -1    0    0    0    0 -0.00000000000E+00 -0.00000000000E+00 -0.45593999997E+02  0.45594000000E+02  0.51100000000E-03 0. -1.
    9900012    2    1    2    0    0  0.71812789710E+01 -0.15813469062E+02 -0.70027374630E+01  0.72461684201E+02  0.70000148385E+02 0.  0.
         12    1    1    2    0    0 -0.71812789710E+01  0.15813469062E+02  0.70027374630E+01  0.18726315799E+02  0.00000000000E+00 0. -1.
         11    1    3    3    0    0  0.15773929082E+02 -0.17573428087E+02  0.16776479601E+01  0.23673967060E+02  0.51100000000E-03 0. -1.
        -11    1    3    3    0    0 -0.49714858044E+01  0.24220194201E+02 -0.89207658870E+00  0.24741246515E+02  0.51100000000E-03 0.  1.
        -12    1    3    3    0    0 -0.36211643069E+01 -0.22460235175E+02 -0.77883088344E+01  0.24046470626E+02  0.00000000000E+00 0.  1.
</event>
<event>
 7    1  0.1351543E-013  0.7246153E+02  0.7816164E-02  0.1226708E+00
        -11   -1    0    0    0    0  0.00000000000E+00  0.00000000000E+00  0.45593999997E+02  0.45594000000E+02  0.51100000000E-03 0.  1.
         11   -1    0    0    0    0 -0.00000000000E+00 -0.00000000000E+00 -0.45593999997E+02  0.45594000000E+02  0.51100000000E-03 0. -1.
    9900012    2    1    2    0    0 -0.78514419351E+01  0.17000582792E+02 -0.12479945712E+00  0.72461533952E+02  0.69999952658E+02 0.  0.
         12    1    1    2    0    0  0.78514419351E+01 -0.17000582792E+02  0.12479945712E+00  0.18726466048E+02  0.00000000000E+00 0. -1.
         11    1    3    3    0    0 -0.15618705247E+02 -0.15846057523E+02 -0.96898102167E+01  0.24267960666E+02  0.51100000000E-03 0. -1.
        -11    1    3    3    0    0  0.98725769825E+01  0.33288655975E+02 -0.35504712417E+01  0.34902839987E+02  0.51100000000E-03 0.  1.
        -12    1    3    3    0    0 -0.21053136710E+01 -0.44201565951E+00  0.13115482001E+02  0.13290733299E+02  0.00000000000E+00 0.  1.
</event>
<event>
 7    1  0.1351543E-013  0.7246164E+02  0.7816164E-02  0.1226708E+00
        -11   -1    0    0    0    0  0.00000000000E+00  0.00000000000E+00  0.45593999997E+02  0.45594000000E+02  0.51100000000E-03 0.  1.
         11   -1    0    0    0    0 -0.00000000000E+00 -0.00000000000E+00 -0.45593999997E+02  0.45594000000E+02  0.51100000000E-03 0. -1.
    9900012    2    1    2    0    0 -0.52648154556E+01 -0.14700705594E+02  0.10336700223E+02  0.72461644288E+02  0.70000096391E+02 0.  0.
         12    1    1    2    0    0  0.52648154556E+01  0.14700705594E+02 -0.10336700223E+02  0.18726355712E+02  0.00000000000E+00 0. -1.
         11    1    3    3    0    0 -0.10243747758E+02 -0.14515916560E+02 -0.20543705022E+02  0.27160449518E+02  0.51100000000E-03 0. -1.
        -11    1    3    3    0    0  0.55361551135E+01  0.15692418329E+02  0.11432885986E+02  0.20189400405E+02  0.51100000000E-03 0.  1.
        -12    1    3    3    0    0 -0.55722281156E+00 -0.15877207364E+02  0.19447519259E+02  0.25111794365E+02  0.00000000000E+00 0.  1.
</event>
<event>
 7    1  0.1351543E-013  0.7246171E+02  0.7816164E-02  0.1226708E+00
        -11   -1    0    0    0    0  0.00000000000E+00  0.00000000000E+00  0.45593999997E+02  0.45594000000E+02  0.51100000000E-03 0.  1.
         11   -1    0    0    0    0 -0.00000000000E+00 -0.00000000000E+00 -0.45593999997E+02  0.45594000000E+02  0.51100000000E-03 0. -1.
    9900012    2    1    2    0    0  0.84179933767E+01  0.16643568356E+02  0.16741758376E+01  0.72461712465E+02  0.70000185204E+02 0.  0.
         12    1    1    2    0    0 -0.84179933767E+01 -0.16643568356E+02 -0.16741758376E+01  0.18726287535E+02  0.00000000000E+00 0. -1.
         11    1    3    3    0    0  0.32558457988E+01 -0.51960442599E+01 -0.11056736890E+02  0.12643213149E+02  0.51100000000E-03 0. -1.
        -11    1    3    3    0    0  0.78570561288E+01  0.39640286328E+02  0.97340190218E+01  0.41567255836E+02  0.51100000000E-03 0.  1.
        -12    1    3    3    0    0 -0.26949085509E+01 -0.17800673712E+02  0.29968937058E+01  0.18251243480E+02  0.00000000000E+00 0.  1.
</event>
<event>
 7    1  0.1351543E-013  0.7246154E+02  0.7816164E-02  0.1226708E+00
        -11   -1    0    0    0    0  0.00000000000E+00  0.00000000000E+00  0.45593999997E+02  0.45594000000E+02  0.51100000000E-03 0. -1.
         11   -1    0    0    0    0 -0.00000000000E+00 -0.00000000000E+00 -0.45593999997E+02  0.45594000000E+02  0.51100000000E-03 0.  1.
    9900012    2    1    2    0    0  0.16669751433E+02  0.38392372428E+01 -0.76197125013E+01  0.72461538134E+02  0.69999958105E+02 0.  0.
         12    1    1    2    0    0 -0.16669751433E+02 -0.38392372428E+01  0.76197125013E+01  0.18726461866E+02  0.00000000000E+00 0. -1.
         11    1    3    3    0    0  0.15573492529E+02  0.50476870485E+01  0.20182019232E+02  0.25987048979E+02  0.51100000000E-03 0. -1.
        -11    1    3    3    0    0 -0.13020681429E+02 -0.13192006071E+02 -0.11571262329E+02  0.21850887424E+02  0.51100000000E-03 0.  1.
        -12    1    3    3    0    0  0.14116940332E+02  0.11983556266E+02 -0.16230469404E+02  0.24623601730E+02  0.00000000000E+00 0.  1.
</event>
<event>
 7    1  0.1351543E-013  0.7246160E+02  0.7816164E-02  0.1226708E+00
        -11   -1    0    0    0    0  0.00000000000E+00  0.00000000000E+00  0.45593999997E+02  0.45594000000E+02  0.51100000000E-03 0.  1.
         11   -1    0    0    0    0 -0.00000000000E+00 -0.00000000000E+00 -0.45593999997E+02  0.45594000000E+02  0.51100000000E-03 0. -1.
    9900012    2    1    2    0    0 -0.91226955386E+01 -0.16352281549E+02 -0.23984210380E+00  0.72461595914E+02  0.70000033375E+02 0.  0.
         12    1    1    2    0    0  0.91226955386E+01  0.16352281549E+02  0.23984210380E+00  0.18726404086E+02  0.00000000000E+00 0. -1.
         11    1    3    3    0    0 -0.35592459094E+02 -0.37703420000E+01 -0.10952648227E+02  0.37429922878E+02  0.51100000000E-03 0. -1.
        -11    1    3    3    0    0  0.52693714465E+01 -0.71722953381E+01 -0.27825773150E+01  0.93247430330E+01  0.51100000000E-03 0.  1.
         12    1    3    3    0    0  0.21200392109E+02 -0.54096442108E+01  0.13495383438E+02  0.25706930004E+02  0.00000000000E+00 0. -1.
</event>
<event>
 7    1  0.1351543E-013  0.7246158E+02  0.7816164E-02  0.1226708E+00
        -11   -1    0    0    0    0  0.00000000000E+00  0.00000000000E+00  0.45593999997E+02  0.45594000000E+02  0.51100000000E-03 0.  1.
         11   -1    0    0    0    0 -0.00000000000E+00 -0.00000000000E+00 -0.45593999997E+02  0.45594000000E+02  0.51100000000E-03 0. -1.
    9900012    2    1    2    0    0 -0.51153273666E+01 -0.43844327711E+01  0.17472521704E+02  0.72461579106E+02  0.70000011479E+02 0.  0.
         12    1    1    2    0    0  0.51153273666E+01  0.43844327711E+01 -0.17472521704E+02  0.18726420894E+02  0.00000000000E+00 0. -1.
         11    1    3    3    0    0  0.31823971192E+02  0.14103108780E+00  0.78703821206E+01  0.32783043593E+02  0.51100000000E-03 0. -1.
        -11    1    3    3    0    0 -0.12879357296E+02  0.38582713359E+00  0.77871896397E+01  0.15055465110E+02  0.51100000000E-03 0.  1.
         12    1    3    3    0    0 -0.24059941263E+02 -0.49112909925E+01  0.18149499436E+01  0.24623070404E+02  0.00000000000E+00 0. -1.
</event>
<event>
 7    1  0.1483520E-013  0.7246149E+02  0.7816164E-02  0.1226708E+00
        -11   -1    0    0    0    0  0.00000000000E+00  0.00000000000E+00  0.45593999997E+02  0.45594000000E+02  0.51100000000E-03 0. -1.
         11   -1    0    0    0    0 -0.00000000000E+00 -0.00000000000E+00 -0.45593999997E+02  0.45594000000E+02  0.51100000000E-03 0.  1.
    9900012    2    1    2    0    0  0.65327331615E+01  0.38737261226E+01 -0.17117237470E+02  0.72461490041E+02  0.69999895455E+02 0.  0.
         12    1    1    2    0    0 -0.65327331615E+01 -0.38737261226E+01  0.17117237470E+02  0.18726509959E+02  0.00000000000E+00 0. -1.
         11    1    3    3    0    0  0.95029810432E+01  0.26328320864E+02 -0.17441618248E+02  0.32980254329E+02  0.51100000000E-03 0. -1.
        -11    1    3    3    0    0  0.66071824545E+01 -0.23949353567E+02 -0.86147731310E+01  0.26295260269E+02  0.51100000000E-03 0.  1.
         12    1    3    3    0    0 -0.95774303361E+01  0.14947588253E+01  0.89391539088E+01  0.13185975443E+02  0.00000000000E+00 0. -1.
</event>
<event>
 7    1  0.1351543E-013  0.7246154E+02  0.7816164E-02  0.1226708E+00
        -11   -1    0    0    0    0  0.00000000000E+00  0.00000000000E+00  0.45593999997E+02  0.45594000000E+02  0.51100000000E-03 0. -1.
         11   -1    0    0    0    0 -0.00000000000E+00 -0.00000000000E+00 -0.45593999997E+02  0.45594000000E+02  0.51100000000E-03 0.  1.
    9900012    2    1    2    0    0  0.74021501197E-02 -0.18056993523E+02 -0.49623740481E+01  0.72461542085E+02  0.69999963251E+02 0.  0.
         12    1    1    2    0    0 -0.74021501197E-02  0.18056993523E+02  0.49623740481E+01  0.18726457915E+02  0.00000000000E+00 0. -1.
         11    1    3    3    0    0 -0.56495619826E+01 -0.26248797418E+02  0.81923026326E+01  0.28071885209E+02  0.51100000000E-03 0. -1.
        -11    1    3    3    0    0  0.16766175708E+02 -0.14963549755E+00 -0.22193998442E+02  0.27815474215E+02  0.51100000000E-03 0.  1.
        -12    1    3    3    0    0 -0.11109211576E+02  0.83414393930E+01  0.90393217616E+01  0.16574182661E+02  0.00000000000E+00 0.  1.
</event>
<event>
 7    1  0.1351543E-013  0.7246156E+02  0.7816164E-02  0.1226708E+00
        -11   -1    0    0    0    0  0.00000000000E+00  0.00000000000E+00  0.45593999997E+02  0.45594000000E+02  0.51100000000E-03 0.  1.
         11   -1    0    0    0    0 -0.00000000000E+00 -0.00000000000E+00 -0.45593999997E+02  0.45594000000E+02  0.51100000000E-03 0. -1.
    9900012    2    1    2    0    0  0.21830602811E+01 -0.11735156660E+02  0.14429134862E+02  0.72461559151E+02  0.69999985483E+02 0.  0.
         12    1    1    2    0    0 -0.21830602811E+01  0.11735156660E+02 -0.14429134862E+02  0.18726440849E+02  0.00000000000E+00 0. -1.
         11    1    3    3    0    0  0.14742933486E+02 -0.31129663492E+02 -0.40020138606E+01  0.34676016958E+02  0.51100000000E-03 0. -1.
        -11    1    3    3    0    0 -0.16325378836E+02  0.13756525638E+02  0.21539874140E+02  0.30326987486E+02  0.51100000000E-03 0.  1.
         12    1    3    3    0    0  0.37655056306E+01  0.56379811939E+01 -0.31087254170E+01  0.74585547068E+01  0.00000000000E+00 0. -1.
</event>
<event>
 7    1  0.1351543E-013  0.7246159E+02  0.7816164E-02  0.1226708E+00
        -11   -1    0    0    0    0  0.00000000000E+00  0.00000000000E+00  0.45593999997E+02  0.45594000000E+02  0.51100000000E-03 0. -1.
         11   -1    0    0    0    0 -0.00000000000E+00 -0.00000000000E+00 -0.45593999997E+02  0.45594000000E+02  0.51100000000E-03 0.  1.
    9900012    2    1    2    0    0 -0.51005000330E+01  0.35209459607E+01 -0.17671057871E+02  0.72461589577E+02  0.70000025120E+02 0.  0.
         12    1    1    2    0    0  0.51005000330E+01 -0.35209459607E+01  0.17671057871E+02  0.18726410423E+02  0.00000000000E+00 0. -1.
         11    1    3    3    0    0 -0.10369955051E+02  0.21192604550E+02 -0.22578613912E+01  0.23701485053E+02  0.51100000000E-03 0. -1.
        -11    1    3    3    0    0  0.41186868935E+01 -0.28391856985E+02 -0.21975386103E+02  0.36138327568E+02  0.51100000000E-03 0.  1.
         12    1    3    3    0    0  0.11507681242E+01  0.10720198395E+02  0.65621896230E+01  0.12621776957E+02  0.00000000000E+00 0. -1.
</event>
<event>
 7    1  0.1351543E-013  0.7246183E+02  0.7816164E-02  0.1226707E+00
        -11   -1    0    0    0    0  0.00000000000E+00  0.00000000000E+00  0.45593999997E+02  0.45594000000E+02  0.51100000000E-03 0. -1.
         11   -1    0    0    0    0 -0.00000000000E+00 -0.00000000000E+00 -0.45593999997E+02  0.45594000000E+02  0.51100000000E-03 0.  1.
    9900012    2    1    2    0    0  0.90671843393E+01  0.14224437097E+02 -0.81314921901E+01  0.72461825596E+02  0.70000332577E+02 0.  0.
         12    1    1    2    0    0 -0.90671843393E+01 -0.14224437097E+02  0.81314921901E+01  0.18726174404E+02  0.00000000000E+00 0. -1.
         11    1    3    3    0    0 -0.53010913020E+01  0.46916069613E+01  0.26063428844E+02  0.27007685355E+02  0.51100000000E-03 0. -1.
        -11    1    3    3    0    0  0.14776986990E+02 -0.41043948870E+01 -0.12314300052E+02  0.19668436337E+02  0.51100000000E-03 0.  1.
         12    1    3    3    0    0 -0.40871134899E+00  0.13637225022E+02 -0.21880620982E+02  0.25785703904E+02  0.00000000000E+00 0. -1.
</event>
<event>
 7    1  0.1351543E-013  0.7246157E+02  0.7816164E-02  0.1226708E+00
        -11   -1    0    0    0    0  0.00000000000E+00  0.00000000000E+00  0.45593999997E+02  0.45594000000E+02  0.51100000000E-03 0.  1.
         11   -1    0    0    0    0 -0.00000000000E+00 -0.00000000000E+00 -0.45593999997E+02  0.45594000000E+02  0.51100000000E-03 0. -1.
    9900012    2    1    2    0    0  0.17335609827E+02 -0.69922510475E+01  0.11244422517E+01  0.72461566459E+02  0.69999995004E+02 0.  0.
         12    1    1    2    0    0 -0.17335609827E+02  0.69922510475E+01 -0.11244422517E+01  0.18726433541E+02  0.00000000000E+00 0. -1.
         11    1    3    3    0    0  0.38833495472E+02 -0.14917419146E+02 -0.12161559239E+02  0.43341357708E+02  0.51100000000E-03 0.  1.
        -11    1    3    3    0    0 -0.13109389926E+02  0.74543145306E+01  0.22460564024E+01  0.15246890797E+02  0.51100000000E-03 0. -1.
         12    1    3    3    0    0 -0.83884957189E+01  0.47085356777E+00  0.11039945088E+02  0.13873317954E+02  0.00000000000E+00 0. -1.
</event>
<event>
 7    1  0.1351543E-013  0.7246136E+02  0.7816164E-02  0.1226709E+00
        -11   -1    0    0    0    0  0.00000000000E+00  0.00000000000E+00  0.45593999997E+02  0.45594000000E+02  0.51100000000E-03 0. -1.
         11   -1    0    0    0    0 -0.00000000000E+00 -0.00000000000E+00 -0.45593999997E+02  0.45594000000E+02  0.51100000000E-03 0.  1.
    9900012    2    1    2    0    0 -0.29305647050E+01 -0.69122531504E+00 -0.18482998083E+02  0.72461355344E+02  0.69999719987E+02 0.  0.
         12    1    1    2    0    0  0.29305647050E+01  0.69122531504E+00  0.18482998083E+02  0.18726644656E+02  0.00000000000E+00 0. -1.
         11    1    3    3    0    0  0.81599237823E-01 -0.31611520100E+02 -0.76319813879E+01  0.32519870874E+02  0.51100000000E-03 0. -1.
        -11    1    3    3    0    0  0.11643839555E+01  0.11718849816E+02 -0.15772654388E+02  0.19684101648E+02  0.51100000000E-03 0.  1.
         12    1    3    3    0    0 -0.41765478984E+01  0.19201444969E+02  0.49216376925E+01  0.20257382822E+02  0.00000000000E+00 0. -1.
</event>
<event>
 7    1  0.1351543E-013  0.7246156E+02  0.7816164E-02  0.1226708E+00
        -11   -1    0    0    0    0  0.00000000000E+00  0.00000000000E+00  0.45593999997E+02  0.45594000000E+02  0.51100000000E-03 0. -1.
         11   -1    0    0    0    0 -0.00000000000E+00 -0.00000000000E+00 -0.45593999997E+02  0.45594000000E+02  0.51100000000E-03 0.  1.
    9900012    2    1    2    0    0 -0.53589198668E+01 -0.16347198719E+02 -0.73980039305E+01  0.72461564401E+02  0.69999992322E+02 0.  0.
         12    1    1    2    0    0  0.53589198668E+01  0.16347198719E+02  0.73980039305E+01  0.18726435599E+02  0.00000000000E+00 0. -1.
         11    1    3    3    0    0 -0.13051148265E+02  0.18373330319E+02  0.26987882379E+01  0.22697911715E+02  0.51100000000E-03 0. -1.
        -11    1    3    3    0    0  0.15398138764E+01 -0.11247404519E+02 -0.20443373005E+02  0.23383896922E+02  0.51100000000E-03 0.  1.
         12    1    3    3    0    0  0.61524145215E+01 -0.23473124519E+02  0.10346580836E+02  0.26379755763E+02  0.00000000000E+00 0. -1.
</event>
<event>
 7    1  0.1351543E-013  0.7246155E+02  0.7816164E-02  0.1226708E+00
        -11   -1    0    0    0    0  0.00000000000E+00  0.00000000000E+00  0.45593999997E+02  0.45594000000E+02  0.51100000000E-03 0.  1.
         11   -1    0    0    0    0 -0.00000000000E+00 -0.00000000000E+00 -0.45593999997E+02  0.45594000000E+02  0.51100000000E-03 0. -1.
    9900012    2    1    2    0    0  0.12202162879E+02 -0.13314777623E+02 -0.49501284110E+01  0.72461552036E+02  0.69999976215E+02 0.  0.
         12    1    1    2    0    0 -0.12202162879E+02  0.13314777623E+02  0.49501284110E+01  0.18726447964E+02  0.00000000000E+00 0. -1.
         11    1    3    3    0    0  0.48144077376E+01 -0.15750607307E+02  0.17772817763E+02  0.24230831680E+02  0.51100000000E-03 0. -1.
        -11    1    3    3    0    0  0.18737372636E+02  0.73897910772E+01 -0.28228993609E+02  0.34678151997E+02  0.51100000000E-03 0.  1.
        -12    1    3    3    0    0 -0.11349617495E+02 -0.49539613928E+01  0.55060474350E+01  0.13552568359E+02  0.00000000000E+00 0.  1.
</event>
<event>
 7    1  0.1351543E-013  0.7246157E+02  0.7816164E-02  0.1226708E+00
        -11   -1    0    0    0    0  0.00000000000E+00  0.00000000000E+00  0.45593999997E+02  0.45594000000E+02  0.51100000000E-03 0.  1.
         11   -1    0    0    0    0 -0.00000000000E+00 -0.00000000000E+00 -0.45593999997E+02  0.45594000000E+02  0.51100000000E-03 0. -1.
    9900012    2    1    2    0    0 -0.11838708493E+02  0.12849230105E+02  0.67395571920E+01  0.72461565096E+02  0.69999993228E+02 0.  0.
         12    1    1    2    0    0  0.11838708493E+02 -0.12849230105E+02 -0.67395571920E+01  0.18726434904E+02  0.00000000000E+00 0. -1.
         11    1    3    3    0    0 -0.16826264581E+01  0.17899620662E+02 -0.25143636428E+02  0.30910032428E+02  0.51100000000E-03 0. -1.
        -11    1    3    3    0    0  0.15969532431E+01 -0.10983872161E+02  0.23373357950E+02  0.25874882984E+02  0.51100000000E-03 0.  1.
         12    1    3    3    0    0 -0.11753035278E+02  0.59334816043E+01  0.85098356697E+01  0.15676649684E+02  0.00000000000E+00 0. -1.
</event>
<event>
 7    1  0.1351543E-013  0.7246157E+02  0.7816164E-02  0.1226708E+00
        -11   -1    0    0    0    0  0.00000000000E+00  0.00000000000E+00  0.45593999997E+02  0.45594000000E+02  0.51100000000E-03 0. -1.
         11   -1    0    0    0    0 -0.00000000000E+00 -0.00000000000E+00 -0.45593999997E+02  0.45594000000E+02  0.51100000000E-03 0.  1.
    9900012    2    1    2    0    0 -0.64087868895E+01 -0.26330819762E+01 -0.17397517791E+02  0.72461566934E+02  0.69999995623E+02 0.  0.
         12    1    1    2    0    0  0.64087868895E+01  0.26330819762E+01  0.17397517791E+02  0.18726433066E+02  0.00000000000E+00 0. -1.
         11    1    3    3    0    0  0.10041859007E+02  0.70419803395E+01 -0.47725475267E+01  0.13160760980E+02  0.51100000000E-03 0. -1.
        -11    1    3    3    0    0 -0.33141986736E+02 -0.11893627539E+02  0.42439181054E+01  0.35466329130E+02  0.51100000000E-03 0.  1.
        -12    1    3    3    0    0  0.16691340840E+02  0.22185652230E+01 -0.16868888369E+02  0.23834476824E+02  0.00000000000E+00 0.  1.
</event>
<event>
 7    1  0.1351543E-013  0.7246152E+02  0.7816164E-02  0.1226708E+00
        -11   -1    0    0    0    0  0.00000000000E+00  0.00000000000E+00  0.45593999997E+02  0.45594000000E+02  0.51100000000E-03 0.  1.
         11   -1    0    0    0    0 -0.00000000000E+00 -0.00000000000E+00 -0.45593999997E+02  0.45594000000E+02  0.51100000000E-03 0. -1.
    9900012    2    1    2    0    0 -0.14811372307E+02 -0.11228017824E+02 -0.22882180271E+01  0.72461519401E+02  0.69999933702E+02 0.  0.
         12    1    1    2    0    0  0.14811372307E+02  0.11228017824E+02  0.22882180271E+01  0.18726480599E+02  0.00000000000E+00 0. -1.
         11    1    3    3    0    0  0.12809104735E+02 -0.27552790147E+02  0.16457074364E+02  0.34555241366E+02  0.51100000000E-03 0. -1.
        -11    1    3    3    0    0 -0.17474936467E+02  0.99292069689E+01 -0.74608195547E+01  0.21438898858E+02  0.51100000000E-03 0.  1.
         12    1    3    3    0    0 -0.10145540575E+02  0.63955653545E+01 -0.11284472836E+02  0.16467379177E+02  0.00000000000E+00 0. -1.
</event>
<event>
 7    1  0.1351543E-013  0.7246156E+02  0.7816164E-02  0.1226708E+00
        -11   -1    0    0    0    0  0.00000000000E+00  0.00000000000E+00  0.45593999997E+02  0.45594000000E+02  0.51100000000E-03 0.  1.
         11   -1    0    0    0    0 -0.00000000000E+00 -0.00000000000E+00 -0.45593999997E+02  0.45594000000E+02  0.51100000000E-03 0. -1.
    9900012    2    1    2    0    0 -0.11821144681E+02 -0.11873368488E+02  0.83643934342E+01  0.72461563651E+02  0.69999991345E+02 0.  0.
         12    1    1    2    0    0  0.11821144681E+02  0.11873368488E+02 -0.83643934342E+01  0.18726436349E+02  0.00000000000E+00 0. -1.
         11    1    3    3    0    0 -0.21370624735E+02 -0.50272581919E+01 -0.16022508785E+02  0.27178993994E+02  0.51100000000E-03 0. -1.
        -11    1    3    3    0    0  0.10849482537E+02  0.56983195819E+01  0.29290783282E+02  0.31751096090E+02  0.51100000000E-03 0.  1.
        -12    1    3    3    0    0 -0.13000024830E+01 -0.12544429878E+02 -0.49038810627E+01  0.13531473567E+02  0.00000000000E+00 0.  1.
</event>
<event>
 7    1  0.1351543E-013  0.7246157E+02  0.7816164E-02  0.1226708E+00
        -11   -1    0    0    0    0  0.00000000000E+00  0.00000000000E+00  0.45593999997E+02  0.45594000000E+02  0.51100000000E-03 0.  1.
         11   -1    0    0    0    0 -0.00000000000E+00 -0.00000000000E+00 -0.45593999997E+02  0.45594000000E+02  0.51100000000E-03 0. -1.
    9900012    2    1    2    0    0  0.12330856660E+02 -0.10540658251E+02  0.93554061101E+01  0.72461571461E+02  0.70000001520E+02 0.  0.
         12    1    1    2    0    0 -0.12330856660E+02  0.10540658251E+02 -0.93554061101E+01  0.18726428539E+02  0.00000000000E+00 0. -1.
         11    1    3    3    0    0 -0.20222142836E+02 -0.18719820061E+01  0.80893631552E+01  0.21860401964E+02  0.51100000000E-03 0. -1.
        -11    1    3    3    0    0  0.20127477434E+02 -0.19109482846E+02  0.12926720773E+02  0.30616789393E+02  0.51100000000E-03 0.  1.
         12    1    3    3    0    0  0.12425522062E+02  0.10440806601E+02 -0.11660677818E+02  0.19984380105E+02  0.00000000000E+00 0. -1.
</event>
<event>
 7    1  0.1351543E-013  0.7246157E+02  0.7816164E-02  0.1226708E+00
        -11   -1    0    0    0    0  0.00000000000E+00  0.00000000000E+00  0.45593999997E+02  0.45594000000E+02  0.51100000000E-03 0.  1.
         11   -1    0    0    0    0 -0.00000000000E+00 -0.00000000000E+00 -0.45593999997E+02  0.45594000000E+02  0.51100000000E-03 0. -1.
    9900012    2    1    2    0    0 -0.16856734032E+02  0.65358181658E+01 -0.48798247178E+01  0.72461572402E+02  0.70000002745E+02 0.  0.
         12    1    1    2    0    0  0.16856734032E+02 -0.65358181658E+01  0.48798247178E+01  0.18726427598E+02  0.00000000000E+00 0. -1.
         11    1    3    3    0    0  0.33154650996E+00 -0.81358742387E+01  0.10125202681E+01  0.82053379132E+01  0.51100000000E-03 0. -1.
        -11    1    3    3    0    0 -0.13184770975E+02  0.31762391539E+02  0.14523981697E+02  0.37331404294E+02  0.51100000000E-03 0.  1.
        -12    1    3    3    0    0 -0.40035095667E+01 -0.17090699135E+02 -0.20416326683E+02  0.26924830195E+02  0.00000000000E+00 0.  1.
</event>
<event>
 7    1  0.1351543E-013  0.7246213E+02  0.7816164E-02  0.1226707E+00
        -11   -1    0    0    0    0  0.00000000000E+00  0.00000000000E+00  0.45593999997E+02  0.45594000000E+02  0.51100000000E-03 0. -1.
         11   -1    0    0    0    0 -0.00000000000E+00 -0.00000000000E+00 -0.45593999997E+02  0.45594000000E+02  0.51100000000E-03 0.  1.
    9900012    2    1    2    0    0  0.15542061132E+02 -0.85622622343E+01 -0.59824822219E+01  0.72462133069E+02  0.70000733114E+02 0.  0.
         12    1    1    2    0    0 -0.15542061132E+02  0.85622622343E+01  0.59824822219E+01  0.18725866931E+02  0.00000000000E+00 0. -1.
         11    1    3    3    0    0  0.20955665831E+02 -0.16852197012E+02  0.71459897815E+01  0.27824479237E+02  0.51100000000E-03 0. -1.
        -11    1    3    3    0    0 -0.14834981684E+02 -0.10048276541E+02 -0.15748588310E+02  0.23855032531E+02  0.51100000000E-03 0.  1.
        -12    1    3    3    0    0  0.94213769850E+01  0.18338211319E+02  0.26201163070E+01  0.20782621301E+02  0.00000000000E+00 0.  1.
</event>
<event>
 7    1  0.1351543E-013  0.7246151E+02  0.7816164E-02  0.1226708E+00
        -11   -1    0    0    0    0  0.00000000000E+00  0.00000000000E+00  0.45593999997E+02  0.45594000000E+02  0.51100000000E-03 0.  1.
         11   -1    0    0    0    0 -0.00000000000E+00 -0.00000000000E+00 -0.45593999997E+02  0.45594000000E+02  0.51100000000E-03 0. -1.
    9900012    2    1    2    0    0 -0.15467904859E+02  0.96726583489E+01  0.42266843747E+01  0.72461514450E+02  0.69999927252E+02 0.  0.
         12    1    1    2    0    0  0.15467904859E+02 -0.96726583489E+01 -0.42266843747E+01  0.18726485550E+02  0.00000000000E+00 0. -1.
         11    1    3    3    0    0 -0.36286939452E+01  0.77414872830E+01 -0.83656705608E+01  0.11961709296E+02  0.51100000000E-03 0. -1.
        -11    1    3    3    0    0  0.15098202701E+02 -0.63639887924E+01  0.24848949555E+02  0.29764515323E+02  0.51100000000E-03 0.  1.
        -12    1    3    3    0    0 -0.26937413614E+02  0.82951598583E+01 -0.12256594620E+02  0.30735289831E+02  0.00000000000E+00 0.  1.
</event>
<event>
 7    1  0.1351543E-013  0.7246160E+02  0.7816164E-02  0.1226708E+00
        -11   -1    0    0    0    0  0.00000000000E+00  0.00000000000E+00  0.45593999997E+02  0.45594000000E+02  0.51100000000E-03 0. -1.
         11   -1    0    0    0    0 -0.00000000000E+00 -0.00000000000E+00 -0.45593999997E+02  0.45594000000E+02  0.51100000000E-03 0.  1.
    9900012    2    1    2    0    0 -0.14170278519E+02 -0.86965021034E+00 -0.12211679562E+02  0.72461596113E+02  0.70000033634E+02 0.  0.
         12    1    1    2    0    0  0.14170278519E+02  0.86965021034E+00  0.12211679562E+02  0.18726403887E+02  0.00000000000E+00 0. -1.
         11    1    3    3    0    0 -0.97770978993E+01  0.23487633642E+02 -0.13721082361E+01  0.25478289948E+02  0.51100000000E-03 0. -1.
        -11    1    3    3    0    0 -0.19606261181E+02 -0.18774184835E+02 -0.13891165664E+02  0.30493277579E+02  0.51100000000E-03 0.  1.
         12    1    3    3    0    0  0.15213080561E+02 -0.55830990168E+01  0.30515943384E+01  0.16490028586E+02  0.00000000000E+00 0. -1.
</event>
<event>
 7    1  0.1351543E-013  0.7246154E+02  0.7816164E-02  0.1226708E+00
        -11   -1    0    0    0    0  0.00000000000E+00  0.00000000000E+00  0.45593999997E+02  0.45594000000E+02  0.51100000000E-03 0.  1.
         11   -1    0    0    0    0 -0.00000000000E+00 -0.00000000000E+00 -0.45593999997E+02  0.45594000000E+02  0.51100000000E-03 0. -1.
    9900012    2    1    2    0    0  0.17517632550E+02 -0.57466215397E+01  0.32846710390E+01  0.72461543498E+02  0.69999965093E+02 0.  0.
         12    1    1    2    0    0 -0.17517632550E+02  0.57466215397E+01 -0.32846710390E+01  0.18726456502E+02  0.00000000000E+00 0. -1.
         11    1    3    3    0    0 -0.24962329731E+02 -0.93766424952E+01  0.86420967309E+01  0.28030789611E+02  0.51100000000E-03 0. -1.
        -11    1    3    3    0    0  0.18050757427E+02  0.56885344608E+01  0.14675232325E+01  0.18982699826E+02  0.51100000000E-03 0.  1.
         12    1    3    3    0    0  0.24429204854E+02 -0.20585135052E+01 -0.68249489243E+01  0.25448054060E+02  0.00000000000E+00 0. -1.
</event>
<event>
 7    1  0.1351543E-013  0.7246159E+02  0.7816164E-02  0.1226708E+00
        -11   -1    0    0    0    0  0.00000000000E+00  0.00000000000E+00  0.45593999997E+02  0.45594000000E+02  0.51100000000E-03 0.  1.
         11   -1    0    0    0    0 -0.00000000000E+00 -0.00000000000E+00 -0.45593999997E+02  0.45594000000E+02  0.51100000000E-03 0. -1.
    9900012    2    1    2    0    0  0.96374752994E+01  0.65520928146E+01  0.14658359328E+02  0.72461592214E+02  0.70000028554E+02 0.  0.
         12    1    1    2    0    0 -0.96374752994E+01 -0.65520928146E+01 -0.14658359328E+02  0.18726407786E+02  0.00000000000E+00 0. -1.
         11    1    3    3    0    0  0.13882309729E+02 -0.12905327360E+00  0.29263030305E+02  0.32389197598E+02  0.51100000000E-03 0. -1.
        -11    1    3    3    0    0 -0.16420739299E+02  0.23042700628E+01  0.43314311015E+01  0.17138017251E+02  0.51100000000E-03 0.  1.
         12    1    3    3    0    0  0.12175904870E+02  0.43768760254E+01 -0.18936102079E+02  0.22934377364E+02  0.00000000000E+00 0. -1.
</event>
<event>
 7    1  0.1351543E-013  0.7246154E+02  0.7816164E-02  0.1226708E+00
        -11   -1    0    0    0    0  0.00000000000E+00  0.00000000000E+00  0.45593999997E+02  0.45594000000E+02  0.51100000000E-03 0. -1.
         11   -1    0    0    0    0 -0.00000000000E+00 -0.00000000000E+00 -0.45593999997E+02  0.45594000000E+02  0.51100000000E-03 0.  1.
    9900012    2    1    2    0    0  0.74044669552E+00  0.17497637519E+02 -0.66305956910E+01  0.72461537994E+02  0.69999957923E+02 0.  0.
         12    1    1    2    0    0 -0.74044669552E+00 -0.17497637519E+02  0.66305956910E+01  0.18726462006E+02  0.00000000000E+00 0. -1.
         11    1    3    3    0    0 -0.54533652966E+01 -0.18473269326E+02 -0.13408611910E+02  0.23468952816E+02  0.51100000000E-03 0. -1.
        -11    1    3    3    0    0  0.14789802212E+02  0.97534062071E+01  0.11329241108E+02  0.21029001081E+02  0.51100000000E-03 0.  1.
        -12    1    3    3    0    0 -0.85959902201E+01  0.26217500638E+02 -0.45512248885E+01  0.27963584097E+02  0.00000000000E+00 0.  1.
</event>
<event>
 7    1  0.1351543E-013  0.7246108E+02  0.7816164E-02  0.1226709E+00
        -11   -1    0    0    0    0  0.00000000000E+00  0.00000000000E+00  0.45593999997E+02  0.45594000000E+02  0.51100000000E-03 0. -1.
         11   -1    0    0    0    0 -0.00000000000E+00 -0.00000000000E+00 -0.45593999997E+02  0.45594000000E+02  0.51100000000E-03 0.  1.
    9900012    2    1    2    0    0  0.83443099354E+01  0.14763487195E+02 -0.79441521479E+01  0.72461077781E+02  0.69999358407E+02 0.  0.
         12    1    1    2    0    0 -0.83443099354E+01 -0.14763487195E+02  0.79441521479E+01  0.18726922219E+02  0.00000000000E+00 0. -1.
         11    1    3    3    0    0  0.18953325276E+01 -0.66546764782E+01 -0.34860691456E+01  0.77478824700E+01  0.51100000000E-03 0. -1.
        -11    1    3    3    0    0  0.13806207720E+02  0.38814643205E+02  0.81608626328E+01  0.41997471089E+02  0.51100000000E-03 0.  1.
        -12    1    3    3    0    0 -0.73572303126E+01 -0.17396479531E+02 -0.12618945635E+02  0.22715724221E+02  0.00000000000E+00 0.  1.
</event>
<event>
 7    1  0.1351543E-013  0.7246155E+02  0.7816164E-02  0.1226708E+00
        -11   -1    0    0    0    0  0.00000000000E+00  0.00000000000E+00  0.45593999997E+02  0.45594000000E+02  0.51100000000E-03 0.  1.
         11   -1    0    0    0    0 -0.00000000000E+00 -0.00000000000E+00 -0.45593999997E+02  0.45594000000E+02  0.51100000000E-03 0. -1.
    9900012    2    1    2    0    0 -0.65204586226E+01  0.17552283835E+02  0.28411792705E+00  0.72461554222E+02  0.69999979062E+02 0.  0.
         12    1    1    2    0    0  0.65204586226E+01 -0.17552283835E+02 -0.28411792705E+00  0.18726445778E+02  0.00000000000E+00 0. -1.
         11    1    3    3    0    0 -0.53010574198E+01 -0.26009420891E+02 -0.10842743162E+01  0.26566272525E+02  0.51100000000E-03 0.  1.
        -11    1    3    3    0    0 -0.62314433037E+01  0.34157706017E+02 -0.18292303738E+01  0.34769611013E+02  0.51100000000E-03 0. -1.
        -12    1    3    3    0    0  0.50120421009E+01  0.94039987090E+01  0.31976226171E+01  0.11125670683E+02  0.00000000000E+00 0.  1.
</event>
<event>
 7    1  0.1351543E-013  0.7246156E+02  0.7816164E-02  0.1226708E+00
        -11   -1    0    0    0    0  0.00000000000E+00  0.00000000000E+00  0.45593999997E+02  0.45594000000E+02  0.51100000000E-03 0.  1.
         11   -1    0    0    0    0 -0.00000000000E+00 -0.00000000000E+00 -0.45593999997E+02  0.45594000000E+02  0.51100000000E-03 0. -1.
    9900012    2    1    2    0    0 -0.78463018924E+01 -0.12078245483E+02  0.11967926022E+02  0.72461555580E+02  0.69999980832E+02 0.  0.
         12    1    1    2    0    0  0.78463018924E+01  0.12078245483E+02 -0.11967926022E+02  0.18726444420E+02  0.00000000000E+00 0. -1.
         11    1    3    3    0    0 -0.83951881990E+01 -0.28095299523E+02 -0.19200926949E+02  0.35049973411E+02  0.51100000000E-03 0. -1.
        -11    1    3    3    0    0 -0.60188993139E+01  0.67223951441E+01  0.16918440962E+02  0.19174237671E+02  0.51100000000E-03 0.  1.
         12    1    3    3    0    0  0.65677856205E+01  0.92946588952E+01  0.14250412008E+02  0.18237344498E+02  0.00000000000E+00 0. -1.
</event>
<event>
 7    1  0.1351543E-013  0.7246160E+02  0.7816164E-02  0.1226708E+00
        -11   -1    0    0    0    0  0.00000000000E+00  0.00000000000E+00  0.45593999997E+02  0.45594000000E+02  0.51100000000E-03 0.  1.
         11   -1    0    0    0    0 -0.00000000000E+00 -0.00000000000E+00 -0.45593999997E+02  0.45594000000E+02  0.51100000000E-03 0. -1.
    9900012    2    1    2    0    0  0.38513229943E+01 -0.78879824341E+01  0.16541617688E+02  0.72461599614E+02  0.70000038194E+02 0.  0.
         12    1    1    2    0    0 -0.38513229943E+01  0.78879824341E+01 -0.16541617688E+02  0.18726400386E+02  0.00000000000E+00 0. -1.
         11    1    3    3    0    0  0.29177732849E+02  0.13559659062E+01 -0.12126132465E+02  0.31626283794E+02  0.51100000000E-03 0. -1.
        -11    1    3    3    0    0 -0.12712580930E+02 -0.92147471682E+01  0.11187068515E+02  0.19278790976E+02  0.51100000000E-03 0.  1.
         12    1    3    3    0    0 -0.12613828925E+02 -0.29201172136E-01  0.17480681638E+02  0.21556524844E+02  0.00000000000E+00 0. -1.
</event>
<event>
 7    1  0.1351543E-013  0.7246157E+02  0.7816164E-02  0.1226708E+00
        -11   -1    0    0    0    0  0.00000000000E+00  0.00000000000E+00  0.45593999997E+02  0.45594000000E+02  0.51100000000E-03 0.  1.
         11   -1    0    0    0    0 -0.00000000000E+00 -0.00000000000E+00 -0.45593999997E+02  0.45594000000E+02  0.51100000000E-03 0. -1.
    9900012    2    1    2    0    0  0.21516782281E+01 -0.75471422918E+00  0.18587088304E+02  0.72461570431E+02  0.70000000178E+02 0.  0.
         12    1    1    2    0    0 -0.21516782281E+01  0.75471422918E+00 -0.18587088304E+02  0.18726429569E+02  0.00000000000E+00 0. -1.
         11    1    3    3    0    0  0.32083534818E+01 -0.21811761767E+02  0.27086468337E+01  0.22212232021E+02  0.51100000000E-03 0. -1.
        -11    1    3    3    0    0  0.21936674403E+01  0.28122336842E+02  0.25397879367E+02  0.37956953025E+02  0.51100000000E-03 0.  1.
        -12    1    3    3    0    0 -0.32503426940E+01 -0.70652893047E+01 -0.95194378967E+01  0.12292385385E+02  0.00000000000E+00 0.  1.
</event>
<event>
 7    1  0.1351543E-013  0.7246155E+02  0.7816164E-02  0.1226708E+00
        -11   -1    0    0    0    0  0.00000000000E+00  0.00000000000E+00  0.45593999997E+02  0.45594000000E+02  0.51100000000E-03 0. -1.
         11   -1    0    0    0    0 -0.00000000000E+00 -0.00000000000E+00 -0.45593999997E+02  0.45594000000E+02  0.51100000000E-03 0.  1.
    9900012    2    1    2    0    0  0.31977276926E+01  0.17700759232E+02 -0.52093620996E+01  0.72461553640E+02  0.69999978304E+02 0.  0.
         12    1    1    2    0    0 -0.31977276926E+01 -0.17700759232E+02  0.52093620996E+01  0.18726446360E+02  0.00000000000E+00 0. -1.
         11    1    3    3    0    0 -0.24852024537E+02 -0.57629970925E+00  0.70061249649E+01  0.25827137515E+02  0.51100000000E-03 0. -1.
        -11    1    3    3    0    0  0.55734767865E+01  0.15377031501E+02  0.61403560142E+01  0.17470567063E+02  0.51100000000E-03 0.  1.
         12    1    3    3    0    0  0.22476275443E+02  0.29000274408E+01 -0.18355843079E+02  0.29163849061E+02  0.00000000000E+00 0. -1.
</event>
<event>
 7    1  0.1351543E-013  0.7246154E+02  0.7816164E-02  0.1226708E+00
        -11   -1    0    0    0    0  0.00000000000E+00  0.00000000000E+00  0.45593999997E+02  0.45594000000E+02  0.51100000000E-03 0. -1.
         11   -1    0    0    0    0 -0.00000000000E+00 -0.00000000000E+00 -0.45593999997E+02  0.45594000000E+02  0.51100000000E-03 0.  1.
    9900012    2    1    2    0    0 -0.52479986740E+01  0.37717099245E+01 -0.17575924577E+02  0.72461537158E+02  0.69999956834E+02 0.  0.
         12    1    1    2    0    0  0.52479986740E+01 -0.37717099245E+01  0.17575924577E+02  0.18726462842E+02  0.00000000000E+00 0. -1.
         11    1    3    3    0    0  0.14035916451E+02  0.18481864780E+02 -0.11651682070E+02  0.25968210791E+02  0.51100000000E-03 0. -1.
        -11    1    3    3    0    0 -0.26885424606E+02 -0.58789347966E+01  0.76886320227E+01  0.28574516500E+02  0.51100000000E-03 0.  1.
         12    1    3    3    0    0  0.76015094805E+01 -0.88312200586E+01 -0.13612874530E+02  0.17918809867E+02  0.00000000000E+00 0. -1.
</event>
<event>
 7    1  0.1351543E-013  0.7246158E+02  0.7816164E-02  0.1226708E+00
        -11   -1    0    0    0    0  0.00000000000E+00  0.00000000000E+00  0.45593999997E+02  0.45594000000E+02  0.51100000000E-03 0.  1.
         11   -1    0    0    0    0 -0.00000000000E+00 -0.00000000000E+00 -0.45593999997E+02  0.45594000000E+02  0.51100000000E-03 0. -1.
    9900012    2    1    2    0    0  0.13417570301E+02 -0.10927131815E+02  0.71585918219E+01  0.72461579110E+02  0.70000011484E+02 0.  0.
         12    1    1    2    0    0 -0.13417570301E+02  0.10927131815E+02 -0.71585918219E+01  0.18726420890E+02  0.00000000000E+00 0. -1.
         11    1    3    3    0    0 -0.11555518325E+02  0.60454847267E+01 -0.21290351818E+02  0.24967117778E+02  0.51100000000E-03 0. -1.
        -11    1    3    3    0    0  0.14504629784E+01 -0.37881024979E+01  0.18200452915E+02  0.18646985010E+02  0.51100000000E-03 0.  1.
         12    1    3    3    0    0  0.23522625648E+02 -0.13184514044E+02  0.10248490725E+02  0.28847476321E+02  0.00000000000E+00 0. -1.
</event>
<event>
 7    1  0.1351543E-013  0.7246148E+02  0.7816164E-02  0.1226708E+00
        -11   -1    0    0    0    0  0.00000000000E+00  0.00000000000E+00  0.45593999997E+02  0.45594000000E+02  0.51100000000E-03 0.  1.
         11   -1    0    0    0    0 -0.00000000000E+00 -0.00000000000E+00 -0.45593999997E+02  0.45594000000E+02  0.51100000000E-03 0. -1.
    9900012    2    1    2    0    0 -0.67296212932E+01  0.10432290827E+02  0.14020056940E+02  0.72461481604E+02  0.69999884464E+02 0.  0.
         12    1    1    2    0    0  0.67296212932E+01 -0.10432290827E+02 -0.14020056940E+02  0.18726518396E+02  0.00000000000E+00 0. -1.
         11    1    3    3    0    0 -0.30828332583E+01  0.16340860504E+02 -0.16531671354E+02  0.23448320642E+02  0.51100000000E-03 0.  1.
        -11    1    3    3    0    0  0.16342484972E+02 -0.78674810622E+01  0.16297731292E+02  0.24384218644E+02  0.51100000000E-03 0. -1.
         12    1    3    3    0    0 -0.19989273007E+02  0.19589113846E+01  0.14253997001E+02  0.24628942318E+02  0.00000000000E+00 0. -1.
</event>
<event>
 7    1  0.1351543E-013  0.7246158E+02  0.7816164E-02  0.1226708E+00
        -11   -1    0    0    0    0  0.00000000000E+00  0.00000000000E+00  0.45593999997E+02  0.45594000000E+02  0.51100000000E-03 0.  1.
         11   -1    0    0    0    0 -0.00000000000E+00 -0.00000000000E+00 -0.45593999997E+02  0.45594000000E+02  0.51100000000E-03 0. -1.
    9900012    2    1    2    0    0  0.34250179191E+01  0.17900077875E+02  0.43052548122E+01  0.72461581371E+02  0.70000014430E+02 0.  0.
         12    1    1    2    0    0 -0.34250179191E+01 -0.17900077875E+02 -0.43052548122E+01  0.18726418629E+02  0.00000000000E+00 0. -1.
         11    1    3    3    0    0  0.15297531054E+02  0.20573009371E+02 -0.57688776323E+01  0.26278187158E+02  0.51100000000E-03 0. -1.
        -11    1    3    3    0    0  0.11873617614E+02 -0.11695270291E+02  0.12255998774E+02  0.20687475646E+02  0.51100000000E-03 0.  1.
        -12    1    3    3    0    0 -0.23746130749E+02  0.90223387948E+01 -0.21818663291E+01  0.25495918566E+02  0.00000000000E+00 0.  1.
</event>
<event>
 7    1  0.1351543E-013  0.7246158E+02  0.7816164E-02  0.1226708E+00
        -11   -1    0    0    0    0  0.00000000000E+00  0.00000000000E+00  0.45593999997E+02  0.45594000000E+02  0.51100000000E-03 0.  1.
         11   -1    0    0    0    0 -0.00000000000E+00 -0.00000000000E+00 -0.45593999997E+02  0.45594000000E+02  0.51100000000E-03 0. -1.
    9900012    2    1    2    0    0 -0.13624046527E+02 -0.85034641925E+01  0.96309627499E+01  0.72461575074E+02  0.70000006226E+02 0.  0.
         12    1    1    2    0    0  0.13624046527E+02  0.85034641925E+01 -0.96309627499E+01  0.18726424926E+02  0.00000000000E+00 0. -1.
         11    1    3    3    0    0  0.48232044844E+01 -0.14721070568E+01 -0.21310866473E+02  0.21899393388E+02  0.51100000000E-03 0. -1.
        -11    1    3    3    0    0 -0.25454096561E+02  0.47265679167E+01  0.16693246300E+02  0.30804479355E+02  0.51100000000E-03 0.  1.
        -12    1    3    3    0    0  0.70068455501E+01 -0.11757925052E+02  0.14248582923E+02  0.19757702331E+02  0.00000000000E+00 0.  1.
</event>
<event>
 7    1  0.1351543E-013  0.7246159E+02  0.7816164E-02  0.1226708E+00
        -11   -1    0    0    0    0  0.00000000000E+00  0.00000000000E+00  0.45593999997E+02  0.45594000000E+02  0.51100000000E-03 0. -1.
         11   -1    0    0    0    0 -0.00000000000E+00 -0.00000000000E+00 -0.45593999997E+02  0.45594000000E+02  0.51100000000E-03 0.  1.
    9900012    2    1    2    0    0 -0.11944495517E+02 -0.13311031971E+02 -0.55519327262E+01  0.72461588109E+02  0.70000023207E+02 0.  0.
         12    1    1    2    0    0  0.11944495517E+02  0.13311031971E+02  0.55519327262E+01  0.18726411891E+02  0.00000000000E+00 0. -1.
         11    1    3    3    0    0  0.19523114601E+02 -0.25882793984E+01  0.45376786351E+01  0.20209941158E+02  0.51100000000E-03 0. -1.
        -11    1    3    3    0    0 -0.85614035448E+01 -0.20411119808E+01 -0.22953574759E+02  0.24583131681E+02  0.51100000000E-03 0.  1.
        -12    1    3    3    0    0 -0.22906206573E+02 -0.86816405923E+01  0.12863963398E+02  0.27668515270E+02  0.00000000000E+00 0.  1.
</event>
<event>
 7    1  0.1351543E-013  0.7246156E+02  0.7816164E-02  0.1226708E+00
        -11   -1    0    0    0    0  0.00000000000E+00  0.00000000000E+00  0.45593999997E+02  0.45594000000E+02  0.51100000000E-03 0.  1.
         11   -1    0    0    0    0 -0.00000000000E+00 -0.00000000000E+00 -0.45593999997E+02  0.45594000000E+02  0.51100000000E-03 0. -1.
    9900012    2    1    2    0    0  0.53395498242E+01  0.10044367243E+02  0.14875465567E+02  0.72461559295E+02  0.69999985672E+02 0.  0.
         12    1    1    2    0    0 -0.53395498242E+01 -0.10044367243E+02 -0.14875465567E+02  0.18726440705E+02  0.00000000000E+00 0. -1.
         11    1    3    3    0    0 -0.71849592211E+01 -0.14209409092E+01 -0.26402366793E+01  0.77854712163E+01  0.51100000000E-03 0. -1.
        -11    1    3    3    0    0  0.72751233258E+01  0.33074918022E+01  0.39682665618E+02  0.40479388239E+02  0.51100000000E-03 0.  1.
        -12    1    3    3    0    0  0.52493857194E+01  0.81578163496E+01 -0.22166963371E+02  0.24196699840E+02  0.00000000000E+00 0.  1.
</event>
<event>
 7    1  0.1351543E-013  0.7246160E+02  0.7816164E-02  0.1226708E+00
        -11   -1    0    0    0    0  0.00000000000E+00  0.00000000000E+00  0.45593999997E+02  0.45594000000E+02  0.51100000000E-03 0. -1.
         11   -1    0    0    0    0 -0.00000000000E+00 -0.00000000000E+00 -0.45593999997E+02  0.45594000000E+02  0.51100000000E-03 0.  1.
    9900012    2    1    2    0    0  0.58454868690E+01 -0.11696170032E+02 -0.13405515721E+02  0.72461602538E+02  0.70000042004E+02 0.  0.
         12    1    1    2    0    0 -0.58454868690E+01  0.11696170032E+02  0.13405515721E+02  0.18726397462E+02  0.00000000000E+00 0. -1.
         11    1    3    3    0    0  0.57466294240E+01 -0.31502382549E+02 -0.10776222865E+02  0.33786844119E+02  0.51100000000E-03 0.  1.
        -11    1    3    3    0    0  0.10900798078E+02  0.21801865822E+02 -0.89913767595E+01  0.25980639106E+02  0.51100000000E-03 0. -1.
        -12    1    3    3    0    0 -0.10801940633E+02 -0.19956533049E+01  0.63620839034E+01  0.12694119314E+02  0.00000000000E+00 0.  1.
</event>
<event>
 7    1  0.1351543E-013  0.7246157E+02  0.7816164E-02  0.1226708E+00
        -11   -1    0    0    0    0  0.00000000000E+00  0.00000000000E+00  0.45593999997E+02  0.45594000000E+02  0.51100000000E-03 0. -1.
         11   -1    0    0    0    0 -0.00000000000E+00 -0.00000000000E+00 -0.45593999997E+02  0.45594000000E+02  0.51100000000E-03 0.  1.
    9900012    2    1    2    0    0  0.62267352694E+00  0.42810135491E+01 -0.18219888158E+02  0.72461571515E+02  0.70000001590E+02 0.  0.
         12    1    1    2    0    0 -0.62267352694E+00 -0.42810135491E+01  0.18219888158E+02  0.18726428485E+02  0.00000000000E+00 0. -1.
         11    1    3    3    0    0 -0.24929892867E+02  0.33375970914E+01 -0.23471643172E+02  0.34402865377E+02  0.51100000000E-03 0. -1.
        -11    1    3    3    0    0  0.21336895780E+02  0.10125034737E+02 -0.44712837185E+01  0.24036884746E+02  0.51100000000E-03 0.  1.
         12    1    3    3    0    0  0.42156706135E+01 -0.91816182788E+01  0.97230387325E+01  0.14021821391E+02  0.00000000000E+00 0. -1.
</event>
<event>
 7    1  0.1351543E-013  0.7246155E+02  0.7816164E-02  0.1226708E+00
        -11   -1    0    0    0    0  0.00000000000E+00  0.00000000000E+00  0.45593999997E+02  0.45594000000E+02  0.51100000000E-03 0.  1.
         11   -1    0    0    0    0 -0.00000000000E+00 -0.00000000000E+00 -0.45593999997E+02  0.45594000000E+02  0.51100000000E-03 0. -1.
    9900012    2    1    2    0    0 -0.13363662296E+02 -0.57390730073E+01  0.11796425221E+02  0.72461546066E+02  0.69999968438E+02 0.  0.
         12    1    1    2    0    0  0.13363662296E+02  0.57390730073E+01 -0.11796425221E+02  0.18726453934E+02  0.00000000000E+00 0. -1.
         11    1    3    3    0    0 -0.34413866383E+02  0.41144300380E+01  0.40031061345E+01  0.34889362175E+02  0.51100000000E-03 0. -1.
        -11    1    3    3    0    0  0.15852823246E+02  0.66936934422E+01  0.10288772154E+02  0.20049348355E+02  0.51100000000E-03 0.  1.
         12    1    3    3    0    0  0.51973808411E+01 -0.16547196487E+02 -0.24954530676E+01  0.17522835536E+02  0.00000000000E+00 0. -1.
</event>
<event>
 7    1  0.1351543E-013  0.7246158E+02  0.7816164E-02  0.1226708E+00
        -11   -1    0    0    0    0  0.00000000000E+00  0.00000000000E+00  0.45593999997E+02  0.45594000000E+02  0.51100000000E-03 0. -1.
         11   -1    0    0    0    0 -0.00000000000E+00 -0.00000000000E+00 -0.45593999997E+02  0.45594000000E+02  0.51100000000E-03 0.  1.
    9900012    2    1    2    0    0 -0.10955542576E+02 -0.12339745891E+02 -0.88535660127E+01  0.72461578213E+02  0.70000010316E+02 0.  0.
         12    1    1    2    0    0  0.10955542576E+02  0.12339745891E+02  0.88535660127E+01  0.18726421787E+02  0.00000000000E+00 0. -1.
         11    1    3    3    0    0 -0.13307383872E+02 -0.92866236007E+01  0.16112764480E+02  0.22868078687E+02  0.51100000000E-03 0. -1.
        -11    1    3    3    0    0 -0.45761493579E+01  0.17120882572E+02 -0.21695768087E+02  0.28013784395E+02  0.51100000000E-03 0.  1.
        -12    1    3    3    0    0  0.69279906532E+01 -0.20174004862E+02 -0.32705624052E+01  0.21579715131E+02  0.00000000000E+00 0.  1.
</event>
<event>
 7    1  0.1351543E-013  0.7246155E+02  0.7816164E-02  0.1226708E+00
        -11   -1    0    0    0    0  0.00000000000E+00  0.00000000000E+00  0.45593999997E+02  0.45594000000E+02  0.51100000000E-03 0.  1.
         11   -1    0    0    0    0 -0.00000000000E+00 -0.00000000000E+00 -0.45593999997E+02  0.45594000000E+02  0.51100000000E-03 0. -1.
    9900012    2    1    2    0    0  0.99113757498E+01  0.13999722045E+02  0.75134830252E+01  0.72461547753E+02  0.69999970636E+02 0.  0.
         12    1    1    2    0    0 -0.99113757498E+01 -0.13999722045E+02 -0.75134830252E+01  0.18726452247E+02  0.00000000000E+00 0. -1.
         11    1    3    3    0    0  0.16303998763E+02 -0.76959765804E+01  0.23253573986E+02  0.29424091057E+02  0.51100000000E-03 0.  1.
        -11    1    3    3    0    0  0.33700458925E+01  0.62876184484E+01 -0.22485175542E+02  0.23589711200E+02  0.51100000000E-03 0. -1.
         12    1    3    3    0    0 -0.97626689052E+01  0.15408080177E+02  0.67450845814E+01  0.19447745496E+02  0.00000000000E+00 0. -1.
</event>
<event>
 7    1  0.1351543E-013  0.7246177E+02  0.7816164E-02  0.1226707E+00
        -11   -1    0    0    0    0  0.00000000000E+00  0.00000000000E+00  0.45593999997E+02  0.45594000000E+02  0.51100000000E-03 0. -1.
         11   -1    0    0    0    0 -0.00000000000E+00 -0.00000000000E+00 -0.45593999997E+02  0.45594000000E+02  0.51100000000E-03 0.  1.
    9900012    2    1    2    0    0 -0.75770614012E+00 -0.11706480009E+02 -0.14596435594E+02  0.72461769070E+02  0.70000258942E+02 0.  0.
         12    1    1    2    0    0  0.75770614012E+00  0.11706480009E+02  0.14596435594E+02  0.18726230930E+02  0.00000000000E+00 0. -1.
         11    1    3    3    0    0  0.11292796069E+02 -0.64732477604E+01 -0.15912942232E+01  0.13113443376E+02  0.51100000000E-03 0. -1.
        -11    1    3    3    0    0 -0.27804078081E+02 -0.13675069781E+02  0.77686648072E+01  0.31944114397E+02  0.51100000000E-03 0.  1.
        -12    1    3    3    0    0  0.15753575872E+02  0.84418375323E+01 -0.20773806178E+02  0.27404211297E+02  0.00000000000E+00 0.  1.
</event>
<event>
 7    1  0.1351543E-013  0.7246153E+02  0.7816164E-02  0.1226708E+00
        -11   -1    0    0    0    0  0.00000000000E+00  0.00000000000E+00  0.45593999997E+02  0.45594000000E+02  0.51100000000E-03 0. -1.
         11   -1    0    0    0    0 -0.00000000000E+00 -0.00000000000E+00 -0.45593999997E+02  0.45594000000E+02  0.51100000000E-03 0.  1.
    9900012    2    1    2    0    0 -0.16849735960E+02  0.60914691696E+01 -0.54462053490E+01  0.72461528061E+02  0.69999944984E+02 0.  0.
         12    1    1    2    0    0  0.16849735960E+02 -0.60914691696E+01  0.54462053490E+01  0.18726471939E+02  0.00000000000E+00 0. -1.
         11    1    3    3    0    0 -0.90083448276E+01 -0.10024034812E+02  0.15023729453E+02  0.20182764860E+02  0.51100000000E-03 0. -1.
        -11    1    3    3    0    0  0.12469061749E+02  0.35598339797E+01 -0.24824211192E+02  0.28006988064E+02  0.51100000000E-03 0.  1.
        -12    1    3    3    0    0 -0.20310452882E+02  0.12555670002E+02  0.43542763893E+01  0.24271775137E+02  0.00000000000E+00 0.  1.
</event>
<event>
 7    1  0.1351543E-013  0.7246157E+02  0.7816164E-02  0.1226708E+00
        -11   -1    0    0    0    0  0.00000000000E+00  0.00000000000E+00  0.45593999997E+02  0.45594000000E+02  0.51100000000E-03 0.  1.
         11   -1    0    0    0    0 -0.00000000000E+00 -0.00000000000E+00 -0.45593999997E+02  0.45594000000E+02  0.51100000000E-03 0. -1.
    9900012    2    1    2    0    0  0.73750259965E+01  0.77892572856E+01  0.15349779150E+02  0.72461567946E+02  0.69999996941E+02 0.  0.
         12    1    1    2    0    0 -0.73750259965E+01 -0.77892572856E+01 -0.15349779150E+02  0.18726432054E+02  0.00000000000E+00 0. -1.
         11    1    3    3    0    0 -0.40659614192E+00 -0.31561460823E+01 -0.22249860380E+01  0.38829295186E+01  0.51100000000E-03 0. -1.
        -11    1    3    3    0    0  0.33073905426E+02  0.13612723425E+02 -0.29639763166E+01  0.35888363226E+02  0.51100000000E-03 0.  1.
        -12    1    3    3    0    0 -0.25292283287E+02 -0.26673200566E+01  0.20538741505E+02  0.32690275202E+02  0.00000000000E+00 0.  1.
</event>
<event>
 7    1  0.1351543E-013  0.7246158E+02  0.7816164E-02  0.1226708E+00
        -11   -1    0    0    0    0  0.00000000000E+00  0.00000000000E+00  0.45593999997E+02  0.45594000000E+02  0.51100000000E-03 0. -1.
         11   -1    0    0    0    0 -0.00000000000E+00 -0.00000000000E+00 -0.45593999997E+02  0.45594000000E+02  0.51100000000E-03 0.  1.
    9900012    2    1    2    0    0 -0.58934530250E+01 -0.14313232239E+02  0.10539322823E+02  0.72461581996E+02  0.70000015244E+02 0.  0.
         12    1    1    2    0    0  0.58934530250E+01  0.14313232239E+02 -0.10539322823E+02  0.18726418004E+02  0.00000000000E+00 0. -1.
         11    1    3    3    0    0  0.46990497972E+01 -0.27843428000E+02  0.12014545106E+02  0.30686916531E+02  0.51100000000E-03 0. -1.
        -11    1    3    3    0    0 -0.45877771774E+01  0.20352562350E+02  0.13073149475E+02  0.24620758134E+02  0.51100000000E-03 0.  1.
        -12    1    3    3    0    0 -0.60047256447E+01 -0.68223665889E+01 -0.14548371758E+02  0.17153907332E+02  0.00000000000E+00 0.  1.
</event>
<event>
 7    1  0.1351543E-013  0.7246151E+02  0.7816164E-02  0.1226708E+00
        -11   -1    0    0    0    0  0.00000000000E+00  0.00000000000E+00  0.45593999997E+02  0.45594000000E+02  0.51100000000E-03 0.  1.
         11   -1    0    0    0    0 -0.00000000000E+00 -0.00000000000E+00 -0.45593999997E+02  0.45594000000E+02  0.51100000000E-03 0. -1.
    9900012    2    1    2    0    0  0.40882598795E+01 -0.67511029964E+01  0.16982052431E+02  0.72461511667E+02  0.69999923627E+02 0.  0.
         12    1    1    2    0    0 -0.40882598795E+01  0.67511029964E+01 -0.16982052431E+02  0.18726488333E+02  0.00000000000E+00 0. -1.
         11    1    3    3    0    0  0.81826737224E+01  0.17056758749E+02  0.44051630600E+01  0.19424073469E+02  0.51100000000E-03 0.  1.
        -11    1    3    3    0    0 -0.10223135049E+02 -0.28055328129E+02 -0.81980281881E+01  0.30964844471E+02  0.51100000000E-03 0. -1.
         12    1    3    3    0    0  0.61287212063E+01  0.42474663835E+01  0.20774917559E+02  0.22072593728E+02  0.00000000000E+00 0. -1.
</event>
<event>
 8    1  0.1351543E-013  0.7246158E+02  0.7816164E-02  0.1226708E+00
        -11   -1    0    0    0    0  0.00000000000E+00  0.00000000000E+00  0.45593999997E+02  0.45594000000E+02  0.51100000000E-03 0.  1.
         11   -1    0    0    0    0 -0.00000000000E+00 -0.00000000000E+00 -0.45593999997E+02  0.45594000000E+02  0.51100000000E-03 0. -1.
    9900012    2    1    2    0    0 -0.60075776556E+01 -0.11919420097E+02 -0.13134509188E+02  0.72461577589E+02  0.70000009502E+02 0.  0.
        -24    2    3    3    0    0 -0.13972904104E+02 -0.14133261965E+01 -0.21957199524E+02  0.56597646818E+02  0.50238784563E+02 0.  0.
         12    1    1    2    0    0  0.60075776556E+01  0.11919420097E+02  0.13134509188E+02  0.18726422411E+02  0.00000000000E+00 0. -1.
         11    1    4    4    0    0 -0.29114271580E+02 -0.73838013566E+01 -0.26112288866E+02  0.39799660328E+02  0.51100000000E-03 0. -1.
        -11    1    3    3    0    0  0.79653264482E+01 -0.10506093900E+02  0.88226903364E+01  0.15863930771E+02  0.51100000000E-03 0.  1.
        -12    1    4    4    0    0  0.15141367476E+02  0.59704751601E+01  0.41550893425E+01  0.16797986490E+02  0.00000000000E+00 0.  1.
</event>
<event>
 7    1  0.1351543E-013  0.7246158E+02  0.7816164E-02  0.1226708E+00
        -11   -1    0    0    0    0  0.00000000000E+00  0.00000000000E+00  0.45593999997E+02  0.45594000000E+02  0.51100000000E-03 0.  1.
         11   -1    0    0    0    0 -0.00000000000E+00 -0.00000000000E+00 -0.45593999997E+02  0.45594000000E+02  0.51100000000E-03 0. -1.
    9900012    2    1    2    0    0 -0.30003711595E+01 -0.17541618843E+02 -0.58282255684E+01  0.72461579306E+02  0.70000011740E+02 0.  0.
         12    1    1    2    0    0  0.30003711595E+01  0.17541618843E+02  0.58282255684E+01  0.18726420694E+02  0.00000000000E+00 0. -1.
         11    1    3    3    0    0 -0.14125810522E+01 -0.29044182976E+02 -0.76477671594E+01  0.30067395843E+02  0.51100000000E-03 0. -1.
        -11    1    3    3    0    0  0.27996186286E+01  0.13629637515E+02  0.19555358687E+02  0.24000352850E+02  0.51100000000E-03 0.  1.
        -12    1    3    3    0    0 -0.43874087359E+01 -0.21270733817E+01 -0.17735817096E+02  0.18393830614E+02  0.00000000000E+00 0.  1.
</event>
<event>
 7    1  0.1351543E-013  0.7246156E+02  0.7816164E-02  0.1226708E+00
        -11   -1    0    0    0    0  0.00000000000E+00  0.00000000000E+00  0.45593999997E+02  0.45594000000E+02  0.51100000000E-03 0. -1.
         11   -1    0    0    0    0 -0.00000000000E+00 -0.00000000000E+00 -0.45593999997E+02  0.45594000000E+02  0.51100000000E-03 0.  1.
    9900012    2    1    2    0    0 -0.17997927220E+02 -0.54955284028E+00 -0.51431502030E+01  0.72461564500E+02  0.69999992452E+02 0.  0.
         12    1    1    2    0    0  0.17997927220E+02  0.54955284028E+00  0.51431502030E+01  0.18726435500E+02  0.00000000000E+00 0. -1.
         11    1    3    3    0    0 -0.11677228611E+02  0.13527208809E+02 -0.18204706526E+02  0.25509888007E+02  0.51100000000E-03 0. -1.
        -11    1    3    3    0    0  0.14343933185E+02 -0.18165975359E+02  0.21989412849E+01  0.23250514467E+02  0.51100000000E-03 0.  1.
         12    1    3    3    0    0 -0.20664631793E+02  0.40892137088E+01  0.10862615038E+02  0.23701162026E+02  0.00000000000E+00 0. -1.
</event>
<event>
 7    1  0.1351543E-013  0.7246171E+02  0.7816164E-02  0.1226708E+00
        -11   -1    0    0    0    0  0.00000000000E+00  0.00000000000E+00  0.45593999997E+02  0.45594000000E+02  0.51100000000E-03 0. -1.
         11   -1    0    0    0    0 -0.00000000000E+00 -0.00000000000E+00 -0.45593999997E+02  0.45594000000E+02  0.51100000000E-03 0.  1.
    9900012    2    1    2    0    0 -0.53430710833E+01  0.73296531229E+01 -0.16382971452E+02  0.72461708933E+02  0.70000180603E+02 0.  0.
         12    1    1    2    0    0  0.53430710833E+01 -0.73296531229E+01  0.16382971452E+02  0.18726291067E+02  0.00000000000E+00 0. -1.
         11    1    3    3    0    0  0.57149359251E-02  0.33511720047E+02 -0.82873220272E+01  0.34521227090E+02  0.51100000000E-03 0.  1.
        -11    1    3    3    0    0 -0.36057659110E+01 -0.31295069102E+02 -0.81460884225E+01  0.32538310570E+02  0.51100000000E-03 0. -1.
         12    1    3    3    0    0 -0.17430201082E+01  0.51130021780E+01  0.50438997405E-01  0.54021712729E+01  0.00000000000E+00 0. -1.
</event>
<event>
 7    1  0.1351543E-013  0.7246158E+02  0.7816164E-02  0.1226708E+00
        -11   -1    0    0    0    0  0.00000000000E+00  0.00000000000E+00  0.45593999997E+02  0.45594000000E+02  0.51100000000E-03 0. -1.
         11   -1    0    0    0    0 -0.00000000000E+00 -0.00000000000E+00 -0.45593999997E+02  0.45594000000E+02  0.51100000000E-03 0.  1.
    9900012    2    1    2    0    0  0.15083357067E+02  0.91221507494E+01 -0.63211976406E+01  0.72461579244E+02  0.70000011659E+02 0.  0.
         12    1    1    2    0    0 -0.15083357067E+02 -0.91221507494E+01  0.63211976406E+01  0.18726420756E+02  0.00000000000E+00 0. -1.
         11    1    3    3    0    0  0.34722563715E+00  0.71428506721E+01  0.27186096895E+02  0.28110936413E+02  0.51100000000E-03 0. -1.
        -11    1    3    3    0    0  0.81420477948E+01  0.13359076908E+02 -0.21120530992E+02  0.26283734662E+02  0.51100000000E-03 0.  1.
         12    1    3    3    0    0  0.65940836350E+01 -0.11379776831E+02 -0.12386763544E+02  0.18066908170E+02  0.00000000000E+00 0. -1.
</event>
<event>
 7    1  0.1351543E-013  0.7246151E+02  0.7816164E-02  0.1226708E+00
        -11   -1    0    0    0    0  0.00000000000E+00  0.00000000000E+00  0.45593999997E+02  0.45594000000E+02  0.51100000000E-03 0.  1.
         11   -1    0    0    0    0 -0.00000000000E+00 -0.00000000000E+00 -0.45593999997E+02  0.45594000000E+02  0.51100000000E-03 0. -1.
    9900012    2    1    2    0    0  0.90864789139E+01 -0.78227305339E+01  0.14384792924E+02  0.72461508617E+02  0.69999919654E+02 0.  0.
         12    1    1    2    0    0 -0.90864789139E+01  0.78227305339E+01 -0.14384792924E+02  0.18726491383E+02  0.00000000000E+00 0. -1.
         11    1    3    3    0    0  0.13206260851E+02  0.34850968980E+01 -0.11465379621E+02  0.17832727109E+02  0.51100000000E-03 0. -1.
        -11    1    3    3    0    0  0.23625520387E+00  0.97941022212E+01  0.30969484739E+02  0.32482137247E+02  0.51100000000E-03 0.  1.
        -12    1    3    3    0    0 -0.43560371409E+01 -0.21101929653E+02 -0.51193121946E+01  0.22146644261E+02  0.00000000000E+00 0.  1.
</event>
<event>
 7    1  0.1351543E-013  0.7246156E+02  0.7816164E-02  0.1226708E+00
        -11   -1    0    0    0    0  0.00000000000E+00  0.00000000000E+00  0.45593999997E+02  0.45594000000E+02  0.51100000000E-03 0.  1.
         11   -1    0    0    0    0 -0.00000000000E+00 -0.00000000000E+00 -0.45593999997E+02  0.45594000000E+02  0.51100000000E-03 0. -1.
    9900012    2    1    2    0    0  0.12922055235E+02 -0.61275852088E+01 -0.12089363853E+02  0.72461560660E+02  0.69999987449E+02 0.  0.
         12    1    1    2    0    0 -0.12922055235E+02  0.61275852088E+01  0.12089363853E+02  0.18726439340E+02  0.00000000000E+00 0. -1.
         11    1    3    3    0    0  0.44699063303E+01  0.27655816752E+01 -0.17652126105E+02  0.18418090588E+02  0.51100000000E-03 0. -1.
        -11    1    3    3    0    0  0.45180292726E+01 -0.27602061980E+02  0.16040399315E+02  0.32242531298E+02  0.51100000000E-03 0.  1.
        -12    1    3    3    0    0  0.39341196325E+01  0.18708895096E+02 -0.10477637063E+02  0.21800938774E+02  0.00000000000E+00 0.  1.
</event>
<event>
 7    1  0.1351543E-013  0.7246160E+02  0.7816164E-02  0.1226708E+00
        -11   -1    0    0    0    0  0.00000000000E+00  0.00000000000E+00  0.45593999997E+02  0.45594000000E+02  0.51100000000E-03 0.  1.
         11   -1    0    0    0    0 -0.00000000000E+00 -0.00000000000E+00 -0.45593999997E+02  0.45594000000E+02  0.51100000000E-03 0. -1.
    9900012    2    1    2    0    0 -0.15560193697E+02 -0.77061321062E+01  0.70124247335E+01  0.72461596166E+02  0.70000033702E+02 0.  0.
         12    1    1    2    0    0  0.15560193697E+02  0.77061321062E+01 -0.70124247335E+01  0.18726403834E+02  0.00000000000E+00 0. -1.
         11    1    3    3    0    0 -0.62383424372E+01  0.28197007681E+01 -0.16208192241E+02  0.17594690243E+02  0.51100000000E-03 0. -1.
        -11    1    3    3    0    0  0.15989025391E+02 -0.80152166968E+01  0.23373325110E+02  0.29431360122E+02  0.51100000000E-03 0.  1.
         12    1    3    3    0    0 -0.25310876651E+02 -0.25106161776E+01 -0.15270813586E+00  0.25435545801E+02  0.00000000000E+00 0. -1.
</event>
<event>
 7    1  0.1351543E-013  0.7246158E+02  0.7816164E-02  0.1226708E+00
        -11   -1    0    0    0    0  0.00000000000E+00  0.00000000000E+00  0.45593999997E+02  0.45594000000E+02  0.51100000000E-03 0.  1.
         11   -1    0    0    0    0 -0.00000000000E+00 -0.00000000000E+00 -0.45593999997E+02  0.45594000000E+02  0.51100000000E-03 0. -1.
    9900012    2    1    2    0    0 -0.10829540397E+02  0.13157409212E+02  0.77641772073E+01  0.72461579891E+02  0.70000012502E+02 0.  0.
         12    1    1    2    0    0  0.10829540397E+02 -0.13157409212E+02 -0.77641772073E+01  0.18726420109E+02  0.00000000000E+00 0. -1.
         11    1    3    3    0    0 -0.13153425754E+01  0.40395384057E+01 -0.93911477657E+01  0.10307359179E+02  0.51100000000E-03 0. -1.
        -11    1    3    3    0    0 -0.56191248654E+01  0.64883960042E+01  0.38936739161E+02  0.39871587675E+02  0.51100000000E-03 0.  1.
        -12    1    3    3    0    0 -0.38950729566E+01  0.26294748017E+01 -0.21781414188E+02  0.22282633038E+02  0.00000000000E+00 0.  1.
</event>
<event>
 7    1  0.1351543E-013  0.7246156E+02  0.7816164E-02  0.1226708E+00
        -11   -1    0    0    0    0  0.00000000000E+00  0.00000000000E+00  0.45593999997E+02  0.45594000000E+02  0.51100000000E-03 0. -1.
         11   -1    0    0    0    0 -0.00000000000E+00 -0.00000000000E+00 -0.45593999997E+02  0.45594000000E+02  0.51100000000E-03 0.  1.
    9900012    2    1    2    0    0  0.16477539073E+02  0.79205995241E+01 -0.40539140327E+01  0.72461563882E+02  0.69999991646E+02 0.  0.
         12    1    1    2    0    0 -0.16477539073E+02 -0.79205995241E+01  0.40539140327E+01  0.18726436118E+02  0.00000000000E+00 0. -1.
         11    1    3    3    0    0  0.22107875230E+02 -0.40984007898E+01  0.16963430440E+02  0.28165812766E+02  0.51100000000E-03 0. -1.
        -11    1    3    3    0    0 -0.15323766211E+02  0.11695861925E+02 -0.26793200200E+02  0.33007371515E+02  0.51100000000E-03 0.  1.
        -12    1    3    3    0    0  0.96934300538E+01  0.32313838911E+00  0.57758557273E+01  0.11288379601E+02  0.00000000000E+00 0.  1.
</event>
<event>
 7    1  0.1351543E-013  0.7246154E+02  0.7816164E-02  0.1226708E+00
        -11   -1    0    0    0    0  0.00000000000E+00  0.00000000000E+00  0.45593999997E+02  0.45594000000E+02  0.51100000000E-03 0. -1.
         11   -1    0    0    0    0 -0.00000000000E+00 -0.00000000000E+00 -0.45593999997E+02  0.45594000000E+02  0.51100000000E-03 0.  1.
    9900012    2    1    2    0    0  0.55198954510E-01  0.15689196604E+02 -0.10223813058E+02  0.72461540366E+02  0.69999961012E+02 0.  0.
         12    1    1    2    0    0 -0.55198954510E-01 -0.15689196604E+02  0.10223813058E+02  0.18726459634E+02  0.00000000000E+00 0. -1.
         11    1    3    3    0    0 -0.10929404517E+02 -0.18430273414E+02  0.11149288269E+02  0.24154367936E+02  0.51100000000E-03 0. -1.
        -11    1    3    3    0    0  0.10703089430E+02  0.15050097531E+02 -0.22612296812E+02  0.29195505243E+02  0.51100000000E-03 0.  1.
         12    1    3    3    0    0  0.28151404101E+00  0.19069372487E+02  0.12391954844E+01  0.19111667186E+02  0.00000000000E+00 0. -1.
</event>
<event>
 7    1  0.1351543E-013  0.7246145E+02  0.7816164E-02  0.1226708E+00
        -11   -1    0    0    0    0  0.00000000000E+00  0.00000000000E+00  0.45593999997E+02  0.45594000000E+02  0.51100000000E-03 0.  1.
         11   -1    0    0    0    0 -0.00000000000E+00 -0.00000000000E+00 -0.45593999997E+02  0.45594000000E+02  0.51100000000E-03 0. -1.
    9900012    2    1    2    0    0  0.11536725386E+02 -0.14045048141E+02  0.45082539922E+01  0.72461447622E+02  0.69999840196E+02 0.  0.
         12    1    1    2    0    0 -0.11536725386E+02  0.14045048141E+02 -0.45082539922E+01  0.18726552378E+02  0.00000000000E+00 0. -1.
         11    1    3    3    0    0 -0.12297960889E+02  0.65222273666E+01 -0.10739908816E+02  0.17581949081E+02  0.51100000000E-03 0. -1.
        -11    1    3    3    0    0  0.19133971473E+02  0.76033300423E+01  0.16360085120E+02  0.26297754228E+02  0.51100000000E-03 0.  1.
         12    1    3    3    0    0  0.47007148013E+01 -0.28170605550E+02 -0.11119223111E+01  0.28581744312E+02  0.00000000000E+00 0. -1.
</event>
<event>
 7    1  0.1351543E-013  0.7246177E+02  0.7816164E-02  0.1226707E+00
        -11   -1    0    0    0    0  0.00000000000E+00  0.00000000000E+00  0.45593999997E+02  0.45594000000E+02  0.51100000000E-03 0. -1.
         11   -1    0    0    0    0 -0.00000000000E+00 -0.00000000000E+00 -0.45593999997E+02  0.45594000000E+02  0.51100000000E-03 0.  1.
    9900012    2    1    2    0    0 -0.77113609084E+01 -0.16844880527E+02 -0.27306563899E+01  0.72461773168E+02  0.70000264280E+02 0.  0.
         12    1    1    2    0    0  0.77113609084E+01  0.16844880527E+02  0.27306563899E+01  0.18726226832E+02  0.00000000000E+00 0. -1.
         11    1    3    3    0    0 -0.32554401102E+01  0.12303228503E+02 -0.27126243741E+01  0.13012519093E+02  0.51100000000E-03 0. -1.
        -11    1    3    3    0    0 -0.17945289161E+02 -0.30114918529E+02 -0.15981491546E+02  0.38527260393E+02  0.51100000000E-03 0.  1.
        -12    1    3    3    0    0  0.13489368363E+02  0.96680949891E+00  0.15963459530E+02  0.20921993682E+02  0.00000000000E+00 0.  1.
</event>
<event>
 7    1  0.1351543E-013  0.7246156E+02  0.7816164E-02  0.1226708E+00
        -11   -1    0    0    0    0  0.00000000000E+00  0.00000000000E+00  0.45593999997E+02  0.45594000000E+02  0.51100000000E-03 0. -1.
         11   -1    0    0    0    0 -0.00000000000E+00 -0.00000000000E+00 -0.45593999997E+02  0.45594000000E+02  0.51100000000E-03 0.  1.
    9900012    2    1    2    0    0  0.67279644948E+01 -0.13647583536E+02  0.10915931116E+02  0.72461558940E+02  0.69999985209E+02 0.  0.
         12    1    1    2    0    0 -0.67279644948E+01  0.13647583536E+02 -0.10915931116E+02  0.18726441060E+02  0.00000000000E+00 0. -1.
         11    1    3    3    0    0  0.17571186241E+01  0.84826177181E+01  0.15337844940E+02  0.17615100252E+02  0.51100000000E-03 0. -1.
        -11    1    3    3    0    0  0.10579918306E+02 -0.28739753689E+02 -0.20309625505E+02  0.36747639406E+02  0.51100000000E-03 0.  1.
        -12    1    3    3    0    0 -0.56090724357E+01  0.66095524349E+01  0.15887711681E+02  0.18098819283E+02  0.00000000000E+00 0.  1.
</event>
<event>
 7    1  0.1351543E-013  0.7246156E+02  0.7816164E-02  0.1226708E+00
        -11   -1    0    0    0    0  0.00000000000E+00  0.00000000000E+00  0.45593999997E+02  0.45594000000E+02  0.51100000000E-03 0.  1.
         11   -1    0    0    0    0 -0.00000000000E+00 -0.00000000000E+00 -0.45593999997E+02  0.45594000000E+02  0.51100000000E-03 0. -1.
    9900012    2    1    2    0    0 -0.68435152036E+01 -0.17830164341E+01  0.17339748065E+02  0.72461555839E+02  0.69999981169E+02 0.  0.
         12    1    1    2    0    0  0.68435152036E+01  0.17830164341E+01 -0.17339748065E+02  0.18726444161E+02  0.00000000000E+00 0. -1.
         11    1    3    3    0    0 -0.20530768835E+02 -0.11491400923E+02  0.86601613322E+01  0.25071161893E+02  0.51100000000E-03 0. -1.
        -11    1    3    3    0    0  0.15600514230E+02  0.18301601545E+02 -0.10535216070E+02  0.26254817487E+02  0.51100000000E-03 0.  1.
        -12    1    3    3    0    0 -0.19132605993E+01 -0.85932170565E+01  0.19214802803E+02  0.21135576459E+02  0.00000000000E+00 0.  1.
</event>
<event>
 7    1  0.1351543E-013  0.7246157E+02  0.7816164E-02  0.1226708E+00
        -11   -1    0    0    0    0  0.00000000000E+00  0.00000000000E+00  0.45593999997E+02  0.45594000000E+02  0.51100000000E-03 0.  1.
         11   -1    0    0    0    0 -0.00000000000E+00 -0.00000000000E+00 -0.45593999997E+02  0.45594000000E+02  0.51100000000E-03 0. -1.
    9900012    2    1    2    0    0 -0.10045085240E+02 -0.15756578936E+02  0.12271179859E+01  0.72461565854E+02  0.69999994216E+02 0.  0.
         12    1    1    2    0    0  0.10045085240E+02  0.15756578936E+02 -0.12271179859E+01  0.18726434146E+02  0.00000000000E+00 0. -1.
         11    1    3    3    0    0 -0.19354291977E+02 -0.27810175253E+02  0.14926167071E+02  0.37024112808E+02  0.51100000000E-03 0. -1.
        -11    1    3    3    0    0 -0.13292861682E+01  0.72993145480E+01  0.79359643022E+01  0.10864001300E+02  0.51100000000E-03 0.  1.
         12    1    3    3    0    0  0.10638492905E+02  0.47542817685E+01 -0.21635013388E+02  0.24573451746E+02  0.00000000000E+00 0. -1.
</event>
<event>
 7    1  0.1351543E-013  0.7246167E+02  0.7816164E-02  0.1226708E+00
        -11   -1    0    0    0    0  0.00000000000E+00  0.00000000000E+00  0.45593999997E+02  0.45594000000E+02  0.51100000000E-03 0. -1.
         11   -1    0    0    0    0 -0.00000000000E+00 -0.00000000000E+00 -0.45593999997E+02  0.45594000000E+02  0.51100000000E-03 0.  1.
    9900012    2    1    2    0    0 -0.50458026298E+01 -0.61837341094E+01 -0.16940388658E+02  0.72461669351E+02  0.70000129039E+02 0.  0.
         12    1    1    2    0    0  0.50458026298E+01  0.61837341094E+01  0.16940388658E+02  0.18726330649E+02  0.00000000000E+00 0. -1.
         11    1    3    3    0    0  0.16456327109E+00  0.12263935533E+02 -0.74387215712E+01  0.14344538149E+02  0.51100000000E-03 0. -1.
        -11    1    3    3    0    0 -0.15471142776E+02 -0.32995348546E+02  0.26881911757E+01  0.36541423844E+02  0.51100000000E-03 0.  1.
        -12    1    3    3    0    0  0.10260776875E+02  0.14547678904E+02 -0.12189858262E+02  0.21575707359E+02  0.00000000000E+00 0.  1.
</event>
<event>
 7    1  0.1351543E-013  0.7246193E+02  0.7816164E-02  0.1226707E+00
        -11   -1    0    0    0    0  0.00000000000E+00  0.00000000000E+00  0.45593999997E+02  0.45594000000E+02  0.51100000000E-03 0.  1.
         11   -1    0    0    0    0 -0.00000000000E+00 -0.00000000000E+00 -0.45593999997E+02  0.45594000000E+02  0.51100000000E-03 0. -1.
    9900012    2    1    2    0    0  0.34586890223E+01 -0.78270246321E+01  0.16656560657E+02  0.72461925738E+02  0.70000463029E+02 0.  0.
         12    1    1    2    0    0 -0.34586890223E+01  0.78270246321E+01 -0.16656560657E+02  0.18726074262E+02  0.00000000000E+00 0. -1.
         11    1    3    3    0    0 -0.12958316520E+02 -0.51472754526E+01 -0.11612464520E+02  0.18145570922E+02  0.51100000000E-03 0. -1.
        -11    1    3    3    0    0  0.20220566418E+02 -0.72241213397E+01  0.37578634079E+02  0.43280630482E+02  0.51100000000E-03 0.  1.
         12    1    3    3    0    0 -0.38035608754E+01  0.45443721601E+01 -0.93096089017E+01  0.11035724334E+02  0.00000000000E+00 0. -1.
</event>
<event>
 8    1  0.1351543E-013  0.7246153E+02  0.7816164E-02  0.1226708E+00
        -11   -1    0    0    0    0  0.00000000000E+00  0.00000000000E+00  0.45593999997E+02  0.45594000000E+02  0.51100000000E-03 0. -1.
         11   -1    0    0    0    0 -0.00000000000E+00 -0.00000000000E+00 -0.45593999997E+02  0.45594000000E+02  0.51100000000E-03 0.  1.
    9900012    2    1    2    0    0 -0.38849584101E+00  0.47500742013E+01 -0.18109845115E+02  0.72461531459E+02  0.69999949410E+02 0.  0.
         24    2    3    3    0    0  0.13972990770E+02  0.82383604074E+01 -0.35926023676E+01  0.51745094131E+02  0.49005437674E+02 0.  0.
         12    1    1    2    0    0  0.38849584101E+00 -0.47500742013E+01  0.18109845115E+02  0.18726468541E+02  0.00000000000E+00 0. -1.
         11    1    3    3    0    0 -0.14361486611E+02 -0.34882862061E+01 -0.14517242747E+02  0.20716437328E+02  0.51100000000E-03 0. -1.
        -11    1    4    4    0    0  0.10581097237E+02 -0.20294041927E+02 -0.15491351671E+01  0.22939214819E+02  0.51100000000E-03 0.  1.
         12    1    4    4    0    0  0.33918935331E+01  0.28532402335E+02 -0.20434672004E+01  0.28805879312E+02  0.00000000000E+00 0. -1.
</event>
<event>
 7    1  0.1351543E-013  0.7246123E+02  0.7816164E-02  0.1226709E+00
        -11   -1    0    0    0    0  0.00000000000E+00  0.00000000000E+00  0.45593999997E+02  0.45594000000E+02  0.51100000000E-03 0. -1.
         11   -1    0    0    0    0 -0.00000000000E+00 -0.00000000000E+00 -0.45593999997E+02  0.45594000000E+02  0.51100000000E-03 0.  1.
    9900012    2    1    2    0    0 -0.17104997071E+02 -0.27684591200E+01  0.71025821612E+01  0.72461228680E+02  0.69999554983E+02 0.  0.
         12    1    1    2    0    0  0.17104997071E+02  0.27684591200E+01 -0.71025821612E+01  0.18726771320E+02  0.00000000000E+00 0. -1.
         11    1    3    3    0    0 -0.38459077139E+01 -0.90453826245E+01  0.54397115371E+01  0.11233895800E+02  0.51100000000E-03 0. -1.
        -11    1    3    3    0    0 -0.24909181654E+02  0.26657524046E+02  0.70080941393E+01  0.37151100962E+02  0.51100000000E-03 0.  1.
        -12    1    3    3    0    0  0.11650092297E+02 -0.20380600542E+02 -0.53452235153E+01  0.24076231919E+02  0.00000000000E+00 0.  1.
</event>
<event>
 7    1  0.1351543E-013  0.7246161E+02  0.7816164E-02  0.1226708E+00
        -11   -1    0    0    0    0  0.00000000000E+00  0.00000000000E+00  0.45593999997E+02  0.45594000000E+02  0.51100000000E-03 0.  1.
         11   -1    0    0    0    0 -0.00000000000E+00 -0.00000000000E+00 -0.45593999997E+02  0.45594000000E+02  0.51100000000E-03 0. -1.
    9900012    2    1    2    0    0 -0.14075279431E+02 -0.60577049358E+01  0.10764222094E+02  0.72461607998E+02  0.70000049116E+02 0.  0.
         12    1    1    2    0    0  0.14075279431E+02  0.60577049358E+01 -0.10764222094E+02  0.18726392002E+02  0.00000000000E+00 0. -1.
         11    1    3    3    0    0 -0.45482200038E+01  0.99545237363E+01 -0.19965625304E+02  0.22768509878E+02  0.51100000000E-03 0. -1.
        -11    1    3    3    0    0 -0.40213725997E+01  0.43234594021E+01  0.27802863897E+02  0.28422930530E+02  0.51100000000E-03 0.  1.
         12    1    3    3    0    0 -0.55056868270E+01 -0.20335688074E+02  0.29269835009E+01  0.21270167590E+02  0.00000000000E+00 0. -1.
</event>
<event>
 7    1  0.1351543E-013  0.7246233E+02  0.7816164E-02  0.1226706E+00
        -11   -1    0    0    0    0  0.00000000000E+00  0.00000000000E+00  0.45593999997E+02  0.45594000000E+02  0.51100000000E-03 0.  1.
         11   -1    0    0    0    0 -0.00000000000E+00 -0.00000000000E+00 -0.45593999997E+02  0.45594000000E+02  0.51100000000E-03 0. -1.
    9900012    2    1    2    0    0  0.14349712706E+02 -0.11538645066E+02  0.34053120923E+01  0.72462329515E+02  0.70000989018E+02 0.  0.
         12    1    1    2    0    0 -0.14349712706E+02  0.11538645066E+02 -0.34053120923E+01  0.18725670485E+02  0.00000000000E+00 0. -1.
         11    1    3    3    0    0  0.84660330221E+01  0.91727717032E+01 -0.17587172188E+02  0.21566689168E+02  0.51100000000E-03 0. -1.
        -11    1    3    3    0    0 -0.61663856891E+01 -0.30101544880E+02  0.16956007231E+02  0.35094636315E+02  0.51100000000E-03 0.  1.
        -12    1    3    3    0    0  0.12050065373E+02  0.93901281109E+01  0.40364770493E+01  0.15801004031E+02  0.00000000000E+00 0.  1.
</event>
<event>
 7    1  0.1351543E-013  0.7246145E+02  0.7816164E-02  0.1226708E+00
        -11   -1    0    0    0    0  0.00000000000E+00  0.00000000000E+00  0.45593999997E+02  0.45594000000E+02  0.51100000000E-03 0.  1.
         11   -1    0    0    0    0 -0.00000000000E+00 -0.00000000000E+00 -0.45593999997E+02  0.45594000000E+02  0.51100000000E-03 0. -1.
    9900012    2    1    2    0    0  0.13425029289E+02  0.15045298792E+01  0.12968755445E+02  0.72461450949E+02  0.69999844530E+02 0.  0.
         12    1    1    2    0    0 -0.13425029289E+02 -0.15045298792E+01 -0.12968755445E+02  0.18726549051E+02  0.00000000000E+00 0. -1.
         11    1    3    3    0    0  0.11086695257E+02  0.85299396698E+00 -0.54787363226E+01  0.12395925233E+02  0.51100000000E-03 0. -1.
        -11    1    3    3    0    0 -0.12213708529E+02  0.25552162823E+02  0.90272622839E+01  0.29725059556E+02  0.51100000000E-03 0.  1.
        -12    1    3    3    0    0  0.14552042562E+02 -0.24900626911E+02  0.94202294839E+01  0.30340466160E+02  0.00000000000E+00 0.  1.
</event>
<event>
 7    1  0.1351543E-013  0.7246166E+02  0.7816164E-02  0.1226708E+00
        -11   -1    0    0    0    0  0.00000000000E+00  0.00000000000E+00  0.45593999997E+02  0.45594000000E+02  0.51100000000E-03 0. -1.
         11   -1    0    0    0    0 -0.00000000000E+00 -0.00000000000E+00 -0.45593999997E+02  0.45594000000E+02  0.51100000000E-03 0.  1.
    9900012    2    1    2    0    0 -0.11367421999E+02 -0.11446288824E+02 -0.95100032823E+01  0.72461655638E+02  0.70000111176E+02 0.  0.
         12    1    1    2    0    0  0.11367421999E+02  0.11446288824E+02  0.95100032823E+01  0.18726344362E+02  0.00000000000E+00 0. -1.
         11    1    3    3    0    0 -0.11849176887E+01  0.18478134458E+02 -0.85377429570E+01  0.20389667433E+02  0.51100000000E-03 0. -1.
        -11    1    3    3    0    0  0.77160027348E+01 -0.30118654564E+02  0.79216182819E+01  0.32084608264E+02  0.51100000000E-03 0.  1.
        -12    1    3    3    0    0 -0.17898507045E+02  0.19423128209E+00 -0.88938786073E+01  0.19987379941E+02  0.00000000000E+00 0.  1.
</event>
<event>
 7    1  0.1351543E-013  0.7246144E+02  0.7816164E-02  0.1226708E+00
        -11   -1    0    0    0    0  0.00000000000E+00  0.00000000000E+00  0.45593999997E+02  0.45594000000E+02  0.51100000000E-03 0.  1.
         11   -1    0    0    0    0 -0.00000000000E+00 -0.00000000000E+00 -0.45593999997E+02  0.45594000000E+02  0.51100000000E-03 0. -1.
    9900012    2    1    2    0    0 -0.72455988178E+01 -0.13925284383E+02  0.10211354049E+02  0.72461441350E+02  0.69999832026E+02 0.  0.
         12    1    1    2    0    0  0.72455988178E+01  0.13925284383E+02 -0.10211354049E+02  0.18726558650E+02  0.00000000000E+00 0. -1.
         11    1    3    3    0    0 -0.15511775429E+02 -0.38955111612E+02 -0.29748070996E+01  0.42035287262E+02  0.51100000000E-03 0. -1.
        -11    1    3    3    0    0 -0.11369324360E+01  0.60432180412E+01  0.39810202905E+01  0.73254093723E+01  0.51100000000E-03 0.  1.
         12    1    3    3    0    0  0.94031090470E+01  0.18986609188E+02  0.92051408580E+01  0.23100744716E+02  0.00000000000E+00 0. -1.
</event>
<event>
 7    1  0.1351543E-013  0.7246157E+02  0.7816164E-02  0.1226708E+00
        -11   -1    0    0    0    0  0.00000000000E+00  0.00000000000E+00  0.45593999997E+02  0.45594000000E+02  0.51100000000E-03 0. -1.
         11   -1    0    0    0    0 -0.00000000000E+00 -0.00000000000E+00 -0.45593999997E+02  0.45594000000E+02  0.51100000000E-03 0.  1.
    9900012    2    1    2    0    0 -0.99709494712E+01 -0.14457759071E+01 -0.15785095959E+02  0.72461565322E+02  0.69999993522E+02 0.  0.
         12    1    1    2    0    0  0.99709494712E+01  0.14457759071E+01  0.15785095959E+02  0.18726434678E+02  0.00000000000E+00 0. -1.
         11    1    3    3    0    0  0.17845382554E+02 -0.45512947173E+01 -0.16272327562E+02  0.24575609996E+02  0.51100000000E-03 0. -1.
        -11    1    3    3    0    0 -0.22063359624E+02  0.19420481287E+02  0.54383274927E+01  0.29891843996E+02  0.51100000000E-03 0.  1.
        -12    1    3    3    0    0 -0.57529724007E+01 -0.16314962476E+02 -0.49510958894E+01  0.17994111330E+02  0.00000000000E+00 0.  1.
</event>
<event>
 7    1  0.1351543E-013  0.7246152E+02  0.7816164E-02  0.1226708E+00
        -11   -1    0    0    0    0  0.00000000000E+00  0.00000000000E+00  0.45593999997E+02  0.45594000000E+02  0.51100000000E-03 0.  1.
         11   -1    0    0    0    0 -0.00000000000E+00 -0.00000000000E+00 -0.45593999997E+02  0.45594000000E+02  0.51100000000E-03 0. -1.
    9900012    2    1    2    0    0 -0.13216189032E+02  0.64843052743E+01  0.11574411687E+02  0.72461524803E+02  0.69999940739E+02 0.  0.
         12    1    1    2    0    0  0.13216189032E+02 -0.64843052743E+01 -0.11574411687E+02  0.18726475197E+02  0.00000000000E+00 0. -1.
         11    1    3    3    0    0  0.27710804312E+01  0.10831183987E+01 -0.32607905897E+01  0.44141576493E+01  0.51100000000E-03 0. -1.
        -11    1    3    3    0    0 -0.28988313009E+02 -0.21709632192E+02  0.10198281040E+02  0.37624930000E+02  0.51100000000E-03 0.  1.
        -12    1    3    3    0    0  0.13001043546E+02  0.27110819068E+02  0.46369212368E+01  0.30422437154E+02  0.00000000000E+00 0.  1.
</event>
<event>
 7    1  0.1351543E-013  0.7246158E+02  0.7816164E-02  0.1226708E+00
        -11   -1    0    0    0    0  0.00000000000E+00  0.00000000000E+00  0.45593999997E+02  0.45594000000E+02  0.51100000000E-03 0.  1.
         11   -1    0    0    0    0 -0.00000000000E+00 -0.00000000000E+00 -0.45593999997E+02  0.45594000000E+02  0.51100000000E-03 0. -1.
    9900012    2    1    2    0    0  0.94662305726E+01  0.10077514294E+02  0.12629842774E+02  0.72461581653E+02  0.70000014797E+02 0.  0.
         12    1    1    2    0    0 -0.94662305726E+01 -0.10077514294E+02 -0.12629842774E+02  0.18726418347E+02  0.00000000000E+00 0. -1.
         11    1    3    3    0    0  0.85634785310E+01  0.28569786023E+02 -0.15228097215E+02  0.33488218570E+02  0.51100000000E-03 0.  1.
        -11    1    3    3    0    0  0.79901056043E+01 -0.16931524961E+02  0.14167674299E+02  0.23478528923E+02  0.51100000000E-03 0. -1.
        -12    1    3    3    0    0 -0.70873535627E+01 -0.15607467686E+01  0.13690265690E+02  0.15494834160E+02  0.00000000000E+00 0.  1.
</event>
<event>
 7    1  0.1351543E-013  0.7246160E+02  0.7816164E-02  0.1226708E+00
        -11   -1    0    0    0    0  0.00000000000E+00  0.00000000000E+00  0.45593999997E+02  0.45594000000E+02  0.51100000000E-03 0. -1.
         11   -1    0    0    0    0 -0.00000000000E+00 -0.00000000000E+00 -0.45593999997E+02  0.45594000000E+02  0.51100000000E-03 0.  1.
    9900012    2    1    2    0    0 -0.67148563539E+01  0.15457987337E+02  0.81633061750E+01  0.72461595217E+02  0.70000032467E+02 0.  0.
         12    1    1    2    0    0  0.67148563539E+01 -0.15457987337E+02 -0.81633061750E+01  0.18726404783E+02  0.00000000000E+00 0. -1.
         11    1    3    3    0    0 -0.19008810068E+02 -0.12466269848E+02  0.14387567166E+02  0.26902506080E+02  0.51100000000E-03 0. -1.
        -11    1    3    3    0    0  0.17851084885E+02  0.12653304223E+01 -0.21692152073E+01  0.18026862942E+02  0.51100000000E-03 0.  1.
        -12    1    3    3    0    0 -0.55571311704E+01  0.26658926763E+02 -0.40550457838E+01  0.27532226196E+02  0.00000000000E+00 0.  1.
</event>
<event>
 7    1  0.1351543E-013  0.7246159E+02  0.7816164E-02  0.1226708E+00
        -11   -1    0    0    0    0  0.00000000000E+00  0.00000000000E+00  0.45593999997E+02  0.45594000000E+02  0.51100000000E-03 0. -1.
         11   -1    0    0    0    0 -0.00000000000E+00 -0.00000000000E+00 -0.45593999997E+02  0.45594000000E+02  0.51100000000E-03 0.  1.
    9900012    2    1    2    0    0 -0.11222850561E+02  0.28036713381E+01 -0.14726349596E+02  0.72461592974E+02  0.70000029545E+02 0.  0.
         12    1    1    2    0    0  0.11222850561E+02 -0.28036713381E+01  0.14726349596E+02  0.18726407026E+02  0.00000000000E+00 0. -1.
         11    1    3    3    0    0 -0.14619684182E+02 -0.10218218673E+02 -0.28013942358E+02  0.33210361714E+02  0.51100000000E-03 0.  1.
        -11    1    3    3    0    0 -0.13955738615E+02  0.12251499201E+02  0.11373172218E+02  0.21776384445E+02  0.51100000000E-03 0. -1.
        -12    1    3    3    0    0  0.17352572236E+02  0.77039081096E+00  0.19144205441E+01  0.17474846815E+02  0.00000000000E+00 0.  1.
</event>
<event>
 7    1  0.1376633E-013  0.7246134E+02  0.7816164E-02  0.1226709E+00
        -11   -1    0    0    0    0  0.00000000000E+00  0.00000000000E+00  0.45593999997E+02  0.45594000000E+02  0.51100000000E-03 0. -1.
         11   -1    0    0    0    0 -0.00000000000E+00 -0.00000000000E+00 -0.45593999997E+02  0.45594000000E+02  0.51100000000E-03 0.  1.
    9900012    2    1    2    0    0 -0.11057479953E+02  0.10535927399E+02 -0.10835788060E+02  0.72461336336E+02  0.69999695226E+02 0.  0.
         12    1    1    2    0    0  0.11057479953E+02 -0.10535927399E+02  0.10835788060E+02  0.18726663664E+02  0.00000000000E+00 0. -1.
         11    1    3    3    0    0  0.19300202872E+02 -0.12006595136E+02 -0.15179050421E+01  0.22780697830E+02  0.51100000000E-03 0. -1.
        -11    1    3    3    0    0 -0.24264007949E+02  0.35991921796E+01 -0.15289756716E+02  0.28904548549E+02  0.51100000000E-03 0.  1.
         12    1    3    3    0    0 -0.60936748756E+01  0.18943330355E+02  0.59718736982E+01  0.20776089957E+02  0.00000000000E+00 0. -1.
</event>
<event>
 7    1  0.1351543E-013  0.7246148E+02  0.7816164E-02  0.1226708E+00
        -11   -1    0    0    0    0  0.00000000000E+00  0.00000000000E+00  0.45593999997E+02  0.45594000000E+02  0.51100000000E-03 0. -1.
         11   -1    0    0    0    0 -0.00000000000E+00 -0.00000000000E+00 -0.45593999997E+02  0.45594000000E+02  0.51100000000E-03 0.  1.
    9900012    2    1    2    0    0 -0.13502431998E+01 -0.18420071299E+02  0.30919641445E+01  0.72461483355E+02  0.69999886746E+02 0.  0.
         12    1    1    2    0    0  0.13502431998E+01  0.18420071299E+02 -0.30919641445E+01  0.18726516645E+02  0.00000000000E+00 0. -1.
         11    1    3    3    0    0 -0.11492663774E+02  0.13918359142E+01  0.18813027620E+02  0.22089557178E+02  0.51100000000E-03 0. -1.
        -11    1    3    3    0    0  0.11412464004E+02  0.80723050830E+01 -0.17505310432E+02  0.22401837817E+02  0.51100000000E-03 0.  1.
        -12    1    3    3    0    0 -0.12700434297E+01 -0.27884212296E+02  0.17842469562E+01  0.27970088361E+02  0.00000000000E+00 0.  1.
</event>
<event>
 7    1  0.1351543E-013  0.7246154E+02  0.7816164E-02  0.1226708E+00
        -11   -1    0    0    0    0  0.00000000000E+00  0.00000000000E+00  0.45593999997E+02  0.45594000000E+02  0.51100000000E-03 0.  1.
         11   -1    0    0    0    0 -0.00000000000E+00 -0.00000000000E+00 -0.45593999997E+02  0.45594000000E+02  0.51100000000E-03 0. -1.
    9900012    2    1    2    0    0 -0.13521936092E+02  0.54698063508E+01  0.11743880252E+02  0.72461541163E+02  0.69999962051E+02 0.  0.
         12    1    1    2    0    0  0.13521936092E+02 -0.54698063508E+01 -0.11743880252E+02  0.18726458837E+02  0.00000000000E+00 0. -1.
         11    1    3    3    0    0 -0.12501636165E+01 -0.27790520508E+01 -0.25433137161E+02  0.25615044514E+02  0.51100000000E-03 0. -1.
        -11    1    3    3    0    0  0.47028140707E+01  0.10032795246E+02  0.11127474081E+02  0.15703315584E+02  0.51100000000E-03 0.  1.
         12    1    3    3    0    0 -0.16974586547E+02 -0.17839368444E+01  0.26049543331E+02  0.31143181065E+02  0.00000000000E+00 0. -1.
</event>
<event>
 7    1  0.1351543E-013  0.7246158E+02  0.7816164E-02  0.1226708E+00
        -11   -1    0    0    0    0  0.00000000000E+00  0.00000000000E+00  0.45593999997E+02  0.45594000000E+02  0.51100000000E-03 0. -1.
         11   -1    0    0    0    0 -0.00000000000E+00 -0.00000000000E+00 -0.45593999997E+02  0.45594000000E+02  0.51100000000E-03 0.  1.
    9900012    2    1    2    0    0  0.82623109456E+01 -0.55112762207E+01 -0.15875732734E+02  0.72461579157E+02  0.70000011546E+02 0.  0.
         12    1    1    2    0    0 -0.82623109456E+01  0.55112762207E+01  0.15875732734E+02  0.18726420843E+02  0.00000000000E+00 0. -1.
         11    1    3    3    0    0 -0.19033399568E+02  0.16860993050E+02  0.29638635309E+01  0.25599763144E+02  0.51100000000E-03 0. -1.
        -11    1    3    3    0    0  0.21965962005E+02 -0.25101361538E+02 -0.77270498551E+01  0.34238708176E+02  0.51100000000E-03 0.  1.
         12    1    3    3    0    0  0.53297485082E+01  0.27290922669E+01 -0.11112546409E+02  0.12623107837E+02  0.00000000000E+00 0. -1.
</event>
<event>
 7    1  0.1351543E-013  0.7246159E+02  0.7816164E-02  0.1226708E+00
        -11   -1    0    0    0    0  0.00000000000E+00  0.00000000000E+00  0.45593999997E+02  0.45594000000E+02  0.51100000000E-03 0. -1.
         11   -1    0    0    0    0 -0.00000000000E+00 -0.00000000000E+00 -0.45593999997E+02  0.45594000000E+02  0.51100000000E-03 0.  1.
    9900012    2    1    2    0    0 -0.14677226930E+02 -0.81345314256E+01 -0.83118437544E+01  0.72461592483E+02  0.70000028905E+02 0.  0.
         12    1    1    2    0    0  0.14677226930E+02  0.81345314256E+01  0.83118437544E+01  0.18726407517E+02  0.00000000000E+00 0. -1.
         11    1    3    3    0    0  0.15031211359E+02  0.13568576001E+02 -0.13460267467E+02  0.24315064675E+02  0.51100000000E-03 0. -1.
        -11    1    3    3    0    0 -0.21644905253E+02 -0.26965368401E+02 -0.40697592302E+01  0.34816604614E+02  0.51100000000E-03 0.  1.
         12    1    3    3    0    0 -0.80635330368E+01  0.52622609744E+01  0.92181829427E+01  0.13329923194E+02  0.00000000000E+00 0. -1.
</event>
<event>
 7    1  0.1351543E-013  0.7246147E+02  0.7816164E-02  0.1226708E+00
        -11   -1    0    0    0    0  0.00000000000E+00  0.00000000000E+00  0.45593999997E+02  0.45594000000E+02  0.51100000000E-03 0. -1.
         11   -1    0    0    0    0 -0.00000000000E+00 -0.00000000000E+00 -0.45593999997E+02  0.45594000000E+02  0.51100000000E-03 0.  1.
    9900012    2    1    2    0    0 -0.21311893110E+01  0.58689881036E+01 -0.17654914325E+02  0.72461468312E+02  0.69999867148E+02 0.  0.
         12    1    1    2    0    0  0.21311893110E+01 -0.58689881036E+01  0.17654914325E+02  0.18726531688E+02  0.00000000000E+00 0. -1.
         11    1    3    3    0    0  0.16153904172E+02  0.15395548137E+02  0.38538517131E+01  0.22645610960E+02  0.51100000000E-03 0. -1.
        -11    1    3    3    0    0 -0.12208688382E+01 -0.17540062193E+02 -0.25079179743E+02  0.30628574229E+02  0.51100000000E-03 0.  1.
        -12    1    3    3    0    0 -0.17064224645E+02  0.80135021600E+01  0.35704137047E+01  0.19187283123E+02  0.00000000000E+00 0.  1.
</event>
<event>
 7    1  0.1351543E-013  0.7246157E+02  0.7816164E-02  0.1226708E+00
        -11   -1    0    0    0    0  0.00000000000E+00  0.00000000000E+00  0.45593999997E+02  0.45594000000E+02  0.51100000000E-03 0. -1.
         11   -1    0    0    0    0 -0.00000000000E+00 -0.00000000000E+00 -0.45593999997E+02  0.45594000000E+02  0.51100000000E-03 0.  1.
    9900012    2    1    2    0    0  0.69239109244E+01  0.11587127585E+02 -0.12979872962E+02  0.72461570274E+02  0.69999999974E+02 0.  0.
         12    1    1    2    0    0 -0.69239109244E+01 -0.11587127585E+02  0.12979872962E+02  0.18726429726E+02  0.00000000000E+00 0. -1.
         11    1    3    3    0    0  0.97516367747E+01  0.13910933003E+02 -0.33837108499E+02  0.37862361107E+02  0.51100000000E-03 0.  1.
        -11    1    3    3    0    0 -0.83044116745E+01 -0.11188991916E+02  0.19678599529E+02  0.24112322017E+02  0.51100000000E-03 0. -1.
         12    1    3    3    0    0  0.54766858242E+01  0.88651864982E+01  0.11786360074E+01  0.10486887150E+02  0.00000000000E+00 0. -1.
</event>
<event>
 8    1  0.1351543E-013  0.7246158E+02  0.7816164E-02  0.1226708E+00
        -11   -1    0    0    0    0  0.00000000000E+00  0.00000000000E+00  0.45593999997E+02  0.45594000000E+02  0.51100000000E-03 0.  1.
         11   -1    0    0    0    0 -0.00000000000E+00 -0.00000000000E+00 -0.45593999997E+02  0.45594000000E+02  0.51100000000E-03 0. -1.
    9900012    2    1    2    0    0 -0.57832235676E+01 -0.14669164621E+02  0.10101926875E+02  0.72461575032E+02  0.70000006171E+02 0.  0.
        -24    2    3    3    0    0 -0.35238709112E+01 -0.26399359376E+02  0.75971039994E+01  0.60255991010E+02  0.53513779737E+02 0.  0.
         12    1    1    2    0    0  0.57832235676E+01  0.14669164621E+02 -0.10101926875E+02  0.18726424968E+02  0.00000000000E+00 0. -1.
         11    1    4    4    0    0 -0.32926171230E+01 -0.39101863070E+02 -0.80941280344E+01  0.40066344130E+02  0.51100000000E-03 0. -1.
        -11    1    3    3    0    0 -0.22593526564E+01  0.11730194755E+02  0.25048228753E+01  0.12205584022E+02  0.51100000000E-03 0.  1.
        -12    1    4    4    0    0 -0.23125378817E+00  0.12702503694E+02  0.15691232034E+02  0.20189646880E+02  0.00000000000E+00 0.  1.
</event>
<event>
 7    1  0.1351543E-013  0.7246159E+02  0.7816164E-02  0.1226708E+00
        -11   -1    0    0    0    0  0.00000000000E+00  0.00000000000E+00  0.45593999997E+02  0.45594000000E+02  0.51100000000E-03 0. -1.
         11   -1    0    0    0    0 -0.00000000000E+00 -0.00000000000E+00 -0.45593999997E+02  0.45594000000E+02  0.51100000000E-03 0.  1.
    9900012    2    1    2    0    0  0.34000289651E+01  0.11036002602E+01 -0.18382069199E+02  0.72461585540E+02  0.70000019860E+02 0.  0.
         12    1    1    2    0    0 -0.34000289651E+01 -0.11036002602E+01  0.18382069199E+02  0.18726414460E+02  0.00000000000E+00 0. -1.
         11    1    3    3    0    0  0.50926567405E+01 -0.83373832738E+01  0.14019118709E+02  0.17087504270E+02  0.51100000000E-03 0. -1.
        -11    1    3    3    0    0 -0.40502377545E+01  0.26906172199E+02 -0.21184616568E+02  0.34483829654E+02  0.51100000000E-03 0.  1.
        -12    1    3    3    0    0  0.23576099791E+01 -0.17465188665E+02 -0.11216571341E+02  0.20890251615E+02  0.00000000000E+00 0.  1.
</event>
<event>
 7    1  0.1351543E-013  0.7246159E+02  0.7816164E-02  0.1226708E+00
        -11   -1    0    0    0    0  0.00000000000E+00  0.00000000000E+00  0.45593999997E+02  0.45594000000E+02  0.51100000000E-03 0.  1.
         11   -1    0    0    0    0 -0.00000000000E+00 -0.00000000000E+00 -0.45593999997E+02  0.45594000000E+02  0.51100000000E-03 0. -1.
    9900012    2    1    2    0    0  0.20896017551E+01  0.37310761568E+01  0.18231591673E+02  0.72461593518E+02  0.70000030253E+02 0.  0.
         12    1    1    2    0    0 -0.20896017551E+01 -0.37310761568E+01 -0.18231591673E+02  0.18726406482E+02  0.00000000000E+00 0. -1.
         11    1    3    3    0    0 -0.24450446638E+02 -0.14088217036E+01  0.77823816394E+01  0.25697754447E+02  0.51100000000E-03 0. -1.
        -11    1    3    3    0    0  0.24470128543E+02  0.10132228201E+02  0.21727926611E+02  0.34257145741E+02  0.51100000000E-03 0.  1.
        -12    1    3    3    0    0  0.20699198498E+01 -0.49923303404E+01 -0.11278716577E+02  0.12506693330E+02  0.00000000000E+00 0.  1.
</event>
<event>
 7    1  0.1351543E-013  0.7246157E+02  0.7816164E-02  0.1226708E+00
        -11   -1    0    0    0    0  0.00000000000E+00  0.00000000000E+00  0.45593999997E+02  0.45594000000E+02  0.51100000000E-03 0. -1.
         11   -1    0    0    0    0 -0.00000000000E+00 -0.00000000000E+00 -0.45593999997E+02  0.45594000000E+02  0.51100000000E-03 0.  1.
    9900012    2    1    2    0    0  0.82387380114E+01 -0.16807529853E+02  0.55628020756E+00  0.72461566504E+02  0.69999995063E+02 0.  0.
         12    1    1    2    0    0 -0.82387380114E+01  0.16807529853E+02 -0.55628020756E+00  0.18726433496E+02  0.00000000000E+00 0. -1.
         11    1    3    3    0    0 -0.21154131664E+02 -0.91955469562E+01 -0.15053935110E+02  0.27544079814E+02  0.51100000000E-03 0. -1.
        -11    1    3    3    0    0  0.82754734293E+01  0.76946505464E+00  0.20106885025E+02  0.21756892302E+02  0.51100000000E-03 0.  1.
         12    1    3    3    0    0  0.21117396246E+02 -0.83814479519E+01 -0.44966697077E+01  0.23160594389E+02  0.00000000000E+00 0. -1.
</event>
<event>
 7    1  0.1351543E-013  0.7246157E+02  0.7816164E-02  0.1226708E+00
        -11   -1    0    0    0    0  0.00000000000E+00  0.00000000000E+00  0.45593999997E+02  0.45594000000E+02  0.51100000000E-03 0.  1.
         11   -1    0    0    0    0 -0.00000000000E+00 -0.00000000000E+00 -0.45593999997E+02  0.45594000000E+02  0.51100000000E-03 0. -1.
    9900012    2    1    2    0    0  0.13601469576E+02 -0.33047691204E+01  0.12440158278E+02  0.72461574512E+02  0.70000005495E+02 0.  0.
         12    1    1    2    0    0 -0.13601469576E+02  0.33047691204E+01 -0.12440158278E+02  0.18726425488E+02  0.00000000000E+00 0. -1.
         11    1    3    3    0    0 -0.15203718203E+02 -0.25365648609E+02 -0.53895093854E+01  0.30060206058E+02  0.51100000000E-03 0. -1.
        -11    1    3    3    0    0  0.77968568454E+01  0.39214008706E+01  0.10578387016E+02  0.13713884701E+02  0.51100000000E-03 0.  1.
         12    1    3    3    0    0  0.21008330933E+02  0.18139478618E+02  0.72512806469E+01  0.28687483754E+02  0.00000000000E+00 0. -1.
</event>
<event>
 7    1  0.1351543E-013  0.7246158E+02  0.7816164E-02  0.1226708E+00
        -11   -1    0    0    0    0  0.00000000000E+00  0.00000000000E+00  0.45593999997E+02  0.45594000000E+02  0.51100000000E-03 0.  1.
         11   -1    0    0    0    0 -0.00000000000E+00 -0.00000000000E+00 -0.45593999997E+02  0.45594000000E+02  0.51100000000E-03 0. -1.
    9900012    2    1    2    0    0 -0.18044676874E+02  0.45303710476E+00  0.49862876655E+01  0.72461583611E+02  0.70000017347E+02 0.  0.
         12    1    1    2    0    0  0.18044676874E+02 -0.45303710476E+00 -0.49862876655E+01  0.18726416389E+02  0.00000000000E+00 0. -1.
         11    1    3    3    0    0 -0.18284766459E+02 -0.14840093457E+02 -0.41846939806E+01  0.23918041773E+02  0.51100000000E-03 0. -1.
        -11    1    3    3    0    0 -0.13550153848E+02  0.26549186895E+02  0.45472307400E+01  0.30152003279E+02  0.51100000000E-03 0.  1.
         12    1    3    3    0    0  0.13790243433E+02 -0.11256056333E+02  0.46237509061E+01  0.18391538559E+02  0.00000000000E+00 0. -1.
</event>
<event>
 7    1  0.1351543E-013  0.7246158E+02  0.7816164E-02  0.1226708E+00
        -11   -1    0    0    0    0  0.00000000000E+00  0.00000000000E+00  0.45593999997E+02  0.45594000000E+02  0.51100000000E-03 0. -1.
         11   -1    0    0    0    0 -0.00000000000E+00 -0.00000000000E+00 -0.45593999997E+02  0.45594000000E+02  0.51100000000E-03 0.  1.
    9900012    2    1    2    0    0 -0.10539527251E+02 -0.64654232660E+01 -0.14063971357E+02  0.72461584886E+02  0.70000019008E+02 0.  0.
         12    1    1    2    0    0  0.10539527251E+02  0.64654232660E+01  0.14063971357E+02  0.18726415114E+02  0.00000000000E+00 0. -1.
         11    1    3    3    0    0  0.17620357427E+02  0.56924624440E+01 -0.90510201925E+01  0.20610727579E+02  0.51100000000E-03 0. -1.
        -11    1    3    3    0    0 -0.25712261706E+02  0.70194123546E+01  0.88246638722E+01  0.28076097388E+02  0.51100000000E-03 0.  1.
         12    1    3    3    0    0 -0.24476229722E+01 -0.19177298065E+02 -0.13837615037E+02  0.23774759919E+02  0.00000000000E+00 0. -1.
</event>
<event>
 7    1  0.1351543E-013  0.7246151E+02  0.7816164E-02  0.1226708E+00
        -11   -1    0    0    0    0  0.00000000000E+00  0.00000000000E+00  0.45593999997E+02  0.45594000000E+02  0.51100000000E-03 0.  1.
         11   -1    0    0    0    0 -0.00000000000E+00 -0.00000000000E+00 -0.45593999997E+02  0.45594000000E+02  0.51100000000E-03 0. -1.
    9900012    2    1    2    0    0  0.15311042569E+02 -0.63637141333E+01  0.87038255596E+01  0.72461509099E+02  0.69999920281E+02 0.  0.
         12    1    1    2    0    0 -0.15311042569E+02  0.63637141333E+01 -0.87038255596E+01  0.18726490901E+02  0.00000000000E+00 0. -1.
         11    1    3    3    0    0  0.50687605266E+01 -0.15490876065E+02 -0.99425603081E+01  0.19092251839E+02  0.51100000000E-03 0. -1.
        -11    1    3    3    0    0  0.21728235530E+02 -0.89571590742E+01  0.21380143969E+02  0.31771960505E+02  0.51100000000E-03 0.  1.
         12    1    3    3    0    0 -0.11485953488E+02  0.18084321006E+02 -0.27337581015E+01  0.21597296755E+02  0.00000000000E+00 0. -1.
</event>
<event>
 7    1  0.1351543E-013  0.7246162E+02  0.7816164E-02  0.1226708E+00
        -11   -1    0    0    0    0  0.00000000000E+00  0.00000000000E+00  0.45593999997E+02  0.45594000000E+02  0.51100000000E-03 0. -1.
         11   -1    0    0    0    0 -0.00000000000E+00 -0.00000000000E+00 -0.45593999997E+02  0.45594000000E+02  0.51100000000E-03 0.  1.
    9900012    2    1    2    0    0  0.92732773066E+01 -0.69482331913E+01 -0.14710731337E+02  0.72461622001E+02  0.70000067358E+02 0.  0.
         12    1    1    2    0    0 -0.92732773066E+01  0.69482331913E+01  0.14710731337E+02  0.18726377999E+02  0.00000000000E+00 0. -1.
         11    1    3    3    0    0 -0.18532844532E+02  0.24859022287E+01 -0.76761768242E+01  0.20213107807E+02  0.51100000000E-03 0. -1.
        -11    1    3    3    0    0  0.33248837722E+02 -0.20215323485E+01 -0.18060142005E+02  0.37891166945E+02  0.51100000000E-03 0.  1.
         12    1    3    3    0    0 -0.54427158836E+01 -0.74126030714E+01  0.11025587492E+02  0.14357347249E+02  0.00000000000E+00 0. -1.
</event>
<event>
 7    1  0.1351543E-013  0.7246159E+02  0.7816164E-02  0.1226708E+00
        -11   -1    0    0    0    0  0.00000000000E+00  0.00000000000E+00  0.45593999997E+02  0.45594000000E+02  0.51100000000E-03 0. -1.
         11   -1    0    0    0    0 -0.00000000000E+00 -0.00000000000E+00 -0.45593999997E+02  0.45594000000E+02  0.51100000000E-03 0.  1.
    9900012    2    1    2    0    0 -0.16466697231E+02 -0.39277796194E+01 -0.80061753580E+01  0.72461590459E+02  0.70000026268E+02 0.  0.
         12    1    1    2    0    0  0.16466697231E+02  0.39277796194E+01  0.80061753580E+01  0.18726409541E+02  0.00000000000E+00 0. -1.
         11    1    3    3    0    0  0.12122987161E+02 -0.83820128246E+01  0.23900275614E+02  0.28079318570E+02  0.51100000000E-03 0. -1.
        -11    1    3    3    0    0 -0.21813231802E+02 -0.10994407633E+01 -0.20117667883E+02  0.29694215142E+02  0.51100000000E-03 0.  1.
         12    1    3    3    0    0 -0.67764525908E+01  0.55536739684E+01 -0.11788783089E+02  0.14688056746E+02  0.00000000000E+00 0. -1.
</event>
<event>
 7    1  0.1351543E-013  0.7246159E+02  0.7816164E-02  0.1226708E+00
        -11   -1    0    0    0    0  0.00000000000E+00  0.00000000000E+00  0.45593999997E+02  0.45594000000E+02  0.51100000000E-03 0.  1.
         11   -1    0    0    0    0 -0.00000000000E+00 -0.00000000000E+00 -0.45593999997E+02  0.45594000000E+02  0.51100000000E-03 0. -1.
    9900012    2    1    2    0    0  0.33804996423E+01 -0.39270376294E+01  0.17995247324E+02  0.72461592747E+02  0.70000029248E+02 0.  0.
         12    1    1    2    0    0 -0.33804996423E+01  0.39270376294E+01 -0.17995247324E+02  0.18726407253E+02  0.00000000000E+00 0. -1.
         11    1    3    3    0    0  0.49087707037E+01 -0.12858340995E+02 -0.18751574218E+02  0.23260578215E+02  0.51100000000E-03 0. -1.
        -11    1    3    3    0    0 -0.13757374219E+02  0.13852377580E+02  0.21283097629E+02  0.28881204181E+02  0.51100000000E-03 0.  1.
        -12    1    3    3    0    0  0.12229103158E+02 -0.49210742136E+01  0.15463723912E+02  0.20319810351E+02  0.00000000000E+00 0.  1.
</event>
<event>
 7    1  0.1351543E-013  0.7246156E+02  0.7816164E-02  0.1226708E+00
        -11   -1    0    0    0    0  0.00000000000E+00  0.00000000000E+00  0.45593999997E+02  0.45594000000E+02  0.51100000000E-03 0. -1.
         11   -1    0    0    0    0 -0.00000000000E+00 -0.00000000000E+00 -0.45593999997E+02  0.45594000000E+02  0.51100000000E-03 0.  1.
    9900012    2    1    2    0    0  0.33503892474E+01  0.99186260484E+01 -0.15526601996E+02  0.72461558258E+02  0.69999984320E+02 0.  0.
         12    1    1    2    0    0 -0.33503892474E+01 -0.99186260484E+01  0.15526601996E+02  0.18726441742E+02  0.00000000000E+00 0. -1.
         11    1    3    3    0    0  0.25202413259E+02  0.16586162483E+01 -0.32804182541E+01  0.25469075093E+02  0.51100000000E-03 0. -1.
        -11    1    3    3    0    0 -0.20615888500E+02 -0.11237564427E+02 -0.14066961969E+02  0.27371100310E+02  0.51100000000E-03 0.  1.
         12    1    3    3    0    0 -0.12361355110E+01  0.19497574227E+02  0.18207782272E+01  0.19621382854E+02  0.00000000000E+00 0. -1.
</event>
<event>
 7    1  0.1351543E-013  0.7246156E+02  0.7816164E-02  0.1226708E+00
        -11   -1    0    0    0    0  0.00000000000E+00  0.00000000000E+00  0.45593999997E+02  0.45594000000E+02  0.51100000000E-03 0. -1.
         11   -1    0    0    0    0 -0.00000000000E+00 -0.00000000000E+00 -0.45593999997E+02  0.45594000000E+02  0.51100000000E-03 0.  1.
    9900012    2    1    2    0    0  0.13684151025E+02 -0.12403090604E+02 -0.30962567897E+01  0.72461562754E+02  0.69999990178E+02 0.  0.
         12    1    1    2    0    0 -0.13684151025E+02  0.12403090604E+02  0.30962567897E+01  0.18726437246E+02  0.00000000000E+00 0. -1.
         11    1    3    3    0    0 -0.10141539457E+02  0.10553099467E+02  0.10330677710E+02  0.17914843933E+02  0.51100000000E-03 0. -1.
        -11    1    3    3    0    0  0.12872738112E+02 -0.29132574276E+02 -0.22538721525E+02  0.39018050165E+02  0.51100000000E-03 0.  1.
        -12    1    3    3    0    0  0.10952952369E+02  0.61763842047E+01  0.91117870251E+01  0.15528668656E+02  0.00000000000E+00 0.  1.
</event>
<event>
 7    1  0.1351543E-013  0.7246158E+02  0.7816164E-02  0.1226708E+00
        -11   -1    0    0    0    0  0.00000000000E+00  0.00000000000E+00  0.45593999997E+02  0.45594000000E+02  0.51100000000E-03 0. -1.
         11   -1    0    0    0    0 -0.00000000000E+00 -0.00000000000E+00 -0.45593999997E+02  0.45594000000E+02  0.51100000000E-03 0.  1.
    9900012    2    1    2    0    0 -0.15644118241E+02  0.98597040925E+01  0.29540812644E+01  0.72461580255E+02  0.70000012976E+02 0.  0.
         12    1    1    2    0    0  0.15644118241E+02 -0.98597040925E+01 -0.29540812644E+01  0.18726419745E+02  0.00000000000E+00 0. -1.
         11    1    3    3    0    0 -0.16619254918E+01  0.77348935502E+01  0.38726916483E+01  0.88084229825E+01  0.51100000000E-03 0. -1.
        -11    1    3    3    0    0  0.17356019305E+02 -0.14199589941E+02 -0.13465201261E+02  0.26156670390E+02  0.51100000000E-03 0.  1.
        -12    1    3    3    0    0 -0.31338212055E+02  0.16324400483E+02  0.12546590877E+02  0.37496486883E+02  0.00000000000E+00 0.  1.
</event>
<event>
 7    1  0.1351543E-013  0.7246161E+02  0.7816164E-02  0.1226708E+00
        -11   -1    0    0    0    0  0.00000000000E+00  0.00000000000E+00  0.45593999997E+02  0.45594000000E+02  0.51100000000E-03 0.  1.
         11   -1    0    0    0    0 -0.00000000000E+00 -0.00000000000E+00 -0.45593999997E+02  0.45594000000E+02  0.51100000000E-03 0. -1.
    9900012    2    1    2    0    0  0.17085043097E+02 -0.73682780724E+01  0.21183440957E+01  0.72461612172E+02  0.70000054554E+02 0.  0.
         12    1    1    2    0    0 -0.17085043097E+02  0.73682780724E+01 -0.21183440957E+01  0.18726387828E+02  0.00000000000E+00 0. -1.
         11    1    3    3    0    0 -0.69412951356E+01 -0.10740528728E+02 -0.24854043737E+02  0.27951100620E+02  0.51100000000E-03 0. -1.
        -11    1    3    3    0    0  0.34264458365E+01 -0.54583686853E+01  0.20038862095E+02  0.21049710547E+02  0.51100000000E-03 0.  1.
         12    1    3    3    0    0  0.20599892396E+02  0.88306193412E+01  0.69335257382E+01  0.23460801006E+02  0.00000000000E+00 0. -1.
</event>
<event>
 7    1  0.2040887E-013  0.7246155E+02  0.7816164E-02  0.1226708E+00
        -11   -1    0    0    0    0  0.00000000000E+00  0.00000000000E+00  0.45593999997E+02  0.45594000000E+02  0.51100000000E-03 0. -1.
         11   -1    0    0    0    0 -0.00000000000E+00 -0.00000000000E+00 -0.45593999997E+02  0.45594000000E+02  0.51100000000E-03 0.  1.
    9900012    2    1    2    0    0 -0.19947810036E+01  0.57597549921E+01 -0.17706660350E+02  0.72461554807E+02  0.69999979824E+02 0.  0.
         12    1    1    2    0    0  0.19947810036E+01 -0.57597549921E+01  0.17706660350E+02  0.18726445193E+02  0.00000000000E+00 0. -1.
         11    1    3    3    0    0 -0.27226861011E+01 -0.18365065397E+02  0.10445552612E+02  0.21302540137E+02  0.51100000000E-03 0. -1.
        -11    1    3    3    0    0 -0.13168933089E+02  0.16285472686E+02 -0.28294984502E+02  0.35202891466E+02  0.51100000000E-03 0.  1.
         12    1    3    3    0    0  0.13896838186E+02  0.78393477032E+01  0.14277153923E+00  0.15956123204E+02  0.00000000000E+00 0. -1.
</event>
<event>
 7    1  0.1351543E-013  0.7246178E+02  0.7816164E-02  0.1226707E+00
        -11   -1    0    0    0    0  0.00000000000E+00  0.00000000000E+00  0.45593999997E+02  0.45594000000E+02  0.51100000000E-03 0.  1.
         11   -1    0    0    0    0 -0.00000000000E+00 -0.00000000000E+00 -0.45593999997E+02  0.45594000000E+02  0.51100000000E-03 0. -1.
    9900012    2    1    2    0    0  0.35157706156E+01 -0.10703839017E+02  0.14957889863E+02  0.72461780897E+02  0.70000274349E+02 0.  0.
         12    1    1    2    0    0 -0.35157706156E+01  0.10703839017E+02 -0.14957889863E+02  0.18726219103E+02  0.00000000000E+00 0. -1.
         11    1    3    3    0    0  0.97095579561E+01 -0.73874194550E+00 -0.22218832298E+02  0.24258972862E+02  0.51100000000E-03 0. -1.
        -11    1    3    3    0    0  0.51494514242E+01  0.69193158280E+01  0.19232989811E+02  0.21078464812E+02  0.51100000000E-03 0.  1.
        -12    1    3    3    0    0 -0.11343238765E+02 -0.16884412900E+02  0.17943732350E+02  0.27124343223E+02  0.00000000000E+00 0.  1.
</event>
<event>
 7    1  0.1351543E-013  0.7246138E+02  0.7816164E-02  0.1226709E+00
        -11   -1    0    0    0    0  0.00000000000E+00  0.00000000000E+00  0.45593999997E+02  0.45594000000E+02  0.51100000000E-03 0.  1.
         11   -1    0    0    0    0 -0.00000000000E+00 -0.00000000000E+00 -0.45593999997E+02  0.45594000000E+02  0.51100000000E-03 0. -1.
    9900012    2    1    2    0    0  0.18318313816E+02  0.14529428797E+01  0.36075979098E+01  0.72461376526E+02  0.69999747580E+02 0.  0.
         12    1    1    2    0    0 -0.18318313816E+02 -0.14529428797E+01 -0.36075979098E+01  0.18726623474E+02  0.00000000000E+00 0. -1.
         11    1    3    3    0    0  0.82250018238E+01 -0.20748680104E+02  0.20729313783E+01  0.22415517523E+02  0.51100000000E-03 0. -1.
        -11    1    3    3    0    0  0.69083079438E+01  0.30527511461E+02  0.14352303017E+02  0.34433156649E+02  0.51100000000E-03 0.  1.
        -12    1    3    3    0    0  0.31850040481E+01 -0.83258884772E+01 -0.12817636486E+02  0.15612702354E+02  0.00000000000E+00 0.  1.
</event>
<event>
 7    1  0.1351543E-013  0.7246156E+02  0.7816164E-02  0.1226708E+00
        -11   -1    0    0    0    0  0.00000000000E+00  0.00000000000E+00  0.45593999997E+02  0.45594000000E+02  0.51100000000E-03 0.  1.
         11   -1    0    0    0    0 -0.00000000000E+00 -0.00000000000E+00 -0.45593999997E+02  0.45594000000E+02  0.51100000000E-03 0. -1.
    9900012    2    1    2    0    0 -0.12916214153E+02 -0.13553095467E+02 -0.40551503658E+00  0.72461563413E+02  0.69999991036E+02 0.  0.
         12    1    1    2    0    0  0.12916214153E+02  0.13553095467E+02  0.40551503658E+00  0.18726436587E+02  0.00000000000E+00 0. -1.
         11    1    3    3    0    0 -0.37882565297E+01 -0.13049409364E+02 -0.49672691121E+01  0.14467609857E+02  0.51100000000E-03 0. -1.
        -11    1    3    3    0    0 -0.15898895531E+02  0.13609239025E+02  0.24773182277E+02  0.32429875522E+02  0.51100000000E-03 0.  1.
        -12    1    3    3    0    0  0.67709379072E+01 -0.14112925128E+02 -0.20211428202E+02  0.25564078034E+02  0.00000000000E+00 0.  1.
</event>
<event>
 7    1  0.1351543E-013  0.7246150E+02  0.7816164E-02  0.1226708E+00
        -11   -1    0    0    0    0  0.00000000000E+00  0.00000000000E+00  0.45593999997E+02  0.45594000000E+02  0.51100000000E-03 0.  1.
         11   -1    0    0    0    0 -0.00000000000E+00 -0.00000000000E+00 -0.45593999997E+02  0.45594000000E+02  0.51100000000E-03 0. -1.
    9900012    2    1    2    0    0  0.38253544903E+01 -0.41982699651E+01  0.17844415885E+02  0.72461495095E+02  0.69999902039E+02 0.  0.
         12    1    1    2    0    0 -0.38253544903E+01  0.41982699651E+01 -0.17844415885E+02  0.18726504905E+02  0.00000000000E+00 0. -1.
         11    1    3    3    0    0  0.35681760283E+01  0.13816744945E+02  0.43980774130E+01  0.14932428009E+02  0.51100000000E-03 0. -1.
        -11    1    3    3    0    0 -0.28090426750E+01 -0.16867450432E+02  0.33285846848E+02  0.37421240031E+02  0.51100000000E-03 0.  1.
        -12    1    3    3    0    0  0.30662211370E+01 -0.11475644789E+01 -0.19839508376E+02  0.20107827055E+02  0.00000000000E+00 0.  1.
</event>
<event>
 7    1  0.1351543E-013  0.7246156E+02  0.7816164E-02  0.1226708E+00
        -11   -1    0    0    0    0  0.00000000000E+00  0.00000000000E+00  0.45593999997E+02  0.45594000000E+02  0.51100000000E-03 0.  1.
         11   -1    0    0    0    0 -0.00000000000E+00 -0.00000000000E+00 -0.45593999997E+02  0.45594000000E+02  0.51100000000E-03 0. -1.
    9900012    2    1    2    0    0 -0.15472616879E+02  0.22002485445E+01  0.10316806284E+02  0.72461562574E+02  0.69999989943E+02 0.  0.
         12    1    1    2    0    0  0.15472616879E+02 -0.22002485445E+01 -0.10316806284E+02  0.18726437426E+02  0.00000000000E+00 0. -1.
         11    1    3    3    0    0  0.10998734367E+02 -0.12428654723E+02  0.16302299254E+02  0.23263889983E+02  0.51100000000E-03 0. -1.
        -11    1    3    3    0    0 -0.24873568424E+02  0.26794266217E+02 -0.46955358441E+01  0.36860211142E+02  0.51100000000E-03 0.  1.
        -12    1    3    3    0    0 -0.15977828216E+01 -0.12165362950E+02 -0.12899571263E+01  0.12337461450E+02  0.00000000000E+00 0.  1.
</event>
<event>
 7    1  0.1351543E-013  0.7246159E+02  0.7816164E-02  0.1226708E+00
        -11   -1    0    0    0    0  0.00000000000E+00  0.00000000000E+00  0.45593999997E+02  0.45594000000E+02  0.51100000000E-03 0. -1.
         11   -1    0    0    0    0 -0.00000000000E+00 -0.00000000000E+00 -0.45593999997E+02  0.45594000000E+02  0.51100000000E-03 0.  1.
    9900012    2    1    2    0    0  0.88802807106E+01  0.64845880482E+01 -0.15158134644E+02  0.72461593150E+02  0.70000029773E+02 0.  0.
         12    1    1    2    0    0 -0.88802807106E+01 -0.64845880482E+01  0.15158134644E+02  0.18726406850E+02  0.00000000000E+00 0. -1.
         11    1    3    3    0    0  0.96102265457E+01 -0.47393234506E+01  0.84441563284E+01  0.13642632348E+02  0.51100000000E-03 0. -1.
        -11    1    3    3    0    0  0.14071918502E+01  0.24299278838E+02 -0.34113678632E+02  0.41906780012E+02  0.51100000000E-03 0.  1.
        -12    1    3    3    0    0 -0.21371376853E+01 -0.13075367339E+02  0.10511387660E+02  0.16912180789E+02  0.00000000000E+00 0.  1.
</event>
<event>
 7    1  0.1351543E-013  0.7246155E+02  0.7816164E-02  0.1226708E+00
        -11   -1    0    0    0    0  0.00000000000E+00  0.00000000000E+00  0.45593999997E+02  0.45594000000E+02  0.51100000000E-03 0.  1.
         11   -1    0    0    0    0 -0.00000000000E+00 -0.00000000000E+00 -0.45593999997E+02  0.45594000000E+02  0.51100000000E-03 0. -1.
    9900012    2    1    2    0    0 -0.75271198608E+01 -0.15537778106E+02  0.72525632806E+01  0.72461554635E+02  0.69999979600E+02 0.  0.
         12    1    1    2    0    0  0.75271198608E+01  0.15537778106E+02 -0.72525632806E+01  0.18726445365E+02  0.00000000000E+00 0. -1.
         11    1    3    3    0    0 -0.21046326333E+02 -0.29848278913E+02  0.24780414874E+02  0.44135434378E+02  0.51100000000E-03 0.  1.
        -11    1    3    3    0    0  0.12818760010E+02  0.12728612102E+02 -0.10094066406E+02  0.20693679013E+02  0.51100000000E-03 0. -1.
        -12    1    3    3    0    0  0.70044646284E+00  0.15818887051E+01 -0.74337851874E+01  0.76324412435E+01  0.00000000000E+00 0.  1.
</event>
<event>
 7    1  0.1351543E-013  0.7246165E+02  0.7816164E-02  0.1226708E+00
        -11   -1    0    0    0    0  0.00000000000E+00  0.00000000000E+00  0.45593999997E+02  0.45594000000E+02  0.51100000000E-03 0.  1.
         11   -1    0    0    0    0 -0.00000000000E+00 -0.00000000000E+00 -0.45593999997E+02  0.45594000000E+02  0.51100000000E-03 0. -1.
    9900012    2    1    2    0    0 -0.18098436893E+02  0.46757241926E+01  0.11227273285E+01  0.72461646074E+02  0.70000098718E+02 0.  0.
         12    1    1    2    0    0  0.18098436893E+02 -0.46757241926E+01 -0.11227273285E+01  0.18726353926E+02  0.00000000000E+00 0. -1.
         11    1    3    3    0    0  0.42325173483E+01 -0.13151013109E+02  0.19782034585E+02  0.24128660168E+02  0.51100000000E-03 0.  1.
        -11    1    3    3    0    0  0.13486980871E+00  0.20896243280E+02 -0.14088514525E+02  0.25202329552E+02  0.51100000000E-03 0. -1.
         12    1    3    3    0    0 -0.22465824050E+02 -0.30695059786E+01 -0.45707927315E+01  0.23130656355E+02  0.00000000000E+00 0. -1.
</event>
<event>
 7    1  0.1351543E-013  0.7246157E+02  0.7816164E-02  0.1226708E+00
        -11   -1    0    0    0    0  0.00000000000E+00  0.00000000000E+00  0.45593999997E+02  0.45594000000E+02  0.51100000000E-03 0.  1.
         11   -1    0    0    0    0 -0.00000000000E+00 -0.00000000000E+00 -0.45593999997E+02  0.45594000000E+02  0.51100000000E-03 0. -1.
    9900012    2    1    2    0    0  0.45195557816E+01 -0.13990330344E+02  0.11598422261E+02  0.72461571442E+02  0.70000001495E+02 0.  0.
         12    1    1    2    0    0 -0.45195557816E+01  0.13990330344E+02 -0.11598422261E+02  0.18726428558E+02  0.00000000000E+00 0. -1.
         11    1    3    3    0    0  0.12246658030E+02 -0.23007161302E+02  0.25395165888E+02  0.36389896328E+02  0.51100000000E-03 0. -1.
        -11    1    3    3    0    0 -0.14451561357E+02  0.11506757849E+02  0.21394747372E+01  0.18596517261E+02  0.51100000000E-03 0.  1.
         12    1    3    3    0    0  0.67244591078E+01 -0.24899268914E+01 -0.15936218364E+02  0.17475157852E+02  0.00000000000E+00 0. -1.
</event>
<event>
 7    1  0.1351543E-013  0.7246155E+02  0.7816164E-02  0.1226708E+00
        -11   -1    0    0    0    0  0.00000000000E+00  0.00000000000E+00  0.45593999997E+02  0.45594000000E+02  0.51100000000E-03 0. -1.
         11   -1    0    0    0    0 -0.00000000000E+00 -0.00000000000E+00 -0.45593999997E+02  0.45594000000E+02  0.51100000000E-03 0.  1.
    9900012    2    1    2    0    0 -0.89932200749E+01 -0.15614945657E+02 -0.50965963549E+01  0.72461552671E+02  0.69999977042E+02 0.  0.
         12    1    1    2    0    0  0.89932200749E+01  0.15614945657E+02  0.50965963549E+01  0.18726447329E+02  0.00000000000E+00 0. -1.
         11    1    3    3    0    0 -0.24897436644E+02  0.96683230594E+01  0.11312543008E+02  0.29005731361E+02  0.51100000000E-03 0. -1.
        -11    1    3    3    0    0  0.20549844310E+02 -0.76781118689E+01 -0.74895910407E+01  0.23180670337E+02  0.51100000000E-03 0.  1.
         12    1    3    3    0    0 -0.46456277415E+01 -0.17605156847E+02 -0.89195483217E+01  0.20275150973E+02  0.00000000000E+00 0. -1.
</event>
<event>
 7    1  0.1351543E-013  0.7246140E+02  0.7816164E-02  0.1226708E+00
        -11   -1    0    0    0    0  0.00000000000E+00  0.00000000000E+00  0.45593999997E+02  0.45594000000E+02  0.51100000000E-03 0.  1.
         11   -1    0    0    0    0 -0.00000000000E+00 -0.00000000000E+00 -0.45593999997E+02  0.45594000000E+02  0.51100000000E-03 0. -1.
    9900012    2    1    2    0    0 -0.14265196408E+02  0.25977821777E+01  0.11850792405E+02  0.72461399095E+02  0.69999776981E+02 0.  0.
         12    1    1    2    0    0  0.14265196408E+02 -0.25977821777E+01 -0.11850792405E+02  0.18726600905E+02  0.00000000000E+00 0. -1.
         11    1    3    3    0    0  0.17490174776E+02  0.16742057828E+02  0.11532982078E+02  0.26818135466E+02  0.51100000000E-03 0. -1.
        -11    1    3    3    0    0 -0.19943600837E+02 -0.14959332703E+02  0.13147813107E+02  0.28184993153E+02  0.51100000000E-03 0.  1.
        -12    1    3    3    0    0 -0.11811770347E+02  0.81505705254E+00 -0.12830002779E+02  0.17458270476E+02  0.00000000000E+00 0.  1.
</event>
<event>
 7    1  0.1351543E-013  0.7246159E+02  0.7816164E-02  0.1226708E+00
        -11   -1    0    0    0    0  0.00000000000E+00  0.00000000000E+00  0.45593999997E+02  0.45594000000E+02  0.51100000000E-03 0. -1.
         11   -1    0    0    0    0 -0.00000000000E+00 -0.00000000000E+00 -0.45593999997E+02  0.45594000000E+02  0.51100000000E-03 0.  1.
    9900012    2    1    2    0    0  0.17674173635E+02  0.57060470885E+01 -0.23965003677E+01  0.72461585472E+02  0.70000019772E+02 0.  0.
         12    1    1    2    0    0 -0.17674173635E+02 -0.57060470885E+01  0.23965003677E+01  0.18726414528E+02  0.00000000000E+00 0. -1.
         11    1    3    3    0    0  0.14870175444E+02  0.10225438560E+02 -0.44022483816E+01  0.18575831140E+02  0.51100000000E-03 0. -1.
        -11    1    3    3    0    0  0.12267307519E+02  0.17073512315E+01  0.25196526692E+02  0.28076090177E+02  0.51100000000E-03 0.  1.
        -12    1    3    3    0    0 -0.94633093271E+01 -0.62267427029E+01 -0.23190778678E+02  0.25809664156E+02  0.00000000000E+00 0.  1.
</event>
<event>
 7    1  0.1351543E-013  0.7246169E+02  0.7816164E-02  0.1226708E+00
        -11   -1    0    0    0    0  0.00000000000E+00  0.00000000000E+00  0.45593999997E+02  0.45594000000E+02  0.51100000000E-03 0.  1.
         11   -1    0    0    0    0 -0.00000000000E+00 -0.00000000000E+00 -0.45593999997E+02  0.45594000000E+02  0.51100000000E-03 0. -1.
    9900012    2    1    2    0    0  0.11803631679E+02 -0.61669331726E+01  0.13165018679E+02  0.72461694908E+02  0.70000162333E+02 0.  0.
         12    1    1    2    0    0 -0.11803631679E+02  0.61669331726E+01 -0.13165018679E+02  0.18726305092E+02  0.00000000000E+00 0. -1.
         11    1    3    3    0    0  0.30626500962E+02  0.12394420167E+02  0.71486835908E+01  0.33803962634E+02  0.51100000000E-03 0. -1.
        -11    1    3    3    0    0 -0.20038828474E+02 -0.21287462070E+02 -0.27813511284E+01  0.29367441195E+02  0.51100000000E-03 0.  1.
         12    1    3    3    0    0  0.12159591916E+01  0.27261087306E+01  0.87976862166E+01  0.92902910790E+01  0.00000000000E+00 0. -1.
</event>
<event>
 7    1  0.1351543E-013  0.7246157E+02  0.7816164E-02  0.1226708E+00
        -11   -1    0    0    0    0  0.00000000000E+00  0.00000000000E+00  0.45593999997E+02  0.45594000000E+02  0.51100000000E-03 0. -1.
         11   -1    0    0    0    0 -0.00000000000E+00 -0.00000000000E+00 -0.45593999997E+02  0.45594000000E+02  0.51100000000E-03 0.  1.
    9900012    2    1    2    0    0  0.56902419708E+01  0.17755040084E+02 -0.17489520593E+01  0.72461571206E+02  0.70000001188E+02 0.  0.
         12    1    1    2    0    0 -0.56902419708E+01 -0.17755040084E+02  0.17489520593E+01  0.18726428794E+02  0.00000000000E+00 0. -1.
         11    1    3    3    0    0 -0.24121556409E+02  0.22322311488E+02 -0.52327723868E+01  0.33279377712E+02  0.51100000000E-03 0. -1.
        -11    1    3    3    0    0  0.21316617669E+02 -0.79674912996E+01 -0.83348394670E+01  0.24235277091E+02  0.51100000000E-03 0.  1.
         12    1    3    3    0    0  0.84951807106E+01  0.34002198955E+01  0.11818659795E+02  0.14946916404E+02  0.00000000000E+00 0. -1.
</event>
<event>
 7    1  0.1351543E-013  0.7246155E+02  0.7816164E-02  0.1226708E+00
        -11   -1    0    0    0    0  0.00000000000E+00  0.00000000000E+00  0.45593999997E+02  0.45594000000E+02  0.51100000000E-03 0.  1.
         11   -1    0    0    0    0 -0.00000000000E+00 -0.00000000000E+00 -0.45593999997E+02  0.45594000000E+02  0.51100000000E-03 0. -1.
    9900012    2    1    2    0    0 -0.56730507057E+01  0.56796982544E+01  0.16918552002E+02  0.72461551366E+02  0.69999975343E+02 0.  0.
         12    1    1    2    0    0  0.56730507057E+01 -0.56796982544E+01 -0.16918552002E+02  0.18726448634E+02  0.00000000000E+00 0. -1.
         11    1    3    3    0    0  0.40793324545E+01  0.34138542096E+02  0.12497564025E+02  0.36582374397E+02  0.51100000000E-03 0. -1.
        -11    1    3    3    0    0  0.38462365356E+01 -0.26300865661E+00  0.23322256758E+01  0.45057725092E+01  0.51100000000E-03 0.  1.
         12    1    3    3    0    0 -0.13598619696E+02 -0.28195835185E+02  0.20887623020E+01  0.31373404460E+02  0.00000000000E+00 0. -1.
</event>
<event>
 7    1  0.1824193E-013  0.7246162E+02  0.7816164E-02  0.1226708E+00
        -11   -1    0    0    0    0  0.00000000000E+00  0.00000000000E+00  0.45593999997E+02  0.45594000000E+02  0.51100000000E-03 0. -1.
         11   -1    0    0    0    0 -0.00000000000E+00 -0.00000000000E+00 -0.45593999997E+02  0.45594000000E+02  0.51100000000E-03 0.  1.
    9900012    2    1    2    0    0 -0.13224104925E+02  0.74937725041E+01 -0.10938174381E+02  0.72461621914E+02  0.70000067245E+02 0.  0.
         12    1    1    2    0    0  0.13224104925E+02 -0.74937725041E+01  0.10938174381E+02  0.18726378086E+02  0.00000000000E+00 0. -1.
         11    1    3    3    0    0 -0.26475592380E+02 -0.11884141069E+02 -0.10210672626E+02  0.30764389098E+02  0.51100000000E-03 0. -1.
        -11    1    3    3    0    0  0.10472185427E+02  0.73662139626E+01 -0.16999662455E+02  0.21281830269E+02  0.51100000000E-03 0.  1.
         12    1    3    3    0    0  0.27793020283E+01  0.12011699610E+02  0.16272160700E+02  0.20415402547E+02  0.00000000000E+00 0. -1.
</event>
<event>
 7    1  0.1351543E-013  0.7246159E+02  0.7816164E-02  0.1226708E+00
        -11   -1    0    0    0    0  0.00000000000E+00  0.00000000000E+00  0.45593999997E+02  0.45594000000E+02  0.51100000000E-03 0.  1.
         11   -1    0    0    0    0 -0.00000000000E+00 -0.00000000000E+00 -0.45593999997E+02  0.45594000000E+02  0.51100000000E-03 0. -1.
    9900012    2    1    2    0    0 -0.10389133248E+02  0.12286986855E+02  0.95798873507E+01  0.72461591447E+02  0.70000027556E+02 0.  0.
         12    1    1    2    0    0  0.10389133248E+02 -0.12286986855E+02 -0.95798873507E+01  0.18726408553E+02  0.00000000000E+00 0. -1.
         11    1    3    3    0    0  0.12319344997E+01 -0.13456402026E+02 -0.18143493486E+02  0.22622528025E+02  0.51100000000E-03 0. -1.
        -11    1    3    3    0    0  0.83166158145E+01  0.14532176193E+02  0.47136759601E+01  0.17394510192E+02  0.51100000000E-03 0.  1.
         12    1    3    3    0    0 -0.19937683562E+02  0.11211212688E+02  0.23009704877E+02  0.32444553230E+02  0.00000000000E+00 0. -1.
</event>
<event>
 7    1  0.1351543E-013  0.7246147E+02  0.7816164E-02  0.1226708E+00
        -11   -1    0    0    0    0  0.00000000000E+00  0.00000000000E+00  0.45593999997E+02  0.45594000000E+02  0.51100000000E-03 0. -1.
         11   -1    0    0    0    0 -0.00000000000E+00 -0.00000000000E+00 -0.45593999997E+02  0.45594000000E+02  0.51100000000E-03 0.  1.
    9900012    2    1    2    0    0  0.11018709369E+02 -0.10490059388E+02 -0.10919224917E+02  0.72461474030E+02  0.69999874598E+02 0.  0.
         12    1    1    2    0    0 -0.11018709369E+02  0.10490059388E+02  0.10919224917E+02  0.18726525970E+02  0.00000000000E+00 0. -1.
         11    1    3    3    0    0 -0.28101570171E+02 -0.52281862125E+01 -0.47306650652E+01  0.28972596870E+02  0.51100000000E-03 0.  1.
        -11    1    3    3    0    0  0.31179506472E+02 -0.10312149893E+02 -0.12576901988E+01  0.32864629074E+02  0.51100000000E-03 0. -1.
         12    1    3    3    0    0  0.79407730687E+01  0.50502767182E+01 -0.49308696528E+01  0.10624248086E+02  0.00000000000E+00 0. -1.
</event>
<event>
 7    1  0.1351543E-013  0.7246164E+02  0.7816164E-02  0.1226708E+00
        -11   -1    0    0    0    0  0.00000000000E+00  0.00000000000E+00  0.45593999997E+02  0.45594000000E+02  0.51100000000E-03 0.  1.
         11   -1    0    0    0    0 -0.00000000000E+00 -0.00000000000E+00 -0.45593999997E+02  0.45594000000E+02  0.51100000000E-03 0. -1.
    9900012    2    1    2    0    0 -0.11741701200E+02  0.52939318446E+01  0.13593497357E+02  0.72461643391E+02  0.70000095222E+02 0.  0.
         12    1    1    2    0    0  0.11741701200E+02 -0.52939318446E+01 -0.13593497357E+02  0.18726356609E+02  0.00000000000E+00 0. -1.
         11    1    3    3    0    0  0.70772795584E+01  0.74867385436E+01  0.37858949740E+02  0.39235688036E+02  0.51100000000E-03 0.  1.
        -11    1    3    3    0    0 -0.14612804432E+02 -0.29242466919E+01 -0.24790005562E+02  0.28924550958E+02  0.51100000000E-03 0. -1.
        -12    1    3    3    0    0 -0.42061763262E+01  0.73143999291E+00  0.52455317860E+00  0.43014043971E+01  0.00000000000E+00 0.  1.
</event>
<event>
 7    1  0.1351543E-013  0.7246157E+02  0.7816164E-02  0.1226708E+00
        -11   -1    0    0    0    0  0.00000000000E+00  0.00000000000E+00  0.45593999997E+02  0.45594000000E+02  0.51100000000E-03 0.  1.
         11   -1    0    0    0    0 -0.00000000000E+00 -0.00000000000E+00 -0.45593999997E+02  0.45594000000E+02  0.51100000000E-03 0. -1.
    9900012    2    1    2    0    0 -0.17504270116E+02 -0.60764006378E+01 -0.27123847800E+01  0.72461570863E+02  0.70000000741E+02 0.  0.
         12    1    1    2    0    0  0.17504270116E+02  0.60764006378E+01  0.27123847800E+01  0.18726429137E+02  0.00000000000E+00 0. -1.
         11    1    3    3    0    0 -0.73457941222E+01  0.11256730152E+02 -0.23784527416E+02  0.27319926970E+02  0.51100000000E-03 0. -1.
        -11    1    3    3    0    0  0.31277936585E+01 -0.24176475945E+02  0.16771684325E+02  0.29590107767E+02  0.51100000000E-03 0.  1.
        -12    1    3    3    0    0 -0.13286269653E+02  0.68433451551E+01  0.43004583111E+01  0.15551536126E+02  0.00000000000E+00 0.  1.
</event>
<event>
 7    1  0.1351543E-013  0.7246159E+02  0.7816164E-02  0.1226708E+00
        -11   -1    0    0    0    0  0.00000000000E+00  0.00000000000E+00  0.45593999997E+02  0.45594000000E+02  0.51100000000E-03 0.  1.
         11   -1    0    0    0    0 -0.00000000000E+00 -0.00000000000E+00 -0.45593999997E+02  0.45594000000E+02  0.51100000000E-03 0. -1.
    9900012    2    1    2    0    0  0.10052329392E+00  0.88614916858E+01  0.16496731654E+02  0.72461593642E+02  0.70000030415E+02 0.  0.
         12    1    1    2    0    0 -0.10052329392E+00 -0.88614916858E+01 -0.16496731654E+02  0.18726406358E+02  0.00000000000E+00 0. -1.
         11    1    3    3    0    0 -0.19167033117E+02 -0.20580082035E+01  0.14627491685E+02  0.24198637762E+02  0.51100000000E-03 0. -1.
        -11    1    3    3    0    0  0.15800996915E+02 -0.13611072220E+02 -0.69240212531E+01  0.21974413782E+02  0.51100000000E-03 0.  1.
        -12    1    3    3    0    0  0.34665594959E+01  0.24530572109E+02  0.87932612213E+01  0.26288542098E+02  0.00000000000E+00 0.  1.
</event>
<event>
 7    1  0.1351543E-013  0.7246160E+02  0.7816164E-02  0.1226708E+00
        -11   -1    0    0    0    0  0.00000000000E+00  0.00000000000E+00  0.45593999997E+02  0.45594000000E+02  0.51100000000E-03 0.  1.
         11   -1    0    0    0    0 -0.00000000000E+00 -0.00000000000E+00 -0.45593999997E+02  0.45594000000E+02  0.51100000000E-03 0. -1.
    9900012    2    1    2    0    0  0.99099877876E+01  0.13144383004E+02  0.89272378122E+01  0.72461595180E+02  0.70000032419E+02 0.  0.
         12    1    1    2    0    0 -0.99099877876E+01 -0.13144383004E+02 -0.89272378122E+01  0.18726404820E+02  0.00000000000E+00 0. -1.
         11    1    3    3    0    0  0.30877063449E+01  0.35780442666E+02 -0.11939334675E+02  0.37846026483E+02  0.51100000000E-03 0. -1.
        -11    1    3    3    0    0  0.15398212473E+01  0.11677733175E+01  0.54137592187E+01  0.57483504707E+01  0.51100000000E-03 0.  1.
         12    1    3    3    0    0  0.52824601954E+01 -0.23803832979E+02  0.15452813268E+02  0.28867218226E+02  0.00000000000E+00 0. -1.
</event>
<event>
 7    1  0.1351543E-013  0.7246154E+02  0.7816164E-02  0.1226708E+00
        -11   -1    0    0    0    0  0.00000000000E+00  0.00000000000E+00  0.45593999997E+02  0.45594000000E+02  0.51100000000E-03 0. -1.
         11   -1    0    0    0    0 -0.00000000000E+00 -0.00000000000E+00 -0.45593999997E+02  0.45594000000E+02  0.51100000000E-03 0.  1.
    9900012    2    1    2    0    0  0.10177335228E+02 -0.15554543723E+02 -0.22712321667E+01  0.72461535349E+02  0.69999954477E+02 0.  0.
         12    1    1    2    0    0 -0.10177335228E+02  0.15554543723E+02  0.22712321667E+01  0.18726464651E+02  0.00000000000E+00 0. -1.
         11    1    3    3    0    0 -0.17974830930E+02 -0.11003733081E+02  0.39950645602E+01  0.21450809537E+02  0.51100000000E-03 0. -1.
        -11    1    3    3    0    0  0.34812174391E+02  0.61154259608E+01  0.28786564936E+01  0.35462269865E+02  0.51100000000E-03 0.  1.
         12    1    3    3    0    0 -0.66600082325E+01 -0.10666236602E+02 -0.91449532204E+01  0.15548455946E+02  0.00000000000E+00 0. -1.
</event>
<event>
 7    1  0.1351543E-013  0.7246142E+02  0.7816164E-02  0.1226708E+00
        -11   -1    0    0    0    0  0.00000000000E+00  0.00000000000E+00  0.45593999997E+02  0.45594000000E+02  0.51100000000E-03 0. -1.
         11   -1    0    0    0    0 -0.00000000000E+00 -0.00000000000E+00 -0.45593999997E+02  0.45594000000E+02  0.51100000000E-03 0.  1.
    9900012    2    1    2    0    0  0.70669953846E+01  0.97437601434E+01 -0.14345785473E+02  0.72461418723E+02  0.69999802549E+02 0.  0.
         12    1    1    2    0    0 -0.70669953846E+01 -0.97437601434E+01  0.14345785473E+02  0.18726581277E+02  0.00000000000E+00 0. -1.
         11    1    3    3    0    0 -0.15434399720E+02 -0.74410026407E+01 -0.92717347180E+01  0.19482152857E+02  0.51100000000E-03 0. -1.
        -11    1    3    3    0    0  0.34585893010E+02  0.45261021827E+01 -0.62611790421E+01  0.35438283811E+02  0.51100000000E-03 0.  1.
        -12    1    3    3    0    0 -0.12084497905E+02  0.12658660601E+02  0.11871282868E+01  0.17540982054E+02  0.00000000000E+00 0.  1.
</event>
<event>
 7    1  0.1351543E-013  0.7246158E+02  0.7816164E-02  0.1226708E+00
        -11   -1    0    0    0    0  0.00000000000E+00  0.00000000000E+00  0.45593999997E+02  0.45594000000E+02  0.51100000000E-03 0.  1.
         11   -1    0    0    0    0 -0.00000000000E+00 -0.00000000000E+00 -0.45593999997E+02  0.45594000000E+02  0.51100000000E-03 0. -1.
    9900012    2    1    2    0    0  0.37316696174E+01 -0.15098053624E+02  0.10430834990E+02  0.72461577492E+02  0.70000009376E+02 0.  0.
         12    1    1    2    0    0 -0.37316696174E+01  0.15098053624E+02 -0.10430834990E+02  0.18726422508E+02  0.00000000000E+00 0. -1.
         11    1    3    3    0    0 -0.20460456095E+02  0.48953845545E+01  0.20041946843E+02  0.29056405267E+02  0.51100000000E-03 0. -1.
        -11    1    3    3    0    0  0.14973973452E+02 -0.11203220178E+02  0.90781758745E+01  0.20788104790E+02  0.51100000000E-03 0.  1.
         12    1    3    3    0    0  0.92181522603E+01 -0.87902180000E+01 -0.18689287727E+02  0.22617067434E+02  0.00000000000E+00 0. -1.
</event>
<event>
 7    1  0.1351543E-013  0.7246140E+02  0.7816164E-02  0.1226708E+00
        -11   -1    0    0    0    0  0.00000000000E+00  0.00000000000E+00  0.45593999997E+02  0.45594000000E+02  0.51100000000E-03 0.  1.
         11   -1    0    0    0    0 -0.00000000000E+00 -0.00000000000E+00 -0.45593999997E+02  0.45594000000E+02  0.51100000000E-03 0. -1.
    9900012    2    1    2    0    0 -0.11680106282E+02 -0.10997310744E+02 -0.96602213270E+01  0.72461398534E+02  0.69999776250E+02 0.  0.
         12    1    1    2    0    0  0.11680106282E+02  0.10997310744E+02  0.96602213270E+01  0.18726601466E+02  0.00000000000E+00 0. -1.
         11    1    3    3    0    0 -0.21132003752E+02  0.20832001847E+02 -0.13326778923E+02  0.32529016589E+02  0.51100000000E-03 0. -1.
        -11    1    3    3    0    0  0.65763528842E+01 -0.67857357128E+01  0.10186653805E+02  0.13894694758E+02  0.51100000000E-03 0.  1.
         12    1    3    3    0    0  0.28755445858E+01 -0.25043576878E+02 -0.65200962090E+01  0.26037687187E+02  0.00000000000E+00 0. -1.
</event>
<event>
 7    1  0.1351543E-013  0.7246157E+02  0.7816164E-02  0.1226708E+00
        -11   -1    0    0    0    0  0.00000000000E+00  0.00000000000E+00  0.45593999997E+02  0.45594000000E+02  0.51100000000E-03 0. -1.
         11   -1    0    0    0    0 -0.00000000000E+00 -0.00000000000E+00 -0.45593999997E+02  0.45594000000E+02  0.51100000000E-03 0.  1.
    9900012    2    1    2    0    0  0.12344124399E+02  0.90562719112E+01 -0.10783584975E+02  0.72461570201E+02  0.69999999878E+02 0.  0.
         12    1    1    2    0    0 -0.12344124399E+02 -0.90562719112E+01  0.10783584975E+02  0.18726429799E+02  0.00000000000E+00 0. -1.
         11    1    3    3    0    0  0.53965658407E+01 -0.84315815830E+01  0.10348454636E+02  0.14398090307E+02  0.51100000000E-03 0. -1.
        -11    1    3    3    0    0  0.11351106061E+02 -0.10935454869E+02 -0.24471170467E+02  0.29107902128E+02  0.51100000000E-03 0.  1.
        -12    1    3    3    0    0 -0.44035475030E+01  0.28423308363E+02  0.33391308549E+01  0.28955577766E+02  0.00000000000E+00 0.  1.
</event>
<event>
 7    1  0.1351543E-013  0.7246161E+02  0.7816164E-02  0.1226708E+00
        -11   -1    0    0    0    0  0.00000000000E+00  0.00000000000E+00  0.45593999997E+02  0.45594000000E+02  0.51100000000E-03 0. -1.
         11   -1    0    0    0    0 -0.00000000000E+00 -0.00000000000E+00 -0.45593999997E+02  0.45594000000E+02  0.51100000000E-03 0.  1.
    9900012    2    1    2    0    0 -0.26702584376E+00  0.73674111786E+01 -0.17214166991E+02  0.72461612322E+02  0.70000054749E+02 0.  0.
         12    1    1    2    0    0  0.26702584376E+00 -0.73674111786E+01  0.17214166991E+02  0.18726387678E+02  0.00000000000E+00 0. -1.
         11    1    3    3    0    0 -0.13620521966E+02  0.20490700514E+02  0.47117115160E+01  0.25051699580E+02  0.51100000000E-03 0. -1.
        -11    1    3    3    0    0  0.13454776063E+02 -0.17651393407E+01 -0.30365086770E+02  0.33259362751E+02  0.51100000000E-03 0.  1.
        -12    1    3    3    0    0 -0.10127994064E+00 -0.11358149995E+02  0.84392082633E+01  0.14150549991E+02  0.00000000000E+00 0.  1.
</event>
<event>
 7    1  0.1351543E-013  0.7246148E+02  0.7816164E-02  0.1226708E+00
        -11   -1    0    0    0    0  0.00000000000E+00  0.00000000000E+00  0.45593999997E+02  0.45594000000E+02  0.51100000000E-03 0.  1.
         11   -1    0    0    0    0 -0.00000000000E+00 -0.00000000000E+00 -0.45593999997E+02  0.45594000000E+02  0.51100000000E-03 0. -1.
    9900012    2    1    2    0    0 -0.16622643258E+02  0.67113911318E+01  0.54154781983E+01  0.72461482868E+02  0.69999886110E+02 0.  0.
         12    1    1    2    0    0  0.16622643258E+02 -0.67113911318E+01 -0.54154781983E+01  0.18726517132E+02  0.00000000000E+00 0. -1.
         11    1    3    3    0    0 -0.32741173820E+02  0.64536617515E+01 -0.10287062840E+02  0.34920737037E+02  0.51100000000E-03 0. -1.
        -11    1    3    3    0    0  0.47246484014E+01  0.18444054994E+01  0.23240332151E+02  0.23787332194E+02  0.51100000000E-03 0.  1.
         12    1    3    3    0    0  0.11393882161E+02 -0.15866761190E+01 -0.75377911127E+01  0.13753413637E+02  0.00000000000E+00 0. -1.
</event>
<event>
 7    1  0.1351543E-013  0.7246156E+02  0.7816164E-02  0.1226708E+00
        -11   -1    0    0    0    0  0.00000000000E+00  0.00000000000E+00  0.45593999997E+02  0.45594000000E+02  0.51100000000E-03 0.  1.
         11   -1    0    0    0    0 -0.00000000000E+00 -0.00000000000E+00 -0.45593999997E+02  0.45594000000E+02  0.51100000000E-03 0. -1.
    9900012    2    1    2    0    0  0.18571178494E+02 -0.93751355995E+00  0.22163230503E+01  0.72461556392E+02  0.69999981890E+02 0.  0.
         12    1    1    2    0    0 -0.18571178494E+02  0.93751355995E+00 -0.22163230503E+01  0.18726443608E+02  0.00000000000E+00 0. -1.
         11    1    3    3    0    0 -0.10239429654E+01  0.73486096114E+01 -0.13274588332E+02  0.15207406685E+02  0.51100000000E-03 0. -1.
        -11    1    3    3    0    0  0.22990412011E+02  0.16868187538E+02  0.14159407285E+02  0.31836827891E+02  0.51100000000E-03 0.  1.
        -12    1    3    3    0    0 -0.33952905515E+01 -0.25154310709E+02  0.13315040971E+01  0.25417321817E+02  0.00000000000E+00 0.  1.
</event>
<event>
 7    1  0.1351543E-013  0.7246170E+02  0.7816164E-02  0.1226708E+00
        -11   -1    0    0    0    0  0.00000000000E+00  0.00000000000E+00  0.45593999997E+02  0.45594000000E+02  0.51100000000E-03 0.  1.
         11   -1    0    0    0    0 -0.00000000000E+00 -0.00000000000E+00 -0.45593999997E+02  0.45594000000E+02  0.51100000000E-03 0. -1.
    9900012    2    1    2    0    0 -0.55057673422E+01  0.19927466199E+01  0.17787348203E+02  0.72461701134E+02  0.70000170442E+02 0.  0.
         12    1    1    2    0    0  0.55057673422E+01 -0.19927466199E+01 -0.17787348203E+02  0.18726298866E+02  0.00000000000E+00 0. -1.
         11    1    3    3    0    0  0.59397158068E+01 -0.44062199211E+01 -0.19247744667E+02  0.20619667138E+02  0.51100000000E-03 0. -1.
        -11    1    3    3    0    0 -0.20724659274E+02  0.38777119937E+01  0.36573027421E+02  0.42215334742E+02  0.51100000000E-03 0.  1.
        -12    1    3    3    0    0  0.92791761245E+01  0.25212545473E+01  0.46206544948E+00  0.96266992537E+01  0.00000000000E+00 0.  1.
</event>
<event>
 7    1  0.1351543E-013  0.7246157E+02  0.7816164E-02  0.1226708E+00
        -11   -1    0    0    0    0  0.00000000000E+00  0.00000000000E+00  0.45593999997E+02  0.45594000000E+02  0.51100000000E-03 0.  1.
         11   -1    0    0    0    0 -0.00000000000E+00 -0.00000000000E+00 -0.45593999997E+02  0.45594000000E+02  0.51100000000E-03 0. -1.
    9900012    2    1    2    0    0  0.80154027217E+01 -0.15458355243E+02  0.68899797643E+01  0.72461568179E+02  0.69999997244E+02 0.  0.
         12    1    1    2    0    0 -0.80154027217E+01  0.15458355243E+02 -0.68899797643E+01  0.18726431821E+02  0.00000000000E+00 0. -1.
         11    1    3    3    0    0  0.13464623562E+02  0.84718703279E+01  0.68415339509E+01  0.17316906814E+02  0.51100000000E-03 0. -1.
        -11    1    3    3    0    0 -0.12097560192E+02 -0.37501362625E+02  0.37602821199E+01  0.39583366244E+02  0.51100000000E-03 0.  1.
        -12    1    3    3    0    0  0.66483393514E+01  0.13571137054E+02 -0.37118363064E+01  0.15561295121E+02  0.00000000000E+00 0.  1.
</event>
<event>
 7    1  0.1351543E-013  0.7246155E+02  0.7816164E-02  0.1226708E+00
        -11   -1    0    0    0    0  0.00000000000E+00  0.00000000000E+00  0.45593999997E+02  0.45594000000E+02  0.51100000000E-03 0.  1.
         11   -1    0    0    0    0 -0.00000000000E+00 -0.00000000000E+00 -0.45593999997E+02  0.45594000000E+02  0.51100000000E-03 0. -1.
    9900012    2    1    2    0    0 -0.27021237984E+01 -0.12884610127E+02 -0.13317858621E+02  0.72461547870E+02  0.69999970788E+02 0.  0.
         12    1    1    2    0    0  0.27021237984E+01  0.12884610127E+02  0.13317858621E+02  0.18726452130E+02  0.00000000000E+00 0. -1.
         11    1    3    3    0    0 -0.32290126830E+02 -0.10969407388E+02 -0.10621615279E+02  0.35718327235E+02  0.51100000000E-03 0. -1.
        -11    1    3    3    0    0  0.62961585567E+01 -0.73877519190E+01  0.58538893772E+01  0.11335277327E+02  0.51100000000E-03 0.  1.
         12    1    3    3    0    0  0.23291844475E+02  0.54725491799E+01 -0.85501327197E+01  0.25407943307E+02  0.00000000000E+00 0. -1.
</event>
<event>
 7    1  0.1351543E-013  0.7246164E+02  0.7816164E-02  0.1226708E+00
        -11   -1    0    0    0    0  0.00000000000E+00  0.00000000000E+00  0.45593999997E+02  0.45594000000E+02  0.51100000000E-03 0.  1.
         11   -1    0    0    0    0 -0.00000000000E+00 -0.00000000000E+00 -0.45593999997E+02  0.45594000000E+02  0.51100000000E-03 0. -1.
    9900012    2    1    2    0    0  0.16332585940E+02 -0.47383263828E+00  0.91486982159E+01  0.72461639972E+02  0.70000090768E+02 0.  0.
         12    1    1    2    0    0 -0.16332585940E+02  0.47383263828E+00 -0.91486982159E+01  0.18726360028E+02  0.00000000000E+00 0. -1.
         11    1    3    3    0    0  0.14248949809E+02  0.24526683555E+01 -0.20638913431E+02  0.25199462308E+02  0.51100000000E-03 0. -1.
        -11    1    3    3    0    0 -0.59657338349E+01  0.12032358438E+02  0.26852073474E+02  0.30023348912E+02  0.51100000000E-03 0.  1.
        -12    1    3    3    0    0  0.80493699666E+01 -0.14958859432E+02  0.29355381732E+01  0.17238828752E+02  0.00000000000E+00 0.  1.
</event>
<event>
 7    1  0.1351543E-013  0.7246159E+02  0.7816164E-02  0.1226708E+00
        -11   -1    0    0    0    0  0.00000000000E+00  0.00000000000E+00  0.45593999997E+02  0.45594000000E+02  0.51100000000E-03 0.  1.
         11   -1    0    0    0    0 -0.00000000000E+00 -0.00000000000E+00 -0.45593999997E+02  0.45594000000E+02  0.51100000000E-03 0. -1.
    9900012    2    1    2    0    0 -0.76963366185E+01  0.16828450625E+02  0.28719516781E+01  0.72461589393E+02  0.70000024879E+02 0.  0.
         12    1    1    2    0    0  0.76963366185E+01 -0.16828450625E+02 -0.28719516781E+01  0.18726410607E+02  0.00000000000E+00 0. -1.
         11    1    3    3    0    0  0.84254424782E+01  0.21932961321E+02 -0.41614489871E+01  0.23861276814E+02  0.51100000000E-03 0. -1.
        -11    1    3    3    0    0 -0.16072758505E+02 -0.24002864290E+02  0.69069829521E+01  0.29701472587E+02  0.51100000000E-03 0.  1.
         12    1    3    3    0    0 -0.49020591306E-01  0.18898353594E+02  0.12641771314E+00  0.18898839992E+02  0.00000000000E+00 0. -1.
</event>
<event>
 7    1  0.1351543E-013  0.7246158E+02  0.7816164E-02  0.1226708E+00
        -11   -1    0    0    0    0  0.00000000000E+00  0.00000000000E+00  0.45593999997E+02  0.45594000000E+02  0.51100000000E-03 0.  1.
         11   -1    0    0    0    0 -0.00000000000E+00 -0.00000000000E+00 -0.45593999997E+02  0.45594000000E+02  0.51100000000E-03 0. -1.
    9900012    2    1    2    0    0 -0.14339101968E+02 -0.12043495773E+02 -0.15185119768E+00  0.72461582978E+02  0.70000016523E+02 0.  0.
         12    1    1    2    0    0  0.14339101968E+02  0.12043495773E+02  0.15185119768E+00  0.18726417022E+02  0.00000000000E+00 0. -1.
         11    1    3    3    0    0 -0.19472410096E+02 -0.19867165171E+01 -0.15087228509E+02  0.24713281081E+02  0.51100000000E-03 0. -1.
        -11    1    3    3    0    0  0.15193990741E+02 -0.45355513038E+01  0.26864605525E+02  0.31195121583E+02  0.51100000000E-03 0.  1.
        -12    1    3    3    0    0 -0.10060682613E+02 -0.55212279524E+01 -0.11929228213E+02  0.16553180314E+02  0.00000000000E+00 0.  1.
</event>
<event>
 7    1  0.1351543E-013  0.7246171E+02  0.7816164E-02  0.1226708E+00
        -11   -1    0    0    0    0  0.00000000000E+00  0.00000000000E+00  0.45593999997E+02  0.45594000000E+02  0.51100000000E-03 0. -1.
         11   -1    0    0    0    0 -0.00000000000E+00 -0.00000000000E+00 -0.45593999997E+02  0.45594000000E+02  0.51100000000E-03 0.  1.
    9900012    2    1    2    0    0 -0.16860210687E+02  0.35804186144E+01  0.73203707875E+01  0.72461710182E+02  0.70000182230E+02 0.  0.
         12    1    1    2    0    0  0.16860210687E+02 -0.35804186144E+01 -0.73203707875E+01  0.18726289818E+02  0.00000000000E+00 0. -1.
         11    1    3    3    0    0 -0.41966166490E+02 -0.74635045690E+01 -0.10457311379E+01  0.42637502087E+02  0.51100000000E-03 0. -1.
        -11    1    3    3    0    0  0.13791253951E+02  0.50911905614E+01  0.86101474003E+01  0.17036829089E+02  0.51100000000E-03 0.  1.
         12    1    3    3    0    0  0.11314701852E+02  0.59527326220E+01 -0.24404547497E+00  0.12787379007E+02  0.00000000000E+00 0. -1.
</event>
<event>
 7    1  0.1351543E-013  0.7246142E+02  0.7816164E-02  0.1226708E+00
        -11   -1    0    0    0    0  0.00000000000E+00  0.00000000000E+00  0.45593999997E+02  0.45594000000E+02  0.51100000000E-03 0. -1.
         11   -1    0    0    0    0 -0.00000000000E+00 -0.00000000000E+00 -0.45593999997E+02  0.45594000000E+02  0.51100000000E-03 0.  1.
    9900012    2    1    2    0    0 -0.13139343516E+02 -0.83543435476E+01 -0.10404192135E+02  0.72461424815E+02  0.69999810487E+02 0.  0.
         12    1    1    2    0    0  0.13139343516E+02  0.83543435476E+01  0.10404192135E+02  0.18726575185E+02  0.00000000000E+00 0. -1.
         11    1    3    3    0    0 -0.18949910174E+02  0.66456601501E+01  0.13199639297E+02  0.24031112589E+02  0.51100000000E-03 0. -1.
        -11    1    3    3    0    0  0.19268487905E+02 -0.19553647097E+02 -0.19395959068E+02  0.33612839353E+02  0.51100000000E-03 0.  1.
        -12    1    3    3    0    0 -0.13457921248E+02  0.45536433998E+01 -0.42078723641E+01  0.14817472874E+02  0.00000000000E+00 0.  1.
</event>
<event>
 7    1  0.1351543E-013  0.7246156E+02  0.7816164E-02  0.1226708E+00
        -11   -1    0    0    0    0  0.00000000000E+00  0.00000000000E+00  0.45593999997E+02  0.45594000000E+02  0.51100000000E-03 0.  1.
         11   -1    0    0    0    0 -0.00000000000E+00 -0.00000000000E+00 -0.45593999997E+02  0.45594000000E+02  0.51100000000E-03 0. -1.
    9900012    2    1    2    0    0 -0.13572486838E+01  0.93426443147E+01  0.16172581892E+02  0.72461560620E+02  0.69999987397E+02 0.  0.
         12    1    1    2    0    0  0.13572486838E+01 -0.93426443147E+01 -0.16172581892E+02  0.18726439380E+02  0.00000000000E+00 0. -1.
         11    1    3    3    0    0 -0.64721515332E+01 -0.42423604722E+01 -0.16461165852E+01  0.79117676860E+01  0.51100000000E-03 0. -1.
        -11    1    3    3    0    0  0.52116389369E+01  0.37593548172E+02  0.12504408706E+02  0.39959933457E+02  0.51100000000E-03 0.  1.
        -12    1    3    3    0    0 -0.96736087572E-01 -0.24008543385E+02  0.53142897718E+01  0.24589859477E+02  0.00000000000E+00 0.  1.
</event>
<event>
 7    1  0.1351543E-013  0.7246154E+02  0.7816164E-02  0.1226708E+00
        -11   -1    0    0    0    0  0.00000000000E+00  0.00000000000E+00  0.45593999997E+02  0.45594000000E+02  0.51100000000E-03 0. -1.
         11   -1    0    0    0    0 -0.00000000000E+00 -0.00000000000E+00 -0.45593999997E+02  0.45594000000E+02  0.51100000000E-03 0.  1.
    9900012    2    1    2    0    0  0.76816085125E+01 -0.17049413811E+02  0.99524525421E+00  0.72461544549E+02  0.69999966461E+02 0.  0.
         12    1    1    2    0    0 -0.76816085125E+01  0.17049413811E+02 -0.99524525421E+00  0.18726455451E+02  0.00000000000E+00 0. -1.
         11    1    3    3    0    0  0.21262761981E+02 -0.12501890259E+02 -0.27992832126E+02  0.37309529048E+02  0.51100000000E-03 0.  1.
        -11    1    3    3    0    0 -0.46450445134E+01 -0.23549386537E+01  0.24249349269E+02  0.24802280436E+02  0.51100000000E-03 0. -1.
        -12    1    3    3    0    0 -0.89361089549E+01 -0.21925848990E+01  0.47387281115E+01  0.10349735065E+02  0.00000000000E+00 0.  1.
</event>
<event>
 7    1  0.1351543E-013  0.7246155E+02  0.7816164E-02  0.1226708E+00
        -11   -1    0    0    0    0  0.00000000000E+00  0.00000000000E+00  0.45593999997E+02  0.45594000000E+02  0.51100000000E-03 0.  1.
         11   -1    0    0    0    0 -0.00000000000E+00 -0.00000000000E+00 -0.45593999997E+02  0.45594000000E+02  0.51100000000E-03 0. -1.
    9900012    2    1    2    0    0 -0.70928207420E+01 -0.84459825382E+01  0.15133975456E+02  0.72461549717E+02  0.69999973194E+02 0.  0.
         12    1    1    2    0    0  0.70928207420E+01  0.84459825382E+01 -0.15133975456E+02  0.18726450283E+02  0.00000000000E+00 0. -1.
         11    1    3    3    0    0 -0.20334454535E+02 -0.13693186359E+02 -0.65132867777E+01  0.25365651949E+02  0.51100000000E-03 0. -1.
        -11    1    3    3    0    0  0.27317288724E+02  0.21000564047E+01  0.13835513452E+02  0.30693092592E+02  0.51100000000E-03 0.  1.
         12    1    3    3    0    0 -0.14075654931E+02  0.31471474159E+01  0.78117487816E+01  0.16402805175E+02  0.00000000000E+00 0. -1.
</event>
<event>
 7    1  0.1351543E-013  0.7246157E+02  0.7816164E-02  0.1226708E+00
        -11   -1    0    0    0    0  0.00000000000E+00  0.00000000000E+00  0.45593999997E+02  0.45594000000E+02  0.51100000000E-03 0. -1.
         11   -1    0    0    0    0 -0.00000000000E+00 -0.00000000000E+00 -0.45593999997E+02  0.45594000000E+02  0.51100000000E-03 0.  1.
    9900012    2    1    2    0    0  0.37179092358E+01 -0.57881284671E+01 -0.17417061472E+02  0.72461566529E+02  0.69999995095E+02 0.  0.
         12    1    1    2    0    0 -0.37179092358E+01  0.57881284671E+01  0.17417061472E+02  0.18726433471E+02  0.00000000000E+00 0. -1.
         11    1    3    3    0    0  0.21391390700E+02 -0.23665654391E+02  0.10039479120E+02  0.33443174716E+02  0.51100000000E-03 0. -1.
        -11    1    3    3    0    0  0.16292783531E+01  0.27453633466E+01 -0.29634245639E+01  0.43558527596E+01  0.51100000000E-03 0.  1.
         12    1    3    3    0    0 -0.19302759817E+02  0.15132162578E+02 -0.24493116028E+02  0.34662539053E+02  0.00000000000E+00 0. -1.
</event>
<event>
 7    1  0.1351543E-013  0.7246176E+02  0.7816164E-02  0.1226708E+00
        -11   -1    0    0    0    0  0.00000000000E+00  0.00000000000E+00  0.45593999997E+02  0.45594000000E+02  0.51100000000E-03 0.  1.
         11   -1    0    0    0    0 -0.00000000000E+00 -0.00000000000E+00 -0.45593999997E+02  0.45594000000E+02  0.51100000000E-03 0. -1.
    9900012    2    1    2    0    0  0.96532694902E+01 -0.70770252669E+01  0.14401470265E+02  0.72461755201E+02  0.70000240875E+02 0.  0.
         12    1    1    2    0    0 -0.96532694902E+01  0.70770252669E+01 -0.14401470265E+02  0.18726244799E+02  0.00000000000E+00 0. -1.
         11    1    3    3    0    0  0.50942656770E+00  0.60866739603E+01 -0.51407668249E+01  0.79833952135E+01  0.51100000000E-03 0. -1.
        -11    1    3    3    0    0  0.26004107132E+02 -0.28501011503E+02  0.10774776619E+02  0.40057671623E+02  0.51100000000E-03 0.  1.
        -12    1    3    3    0    0 -0.16860264209E+02  0.15337312276E+02  0.87674604715E+01  0.24420688364E+02  0.00000000000E+00 0.  1.
</event>
<event>
 7    1  0.1351543E-013  0.7246157E+02  0.7816164E-02  0.1226708E+00
        -11   -1    0    0    0    0  0.00000000000E+00  0.00000000000E+00  0.45593999997E+02  0.45594000000E+02  0.51100000000E-03 0. -1.
         11   -1    0    0    0    0 -0.00000000000E+00 -0.00000000000E+00 -0.45593999997E+02  0.45594000000E+02  0.51100000000E-03 0.  1.
    9900012    2    1    2    0    0 -0.18231473131E+01 -0.12347520651E+02 -0.13960452445E+02  0.72461565079E+02  0.69999993207E+02 0.  0.
         12    1    1    2    0    0  0.18231473131E+01  0.12347520651E+02  0.13960452445E+02  0.18726434921E+02  0.00000000000E+00 0. -1.
         11    1    3    3    0    0  0.43944321738E+00  0.13461710207E+02 -0.75427028743E+00  0.13489984283E+02  0.51100000000E-03 0. -1.
        -11    1    3    3    0    0  0.18584790055E+02 -0.29097897777E+02 -0.89503318862E+00  0.34538140672E+02  0.51100000000E-03 0.  1.
        -12    1    3    3    0    0 -0.20847380585E+02  0.32886669182E+01 -0.12311148969E+02  0.24433440124E+02  0.00000000000E+00 0.  1.
</event>
<event>
 7    1  0.1351543E-013  0.7246159E+02  0.7816164E-02  0.1226708E+00
        -11   -1    0    0    0    0  0.00000000000E+00  0.00000000000E+00  0.45593999997E+02  0.45594000000E+02  0.51100000000E-03 0.  1.
         11   -1    0    0    0    0 -0.00000000000E+00 -0.00000000000E+00 -0.45593999997E+02  0.45594000000E+02  0.51100000000E-03 0. -1.
    9900012    2    1    2    0    0 -0.37015058700E+01 -0.11383895969E+02  0.14400846051E+02  0.72461585498E+02  0.70000019805E+02 0.  0.
         12    1    1    2    0    0  0.37015058700E+01  0.11383895969E+02 -0.14400846051E+02  0.18726414502E+02  0.00000000000E+00 0. -1.
         11    1    3    3    0    0  0.18004932155E+02 -0.25673361649E+02  0.17649078290E+02  0.35983177251E+02  0.51100000000E-03 0.  1.
        -11    1    3    3    0    0 -0.23498801381E+02  0.90887373782E+01 -0.10568188946E+02  0.27321885574E+02  0.51100000000E-03 0. -1.
         12    1    3    3    0    0  0.17923633557E+01  0.52007283020E+01  0.73199567067E+01  0.91565226728E+01  0.00000000000E+00 0. -1.
</event>
<event>
 7    1  0.1351543E-013  0.7246156E+02  0.7816164E-02  0.1226708E+00
        -11   -1    0    0    0    0  0.00000000000E+00  0.00000000000E+00  0.45593999997E+02  0.45594000000E+02  0.51100000000E-03 0.  1.
         11   -1    0    0    0    0 -0.00000000000E+00 -0.00000000000E+00 -0.45593999997E+02  0.45594000000E+02  0.51100000000E-03 0. -1.
    9900012    2    1    2    0    0  0.17889290298E+02 -0.25596929554E+00  0.55305687164E+01  0.72461563660E+02  0.69999991358E+02 0.  0.
         12    1    1    2    0    0 -0.17889290298E+02  0.25596929554E+00 -0.55305687164E+01  0.18726436340E+02  0.00000000000E+00 0. -1.
         11    1    3    3    0    0  0.85851988056E+01  0.37225296805E+00 -0.84536783135E+00  0.86347471206E+01  0.51100000000E-03 0. -1.
        -11    1    3    3    0    0 -0.23759458438E+02 -0.11259483642E+02  0.11541615790E+02  0.28714051133E+02  0.51100000000E-03 0.  1.
        -12    1    3    3    0    0  0.33063549931E+02  0.10631261378E+02 -0.51656792420E+01  0.35112765407E+02  0.00000000000E+00 0.  1.
</event>
<event>
 7    1  0.1351543E-013  0.7246157E+02  0.7816164E-02  0.1226708E+00
        -11   -1    0    0    0    0  0.00000000000E+00  0.00000000000E+00  0.45593999997E+02  0.45594000000E+02  0.51100000000E-03 0.  1.
         11   -1    0    0    0    0 -0.00000000000E+00 -0.00000000000E+00 -0.45593999997E+02  0.45594000000E+02  0.51100000000E-03 0. -1.
    9900012    2    1    2    0    0 -0.17974957472E+02 -0.45330107599E+01  0.26517965251E+01  0.72461566611E+02  0.69999995202E+02 0.  0.
         12    1    1    2    0    0  0.17974957472E+02  0.45330107599E+01 -0.26517965251E+01  0.18726433389E+02  0.00000000000E+00 0. -1.
         11    1    3    3    0    0  0.18562996936E+02 -0.47187510478E+01 -0.91297406222E+00  0.19175113783E+02  0.51100000000E-03 0. -1.
        -11    1    3    3    0    0 -0.28742390241E+02 -0.84738505980E+01  0.17828949095E+02  0.34868360541E+02  0.51100000000E-03 0.  1.
        -12    1    3    3    0    0 -0.77955641665E+01  0.86595908859E+01 -0.14264178508E+02  0.18418092287E+02  0.00000000000E+00 0.  1.
</event>
<event>
 7    1  0.1351543E-013  0.7246170E+02  0.7816164E-02  0.1226708E+00
        -11   -1    0    0    0    0  0.00000000000E+00  0.00000000000E+00  0.45593999997E+02  0.45594000000E+02  0.51100000000E-03 0. -1.
         11   -1    0    0    0    0 -0.00000000000E+00 -0.00000000000E+00 -0.45593999997E+02  0.45594000000E+02  0.51100000000E-03 0.  1.
    9900012    2    1    2    0    0  0.15600564156E+02 -0.92629624133E+00  0.10316917216E+02  0.72461697441E+02  0.70000165632E+02 0.  0.
         12    1    1    2    0    0 -0.15600564156E+02  0.92629624133E+00 -0.10316917216E+02  0.18726302559E+02  0.00000000000E+00 0. -1.
         11    1    3    3    0    0 -0.14534712531E+02 -0.33035957227E+01 -0.25083730474E+01  0.15115010707E+02  0.51100000000E-03 0. -1.
        -11    1    3    3    0    0  0.27066875841E+02 -0.17323493122E+02 -0.24504964172E+01  0.32229243160E+02  0.51100000000E-03 0.  1.
         12    1    3    3    0    0  0.30684008461E+01  0.19700792604E+02  0.15275786680E+02  0.25117443574E+02  0.00000000000E+00 0. -1.
</event>
<event>
 7    1  0.1351543E-013  0.7246160E+02  0.7816164E-02  0.1226708E+00
        -11   -1    0    0    0    0  0.00000000000E+00  0.00000000000E+00  0.45593999997E+02  0.45594000000E+02  0.51100000000E-03 0. -1.
         11   -1    0    0    0    0 -0.00000000000E+00 -0.00000000000E+00 -0.45593999997E+02  0.45594000000E+02  0.51100000000E-03 0.  1.
    9900012    2    1    2    0    0  0.41930534294E+01  0.10839423069E+02 -0.14683441263E+02  0.72461595197E+02  0.70000032441E+02 0.  0.
         12    1    1    2    0    0 -0.41930534294E+01 -0.10839423069E+02  0.14683441263E+02  0.18726404803E+02  0.00000000000E+00 0. -1.
         11    1    3    3    0    0  0.30466057660E+02 -0.15288237903E+01 -0.92717431125E+01  0.31882333543E+02  0.51100000000E-03 0. -1.
        -11    1    3    3    0    0 -0.17700161624E+02 -0.69006826501E+01 -0.94338783731E+00  0.19021175658E+02  0.51100000000E-03 0.  1.
         12    1    3    3    0    0 -0.85728426068E+01  0.19268929509E+02 -0.44683103128E+01  0.21558085997E+02  0.00000000000E+00 0. -1.
</event>
<event>
 7    1  0.1351543E-013  0.7246169E+02  0.7816164E-02  0.1226708E+00
        -11   -1    0    0    0    0  0.00000000000E+00  0.00000000000E+00  0.45593999997E+02  0.45594000000E+02  0.51100000000E-03 0.  1.
         11   -1    0    0    0    0 -0.00000000000E+00 -0.00000000000E+00 -0.45593999997E+02  0.45594000000E+02  0.51100000000E-03 0. -1.
    9900012    2    1    2    0    0 -0.79389271591E+01  0.43323883722E+01  0.16397518435E+02  0.72461687916E+02  0.70000153224E+02 0.  0.
         12    1    1    2    0    0  0.79389271591E+01 -0.43323883722E+01 -0.16397518435E+02  0.18726312084E+02  0.00000000000E+00 0. -1.
         11    1    3    3    0    0  0.48486534453E+01 -0.18905722327E+01 -0.13050659813E+02  0.14050032933E+02  0.51100000000E-03 0. -1.
        -11    1    3    3    0    0 -0.26688162822E+02 -0.10223267298E+02  0.13453370368E+02  0.31587440599E+02  0.51100000000E-03 0.  1.
        -12    1    3    3    0    0  0.13900582218E+02  0.16446227903E+02  0.15994807880E+02  0.26824214385E+02  0.00000000000E+00 0.  1.
</event>
<event>
 7    1  0.1351543E-013  0.7246152E+02  0.7816164E-02  0.1226708E+00
        -11   -1    0    0    0    0  0.00000000000E+00  0.00000000000E+00  0.45593999997E+02  0.45594000000E+02  0.51100000000E-03 0. -1.
         11   -1    0    0    0    0 -0.00000000000E+00 -0.00000000000E+00 -0.45593999997E+02  0.45594000000E+02  0.51100000000E-03 0.  1.
    9900012    2    1    2    0    0 -0.61345209097E+00  0.79935139953E+01 -0.16923606423E+02  0.72461520250E+02  0.69999934809E+02 0.  0.
         12    1    1    2    0    0  0.61345209097E+00 -0.79935139953E+01  0.16923606423E+02  0.18726479750E+02  0.00000000000E+00 0. -1.
         11    1    3    3    0    0 -0.82081841360E+01  0.25067972520E+02  0.96910946579E+01  0.28101509729E+02  0.51100000000E-03 0. -1.
        -11    1    3    3    0    0 -0.91602781692E+01 -0.14707714381E+02 -0.76414033579E+01  0.18937227991E+02  0.51100000000E-03 0.  1.
         12    1    3    3    0    0  0.16755010214E+02 -0.23667441439E+01 -0.18973297723E+02  0.25422782530E+02  0.00000000000E+00 0. -1.
</event>
<event>
 7    1  0.1351543E-013  0.7246154E+02  0.7816164E-02  0.1226708E+00
        -11   -1    0    0    0    0  0.00000000000E+00  0.00000000000E+00  0.45593999997E+02  0.45594000000E+02  0.51100000000E-03 0. -1.
         11   -1    0    0    0    0 -0.00000000000E+00 -0.00000000000E+00 -0.45593999997E+02  0.45594000000E+02  0.51100000000E-03 0.  1.
    9900012    2    1    2    0    0  0.14687647522E+02  0.37788798926E+01 -0.10985142669E+02  0.72461540580E+02  0.69999961291E+02 0.  0.
         12    1    1    2    0    0 -0.14687647522E+02 -0.37788798926E+01  0.10985142669E+02  0.18726459420E+02  0.00000000000E+00 0. -1.
         11    1    3    3    0    0  0.19909121065E+02  0.13272698079E+02 -0.14411499206E+02  0.27932578211E+02  0.51100000000E-03 0.  1.
        -11    1    3    3    0    0  0.14640330771E+01 -0.25946330707E+02  0.57572066510E+01  0.26617680190E+02  0.51100000000E-03 0. -1.
         12    1    3    3    0    0 -0.66855066208E+01  0.16452512521E+02 -0.23308501136E+01  0.17911282178E+02  0.00000000000E+00 0. -1.
</event>
<event>
 7    1  0.1351543E-013  0.7246158E+02  0.7816164E-02  0.1226708E+00
        -11   -1    0    0    0    0  0.00000000000E+00  0.00000000000E+00  0.45593999997E+02  0.45594000000E+02  0.51100000000E-03 0.  1.
         11   -1    0    0    0    0 -0.00000000000E+00 -0.00000000000E+00 -0.45593999997E+02  0.45594000000E+02  0.51100000000E-03 0. -1.
    9900012    2    1    2    0    0  0.78634887532E+01  0.57836842253E+00  0.16985576576E+02  0.72461580774E+02  0.70000013652E+02 0.  0.
         12    1    1    2    0    0 -0.78634887532E+01 -0.57836842253E+00 -0.16985576576E+02  0.18726419226E+02  0.00000000000E+00 0. -1.
         11    1    3    3    0    0 -0.11541119218E+01 -0.57688741779E+01 -0.16498921789E+02  0.17516458091E+02  0.51100000000E-03 0. -1.
        -11    1    3    3    0    0  0.23449989359E+02  0.12000400590E+02  0.28149445643E+02  0.38552599206E+02  0.51100000000E-03 0.  1.
         12    1    3    3    0    0 -0.14432388684E+02 -0.56531579900E+01  0.53350527221E+01  0.16392523477E+02  0.00000000000E+00 0. -1.
</event>
<event>
 7    1  0.1351543E-013  0.7246156E+02  0.7816164E-02  0.1226708E+00
        -11   -1    0    0    0    0  0.00000000000E+00  0.00000000000E+00  0.45593999997E+02  0.45594000000E+02  0.51100000000E-03 0. -1.
         11   -1    0    0    0    0 -0.00000000000E+00 -0.00000000000E+00 -0.45593999997E+02  0.45594000000E+02  0.51100000000E-03 0.  1.
    9900012    2    1    2    0    0  0.51262720866E+01 -0.13682761907E+02 -0.11712505402E+02  0.72461563561E+02  0.69999991228E+02 0.  0.
         12    1    1    2    0    0 -0.51262720866E+01  0.13682761907E+02  0.11712505402E+02  0.18726436439E+02  0.00000000000E+00 0. -1.
         11    1    3    3    0    0  0.14627961218E+02 -0.11919765517E+02  0.15876530771E+02  0.24660135623E+02  0.51100000000E-03 0. -1.
        -11    1    3    3    0    0 -0.21205839179E+02 -0.31588475119E+01 -0.45427885282E+01  0.21915813030E+02  0.51100000000E-03 0.  1.
         12    1    3    3    0    0  0.11704150047E+02  0.13958511213E+01 -0.23046247645E+02  0.25885614908E+02  0.00000000000E+00 0. -1.
</event>
<event>
 7    1  0.1351543E-013  0.7246165E+02  0.7816164E-02  0.1226708E+00
        -11   -1    0    0    0    0  0.00000000000E+00  0.00000000000E+00  0.45593999997E+02  0.45594000000E+02  0.51100000000E-03 0.  1.
         11   -1    0    0    0    0 -0.00000000000E+00 -0.00000000000E+00 -0.45593999997E+02  0.45594000000E+02  0.51100000000E-03 0. -1.
    9900012    2    1    2    0    0 -0.13365234848E+02 -0.12989951310E+02 -0.18187502822E+01  0.72461649844E+02  0.70000103629E+02 0.  0.
         12    1    1    2    0    0  0.13365234848E+02  0.12989951310E+02  0.18187502822E+01  0.18726350156E+02  0.00000000000E+00 0. -1.
         11    1    3    3    0    0  0.82107095013E+01 -0.13591547104E+01  0.15275077774E+02  0.17395144533E+02  0.51100000000E-03 0.  1.
        -11    1    3    3    0    0 -0.15915689157E+02 -0.60830132758E+01 -0.33087434264E+02  0.37216804246E+02  0.51100000000E-03 0. -1.
         12    1    3    3    0    0 -0.56602551923E+01 -0.55477833235E+01  0.15993606207E+02  0.17849701066E+02  0.00000000000E+00 0. -1.
</event>
<event>
 7    1  0.1351543E-013  0.7246155E+02  0.7816164E-02  0.1226708E+00
        -11   -1    0    0    0    0  0.00000000000E+00  0.00000000000E+00  0.45593999997E+02  0.45594000000E+02  0.51100000000E-03 0.  1.
         11   -1    0    0    0    0 -0.00000000000E+00 -0.00000000000E+00 -0.45593999997E+02  0.45594000000E+02  0.51100000000E-03 0. -1.
    9900012    2    1    2    0    0  0.61843451879E+01 -0.10013499831E+02 -0.14565837464E+02  0.72461550115E+02  0.69999973713E+02 0.  0.
         12    1    1    2    0    0 -0.61843451879E+01  0.10013499831E+02  0.14565837464E+02  0.18726449885E+02  0.00000000000E+00 0. -1.
         11    1    3    3    0    0  0.70616043053E+01  0.67781830660E+01 -0.22233137431E+02  0.24292435476E+02  0.51100000000E-03 0. -1.
        -11    1    3    3    0    0  0.10987574436E+02 -0.18589068179E+01  0.21764957020E+02  0.24451905465E+02  0.51100000000E-03 0.  1.
        -12    1    3    3    0    0 -0.11864833553E+02 -0.14932776079E+02 -0.14097657052E+02  0.23717209175E+02  0.00000000000E+00 0.  1.
</event>
<event>
 7    1  0.1351543E-013  0.7246161E+02  0.7816164E-02  0.1226708E+00
        -11   -1    0    0    0    0  0.00000000000E+00  0.00000000000E+00  0.45593999997E+02  0.45594000000E+02  0.51100000000E-03 0.  1.
         11   -1    0    0    0    0 -0.00000000000E+00 -0.00000000000E+00 -0.45593999997E+02  0.45594000000E+02  0.51100000000E-03 0. -1.
    9900012    2    1    2    0    0 -0.13806851841E+02  0.73408456941E+01  0.10303417063E+02  0.72461612830E+02  0.70000055410E+02 0.  0.
         12    1    1    2    0    0  0.13806851841E+02 -0.73408456941E+01 -0.10303417063E+02  0.18726387170E+02  0.00000000000E+00 0. -1.
         11    1    3    3    0    0 -0.46852054280E+01  0.63706630768E+01  0.47032895446E+01  0.92009472742E+01  0.51100000000E-03 0. -1.
        -11    1    3    3    0    0  0.12876530795E+02 -0.22938243058E+02  0.13866859567E+02  0.29736473134E+02  0.51100000000E-03 0.  1.
        -12    1    3    3    0    0 -0.21998177208E+02  0.23908425676E+02 -0.82667320485E+01  0.33524192422E+02  0.00000000000E+00 0.  1.
</event>
<event>
 7    1  0.1351543E-013  0.7246156E+02  0.7816164E-02  0.1226708E+00
        -11   -1    0    0    0    0  0.00000000000E+00  0.00000000000E+00  0.45593999997E+02  0.45594000000E+02  0.51100000000E-03 0. -1.
         11   -1    0    0    0    0 -0.00000000000E+00 -0.00000000000E+00 -0.45593999997E+02  0.45594000000E+02  0.51100000000E-03 0.  1.
    9900012    2    1    2    0    0  0.15120031207E+02 -0.10485770258E+02 -0.34803396868E+01  0.72461561846E+02  0.69999988994E+02 0.  0.
         12    1    1    2    0    0 -0.15120031207E+02  0.10485770258E+02  0.34803396868E+01  0.18726438154E+02  0.00000000000E+00 0. -1.
         11    1    3    3    0    0  0.25856968507E+01 -0.50544665740E+00  0.40129649038E+01  0.48005408140E+01  0.51100000000E-03 0. -1.
        -11    1    3    3    0    0 -0.20254623242E+02  0.15668397868E+02 -0.23399580877E+01  0.25714273440E+02  0.51100000000E-03 0.  1.
        -12    1    3    3    0    0  0.32788957599E+02 -0.25648721468E+02 -0.51533465029E+01  0.41946747592E+02  0.00000000000E+00 0.  1.
</event>
<event>
 7    1  0.1351543E-013  0.7246157E+02  0.7816164E-02  0.1226708E+00
        -11   -1    0    0    0    0  0.00000000000E+00  0.00000000000E+00  0.45593999997E+02  0.45594000000E+02  0.51100000000E-03 0. -1.
         11   -1    0    0    0    0 -0.00000000000E+00 -0.00000000000E+00 -0.45593999997E+02  0.45594000000E+02  0.51100000000E-03 0.  1.
    9900012    2    1    2    0    0  0.17152468359E+02  0.72722076745E+01  0.18939415991E+01  0.72461569747E+02  0.69999999287E+02 0.  0.
         12    1    1    2    0    0 -0.17152468359E+02 -0.72722076745E+01 -0.18939415991E+01  0.18726430253E+02  0.00000000000E+00 0. -1.
         11    1    3    3    0    0  0.26305744342E+00  0.18497431434E+02  0.23760675971E+02  0.30113018642E+02  0.51100000000E-03 0. -1.
        -11    1    3    3    0    0  0.43802787194E+01 -0.43168415683E+01 -0.26594850408E+02  0.27296667035E+02  0.51100000000E-03 0.  1.
        -12    1    3    3    0    0  0.12509132196E+02 -0.69083821913E+01  0.47281160361E+01  0.15051884070E+02  0.00000000000E+00 0.  1.
</event>
<event>
 7    1  0.1351543E-013  0.7246163E+02  0.7816164E-02  0.1226708E+00
        -11   -1    0    0    0    0  0.00000000000E+00  0.00000000000E+00  0.45593999997E+02  0.45594000000E+02  0.51100000000E-03 0.  1.
         11   -1    0    0    0    0 -0.00000000000E+00 -0.00000000000E+00 -0.45593999997E+02  0.45594000000E+02  0.51100000000E-03 0. -1.
    9900012    2    1    2    0    0  0.99600906252E+01  0.54346329023E+00  0.15848605672E+02  0.72461626636E+02  0.70000073395E+02 0.  0.
         12    1    1    2    0    0 -0.99600906252E+01 -0.54346329023E+00 -0.15848605672E+02  0.18726373364E+02  0.00000000000E+00 0. -1.
         11    1    3    3    0    0  0.19031631667E+02 -0.10324587535E+02  0.29766107759E+02  0.36807897020E+02  0.51100000000E-03 0.  1.
        -11    1    3    3    0    0 -0.12483148793E+02  0.19146276458E+02 -0.13800128755E+02  0.26699296994E+02  0.51100000000E-03 0. -1.
         12    1    3    3    0    0  0.34116077516E+01 -0.82782256331E+01 -0.11737333127E+00  0.89544326220E+01  0.00000000000E+00 0. -1.
</event>
<event>
 7    1  0.1351543E-013  0.7246167E+02  0.7816164E-02  0.1226708E+00
        -11   -1    0    0    0    0  0.00000000000E+00  0.00000000000E+00  0.45593999997E+02  0.45594000000E+02  0.51100000000E-03 0. -1.
         11   -1    0    0    0    0 -0.00000000000E+00 -0.00000000000E+00 -0.45593999997E+02  0.45594000000E+02  0.51100000000E-03 0.  1.
    9900012    2    1    2    0    0 -0.69678720100E+01 -0.40226604219E+01 -0.16909826933E+02  0.72461674036E+02  0.70000135142E+02 0.  0.
         12    1    1    2    0    0  0.69678720100E+01  0.40226604219E+01  0.16909826933E+02  0.18726325964E+02  0.00000000000E+00 0. -1.
         11    1    3    3    0    0  0.17134038633E+02  0.11508786452E+02 -0.11653202967E+02  0.23702839179E+02  0.51100000000E-03 0. -1.
        -11    1    3    3    0    0 -0.27355735753E+02 -0.14169363527E+02  0.10549593440E+02  0.32563799891E+02  0.51100000000E-03 0.  1.
         12    1    3    3    0    0  0.32538251093E+01 -0.13620833471E+01 -0.15806217406E+02  0.16195034966E+02  0.00000000000E+00 0. -1.
</event>
<event>
 7    1  0.1351543E-013  0.7246158E+02  0.7816164E-02  0.1226708E+00
        -11   -1    0    0    0    0  0.00000000000E+00  0.00000000000E+00  0.45593999997E+02  0.45594000000E+02  0.51100000000E-03 0.  1.
         11   -1    0    0    0    0 -0.00000000000E+00 -0.00000000000E+00 -0.45593999997E+02  0.45594000000E+02  0.51100000000E-03 0. -1.
    9900012    2    1    2    0    0  0.79810259049E+01 -0.13725505425E+01  0.16884844342E+02  0.72461584488E+02  0.70000018489E+02 0.  0.
         12    1    1    2    0    0 -0.79810259049E+01  0.13725505425E+01 -0.16884844342E+02  0.18726415512E+02  0.00000000000E+00 0. -1.
         11    1    3    3    0    0 -0.12661438376E+02  0.17839261186E+02  0.22292686936E+02  0.31233237945E+02  0.51100000000E-03 0. -1.
        -11    1    3    3    0    0  0.28547500461E+01 -0.20267673269E+02 -0.10068135429E+02  0.22809987480E+02  0.51100000000E-03 0.  1.
        -12    1    3    3    0    0  0.17787714234E+02  0.10558615402E+01  0.46602928346E+01  0.18418359063E+02  0.00000000000E+00 0.  1.
</event>
<event>
 7    1  0.1351543E-013  0.7246166E+02  0.7816164E-02  0.1226708E+00
        -11   -1    0    0    0    0  0.00000000000E+00  0.00000000000E+00  0.45593999997E+02  0.45594000000E+02  0.51100000000E-03 0.  1.
         11   -1    0    0    0    0 -0.00000000000E+00 -0.00000000000E+00 -0.45593999997E+02  0.45594000000E+02  0.51100000000E-03 0. -1.
    9900012    2    1    2    0    0  0.14434758110E+01 -0.81011548555E+01  0.16821520015E+02  0.72461658446E+02  0.70000114833E+02 0.  0.
         12    1    1    2    0    0 -0.14434758110E+01  0.81011548555E+01 -0.16821520015E+02  0.18726341554E+02  0.00000000000E+00 0. -1.
         11    1    3    3    0    0  0.23405678373E+02 -0.16798717890E+02  0.13194926019E+02  0.31687991034E+02  0.51100000000E-03 0. -1.
        -11    1    3    3    0    0 -0.10336826410E+02  0.63435517560E+01  0.18269988008E+02  0.21929046746E+02  0.51100000000E-03 0.  1.
         12    1    3    3    0    0 -0.11625376152E+02  0.23540112789E+01 -0.14643394013E+02  0.18844620665E+02  0.00000000000E+00 0. -1.
</event>
<event>
 7    1  0.1351543E-013  0.7246156E+02  0.7816164E-02  0.1226708E+00
        -11   -1    0    0    0    0  0.00000000000E+00  0.00000000000E+00  0.45593999997E+02  0.45594000000E+02  0.51100000000E-03 0. -1.
         11   -1    0    0    0    0 -0.00000000000E+00 -0.00000000000E+00 -0.45593999997E+02  0.45594000000E+02  0.51100000000E-03 0.  1.
    9900012    2    1    2    0    0  0.59656329389E+01 -0.60603254563E+00 -0.17740444884E+02  0.72461563166E+02  0.69999990714E+02 0.  0.
         12    1    1    2    0    0 -0.59656329389E+01  0.60603254563E+00  0.17740444884E+02  0.18726436834E+02  0.00000000000E+00 0. -1.
         11    1    3    3    0    0 -0.39327191653E+01 -0.75172874709E+01  0.12896386946E+02  0.15436731762E+02  0.51100000000E-03 0. -1.
        -11    1    3    3    0    0  0.24158902494E+02  0.16385560111E+02 -0.26466715622E+02  0.39403377850E+02  0.51100000000E-03 0.  1.
         12    1    3    3    0    0 -0.14260550390E+02 -0.94743051861E+01 -0.41701162084E+01  0.17621453555E+02  0.00000000000E+00 0. -1.
</event>
<event>
 7    1  0.1351543E-013  0.7246155E+02  0.7816164E-02  0.1226708E+00
        -11   -1    0    0    0    0  0.00000000000E+00  0.00000000000E+00  0.45593999997E+02  0.45594000000E+02  0.51100000000E-03 0.  1.
         11   -1    0    0    0    0 -0.00000000000E+00 -0.00000000000E+00 -0.45593999997E+02  0.45594000000E+02  0.51100000000E-03 0. -1.
    9900012    2    1    2    0    0  0.35354052720E+01  0.78963870978E+01  0.16608072447E+02  0.72461545717E+02  0.69999967983E+02 0.  0.
         12    1    1    2    0    0 -0.35354052720E+01 -0.78963870978E+01 -0.16608072447E+02  0.18726454283E+02  0.00000000000E+00 0. -1.
         11    1    3    3    0    0 -0.44283781315E+01 -0.83849254526E+01  0.13632793227E+01  0.95799811322E+01  0.51100000000E-03 0. -1.
        -11    1    3    3    0    0  0.30757162194E+02  0.21202995205E+02  0.12543337152E+02  0.39406919939E+02  0.51100000000E-03 0.  1.
        -12    1    3    3    0    0 -0.22793378791E+02 -0.49216826542E+01  0.27014559720E+01  0.23474644645E+02  0.00000000000E+00 0.  1.
</event>
<event>
 7    1  0.1351543E-013  0.7246157E+02  0.7816164E-02  0.1226708E+00
        -11   -1    0    0    0    0  0.00000000000E+00  0.00000000000E+00  0.45593999997E+02  0.45594000000E+02  0.51100000000E-03 0.  1.
         11   -1    0    0    0    0 -0.00000000000E+00 -0.00000000000E+00 -0.45593999997E+02  0.45594000000E+02  0.51100000000E-03 0. -1.
    9900012    2    1    2    0    0  0.24023481820E+01  0.10695529142E+02  0.15182669924E+02  0.72461572513E+02  0.70000002890E+02 0.  0.
         12    1    1    2    0    0 -0.24023481820E+01 -0.10695529142E+02 -0.15182669924E+02  0.18726427487E+02  0.00000000000E+00 0. -1.
         11    1    3    3    0    0 -0.81283351537E+01  0.32724684708E+01 -0.20709882008E+02  0.22487287416E+02  0.51100000000E-03 0. -1.
        -11    1    3    3    0    0 -0.70670072935E+01 -0.43938234990E+01  0.24573639438E+02  0.25944402721E+02  0.51100000000E-03 0.  1.
         12    1    3    3    0    0  0.17597690629E+02  0.11816884170E+02  0.11318912494E+02  0.24029882376E+02  0.00000000000E+00 0. -1.
</event>
<event>
 7    1  0.1351543E-013  0.7246155E+02  0.7816164E-02  0.1226708E+00
        -11   -1    0    0    0    0  0.00000000000E+00  0.00000000000E+00  0.45593999997E+02  0.45594000000E+02  0.51100000000E-03 0.  1.
         11   -1    0    0    0    0 -0.00000000000E+00 -0.00000000000E+00 -0.45593999997E+02  0.45594000000E+02  0.51100000000E-03 0. -1.
    9900012    2    1    2    0    0  0.94965004592E+01 -0.13104540384E+02  0.94216479931E+01  0.72461549441E+02  0.69999972834E+02 0.  0.
         12    1    1    2    0    0 -0.94965004592E+01  0.13104540384E+02 -0.94216479931E+01  0.18726450559E+02  0.00000000000E+00 0. -1.
         11    1    3    3    0    0 -0.16518143113E+02 -0.50759844619E+01  0.16721428302E+02  0.24046222881E+02  0.51100000000E-03 0. -1.
        -11    1    3    3    0    0  0.21325604290E+02 -0.53846962726E+01 -0.22996266604E+02  0.31821449217E+02  0.51100000000E-03 0.  1.
        -12    1    3    3    0    0  0.46890392815E+01 -0.26438596492E+01  0.15696486296E+02  0.16593877342E+02  0.00000000000E+00 0.  1.
</event>
<event>
 7    1  0.1351543E-013  0.7246158E+02  0.7816164E-02  0.1226708E+00
        -11   -1    0    0    0    0  0.00000000000E+00  0.00000000000E+00  0.45593999997E+02  0.45594000000E+02  0.51100000000E-03 0.  1.
         11   -1    0    0    0    0 -0.00000000000E+00 -0.00000000000E+00 -0.45593999997E+02  0.45594000000E+02  0.51100000000E-03 0. -1.
    9900012    2    1    2    0    0 -0.96594891616E+01  0.15630771665E+02  0.36127456689E+01  0.72461583232E+02  0.70000016854E+02 0.  0.
         12    1    1    2    0    0  0.96594891616E+01 -0.15630771665E+02 -0.36127456689E+01  0.18726416768E+02  0.00000000000E+00 0. -1.
         11    1    3    3    0    0 -0.26954178060E+02 -0.19226523931E+02  0.43531641192E+01  0.33393666697E+02  0.51100000000E-03 0. -1.
        -11    1    3    3    0    0  0.49409445438E+01  0.76290699950E+01 -0.11758679115E+01  0.91650590604E+01  0.51100000000E-03 0.  1.
         12    1    3    3    0    0  0.12353744355E+02  0.27228225600E+02  0.43544946129E+00  0.29902857475E+02  0.00000000000E+00 0. -1.
</event>
<event>
 7    1  0.1351543E-013  0.7246157E+02  0.7816164E-02  0.1226708E+00
        -11   -1    0    0    0    0  0.00000000000E+00  0.00000000000E+00  0.45593999997E+02  0.45594000000E+02  0.51100000000E-03 0. -1.
         11   -1    0    0    0    0 -0.00000000000E+00 -0.00000000000E+00 -0.45593999997E+02  0.45594000000E+02  0.51100000000E-03 0.  1.
    9900012    2    1    2    0    0 -0.91843615407E+00 -0.12452794720E+02 -0.13955777343E+02  0.72461565674E+02  0.69999993982E+02 0.  0.
         12    1    1    2    0    0  0.91843615407E+00  0.12452794720E+02  0.13955777343E+02  0.18726434326E+02  0.00000000000E+00 0. -1.
         11    1    3    3    0    0  0.16533626557E+02  0.74580145207E+01  0.13643790903E+02  0.22696603671E+02  0.51100000000E-03 0. -1.
        -11    1    3    3    0    0 -0.68394020768E+01  0.80185979557E+01 -0.12300208575E+02  0.16197853722E+02  0.51100000000E-03 0.  1.
         12    1    3    3    0    0 -0.10612660634E+02 -0.27929407196E+02 -0.15299359671E+02  0.33567108282E+02  0.00000000000E+00 0. -1.
</event>
<event>
 8    1  0.1351543E-013  0.7246155E+02  0.7816164E-02  0.1226708E+00
        -11   -1    0    0    0    0  0.00000000000E+00  0.00000000000E+00  0.45593999997E+02  0.45594000000E+02  0.51100000000E-03 0.  1.
         11   -1    0    0    0    0 -0.00000000000E+00 -0.00000000000E+00 -0.45593999997E+02  0.45594000000E+02  0.51100000000E-03 0. -1.
    9900012    2    1    2    0    0  0.13641694148E+02 -0.97128923204E+01 -0.83811577563E+01  0.72461550743E+02  0.69999974530E+02 0.  0.
        -24    2    3    3    0    0  0.16383321716E+02  0.75498590445E+01 -0.76487666606E+01  0.54967108671E+02  0.51356263515E+02 0.  0.
         12    1    1    2    0    0 -0.13641694148E+02  0.97128923204E+01  0.83811577563E+01  0.18726449257E+02  0.00000000000E+00 0. -1.
         11    1    4    4    0    0  0.89423272647E+01  0.26099501382E+02  0.89314737222E+01  0.28998627768E+02  0.51100000000E-03 0. -1.
        -11    1    3    3    0    0 -0.27416275680E+01 -0.17262751365E+02 -0.73239109566E+00  0.17494442071E+02  0.51100000000E-03 0.  1.
        -12    1    4    4    0    0  0.74409944512E+01 -0.18549642338E+02 -0.16580240383E+02  0.25968480903E+02  0.00000000000E+00 0.  1.
</event>
<event>
 7    1  0.1351543E-013  0.7246154E+02  0.7816164E-02  0.1226708E+00
        -11   -1    0    0    0    0  0.00000000000E+00  0.00000000000E+00  0.45593999997E+02  0.45594000000E+02  0.51100000000E-03 0.  1.
         11   -1    0    0    0    0 -0.00000000000E+00 -0.00000000000E+00 -0.45593999997E+02  0.45594000000E+02  0.51100000000E-03 0. -1.
    9900012    2    1    2    0    0  0.92781562784E+01  0.97974199704E+01  0.12984859353E+02  0.72461542929E+02  0.69999964352E+02 0.  0.
         12    1    1    2    0    0 -0.92781562784E+01 -0.97974199704E+01 -0.12984859353E+02  0.18726457071E+02  0.00000000000E+00 0. -1.
         11    1    3    3    0    0  0.34236773325E+01 -0.25783397913E+01  0.13341007982E+02  0.14012562107E+02  0.51100000000E-03 0. -1.
        -11    1    3    3    0    0  0.13716381116E+02 -0.71492033177E+00 -0.25539019685E+02  0.28998133539E+02  0.51100000000E-03 0.  1.
        -12    1    3    3    0    0 -0.78619021700E+01  0.13090680093E+02  0.25182871056E+02  0.29450847283E+02  0.00000000000E+00 0.  1.
</event>
<event>
 7    1  0.1351543E-013  0.7246157E+02  0.7816164E-02  0.1226708E+00
        -11   -1    0    0    0    0  0.00000000000E+00  0.00000000000E+00  0.45593999997E+02  0.45594000000E+02  0.51100000000E-03 0. -1.
         11   -1    0    0    0    0 -0.00000000000E+00 -0.00000000000E+00 -0.45593999997E+02  0.45594000000E+02  0.51100000000E-03 0.  1.
    9900012    2    1    2    0    0 -0.17106390456E+01 -0.13090800361E+02 -0.13280953659E+02  0.72461572948E+02  0.70000003457E+02 0.  0.
         12    1    1    2    0    0  0.17106390456E+01  0.13090800361E+02  0.13280953659E+02  0.18726427052E+02  0.00000000000E+00 0. -1.
         11    1    3    3    0    0 -0.17274302108E+01 -0.36620191566E+02 -0.84681053005E+01  0.37626204341E+02  0.51100000000E-03 0. -1.
        -11    1    3    3    0    0 -0.17552193423E+01  0.61729055462E+01 -0.13793194819E+02  0.15213079287E+02  0.51100000000E-03 0.  1.
         12    1    3    3    0    0  0.17720105076E+01  0.17356485658E+02  0.89803464602E+01  0.19622289321E+02  0.00000000000E+00 0. -1.
</event>
<event>
 7    1  0.1351543E-013  0.7246152E+02  0.7816164E-02  0.1226708E+00
        -11   -1    0    0    0    0  0.00000000000E+00  0.00000000000E+00  0.45593999997E+02  0.45594000000E+02  0.51100000000E-03 0.  1.
         11   -1    0    0    0    0 -0.00000000000E+00 -0.00000000000E+00 -0.45593999997E+02  0.45594000000E+02  0.51100000000E-03 0. -1.
    9900012    2    1    2    0    0  0.15737550571E+01 -0.92853187008E+01  0.16186013907E+02  0.72461524236E+02  0.69999940000E+02 0.  0.
         12    1    1    2    0    0 -0.15737550571E+01  0.92853187008E+01 -0.16186013907E+02  0.18726475764E+02  0.00000000000E+00 0. -1.
         11    1    3    3    0    0  0.68304074419E+01 -0.19656908434E+02 -0.12338605942E+02  0.24192761559E+02  0.51100000000E-03 0. -1.
        -11    1    3    3    0    0 -0.11288288310E+02  0.61115327648E+01  0.35721209352E+02  0.37957622206E+02  0.51100000000E-03 0.  1.
        -12    1    3    3    0    0  0.60316359252E+01  0.42600569686E+01 -0.71965895042E+01  0.10311140470E+02  0.00000000000E+00 0.  1.
</event>
<event>
 7    1  0.1351543E-013  0.7246156E+02  0.7816164E-02  0.1226708E+00
        -11   -1    0    0    0    0  0.00000000000E+00  0.00000000000E+00  0.45593999997E+02  0.45594000000E+02  0.51100000000E-03 0.  1.
         11   -1    0    0    0    0 -0.00000000000E+00 -0.00000000000E+00 -0.45593999997E+02  0.45594000000E+02  0.51100000000E-03 0. -1.
    9900012    2    1    2    0    0  0.12328273597E+02  0.47018727974E+01  0.13288545083E+02  0.72461564992E+02  0.69999993093E+02 0.  0.
         12    1    1    2    0    0 -0.12328273597E+02 -0.47018727974E+01 -0.13288545083E+02  0.18726435008E+02  0.00000000000E+00 0. -1.
         11    1    3    3    0    0  0.68896289874E+01  0.81844120990E+01  0.81216455955E+01  0.13431780092E+02  0.51100000000E-03 0. -1.
        -11    1    3    3    0    0 -0.23346248149E+02 -0.12981921236E+02 -0.47603711265E+01  0.27133719154E+02  0.51100000000E-03 0.  1.
        -12    1    3    3    0    0  0.28784892759E+02  0.94993819339E+01  0.99272706139E+01  0.31896065746E+02  0.00000000000E+00 0.  1.
</event>
<event>
 7    1  0.1351543E-013  0.7246159E+02  0.7816164E-02  0.1226708E+00
        -11   -1    0    0    0    0  0.00000000000E+00  0.00000000000E+00  0.45593999997E+02  0.45594000000E+02  0.51100000000E-03 0.  1.
         11   -1    0    0    0    0 -0.00000000000E+00 -0.00000000000E+00 -0.45593999997E+02  0.45594000000E+02  0.51100000000E-03 0. -1.
    9900012    2    1    2    0    0  0.11335867032E+01 -0.18035936958E+02  0.49089939160E+01  0.72461594524E+02  0.70000031564E+02 0.  0.
         12    1    1    2    0    0 -0.11335867032E+01  0.18035936958E+02 -0.49089939160E+01  0.18726405476E+02  0.00000000000E+00 0. -1.
         11    1    3    3    0    0  0.79673305538E+01  0.16437714913E+02 -0.66365412365E+01  0.19435032996E+02  0.51100000000E-03 0. -1.
        -11    1    3    3    0    0 -0.84860848093E+01 -0.26645011936E+02 -0.10270051772E+02  0.29790002688E+02  0.51100000000E-03 0.  1.
        -12    1    3    3    0    0  0.16523409587E+01 -0.78286399352E+01  0.21815586925E+02  0.23236558840E+02  0.00000000000E+00 0.  1.
</event>
<event>
 7    1  0.1351543E-013  0.7246178E+02  0.7816164E-02  0.1226707E+00
        -11   -1    0    0    0    0  0.00000000000E+00  0.00000000000E+00  0.45593999997E+02  0.45594000000E+02  0.51100000000E-03 0.  1.
         11   -1    0    0    0    0 -0.00000000000E+00 -0.00000000000E+00 -0.45593999997E+02  0.45594000000E+02  0.51100000000E-03 0. -1.
    9900012    2    1    2    0    0  0.12713171843E+02 -0.92281434132E+01  0.10192551745E+02  0.72461775601E+02  0.70000267450E+02 0.  0.
         12    1    1    2    0    0 -0.12713171843E+02  0.92281434132E+01 -0.10192551745E+02  0.18726224399E+02  0.00000000000E+00 0. -1.
         11    1    3    3    0    0 -0.42566663748E+01 -0.16629813142E+02 -0.99884927675E+01  0.19860510612E+02  0.51100000000E-03 0. -1.
        -11    1    3    3    0    0  0.32034905781E+02  0.92463788429E+01  0.12691885979E+02  0.35676528420E+02  0.51100000000E-03 0.  1.
        -12    1    3    3    0    0 -0.15065067563E+02 -0.18447091144E+01  0.74891585332E+01  0.16924736569E+02  0.00000000000E+00 0.  1.
</event>
<event>
 7    1  0.1351543E-013  0.7246158E+02  0.7816164E-02  0.1226708E+00
        -11   -1    0    0    0    0  0.00000000000E+00  0.00000000000E+00  0.45593999997E+02  0.45594000000E+02  0.51100000000E-03 0.  1.
         11   -1    0    0    0    0 -0.00000000000E+00 -0.00000000000E+00 -0.45593999997E+02  0.45594000000E+02  0.51100000000E-03 0. -1.
    9900012    2    1    2    0    0 -0.12791519779E+01  0.16190185433E+02  0.93231144585E+01  0.72461580232E+02  0.70000012945E+02 0.  0.
         12    1    1    2    0    0  0.12791519779E+01 -0.16190185433E+02 -0.93231144585E+01  0.18726419768E+02  0.00000000000E+00 0. -1.
         11    1    3    3    0    0  0.42334665984E+01  0.11796415121E+02 -0.25403166568E+01  0.12787918444E+02  0.51100000000E-03 0. -1.
        -11    1    3    3    0    0 -0.22902812653E+01 -0.24510967131E+02  0.17296730465E+02  0.30086704422E+02  0.51100000000E-03 0.  1.
        -12    1    3    3    0    0 -0.32223373109E+01  0.28904737443E+02 -0.54332993493E+01  0.29586957366E+02  0.00000000000E+00 0.  1.
</event>
<event>
 7    1  0.1351543E-013  0.7246157E+02  0.7816164E-02  0.1226708E+00
        -11   -1    0    0    0    0  0.00000000000E+00  0.00000000000E+00  0.45593999997E+02  0.45594000000E+02  0.51100000000E-03 0.  1.
         11   -1    0    0    0    0 -0.00000000000E+00 -0.00000000000E+00 -0.45593999997E+02  0.45594000000E+02  0.51100000000E-03 0. -1.
    9900012    2    1    2    0    0 -0.10160320183E+02  0.13496847796E+02  0.80797308893E+01  0.72461573275E+02  0.70000003883E+02 0.  0.
         12    1    1    2    0    0  0.10160320183E+02 -0.13496847796E+02 -0.80797308893E+01  0.18726426725E+02  0.00000000000E+00 0. -1.
         11    1    3    3    0    0  0.22972871644E+02  0.17894863589E+02 -0.20790842411E+01  0.29194204321E+02  0.51100000000E-03 0. -1.
        -11    1    3    3    0    0 -0.30603704308E+02  0.61391709679E+01  0.79072418370E+01  0.32199388368E+02  0.51100000000E-03 0.  1.
         12    1    3    3    0    0 -0.25294875188E+01 -0.10537186761E+02  0.22515732933E+01  0.11067980585E+02  0.00000000000E+00 0. -1.
</event>
<event>
 7    1  0.1351543E-013  0.7246160E+02  0.7816164E-02  0.1226708E+00
        -11   -1    0    0    0    0  0.00000000000E+00  0.00000000000E+00  0.45593999997E+02  0.45594000000E+02  0.51100000000E-03 0.  1.
         11   -1    0    0    0    0 -0.00000000000E+00 -0.00000000000E+00 -0.45593999997E+02  0.45594000000E+02  0.51100000000E-03 0. -1.
    9900012    2    1    2    0    0 -0.79657131289E+01  0.33176130894E+01  0.16619840160E+02  0.72461595401E+02  0.70000032706E+02 0.  0.
         12    1    1    2    0    0  0.79657131289E+01 -0.33176130894E+01 -0.16619840160E+02  0.18726404599E+02  0.00000000000E+00 0. -1.
         11    1    3    3    0    0  0.13562743198E+02 -0.63428515603E+01  0.15015367814E+02  0.21204740975E+02  0.51100000000E-03 0. -1.
        -11    1    3    3    0    0 -0.19534388564E+02  0.26957727638E+02  0.45395309190E+01  0.33599386263E+02  0.51100000000E-03 0.  1.
        -12    1    3    3    0    0 -0.19940677624E+01 -0.17297262989E+02 -0.29350585727E+01  0.17657468164E+02  0.00000000000E+00 0.  1.
</event>
<event>
 7    1  0.1351543E-013  0.7246156E+02  0.7816164E-02  0.1226708E+00
        -11   -1    0    0    0    0  0.00000000000E+00  0.00000000000E+00  0.45593999997E+02  0.45594000000E+02  0.51100000000E-03 0. -1.
         11   -1    0    0    0    0 -0.00000000000E+00 -0.00000000000E+00 -0.45593999997E+02  0.45594000000E+02  0.51100000000E-03 0.  1.
    9900012    2    1    2    0    0 -0.10095285105E+02  0.89945892026E+01  0.12956165766E+02  0.72461557529E+02  0.69999983370E+02 0.  0.
         12    1    1    2    0    0  0.10095285105E+02 -0.89945892026E+01 -0.12956165766E+02  0.18726442471E+02  0.00000000000E+00 0. -1.
         11    1    3    3    0    0 -0.26076740279E+01 -0.16943101377E+02  0.87525215606E+00  0.17164926877E+02  0.51100000000E-03 0. -1.
        -11    1    3    3    0    0 -0.18628988623E+02  0.24719159957E+02  0.23826845232E+02  0.39061421378E+02  0.51100000000E-03 0.  1.
        -12    1    3    3    0    0  0.11141377546E+02  0.12185306225E+01 -0.11745931622E+02  0.16235209274E+02  0.00000000000E+00 0.  1.
</event>
<event>
 7    1  0.1351543E-013  0.7246157E+02  0.7816164E-02  0.1226708E+00
        -11   -1    0    0    0    0  0.00000000000E+00  0.00000000000E+00  0.45593999997E+02  0.45594000000E+02  0.51100000000E-03 0.  1.
         11   -1    0    0    0    0 -0.00000000000E+00 -0.00000000000E+00 -0.45593999997E+02  0.45594000000E+02  0.51100000000E-03 0. -1.
    9900012    2    1    2    0    0 -0.72239041243E+01 -0.55456006517E+01  0.16362784211E+02  0.72461569894E+02  0.69999999479E+02 0.  0.
         12    1    1    2    0    0  0.72239041243E+01  0.55456006517E+01 -0.16362784211E+02  0.18726430106E+02  0.00000000000E+00 0. -1.
         11    1    3    3    0    0  0.18486438026E+02  0.88077207101E+01  0.93388684484E+01  0.22506416844E+02  0.51100000000E-03 0.  1.
        -11    1    3    3    0    0 -0.34702695007E+02 -0.30613569191E+01  0.29818187166E+01  0.34964842200E+02  0.51100000000E-03 0. -1.
         12    1    3    3    0    0  0.89923528568E+01 -0.11291964443E+02  0.40420970455E+01  0.14990310851E+02  0.00000000000E+00 0. -1.
</event>
<event>
 7    1  0.1351543E-013  0.7246158E+02  0.7816164E-02  0.1226708E+00
        -11   -1    0    0    0    0  0.00000000000E+00  0.00000000000E+00  0.45593999997E+02  0.45594000000E+02  0.51100000000E-03 0. -1.
         11   -1    0    0    0    0 -0.00000000000E+00 -0.00000000000E+00 -0.45593999997E+02  0.45594000000E+02  0.51100000000E-03 0.  1.
    9900012    2    1    2    0    0 -0.12901673785E+02 -0.13550387581E+02 -0.78264649783E+00  0.72461582147E+02  0.70000015441E+02 0.  0.
         12    1    1    2    0    0  0.12901673785E+02  0.13550387581E+02  0.78264649783E+00  0.18726417853E+02  0.00000000000E+00 0. -1.
         11    1    3    3    0    0  0.31591330615E+01 -0.24971606399E+02 -0.29125628109E+01  0.25338592507E+02  0.51100000000E-03 0.  1.
        -11    1    3    3    0    0  0.58531301700E+01  0.21940532472E+02 -0.15012673636E+00  0.22708338473E+02  0.51100000000E-03 0. -1.
        -12    1    3    3    0    0 -0.21913937016E+02 -0.10519313654E+02  0.22800430494E+01  0.24414651167E+02  0.00000000000E+00 0.  1.
</event>
<event>
 7    1  0.1351543E-013  0.7246159E+02  0.7816164E-02  0.1226708E+00
        -11   -1    0    0    0    0  0.00000000000E+00  0.00000000000E+00  0.45593999997E+02  0.45594000000E+02  0.51100000000E-03 0.  1.
         11   -1    0    0    0    0 -0.00000000000E+00 -0.00000000000E+00 -0.45593999997E+02  0.45594000000E+02  0.51100000000E-03 0. -1.
    9900012    2    1    2    0    0 -0.76154600048E+01 -0.26743319272E+01  0.16897669979E+02  0.72461587288E+02  0.70000022138E+02 0.  0.
         12    1    1    2    0    0  0.76154600048E+01  0.26743319272E+01 -0.16897669979E+02  0.18726412712E+02  0.00000000000E+00 0. -1.
         11    1    3    3    0    0 -0.17776830765E+02  0.15545833120E+02  0.26321426884E+02  0.35362496418E+02  0.51100000000E-03 0.  1.
        -11    1    3    3    0    0 -0.26748428816E+01 -0.22192034391E+02 -0.45874305968E+01  0.22818538397E+02  0.51100000000E-03 0. -1.
         12    1    3    3    0    0  0.12836213642E+02  0.39718693443E+01 -0.48363263090E+01  0.14280552472E+02  0.00000000000E+00 0. -1.
</event>
<event>
 7    1  0.1351543E-013  0.7246159E+02  0.7816164E-02  0.1226708E+00
        -11   -1    0    0    0    0  0.00000000000E+00  0.00000000000E+00  0.45593999997E+02  0.45594000000E+02  0.51100000000E-03 0. -1.
         11   -1    0    0    0    0 -0.00000000000E+00 -0.00000000000E+00 -0.45593999997E+02  0.45594000000E+02  0.51100000000E-03 0.  1.
    9900012    2    1    2    0    0  0.52890077383E+01  0.17921907003E+02 -0.12288349244E+01  0.72461591141E+02  0.70000027157E+02 0.  0.
         12    1    1    2    0    0 -0.52890077383E+01 -0.17921907003E+02  0.12288349244E+01  0.18726408859E+02  0.00000000000E+00 0. -1.
         11    1    3    3    0    0 -0.20273057127E+02  0.11924602507E+02 -0.48089835831E+01  0.24006651445E+02  0.51100000000E-03 0. -1.
        -11    1    3    3    0    0  0.22555055184E+02 -0.28424283387E+01  0.19531675325E+02  0.29971590790E+02  0.51100000000E-03 0.  1.
        -12    1    3    3    0    0  0.30070096813E+01  0.88397328344E+01 -0.15951526666E+02  0.18483348906E+02  0.00000000000E+00 0.  1.
</event>
<event>
 7    1  0.1451094E-013  0.7246153E+02  0.7816164E-02  0.1226708E+00
        -11   -1    0    0    0    0  0.00000000000E+00  0.00000000000E+00  0.45593999997E+02  0.45594000000E+02  0.51100000000E-03 0.  1.
         11   -1    0    0    0    0 -0.00000000000E+00 -0.00000000000E+00 -0.45593999997E+02  0.45594000000E+02  0.51100000000E-03 0. -1.
    9900012    2    1    2    0    0  0.41335417838E+01 -0.18051625409E+02  0.27808733015E+01  0.72461531996E+02  0.69999950110E+02 0.  0.
         12    1    1    2    0    0 -0.41335417838E+01  0.18051625409E+02 -0.27808733015E+01  0.18726468004E+02  0.00000000000E+00 0. -1.
         11    1    3    3    0    0 -0.16001813036E+02 -0.17790373110E+02  0.15766665871E+02  0.28655595418E+02  0.51100000000E-03 0. -1.
        -11    1    3    3    0    0  0.20465673187E+02  0.13389833025E+02  0.70850486473E+00  0.24466985651E+02  0.51100000000E-03 0.  1.
         12    1    3    3    0    0 -0.33031836757E+00 -0.13651085324E+02 -0.13694297434E+02  0.19338950927E+02  0.00000000000E+00 0. -1.
</event>
<event>
 7    1  0.1351543E-013  0.7246156E+02  0.7816164E-02  0.1226708E+00
        -11   -1    0    0    0    0  0.00000000000E+00  0.00000000000E+00  0.45593999997E+02  0.45594000000E+02  0.51100000000E-03 0. -1.
         11   -1    0    0    0    0 -0.00000000000E+00 -0.00000000000E+00 -0.45593999997E+02  0.45594000000E+02  0.51100000000E-03 0.  1.
    9900012    2    1    2    0    0 -0.28790038741E+01  0.70602370653E+01 -0.17103914945E+02  0.72461561012E+02  0.69999987908E+02 0.  0.
         12    1    1    2    0    0  0.28790038741E+01 -0.70602370653E+01  0.17103914945E+02  0.18726438988E+02  0.00000000000E+00 0. -1.
         11    1    3    3    0    0 -0.25110854419E+02 -0.11643681288E+02  0.11056249907E+02  0.29805552936E+02  0.51100000000E-03 0. -1.
        -11    1    3    3    0    0  0.10485393849E+02  0.85225015547E+00 -0.11274407695E+02  0.15420184293E+02  0.51100000000E-03 0.  1.
         12    1    3    3    0    0  0.11746456695E+02  0.17851668197E+02 -0.16885757158E+02  0.27235823782E+02  0.00000000000E+00 0. -1.
</event>
<event>
 7    1  0.1351543E-013  0.7246157E+02  0.7816164E-02  0.1226708E+00
        -11   -1    0    0    0    0  0.00000000000E+00  0.00000000000E+00  0.45593999997E+02  0.45594000000E+02  0.51100000000E-03 0.  1.
         11   -1    0    0    0    0 -0.00000000000E+00 -0.00000000000E+00 -0.45593999997E+02  0.45594000000E+02  0.51100000000E-03 0. -1.
    9900012    2    1    2    0    0  0.12791066284E+02  0.12183370974E+02 -0.62155781716E+01  0.72461566357E+02  0.69999994871E+02 0.  0.
         12    1    1    2    0    0 -0.12791066284E+02 -0.12183370974E+02  0.62155781716E+01  0.18726433643E+02  0.00000000000E+00 0. -1.
         11    1    3    3    0    0  0.58902751871E+01  0.24091796047E+02 -0.63077927547E+01  0.25590979431E+02  0.51100000000E-03 0. -1.
        -11    1    3    3    0    0  0.22668824214E+02 -0.53745171839E+01  0.11856638238E+02  0.26140789903E+02  0.51100000000E-03 0.  1.
         12    1    3    3    0    0 -0.15768033117E+02 -0.65339078885E+01 -0.11764423655E+02  0.20729797023E+02  0.00000000000E+00 0. -1.
</event>
<event>
 7    1  0.1351543E-013  0.7246157E+02  0.7816164E-02  0.1226708E+00
        -11   -1    0    0    0    0  0.00000000000E+00  0.00000000000E+00  0.45593999997E+02  0.45594000000E+02  0.51100000000E-03 0. -1.
         11   -1    0    0    0    0 -0.00000000000E+00 -0.00000000000E+00 -0.45593999997E+02  0.45594000000E+02  0.51100000000E-03 0.  1.
    9900012    2    1    2    0    0 -0.10932150957E+01 -0.17690535056E+02 -0.60439208843E+01  0.72461571364E+02  0.70000001393E+02 0.  0.
         12    1    1    2    0    0  0.10932150957E+01  0.17690535056E+02  0.60439208843E+01  0.18726428636E+02  0.00000000000E+00 0. -1.
         11    1    3    3    0    0  0.21887356621E+02  0.16030727152E+02 -0.21598504379E+01  0.27215906141E+02  0.51100000000E-03 0. -1.
        -11    1    3    3    0    0  0.35988386569E+00 -0.15403441196E+02 -0.11979589166E+01  0.15454145816E+02  0.51100000000E-03 0.  1.
         12    1    3    3    0    0 -0.23340455583E+02 -0.18317821012E+02 -0.26861115298E+01  0.29791519407E+02  0.00000000000E+00 0. -1.
</event>
<event>
 7    1  0.1351543E-013  0.7246150E+02  0.7816164E-02  0.1226708E+00
        -11   -1    0    0    0    0  0.00000000000E+00  0.00000000000E+00  0.45593999997E+02  0.45594000000E+02  0.51100000000E-03 0.  1.
         11   -1    0    0    0    0 -0.00000000000E+00 -0.00000000000E+00 -0.45593999997E+02  0.45594000000E+02  0.51100000000E-03 0. -1.
    9900012    2    1    2    0    0 -0.13344972932E+02 -0.11974778281E+02  0.54035236248E+01  0.72461503131E+02  0.69999912507E+02 0.  0.
         12    1    1    2    0    0  0.13344972932E+02  0.11974778281E+02 -0.54035236248E+01  0.18726496869E+02  0.00000000000E+00 0. -1.
         11    1    3    3    0    0  0.13265284422E+02 -0.15950624205E+02  0.15146807601E+02  0.25686883114E+02  0.51100000000E-03 0. -1.
        -11    1    3    3    0    0 -0.32602252732E+02 -0.35444020230E+01 -0.14721231701E+02  0.35946965546E+02  0.51100000000E-03 0.  1.
         12    1    3    3    0    0  0.59919953780E+01  0.75202479472E+01  0.49779477254E+01  0.10827654472E+02  0.00000000000E+00 0. -1.
</event>
<event>
 7    1  0.1351543E-013  0.7246157E+02  0.7816164E-02  0.1226708E+00
        -11   -1    0    0    0    0  0.00000000000E+00  0.00000000000E+00  0.45593999997E+02  0.45594000000E+02  0.51100000000E-03 0.  1.
         11   -1    0    0    0    0 -0.00000000000E+00 -0.00000000000E+00 -0.45593999997E+02  0.45594000000E+02  0.51100000000E-03 0. -1.
    9900012    2    1    2    0    0  0.10127273921E+02 -0.15728333965E+02  0.85852889657E+00  0.72461568460E+02  0.69999997610E+02 0.  0.
         12    1    1    2    0    0 -0.10127273921E+02  0.15728333965E+02 -0.85852889657E+00  0.18726431540E+02  0.00000000000E+00 0. -1.
         11    1    3    3    0    0  0.15941696499E+02  0.51926981977E+01 -0.47075097797E+01  0.17414432245E+02  0.51100000000E-03 0. -1.
        -11    1    3    3    0    0  0.57754467801E+01 -0.34937471335E+02 -0.17226625868E+01  0.35453494263E+02  0.51100000000E-03 0.  1.
        -12    1    3    3    0    0 -0.11589869359E+02  0.14016439173E+02  0.72887012631E+01  0.19593641952E+02  0.00000000000E+00 0.  1.
</event>
<event>
 7    1  0.1351543E-013  0.7246149E+02  0.7816164E-02  0.1226708E+00
        -11   -1    0    0    0    0  0.00000000000E+00  0.00000000000E+00  0.45593999997E+02  0.45594000000E+02  0.51100000000E-03 0. -1.
         11   -1    0    0    0    0 -0.00000000000E+00 -0.00000000000E+00 -0.45593999997E+02  0.45594000000E+02  0.51100000000E-03 0.  1.
    9900012    2    1    2    0    0  0.14283891206E+02  0.67697903768E+01 -0.10041035949E+02  0.72461494382E+02  0.69999901110E+02 0.  0.
         12    1    1    2    0    0 -0.14283891206E+02 -0.67697903768E+01  0.10041035949E+02  0.18726505618E+02  0.00000000000E+00 0. -1.
         11    1    3    3    0    0 -0.79333328230E+01  0.24993921847E+02 -0.30639997610E+01  0.26401174099E+02  0.51100000000E-03 0.  1.
        -11    1    3    3    0    0  0.44110462623E+01 -0.25801893079E+02 -0.38569252089E+01  0.26458852732E+02  0.51100000000E-03 0. -1.
        -12    1    3    3    0    0  0.17806177766E+02  0.75777616083E+01 -0.31201109797E+01  0.19601467551E+02  0.00000000000E+00 0.  1.
</event>
<event>
 7    1  0.1351543E-013  0.7246152E+02  0.7816164E-02  0.1226708E+00
        -11   -1    0    0    0    0  0.00000000000E+00  0.00000000000E+00  0.45593999997E+02  0.45594000000E+02  0.51100000000E-03 0.  1.
         11   -1    0    0    0    0 -0.00000000000E+00 -0.00000000000E+00 -0.45593999997E+02  0.45594000000E+02  0.51100000000E-03 0. -1.
    9900012    2    1    2    0    0  0.14785037152E+02 -0.84187355279E+01  0.78235863942E+01  0.72461523141E+02  0.69999938574E+02 0.  0.
         12    1    1    2    0    0 -0.14785037152E+02  0.84187355279E+01 -0.78235863942E+01  0.18726476859E+02  0.00000000000E+00 0. -1.
         11    1    3    3    0    0 -0.18961063514E+02 -0.10013763462E+02 -0.13713336826E+02  0.25452956517E+02  0.51100000000E-03 0. -1.
        -11    1    3    3    0    0 -0.28008328799E+01 -0.10342251426E+01  0.69613145743E+01  0.75745750594E+01  0.51100000000E-03 0.  1.
         12    1    3    3    0    0  0.36546933546E+02  0.26292530768E+01  0.14575608646E+02  0.39433991565E+02  0.00000000000E+00 0. -1.
</event>
<event>
 7    1  0.1351543E-013  0.7246114E+02  0.7816164E-02  0.1226709E+00
        -11   -1    0    0    0    0  0.00000000000E+00  0.00000000000E+00  0.45593999997E+02  0.45594000000E+02  0.51100000000E-03 0.  1.
         11   -1    0    0    0    0 -0.00000000000E+00 -0.00000000000E+00 -0.45593999997E+02  0.45594000000E+02  0.51100000000E-03 0. -1.
    9900012    2    1    2    0    0  0.10349686898E+02 -0.15572703613E+02  0.10344470231E+01  0.72461142352E+02  0.69999442524E+02 0.  0.
         12    1    1    2    0    0 -0.10349686898E+02  0.15572703613E+02 -0.10344470231E+01  0.18726857648E+02  0.00000000000E+00 0. -1.
         11    1    3    3    0    0  0.30603989323E+02 -0.11651045099E+02  0.67884993105E+01  0.33443007304E+02  0.51100000000E-03 0. -1.
        -11    1    3    3    0    0 -0.20964916411E+02 -0.10442364503E+02  0.71956141574E+01  0.24501990937E+02  0.51100000000E-03 0.  1.
         12    1    3    3    0    0  0.71061398584E+00  0.65207059891E+01 -0.12949666445E+02  0.14516144111E+02  0.00000000000E+00 0. -1.
</event>
<event>
 7    1  0.1351543E-013  0.7246153E+02  0.7816164E-02  0.1226708E+00
        -11   -1    0    0    0    0  0.00000000000E+00  0.00000000000E+00  0.45593999997E+02  0.45594000000E+02  0.51100000000E-03 0.  1.
         11   -1    0    0    0    0 -0.00000000000E+00 -0.00000000000E+00 -0.45593999997E+02  0.45594000000E+02  0.51100000000E-03 0. -1.
    9900012    2    1    2    0    0 -0.11762946112E+02 -0.36735648166E+01  0.14100310741E+02  0.72461528291E+02  0.69999945282E+02 0.  0.
         12    1    1    2    0    0  0.11762946112E+02  0.36735648166E+01 -0.14100310741E+02  0.18726471709E+02  0.00000000000E+00 0. -1.
         11    1    3    3    0    0 -0.13212038501E+02 -0.37990112206E+01  0.37744670527E+01  0.14256123225E+02  0.51100000000E-03 0. -1.
        -11    1    3    3    0    0  0.21772376308E+02  0.11655369812E+02  0.21093181930E+02  0.32477782248E+02  0.51100000000E-03 0.  1.
        -12    1    3    3    0    0 -0.20323283919E+02 -0.11529923409E+02 -0.10767338242E+02  0.25727622818E+02  0.00000000000E+00 0.  1.
</event>
<event>
 7    1  0.1351543E-013  0.7246149E+02  0.7816164E-02  0.1226708E+00
        -11   -1    0    0    0    0  0.00000000000E+00  0.00000000000E+00  0.45593999997E+02  0.45594000000E+02  0.51100000000E-03 0.  1.
         11   -1    0    0    0    0 -0.00000000000E+00 -0.00000000000E+00 -0.45593999997E+02  0.45594000000E+02  0.51100000000E-03 0. -1.
    9900012    2    1    2    0    0 -0.33019473719E+01 -0.75488283690E+01 -0.16816494633E+02  0.72461490503E+02  0.69999896057E+02 0.  0.
         12    1    1    2    0    0  0.33019473719E+01  0.75488283690E+01  0.16816494633E+02  0.18726509497E+02  0.00000000000E+00 0. -1.
         11    1    3    3    0    0 -0.12940287402E+02 -0.84600214126E+01 -0.71443175788E+01  0.17031273419E+02  0.51100000000E-03 0. -1.
        -11    1    3    3    0    0  0.25630338057E+02 -0.13582103523E+02 -0.15752058871E+02  0.33007803985E+02  0.51100000000E-03 0.  1.
        -12    1    3    3    0    0 -0.15991998026E+02  0.14493296567E+02  0.60798818164E+01  0.22422413098E+02  0.00000000000E+00 0.  1.
</event>
<event>
 7    1  0.1351543E-013  0.7246149E+02  0.7816164E-02  0.1226708E+00
        -11   -1    0    0    0    0  0.00000000000E+00  0.00000000000E+00  0.45593999997E+02  0.45594000000E+02  0.51100000000E-03 0.  1.
         11   -1    0    0    0    0 -0.00000000000E+00 -0.00000000000E+00 -0.45593999997E+02  0.45594000000E+02  0.51100000000E-03 0. -1.
    9900012    2    1    2    0    0  0.75431941830E+01 -0.71074181213E+01  0.15597021578E+02  0.72461487966E+02  0.69999892752E+02 0.  0.
         12    1    1    2    0    0 -0.75431941830E+01  0.71074181213E+01 -0.15597021578E+02  0.18726512034E+02  0.00000000000E+00 0. -1.
         11    1    3    3    0    0 -0.51883165335E+01 -0.19226737965E+02 -0.12328595396E+02  0.23421792116E+02  0.51100000000E-03 0. -1.
        -11    1    3    3    0    0  0.19462799026E+02 -0.59389882517E+01  0.18848540458E+02  0.27736971807E+02  0.51100000000E-03 0.  1.
        -12    1    3    3    0    0 -0.67312883094E+01  0.18058308095E+02  0.90770765161E+01  0.21302724043E+02  0.00000000000E+00 0.  1.
</event>
<event>
 7    1  0.1351543E-013  0.7246154E+02  0.7816164E-02  0.1226708E+00
        -11   -1    0    0    0    0  0.00000000000E+00  0.00000000000E+00  0.45593999997E+02  0.45594000000E+02  0.51100000000E-03 0.  1.
         11   -1    0    0    0    0 -0.00000000000E+00 -0.00000000000E+00 -0.45593999997E+02  0.45594000000E+02  0.51100000000E-03 0. -1.
    9900012    2    1    2    0    0  0.49221842212E+01  0.12076112475E+02  0.13439488044E+02  0.72461542009E+02  0.69999963153E+02 0.  0.
         12    1    1    2    0    0 -0.49221842212E+01 -0.12076112475E+02 -0.13439488044E+02  0.18726457991E+02  0.00000000000E+00 0. -1.
         11    1    3    3    0    0 -0.18959650666E+02 -0.17369886789E+02 -0.89171685893E+01  0.27215753092E+02  0.51100000000E-03 0. -1.
        -11    1    3    3    0    0  0.12948583807E+02  0.22750774284E+02  0.12155460042E+02  0.28862064414E+02  0.51100000000E-03 0.  1.
         12    1    3    3    0    0  0.10933251080E+02  0.66952249794E+01  0.10201196591E+02  0.16383724503E+02  0.00000000000E+00 0. -1.
</event>
<event>
 7    1  0.1351543E-013  0.7246161E+02  0.7816164E-02  0.1226708E+00
        -11   -1    0    0    0    0  0.00000000000E+00  0.00000000000E+00  0.45593999997E+02  0.45594000000E+02  0.51100000000E-03 0.  1.
         11   -1    0    0    0    0 -0.00000000000E+00 -0.00000000000E+00 -0.45593999997E+02  0.45594000000E+02  0.51100000000E-03 0. -1.
    9900012    2    1    2    0    0  0.16528348415E+02 -0.79751103071E+01  0.37267903685E+01  0.72461610808E+02  0.70000052776E+02 0.  0.
         12    1    1    2    0    0 -0.16528348415E+02  0.79751103071E+01 -0.37267903685E+01  0.18726389192E+02  0.00000000000E+00 0. -1.
         11    1    3    3    0    0  0.25917957554E+01  0.11290646952E+02  0.15129846444E+02  0.19055402581E+02  0.51100000000E-03 0.  1.
        -11    1    3    3    0    0  0.53910052165E+01 -0.18683368929E+02 -0.28373043312E+02  0.34397104512E+02  0.51100000000E-03 0. -1.
        -12    1    3    3    0    0  0.85455474427E+01 -0.58238833079E+00  0.16969987236E+02  0.19009103715E+02  0.00000000000E+00 0.  1.
</event>
<event>
 7    1  0.1351543E-013  0.7246155E+02  0.7816164E-02  0.1226708E+00
        -11   -1    0    0    0    0  0.00000000000E+00  0.00000000000E+00  0.45593999997E+02  0.45594000000E+02  0.51100000000E-03 0.  1.
         11   -1    0    0    0    0 -0.00000000000E+00 -0.00000000000E+00 -0.45593999997E+02  0.45594000000E+02  0.51100000000E-03 0. -1.
    9900012    2    1    2    0    0 -0.25537216984E+01 -0.14347599283E+02  0.11760303941E+02  0.72461552166E+02  0.69999976384E+02 0.  0.
         12    1    1    2    0    0  0.25537216984E+01  0.14347599283E+02 -0.11760303941E+02  0.18726447834E+02  0.00000000000E+00 0. -1.
         11    1    3    3    0    0 -0.14434772924E+02 -0.22790777152E+02 -0.11178200127E+02  0.29201615553E+02  0.51100000000E-03 0. -1.
        -11    1    3    3    0    0  0.17245528979E+02  0.94991809295E+01  0.10073179708E-01  0.19688646724E+02  0.51100000000E-03 0.  1.
         12    1    3    3    0    0 -0.53644777536E+01 -0.10560030601E+01  0.22928430888E+02  0.23571289889E+02  0.00000000000E+00 0. -1.
</event>
<event>
 7    1  0.1351543E-013  0.7246159E+02  0.7816164E-02  0.1226708E+00
        -11   -1    0    0    0    0  0.00000000000E+00  0.00000000000E+00  0.45593999997E+02  0.45594000000E+02  0.51100000000E-03 0. -1.
         11   -1    0    0    0    0 -0.00000000000E+00 -0.00000000000E+00 -0.45593999997E+02  0.45594000000E+02  0.51100000000E-03 0.  1.
    9900012    2    1    2    0    0 -0.10615567880E+02 -0.65673695946E+01 -0.13959149506E+02  0.72461588712E+02  0.70000023992E+02 0.  0.
         12    1    1    2    0    0  0.10615567880E+02  0.65673695946E+01  0.13959149506E+02  0.18726411288E+02  0.00000000000E+00 0. -1.
         11    1    3    3    0    0  0.15690091882E+02 -0.85991214704E+01 -0.25717492818E+02  0.31329112826E+02  0.51100000000E-03 0. -1.
        -11    1    3    3    0    0 -0.23098275619E+02  0.13996716330E+02  0.74430178281E+01  0.28014941000E+02  0.51100000000E-03 0.  1.
         12    1    3    3    0    0 -0.32073841435E+01 -0.11964964454E+02  0.43153254843E+01  0.13117534885E+02  0.00000000000E+00 0. -1.
</event>
<event>
 7    1  0.1351543E-013  0.7246161E+02  0.7816164E-02  0.1226708E+00
        -11   -1    0    0    0    0  0.00000000000E+00  0.00000000000E+00  0.45593999997E+02  0.45594000000E+02  0.51100000000E-03 0.  1.
         11   -1    0    0    0    0 -0.00000000000E+00 -0.00000000000E+00 -0.45593999997E+02  0.45594000000E+02  0.51100000000E-03 0. -1.
    9900012    2    1    2    0    0  0.83198823637E+01 -0.13455312107E+02  0.10020576160E+02  0.72461606513E+02  0.70000047182E+02 0.  0.
         12    1    1    2    0    0 -0.83198823637E+01  0.13455312107E+02 -0.10020576160E+02  0.18726393487E+02  0.00000000000E+00 0. -1.
         11    1    3    3    0    0  0.12116163306E+02  0.22921706551E+00  0.68857094548E+00  0.12137878065E+02  0.51100000000E-03 0. -1.
        -11    1    3    3    0    0  0.51926188161E+01 -0.23966923805E+02  0.27982385379E+02  0.37207400052E+02  0.51100000000E-03 0.  1.
        -12    1    3    3    0    0 -0.89888997584E+01  0.10282394632E+02 -0.18650380164E+02  0.23116328396E+02  0.00000000000E+00 0.  1.
</event>
<event>
 7    1  0.1351543E-013  0.7246154E+02  0.7816164E-02  0.1226708E+00
        -11   -1    0    0    0    0  0.00000000000E+00  0.00000000000E+00  0.45593999997E+02  0.45594000000E+02  0.51100000000E-03 0.  1.
         11   -1    0    0    0    0 -0.00000000000E+00 -0.00000000000E+00 -0.45593999997E+02  0.45594000000E+02  0.51100000000E-03 0. -1.
    9900012    2    1    2    0    0  0.17855269305E+02  0.27557667300E+01  0.49269994820E+01  0.72461542350E+02  0.69999963598E+02 0.  0.
         12    1    1    2    0    0 -0.17855269305E+02 -0.27557667300E+01 -0.49269994820E+01  0.18726457650E+02  0.00000000000E+00 0. -1.
         11    1    3    3    0    0  0.44187571862E+02  0.55702639626E+01 -0.18511769564E+01  0.44575735598E+02  0.51100000000E-03 0. -1.
        -11    1    3    3    0    0 -0.13184217313E+02 -0.38261292053E+01  0.48442670176E+01  0.14557808009E+02  0.51100000000E-03 0.  1.
         12    1    3    3    0    0 -0.13148085245E+02  0.10116319727E+01  0.19339094208E+01  0.13327998743E+02  0.00000000000E+00 0. -1.
</event>
<event>
 7    1  0.1351543E-013  0.7246156E+02  0.7816164E-02  0.1226708E+00
        -11   -1    0    0    0    0  0.00000000000E+00  0.00000000000E+00  0.45593999997E+02  0.45594000000E+02  0.51100000000E-03 0. -1.
         11   -1    0    0    0    0 -0.00000000000E+00 -0.00000000000E+00 -0.45593999997E+02  0.45594000000E+02  0.51100000000E-03 0.  1.
    9900012    2    1    2    0    0  0.13453005557E+02 -0.10005557698E+02  0.83417724834E+01  0.72461555822E+02  0.69999981148E+02 0.  0.
         12    1    1    2    0    0 -0.13453005557E+02  0.10005557698E+02 -0.83417724834E+01  0.18726444178E+02  0.00000000000E+00 0. -1.
         11    1    3    3    0    0  0.18501594712E+02  0.10541023749E+01  0.25639442562E+01  0.18708125216E+02  0.51100000000E-03 0. -1.
        -11    1    3    3    0    0 -0.76804815577E+01 -0.27679089244E+02 -0.10265689991E+02  0.30504199212E+02  0.51100000000E-03 0.  1.
        -12    1    3    3    0    0  0.26318924037E+01  0.16619429171E+02  0.16043518218E+02  0.23249231394E+02  0.00000000000E+00 0.  1.
</event>
<event>
 7    1  0.1351543E-013  0.7246161E+02  0.7816164E-02  0.1226708E+00
        -11   -1    0    0    0    0  0.00000000000E+00  0.00000000000E+00  0.45593999997E+02  0.45594000000E+02  0.51100000000E-03 0. -1.
         11   -1    0    0    0    0 -0.00000000000E+00 -0.00000000000E+00 -0.45593999997E+02  0.45594000000E+02  0.51100000000E-03 0.  1.
    9900012    2    1    2    0    0  0.13673253232E+02  0.55107137231E+01 -0.11547809734E+02  0.72461608748E+02  0.70000050093E+02 0.  0.
         12    1    1    2    0    0 -0.13673253232E+02 -0.55107137231E+01  0.11547809734E+02  0.18726391252E+02  0.00000000000E+00 0. -1.
         11    1    3    3    0    0  0.17020261320E+01 -0.14722578133E+02 -0.13345708631E+02  0.19943899793E+02  0.51100000000E-03 0. -1.
        -11    1    3    3    0    0  0.13472607985E+02 -0.17258218576E-02  0.20758308179E+02  0.24747091296E+02  0.51100000000E-03 0.  1.
        -12    1    3    3    0    0 -0.15013808851E+01  0.20235017678E+02 -0.18960409282E+02  0.27770617659E+02  0.00000000000E+00 0.  1.
</event>
<event>
 7    1  0.1351543E-013  0.7246154E+02  0.7816164E-02  0.1226708E+00
        -11   -1    0    0    0    0  0.00000000000E+00  0.00000000000E+00  0.45593999997E+02  0.45594000000E+02  0.51100000000E-03 0. -1.
         11   -1    0    0    0    0 -0.00000000000E+00 -0.00000000000E+00 -0.45593999997E+02  0.45594000000E+02  0.51100000000E-03 0.  1.
    9900012    2    1    2    0    0 -0.10542756401E+02 -0.15474780812E+02  0.24812162870E+00  0.72461544968E+02  0.69999967008E+02 0.  0.
         12    1    1    2    0    0  0.10542756401E+02  0.15474780812E+02 -0.24812162870E+00  0.18726455032E+02  0.00000000000E+00 0. -1.
         11    1    3    3    0    0  0.17200762001E+02 -0.10236447311E+02 -0.19006090918E+02  0.27602220186E+02  0.51100000000E-03 0. -1.
        -11    1    3    3    0    0 -0.12638338847E+02  0.11307921748E+02  0.13637549418E+02  0.21761880835E+02  0.51100000000E-03 0.  1.
        -12    1    3    3    0    0 -0.15105179555E+02 -0.16546255250E+02  0.56166631286E+01  0.23097443947E+02  0.00000000000E+00 0.  1.
</event>
<event>
 7    1  0.1351543E-013  0.7246154E+02  0.7816164E-02  0.1226708E+00
        -11   -1    0    0    0    0  0.00000000000E+00  0.00000000000E+00  0.45593999997E+02  0.45594000000E+02  0.51100000000E-03 0. -1.
         11   -1    0    0    0    0 -0.00000000000E+00 -0.00000000000E+00 -0.45593999997E+02  0.45594000000E+02  0.51100000000E-03 0.  1.
    9900012    2    1    2    0    0  0.38797987423E+01  0.57359634301E+00 -0.18311157648E+02  0.72461538896E+02  0.69999959098E+02 0.  0.
         12    1    1    2    0    0 -0.38797987423E+01 -0.57359634301E+00  0.18311157648E+02  0.18726461104E+02  0.00000000000E+00 0. -1.
         11    1    3    3    0    0  0.25837584212E+02 -0.14436564956E+02 -0.22950625357E+02  0.37452988802E+02  0.51100000000E-03 0. -1.
        -11    1    3    3    0    0 -0.14721981207E+02 -0.16297089412E+01 -0.33442937866E+01  0.15184761542E+02  0.51100000000E-03 0.  1.
         12    1    3    3    0    0 -0.72358042629E+01  0.16639870240E+02  0.79837614955E+01  0.19823788552E+02  0.00000000000E+00 0. -1.
</event>
<event>
 7    1  0.1351543E-013  0.7246158E+02  0.7816164E-02  0.1226708E+00
        -11   -1    0    0    0    0  0.00000000000E+00  0.00000000000E+00  0.45593999997E+02  0.45594000000E+02  0.51100000000E-03 0. -1.
         11   -1    0    0    0    0 -0.00000000000E+00 -0.00000000000E+00 -0.45593999997E+02  0.45594000000E+02  0.51100000000E-03 0.  1.
    9900012    2    1    2    0    0 -0.14722850905E+02  0.10010461914E+02 -0.58057932832E+01  0.72461576899E+02  0.70000008604E+02 0.  0.
         12    1    1    2    0    0  0.14722850905E+02 -0.10010461914E+02  0.58057932832E+01  0.18726423101E+02  0.00000000000E+00 0. -1.
         11    1    3    3    0    0 -0.14563280949E+02  0.19499053190E+01 -0.28411173116E+02  0.31985716200E+02  0.51100000000E-03 0.  1.
        -11    1    3    3    0    0  0.14306506123E+02  0.11249021836E+02  0.16093710274E+02  0.24294528610E+02  0.51100000000E-03 0. -1.
        -12    1    3    3    0    0 -0.14466076080E+02 -0.31884652417E+01  0.65116695585E+01  0.16181332089E+02  0.00000000000E+00 0.  1.
</event>
<event>
 7    1  0.1351543E-013  0.7246133E+02  0.7816164E-02  0.1226709E+00
        -11   -1    0    0    0    0  0.00000000000E+00  0.00000000000E+00  0.45593999997E+02  0.45594000000E+02  0.51100000000E-03 0.  1.
         11   -1    0    0    0    0 -0.00000000000E+00 -0.00000000000E+00 -0.45593999997E+02  0.45594000000E+02  0.51100000000E-03 0. -1.
    9900012    2    1    2    0    0  0.11819662032E+02 -0.11067284327E+02  0.94073888061E+01  0.72461330326E+02  0.69999687397E+02 0.  0.
         12    1    1    2    0    0 -0.11819662032E+02  0.11067284327E+02 -0.94073888061E+01  0.18726669674E+02  0.00000000000E+00 0. -1.
         11    1    3    3    0    0 -0.17465262903E+02  0.53458809534E+01  0.78594751732E+00  0.18282001127E+02  0.51100000000E-03 0. -1.
        -11    1    3    3    0    0  0.15432251045E+02 -0.27690484374E+02 -0.44959164699E+01  0.32017660164E+02  0.51100000000E-03 0.  1.
        -12    1    3    3    0    0  0.13852673891E+02  0.11277319094E+02  0.13117357759E+02  0.22161669036E+02  0.00000000000E+00 0.  1.
</event>
<event>
 7    1  0.1351543E-013  0.7246151E+02  0.7816164E-02  0.1226708E+00
        -11   -1    0    0    0    0  0.00000000000E+00  0.00000000000E+00  0.45593999997E+02  0.45594000000E+02  0.51100000000E-03 0.  1.
         11   -1    0    0    0    0 -0.00000000000E+00 -0.00000000000E+00 -0.45593999997E+02  0.45594000000E+02  0.51100000000E-03 0. -1.
    9900012    2    1    2    0    0  0.25553203386E+01  0.52404062142E+01  0.17795781114E+02  0.72461512214E+02  0.69999924340E+02 0.  0.
         12    1    1    2    0    0 -0.25553203386E+01 -0.52404062142E+01 -0.17795781114E+02  0.18726487786E+02  0.00000000000E+00 0. -1.
         11    1    3    3    0    0  0.22315840750E+01  0.26910645236E+02  0.19794176633E+02  0.33480923275E+02  0.51100000000E-03 0. -1.
        -11    1    3    3    0    0  0.10896010996E+02 -0.18094163840E+02  0.93187661035E+01  0.23085952929E+02  0.51100000000E-03 0.  1.
         12    1    3    3    0    0 -0.10572274732E+02 -0.35760751825E+01 -0.11317161622E+02  0.15894636010E+02  0.00000000000E+00 0. -1.
</event>
<event>
 7    1  0.1351543E-013  0.7246148E+02  0.7816164E-02  0.1226708E+00
        -11   -1    0    0    0    0  0.00000000000E+00  0.00000000000E+00  0.45593999997E+02  0.45594000000E+02  0.51100000000E-03 0. -1.
         11   -1    0    0    0    0 -0.00000000000E+00 -0.00000000000E+00 -0.45593999997E+02  0.45594000000E+02  0.51100000000E-03 0.  1.
    9900012    2    1    2    0    0 -0.13920652463E+02  0.11014751080E+02 -0.59643283948E+01  0.72461480848E+02  0.69999883479E+02 0.  0.
         12    1    1    2    0    0  0.13920652463E+02 -0.11014751080E+02  0.59643283948E+01  0.18726519152E+02  0.00000000000E+00 0. -1.
         11    1    3    3    0    0 -0.10875583413E+02 -0.12677853040E+02  0.94292186449E+01  0.19181147953E+02  0.51100000000E-03 0. -1.
        -11    1    3    3    0    0  0.18106359534E+02  0.23720804574E+02 -0.96481649110E+01  0.31362460229E+02  0.51100000000E-03 0.  1.
        -12    1    3    3    0    0 -0.21151428584E+02 -0.28200454474E-01 -0.57453821288E+01  0.21917872666E+02  0.00000000000E+00 0.  1.
</event>
<event>
 7    1  0.1351543E-013  0.7246156E+02  0.7816164E-02  0.1226708E+00
        -11   -1    0    0    0    0  0.00000000000E+00  0.00000000000E+00  0.45593999997E+02  0.45594000000E+02  0.51100000000E-03 0.  1.
         11   -1    0    0    0    0 -0.00000000000E+00 -0.00000000000E+00 -0.45593999997E+02  0.45594000000E+02  0.51100000000E-03 0. -1.
    9900012    2    1    2    0    0  0.10195293508E+01 -0.69892543287E+01  0.17343308175E+02  0.72461562682E+02  0.69999990084E+02 0.  0.
         12    1    1    2    0    0 -0.10195293508E+01  0.69892543287E+01 -0.17343308175E+02  0.18726437318E+02  0.00000000000E+00 0. -1.
         11    1    3    3    0    0  0.13167152307E+02 -0.28566928451E+02 -0.81063739374E+01  0.32483174101E+02  0.51100000000E-03 0. -1.
        -11    1    3    3    0    0 -0.14667101671E+02  0.12270252911E+02  0.23221474000E+02  0.30081885462E+02  0.51100000000E-03 0.  1.
         12    1    3    3    0    0  0.25194787158E+01  0.93074212114E+01  0.22282081125E+01  0.98965031197E+01  0.00000000000E+00 0. -1.
</event>
<event>
 8    1  0.1351543E-013  0.7246159E+02  0.7816164E-02  0.1226708E+00
        -11   -1    0    0    0    0  0.00000000000E+00  0.00000000000E+00  0.45593999997E+02  0.45594000000E+02  0.51100000000E-03 0.  1.
         11   -1    0    0    0    0 -0.00000000000E+00 -0.00000000000E+00 -0.45593999997E+02  0.45594000000E+02  0.51100000000E-03 0. -1.
    9900012    2    1    2    0    0 -0.15888675970E+02 -0.68223112231E+01  0.71891882527E+01  0.72461591315E+02  0.70000027383E+02 0.  0.
         24    2    3    3    0    0  0.11150950019E+01 -0.12543437368E+02  0.14096528104E+02  0.53237365564E+02  0.49768702311E+02 0.  0.
         12    1    1    2    0    0  0.15888675970E+02  0.68223112231E+01 -0.71891882527E+01  0.18726408685E+02  0.00000000000E+00 0. -1.
         11    1    3    3    0    0 -0.17003770972E+02  0.57211261447E+01 -0.69073398512E+01  0.19224225751E+02  0.51100000000E-03 0. -1.
        -11    1    4    4    0    0 -0.86035896469E+01 -0.40091854646E+01  0.30732584916E+02  0.32164998038E+02  0.51100000000E-03 0.  1.
         12    1    4    4    0    0  0.97186846488E+01 -0.85342519032E+01 -0.16636056813E+02  0.21072367525E+02  0.00000000000E+00 0. -1.
</event>
<event>
 7    1  0.1351543E-013  0.7246156E+02  0.7816164E-02  0.1226708E+00
        -11   -1    0    0    0    0  0.00000000000E+00  0.00000000000E+00  0.45593999997E+02  0.45594000000E+02  0.51100000000E-03 0.  1.
         11   -1    0    0    0    0 -0.00000000000E+00 -0.00000000000E+00 -0.45593999997E+02  0.45594000000E+02  0.51100000000E-03 0. -1.
    9900012    2    1    2    0    0 -0.29928547680E+01 -0.12252699356E+02  0.13841742910E+02  0.72461556986E+02  0.69999982663E+02 0.  0.
         12    1    1    2    0    0  0.29928547680E+01  0.12252699356E+02 -0.13841742910E+02  0.18726443014E+02  0.00000000000E+00 0. -1.
         11    1    3    3    0    0 -0.28950349132E+02 -0.40379244094E+01 -0.18074645799E+01  0.29286421374E+02  0.51100000000E-03 0. -1.
        -11    1    3    3    0    0  0.88020134430E+01  0.82284846228E-01  0.21506986947E+02  0.23238603642E+02  0.51100000000E-03 0.  1.
         12    1    3    3    0    0  0.17155480921E+02 -0.82970597924E+01 -0.58577794564E+01  0.19936531970E+02  0.00000000000E+00 0. -1.
</event>
<event>
 7    1  0.1351543E-013  0.7246155E+02  0.7816164E-02  0.1226708E+00
        -11   -1    0    0    0    0  0.00000000000E+00  0.00000000000E+00  0.45593999997E+02  0.45594000000E+02  0.51100000000E-03 0. -1.
         11   -1    0    0    0    0 -0.00000000000E+00 -0.00000000000E+00 -0.45593999997E+02  0.45594000000E+02  0.51100000000E-03 0.  1.
    9900012    2    1    2    0    0 -0.99031583405E+01 -0.10200980309E+02 -0.12187997246E+02  0.72461552893E+02  0.69999977332E+02 0.  0.
         12    1    1    2    0    0  0.99031583405E+01  0.10200980309E+02  0.12187997246E+02  0.18726447107E+02  0.00000000000E+00 0. -1.
         11    1    3    3    0    0 -0.42422013131E+01  0.67430323972E+01  0.10604500856E+02  0.13263491115E+02  0.51100000000E-03 0. -1.
        -11    1    3    3    0    0 -0.17998118553E+02 -0.30558166301E+02 -0.19694692514E+02  0.40566176954E+02  0.51100000000E-03 0.  1.
        -12    1    3    3    0    0  0.12337161526E+02  0.13614153596E+02 -0.30978055889E+01  0.18631884824E+02  0.00000000000E+00 0.  1.
</event>
<event>
 7    1  0.1351543E-013  0.7246162E+02  0.7816164E-02  0.1226708E+00
        -11   -1    0    0    0    0  0.00000000000E+00  0.00000000000E+00  0.45593999997E+02  0.45594000000E+02  0.51100000000E-03 0.  1.
         11   -1    0    0    0    0 -0.00000000000E+00 -0.00000000000E+00 -0.45593999997E+02  0.45594000000E+02  0.51100000000E-03 0. -1.
    9900012    2    1    2    0    0  0.11077802437E+02 -0.11640199763E+01  0.15053396634E+02  0.72461617553E+02  0.70000061563E+02 0.  0.
         12    1    1    2    0    0 -0.11077802437E+02  0.11640199763E+01 -0.15053396634E+02  0.18726382447E+02  0.00000000000E+00 0. -1.
         11    1    3    3    0    0  0.11039741227E+02 -0.33473288816E+01 -0.25455195132E+02  0.27947226275E+02  0.51100000000E-03 0. -1.
        -11    1    3    3    0    0 -0.21834250505E+01  0.71423917866E+01  0.59990450274E+01  0.95796475346E+01  0.51100000000E-03 0.  1.
         12    1    3    3    0    0  0.22214862601E+01 -0.49590828813E+01  0.34509546739E+02  0.34934743743E+02  0.00000000000E+00 0. -1.
</event>
<event>
 8    1  0.1351543E-013  0.7246157E+02  0.7816164E-02  0.1226708E+00
        -11   -1    0    0    0    0  0.00000000000E+00  0.00000000000E+00  0.45593999997E+02  0.45594000000E+02  0.51100000000E-03 0.  1.
         11   -1    0    0    0    0 -0.00000000000E+00 -0.00000000000E+00 -0.45593999997E+02  0.45594000000E+02  0.51100000000E-03 0. -1.
    9900012    2    1    2    0    0  0.17865038753E+02 -0.46580008935E+01  0.31340952476E+01  0.72461571216E+02  0.70000001201E+02 0.  0.
         24    2    3    3    0    0  0.20585392538E+02  0.89848113679E+01  0.10595625438E+02  0.56675467068E+02  0.50944637281E+02 0.  0.
         12    1    1    2    0    0 -0.17865038753E+02  0.46580008935E+01 -0.31340952476E+01  0.18726428784E+02  0.00000000000E+00 0. -1.
         11    1    3    3    0    0 -0.27203537851E+01 -0.13642812261E+02 -0.74615301903E+01  0.15786104148E+02  0.51100000000E-03 0. -1.
        -11    1    4    4    0    0  0.20259416138E+02  0.71813839356E+01  0.30154343575E+02  0.37031076870E+02  0.51100000000E-03 0.  1.
         12    1    4    4    0    0  0.32597640093E+00  0.18034274322E+01 -0.19558718137E+02  0.19644390199E+02  0.00000000000E+00 0. -1.
</event>
<event>
 7    1  0.1351543E-013  0.7246163E+02  0.7816164E-02  0.1226708E+00
        -11   -1    0    0    0    0  0.00000000000E+00  0.00000000000E+00  0.45593999997E+02  0.45594000000E+02  0.51100000000E-03 0.  1.
         11   -1    0    0    0    0 -0.00000000000E+00 -0.00000000000E+00 -0.45593999997E+02  0.45594000000E+02  0.51100000000E-03 0. -1.
    9900012    2    1    2    0    0 -0.12437472856E+02  0.13047804009E+02 -0.50735604278E+01  0.72461629932E+02  0.70000077689E+02 0.  0.
         12    1    1    2    0    0  0.12437472856E+02 -0.13047804009E+02  0.50735604278E+01  0.18726370068E+02  0.00000000000E+00 0. -1.
         11    1    3    3    0    0  0.83808921405E+01 -0.74528270337E+01 -0.10318327458E+02  0.15239811864E+02  0.51100000000E-03 0. -1.
        -11    1    3    3    0    0 -0.20991660709E+02  0.35261081396E+02  0.89528207910E+01  0.42001746165E+02  0.51100000000E-03 0.  1.
        -12    1    3    3    0    0  0.17329571256E+00 -0.14760450353E+02 -0.37080537611E+01  0.15220071903E+02  0.00000000000E+00 0.  1.
</event>
<event>
 7    1  0.1351543E-013  0.7246158E+02  0.7816164E-02  0.1226708E+00
        -11   -1    0    0    0    0  0.00000000000E+00  0.00000000000E+00  0.45593999997E+02  0.45594000000E+02  0.51100000000E-03 0. -1.
         11   -1    0    0    0    0 -0.00000000000E+00 -0.00000000000E+00 -0.45593999997E+02  0.45594000000E+02  0.51100000000E-03 0.  1.
    9900012    2    1    2    0    0  0.97610217963E+01  0.90455223536E+01  0.13174966632E+02  0.72461581044E+02  0.70000014003E+02 0.  0.
         12    1    1    2    0    0 -0.97610217963E+01 -0.90455223536E+01 -0.13174966632E+02  0.18726418956E+02  0.00000000000E+00 0. -1.
         11    1    3    3    0    0 -0.12457953113E+02 -0.54513852063E+01 -0.61124816267E+01  0.14909078721E+02  0.51100000000E-03 0. -1.
        -11    1    3    3    0    0  0.34033602498E+02  0.17676278893E+02  0.23059798467E+02  0.44749203793E+02  0.51100000000E-03 0.  1.
        -12    1    3    3    0    0 -0.11814627589E+02 -0.31793713334E+01 -0.37723502081E+01  0.12803298529E+02  0.00000000000E+00 0.  1.
</event>
<event>
 7    1  0.1351543E-013  0.7246161E+02  0.7816164E-02  0.1226708E+00
        -11   -1    0    0    0    0  0.00000000000E+00  0.00000000000E+00  0.45593999997E+02  0.45594000000E+02  0.51100000000E-03 0.  1.
         11   -1    0    0    0    0 -0.00000000000E+00 -0.00000000000E+00 -0.45593999997E+02  0.45594000000E+02  0.51100000000E-03 0. -1.
    9900012    2    1    2    0    0 -0.85037244052E+01 -0.28135220580E+01  0.16445315698E+02  0.72461611038E+02  0.70000053076E+02 0.  0.
         12    1    1    2    0    0  0.85037244052E+01  0.28135220580E+01 -0.16445315698E+02  0.18726388962E+02  0.00000000000E+00 0. -1.
         11    1    3    3    0    0  0.29780352844E+01  0.32080856044E+01 -0.91629746491E+01  0.10154831957E+02  0.51100000000E-03 0. -1.
        -11    1    3    3    0    0 -0.32122957264E+02  0.63377099892E+01  0.14857167462E+02  0.35955338638E+02  0.51100000000E-03 0.  1.
        -12    1    3    3    0    0  0.20641197575E+02 -0.12359317652E+02  0.10751122886E+02  0.26351440443E+02  0.00000000000E+00 0.  1.
</event>
<event>
 8    1  0.1351543E-013  0.7246165E+02  0.7816164E-02  0.1226708E+00
        -11   -1    0    0    0    0  0.00000000000E+00  0.00000000000E+00  0.45593999997E+02  0.45594000000E+02  0.51100000000E-03 0. -1.
         11   -1    0    0    0    0 -0.00000000000E+00 -0.00000000000E+00 -0.45593999997E+02  0.45594000000E+02  0.51100000000E-03 0.  1.
    9900012    2    1    2    0    0 -0.11902479863E+02 -0.37093756771E+00 -0.14452323718E+02  0.72461647381E+02  0.70000100419E+02 0.  0.
        -24    2    3    3    0    0 -0.99628117252E+01  0.13676271666E+02 -0.92238197692E+01  0.57347956450E+02  0.54013065398E+02 0.  0.
         12    1    1    2    0    0  0.11902479863E+02  0.37093756771E+00  0.14452323718E+02  0.18726352619E+02  0.00000000000E+00 0. -1.
         11    1    4    4    0    0  0.12984955471E+02  0.14391861090E+02 -0.23384020761E+02  0.30373461466E+02  0.51100000000E-03 0. -1.
        -11    1    3    3    0    0 -0.19396681376E+01 -0.14047209234E+02 -0.52285039491E+01  0.15113690931E+02  0.51100000000E-03 0.  1.
        -12    1    4    4    0    0 -0.22947767197E+02 -0.71558942392E+00  0.14160200991E+02  0.26974494984E+02  0.00000000000E+00 0.  1.
</event>
<event>
 7    1  0.1351543E-013  0.7246205E+02  0.7816164E-02  0.1226707E+00
        -11   -1    0    0    0    0  0.00000000000E+00  0.00000000000E+00  0.45593999997E+02  0.45594000000E+02  0.51100000000E-03 0.  1.
         11   -1    0    0    0    0 -0.00000000000E+00 -0.00000000000E+00 -0.45593999997E+02  0.45594000000E+02  0.51100000000E-03 0. -1.
    9900012    2    1    2    0    0 -0.23989860114E+01  0.18426769529E+02 -0.23151950019E+01  0.72462052840E+02  0.70000628603E+02 0.  0.
         12    1    1    2    0    0  0.23989860114E+01 -0.18426769529E+02  0.23151950019E+01  0.18725947160E+02  0.00000000000E+00 0. -1.
         11    1    3    3    0    0  0.23434528475E+02 -0.29515190393E+01 -0.20118838673E+02  0.31026702359E+02  0.51100000000E-03 0.  1.
        -11    1    3    3    0    0 -0.20178116698E+02  0.20759404220E+02  0.78912539710E+01  0.30006351770E+02  0.51100000000E-03 0. -1.
        -12    1    3    3    0    0 -0.56553977882E+01  0.61888434764E+00  0.99123896997E+01  0.11428998711E+02  0.00000000000E+00 0.  1.
</event>
<event>
 7    1  0.1351543E-013  0.7246157E+02  0.7816164E-02  0.1226708E+00
        -11   -1    0    0    0    0  0.00000000000E+00  0.00000000000E+00  0.45593999997E+02  0.45594000000E+02  0.51100000000E-03 0. -1.
         11   -1    0    0    0    0 -0.00000000000E+00 -0.00000000000E+00 -0.45593999997E+02  0.45594000000E+02  0.51100000000E-03 0.  1.
    9900012    2    1    2    0    0 -0.17055788142E+01 -0.96074106889E+01 -0.15983365109E+02  0.72461566825E+02  0.69999995480E+02 0.  0.
         12    1    1    2    0    0  0.17055788142E+01  0.96074106889E+01  0.15983365109E+02  0.18726433175E+02  0.00000000000E+00 0. -1.
         11    1    3    3    0    0 -0.13466541542E+02  0.19177097534E+02 -0.22179465533E+02  0.32265112777E+02  0.51100000000E-03 0. -1.
        -11    1    3    3    0    0  0.60421990452E+01 -0.13945991667E+02  0.15552482065E+02  0.21745770888E+02  0.51100000000E-03 0.  1.
        -12    1    3    3    0    0  0.57187636824E+01 -0.14838516556E+02 -0.93563816413E+01  0.18450683159E+02  0.00000000000E+00 0.  1.
</event>
<event>
 7    1  0.1351543E-013  0.7246156E+02  0.7816164E-02  0.1226708E+00
        -11   -1    0    0    0    0  0.00000000000E+00  0.00000000000E+00  0.45593999997E+02  0.45594000000E+02  0.51100000000E-03 0.  1.
         11   -1    0    0    0    0 -0.00000000000E+00 -0.00000000000E+00 -0.45593999997E+02  0.45594000000E+02  0.51100000000E-03 0. -1.
    9900012    2    1    2    0    0  0.26961989807E+01 -0.17044466602E+02  0.72729726473E+01  0.72461562490E+02  0.69999989833E+02 0.  0.
         12    1    1    2    0    0 -0.26961989807E+01  0.17044466602E+02 -0.72729726473E+01  0.18726437510E+02  0.00000000000E+00 0. -1.
         11    1    3    3    0    0  0.22377133517E+02  0.26201224289E+01 -0.16307287610E+02  0.27812385289E+02  0.51100000000E-03 0. -1.
        -11    1    3    3    0    0 -0.52680950109E+01 -0.10053671831E+02  0.24809123784E+02  0.27282261004E+02  0.51100000000E-03 0.  1.
         12    1    3    3    0    0 -0.14412839526E+02 -0.96109172001E+01 -0.12288635269E+01  0.17366916197E+02  0.00000000000E+00 0. -1.
</event>
<event>
 7    1  0.1351543E-013  0.7246155E+02  0.7816164E-02  0.1226708E+00
        -11   -1    0    0    0    0  0.00000000000E+00  0.00000000000E+00  0.45593999997E+02  0.45594000000E+02  0.51100000000E-03 0. -1.
         11   -1    0    0    0    0 -0.00000000000E+00 -0.00000000000E+00 -0.45593999997E+02  0.45594000000E+02  0.51100000000E-03 0.  1.
    9900012    2    1    2    0    0  0.12860679995E+02  0.13450647662E+02 -0.20887782006E+01  0.72461547938E+02  0.69999970876E+02 0.  0.
         12    1    1    2    0    0 -0.12860679995E+02 -0.13450647662E+02  0.20887782006E+01  0.18726452062E+02  0.00000000000E+00 0. -1.
         11    1    3    3    0    0  0.87007286004E+01  0.24926057832E+01 -0.24730239992E+02  0.26334398267E+02  0.51100000000E-03 0. -1.
        -11    1    3    3    0    0  0.10779748907E+02  0.21738992644E+02  0.55994601292E+01  0.24902625196E+02  0.51100000000E-03 0.  1.
         12    1    3    3    0    0 -0.66197975119E+01 -0.10780950765E+02  0.17042001662E+02  0.21224524474E+02  0.00000000000E+00 0. -1.
</event>
<event>
 7    1  0.1351543E-013  0.7246157E+02  0.7816164E-02  0.1226708E+00
        -11   -1    0    0    0    0  0.00000000000E+00  0.00000000000E+00  0.45593999997E+02  0.45594000000E+02  0.51100000000E-03 0. -1.
         11   -1    0    0    0    0 -0.00000000000E+00 -0.00000000000E+00 -0.45593999997E+02  0.45594000000E+02  0.51100000000E-03 0.  1.
    9900012    2    1    2    0    0 -0.16575336822E+02  0.85972602536E+00 -0.86716828047E+01  0.72461574760E+02  0.70000005817E+02 0.  0.
         12    1    1    2    0    0  0.16575336822E+02 -0.85972602536E+00  0.86716828047E+01  0.18726425240E+02  0.00000000000E+00 0. -1.
         11    1    3    3    0    0  0.28289454161E+01  0.20906219023E+02  0.16595772653E+02  0.26841993149E+02  0.51100000000E-03 0. -1.
        -11    1    3    3    0    0 -0.16867559821E+02  0.87291656544E+00 -0.11981336231E+02  0.20708186202E+02  0.51100000000E-03 0.  1.
         12    1    3    3    0    0 -0.25367224174E+01 -0.20919409563E+02 -0.13286119227E+02  0.24911395408E+02  0.00000000000E+00 0. -1.
</event>
<event>
 8    1  0.1351543E-013  0.7246159E+02  0.7816164E-02  0.1226708E+00
        -11   -1    0    0    0    0  0.00000000000E+00  0.00000000000E+00  0.45593999997E+02  0.45594000000E+02  0.51100000000E-03 0.  1.
         11   -1    0    0    0    0 -0.00000000000E+00 -0.00000000000E+00 -0.45593999997E+02  0.45594000000E+02  0.51100000000E-03 0. -1.
    9900012    2    1    2    0    0  0.17507479220E+02 -0.38547893999E+01  0.54136094254E+01  0.72461590921E+02  0.70000026871E+02 0.  0.
        -24    2    3    3    0    0  0.24786069631E+02 -0.59885715520E+00 -0.55977301466E+01  0.58866423670E+02  0.53096265173E+02 0.  0.
         12    1    1    2    0    0 -0.17507479220E+02  0.38547893999E+01 -0.54136094254E+01  0.18726409079E+02  0.00000000000E+00 0. -1.
         11    1    4    4    0    0  0.99591690332E+00  0.23091009631E+02 -0.96561329583E+01  0.25048502555E+02  0.51100000000E-03 0. -1.
        -11    1    3    3    0    0 -0.72785904108E+01 -0.32559322447E+01  0.11011339572E+02  0.13595167251E+02  0.51100000000E-03 0.  1.
        -12    1    4    4    0    0  0.23790152728E+02 -0.23689866787E+02  0.40584028118E+01  0.33817921115E+02  0.00000000000E+00 0.  1.
</event>
<event>
 7    1  0.1351543E-013  0.7246094E+02  0.7816164E-02  0.1226710E+00
        -11   -1    0    0    0    0  0.00000000000E+00  0.00000000000E+00  0.45593999997E+02  0.45594000000E+02  0.51100000000E-03 0. -1.
         11   -1    0    0    0    0 -0.00000000000E+00 -0.00000000000E+00 -0.45593999997E+02  0.45594000000E+02  0.51100000000E-03 0.  1.
    9900012    2    1    2    0    0 -0.16259319850E+02 -0.88842243091E+01 -0.27217533072E+01  0.72460937640E+02  0.69999175846E+02 0.  0.
         12    1    1    2    0    0  0.16259319850E+02  0.88842243091E+01  0.27217533072E+01  0.18727062360E+02  0.00000000000E+00 0. -1.
         11    1    3    3    0    0 -0.33454804378E+02 -0.97202990767E+01  0.93617213341E+00  0.34850890500E+02  0.51100000000E-03 0. -1.
        -11    1    3    3    0    0  0.80271282346E+01 -0.15948993956E+02  0.11403963334E+01  0.17891497979E+02  0.51100000000E-03 0.  1.
         12    1    3    3    0    0  0.91683562937E+01  0.16785068723E+02 -0.47983217739E+01  0.19718549161E+02  0.00000000000E+00 0. -1.
</event>
<event>
 7    1  0.1351543E-013  0.7246158E+02  0.7816164E-02  0.1226708E+00
        -11   -1    0    0    0    0  0.00000000000E+00  0.00000000000E+00  0.45593999997E+02  0.45594000000E+02  0.51100000000E-03 0.  1.
         11   -1    0    0    0    0 -0.00000000000E+00 -0.00000000000E+00 -0.45593999997E+02  0.45594000000E+02  0.51100000000E-03 0. -1.
    9900012    2    1    2    0    0  0.95212529200E+01  0.15254294281E+02  0.52279134817E+01  0.72461579345E+02  0.70000011790E+02 0.  0.
         12    1    1    2    0    0 -0.95212529200E+01 -0.15254294281E+02 -0.52279134817E+01  0.18726420655E+02  0.00000000000E+00 0. -1.
         11    1    3    3    0    0 -0.15334750538E+02 -0.11433018491E+02 -0.78472099138E+01  0.20674795999E+02  0.51100000000E-03 0. -1.
        -11    1    3    3    0    0  0.10137370920E+02  0.11479581602E+02  0.23612848398E+02  0.28144514433E+02  0.51100000000E-03 0.  1.
         12    1    3    3    0    0  0.14718632538E+02  0.15207731170E+02 -0.10537725003E+02  0.23642268913E+02  0.00000000000E+00 0. -1.
</event>
<event>
 7    1  0.1351543E-013  0.7246163E+02  0.7816164E-02  0.1226708E+00
        -11   -1    0    0    0    0  0.00000000000E+00  0.00000000000E+00  0.45593999997E+02  0.45594000000E+02  0.51100000000E-03 0.  1.
         11   -1    0    0    0    0 -0.00000000000E+00 -0.00000000000E+00 -0.45593999997E+02  0.45594000000E+02  0.51100000000E-03 0. -1.
    9900012    2    1    2    0    0  0.11714379080E+02 -0.10143748334E+02  0.10514491613E+02  0.72461632456E+02  0.70000080977E+02 0.  0.
         12    1    1    2    0    0 -0.11714379080E+02  0.10143748334E+02 -0.10514491613E+02  0.18726367544E+02  0.00000000000E+00 0. -1.
         11    1    3    3    0    0  0.26747996986E+02 -0.21028482774E+01 -0.20960710895E+02  0.34047447997E+02  0.51100000000E-03 0. -1.
        -11    1    3    3    0    0 -0.17343865134E+01 -0.60545556173E+01  0.19202115675E+02  0.20208586961E+02  0.51100000000E-03 0.  1.
         12    1    3    3    0    0 -0.13299231392E+02 -0.19863444391E+01  0.12273086833E+02  0.18205597498E+02  0.00000000000E+00 0. -1.
</event>
<event>
 7    1  0.1351543E-013  0.7246170E+02  0.7816164E-02  0.1226708E+00
        -11   -1    0    0    0    0  0.00000000000E+00  0.00000000000E+00  0.45593999997E+02  0.45594000000E+02  0.51100000000E-03 0.  1.
         11   -1    0    0    0    0 -0.00000000000E+00 -0.00000000000E+00 -0.45593999997E+02  0.45594000000E+02  0.51100000000E-03 0. -1.
    9900012    2    1    2    0    0 -0.11507749847E+02  0.83303912004E+01  0.12200428378E+02  0.72461703605E+02  0.70000173661E+02 0.  0.
         12    1    1    2    0    0  0.11507749847E+02 -0.83303912004E+01 -0.12200428378E+02  0.18726296395E+02  0.00000000000E+00 0. -1.
         11    1    3    3    0    0  0.37358401650E+00  0.11730120893E+02 -0.33197218684E+01  0.12196550935E+02  0.51100000000E-03 0.  1.
        -11    1    3    3    0    0  0.48422800134E+01 -0.27890600960E+02  0.10470830825E+02  0.30182306010E+02  0.51100000000E-03 0. -1.
        -12    1    3    3    0    0 -0.16723613876E+02  0.24490871268E+02  0.50493194212E+01  0.30082846660E+02  0.00000000000E+00 0.  1.
</event>
<event>
 7    1  0.1351543E-013  0.7246155E+02  0.7816164E-02  0.1226708E+00
        -11   -1    0    0    0    0  0.00000000000E+00  0.00000000000E+00  0.45593999997E+02  0.45594000000E+02  0.51100000000E-03 0. -1.
         11   -1    0    0    0    0 -0.00000000000E+00 -0.00000000000E+00 -0.45593999997E+02  0.45594000000E+02  0.51100000000E-03 0.  1.
    9900012    2    1    2    0    0  0.26232592559E+01 -0.18526413439E+02 -0.75515512077E+00  0.72461554975E+02  0.69999980043E+02 0.  0.
         12    1    1    2    0    0 -0.26232592559E+01  0.18526413439E+02  0.75515512077E+00  0.18726445025E+02  0.00000000000E+00 0. -1.
         11    1    3    3    0    0 -0.25523062299E+02  0.11028727206E+02 -0.85225448790E+01  0.29080806460E+02  0.51100000000E-03 0. -1.
        -11    1    3    3    0    0 -0.15498274114E-01 -0.28639634150E+01 -0.18451338374E+01  0.34069114720E+01  0.51100000000E-03 0.  1.
         12    1    3    3    0    0  0.28161819830E+02 -0.26691177229E+02  0.96125235956E+01  0.39973837042E+02  0.00000000000E+00 0. -1.
</event>
<event>
 7    1  0.1351543E-013  0.7246163E+02  0.7816164E-02  0.1226708E+00
        -11   -1    0    0    0    0  0.00000000000E+00  0.00000000000E+00  0.45593999997E+02  0.45594000000E+02  0.51100000000E-03 0.  1.
         11   -1    0    0    0    0 -0.00000000000E+00 -0.00000000000E+00 -0.45593999997E+02  0.45594000000E+02  0.51100000000E-03 0. -1.
    9900012    2    1    2    0    0  0.76202389864E+01 -0.93205603838E+00  0.17080398606E+02  0.72461633903E+02  0.70000082862E+02 0.  0.
         12    1    1    2    0    0 -0.76202389864E+01  0.93205603838E+00 -0.17080398606E+02  0.18726366097E+02  0.00000000000E+00 0. -1.
         11    1    3    3    0    0  0.17166360880E+01  0.95305972197E+01 -0.23210795678E+02  0.25149953461E+02  0.51100000000E-03 0. -1.
        -11    1    3    3    0    0  0.13159407094E+02 -0.19251095752E+01  0.18198059101E+02  0.22539862405E+02  0.51100000000E-03 0.  1.
         12    1    3    3    0    0 -0.72558041955E+01 -0.85375436829E+01  0.22093135182E+02  0.24771818037E+02  0.00000000000E+00 0. -1.
</event>
<event>
 7    1  0.1351543E-013  0.7246152E+02  0.7816164E-02  0.1226708E+00
        -11   -1    0    0    0    0  0.00000000000E+00  0.00000000000E+00  0.45593999997E+02  0.45594000000E+02  0.51100000000E-03 0.  1.
         11   -1    0    0    0    0 -0.00000000000E+00 -0.00000000000E+00 -0.45593999997E+02  0.45594000000E+02  0.51100000000E-03 0. -1.
    9900012    2    1    2    0    0  0.64519043786E+01  0.53992379028E+01  0.16730275545E+02  0.72461522492E+02  0.69999937728E+02 0.  0.
         12    1    1    2    0    0 -0.64519043786E+01 -0.53992379028E+01 -0.16730275545E+02  0.18726477508E+02  0.00000000000E+00 0. -1.
         11    1    3    3    0    0  0.27951796495E+02  0.55449586956E+01  0.20122383761E+02  0.34884951235E+02  0.51100000000E-03 0.  1.
        -11    1    3    3    0    0 -0.26232078209E+02  0.74691501092E+01 -0.65869966521E+01  0.28058842736E+02  0.51100000000E-03 0. -1.
         12    1    3    3    0    0  0.47321860927E+01 -0.76148709020E+01  0.31948884368E+01  0.95177285207E+01  0.00000000000E+00 0. -1.
</event>
<event>
 7    1  0.1351543E-013  0.7246174E+02  0.7816164E-02  0.1226708E+00
        -11   -1    0    0    0    0  0.00000000000E+00  0.00000000000E+00  0.45593999997E+02  0.45594000000E+02  0.51100000000E-03 0. -1.
         11   -1    0    0    0    0 -0.00000000000E+00 -0.00000000000E+00 -0.45593999997E+02  0.45594000000E+02  0.51100000000E-03 0.  1.
    9900012    2    1    2    0    0  0.98354951839E+01 -0.60023448511E+01 -0.14761692345E+02  0.72461743831E+02  0.70000226063E+02 0.  0.
         12    1    1    2    0    0 -0.98354951839E+01  0.60023448511E+01  0.14761692345E+02  0.18726256169E+02  0.00000000000E+00 0. -1.
         11    1    3    3    0    0  0.22823207462E+00 -0.73153764446E+01  0.19100024365E+02  0.20454284476E+02  0.51100000000E-03 0. -1.
        -11    1    3    3    0    0  0.11985632663E+02  0.17064479054E+02 -0.28260691395E+02  0.35121482231E+02  0.51100000000E-03 0.  1.
         12    1    3    3    0    0 -0.23783695535E+01 -0.15751447461E+02 -0.56010253153E+01  0.16885977124E+02  0.00000000000E+00 0. -1.
</event>
<event>
 7    1  0.1351543E-013  0.7246188E+02  0.7816164E-02  0.1226707E+00
        -11   -1    0    0    0    0  0.00000000000E+00  0.00000000000E+00  0.45593999997E+02  0.45594000000E+02  0.51100000000E-03 0.  1.
         11   -1    0    0    0    0 -0.00000000000E+00 -0.00000000000E+00 -0.45593999997E+02  0.45594000000E+02  0.51100000000E-03 0. -1.
    9900012    2    1    2    0    0 -0.16492393697E+02 -0.88666917511E+01 -0.22400727176E+00  0.72461883165E+02  0.70000407571E+02 0.  0.
         12    1    1    2    0    0  0.16492393697E+02  0.88666917511E+01  0.22400727176E+00  0.18726116835E+02  0.00000000000E+00 0. -1.
         11    1    3    3    0    0 -0.19301641059E+02 -0.98703311260E+01 -0.25283102143E+02  0.33304835059E+02  0.51100000000E-03 0. -1.
        -11    1    3    3    0    0 -0.44565379255E+01  0.13785504939E+02  0.17189898043E+02  0.22480957980E+02  0.51100000000E-03 0.  1.
         12    1    3    3    0    0  0.72657852875E+01 -0.12781865565E+02  0.78691968280E+01  0.16676090125E+02  0.00000000000E+00 0. -1.
</event>
<event>
 7    1  0.1351543E-013  0.7246157E+02  0.7816164E-02  0.1226708E+00
        -11   -1    0    0    0    0  0.00000000000E+00  0.00000000000E+00  0.45593999997E+02  0.45594000000E+02  0.51100000000E-03 0.  1.
         11   -1    0    0    0    0 -0.00000000000E+00 -0.00000000000E+00 -0.45593999997E+02  0.45594000000E+02  0.51100000000E-03 0. -1.
    9900012    2    1    2    0    0  0.56892073960E+01  0.17284933582E+02 -0.44207467293E+01  0.72461574517E+02  0.70000005501E+02 0.  0.
         12    1    1    2    0    0 -0.56892073960E+01 -0.17284933582E+02  0.44207467293E+01  0.18726425483E+02  0.00000000000E+00 0. -1.
         11    1    3    3    0    0 -0.24181210139E+02 -0.28717815097E+01 -0.17825103444E+02  0.30178011297E+02  0.51100000000E-03 0. -1.
        -11    1    3    3    0    0  0.21923400382E+02  0.15541594815E+02  0.17659428987E+02  0.32156369293E+02  0.51100000000E-03 0.  1.
         12    1    3    3    0    0  0.79470171525E+01  0.46151202768E+01 -0.42550722724E+01  0.10127193927E+02  0.00000000000E+00 0. -1.
</event>
<event>
 7    1  0.1351543E-013  0.7246154E+02  0.7816164E-02  0.1226708E+00
        -11   -1    0    0    0    0  0.00000000000E+00  0.00000000000E+00  0.45593999997E+02  0.45594000000E+02  0.51100000000E-03 0.  1.
         11   -1    0    0    0    0 -0.00000000000E+00 -0.00000000000E+00 -0.45593999997E+02  0.45594000000E+02  0.51100000000E-03 0. -1.
    9900012    2    1    2    0    0 -0.13918256226E+02  0.34994861212E+01  0.12029801085E+02  0.72461538144E+02  0.69999958119E+02 0.  0.
         12    1    1    2    0    0  0.13918256226E+02 -0.34994861212E+01 -0.12029801085E+02  0.18726461856E+02  0.00000000000E+00 0. -1.
         11    1    3    3    0    0  0.13739331788E+01 -0.18984150049E+02 -0.91811096786E+01  0.21132402151E+02  0.51100000000E-03 0. -1.
        -11    1    3    3    0    0  0.28601558168E+01  0.11652858692E+02  0.26886589297E+02  0.29442457290E+02  0.51100000000E-03 0.  1.
        -12    1    3    3    0    0 -0.18152345222E+02  0.10830777478E+02 -0.56756785341E+01  0.21886678703E+02  0.00000000000E+00 0.  1.
</event>
<event>
 7    1  0.1351543E-013  0.7246158E+02  0.7816164E-02  0.1226708E+00
        -11   -1    0    0    0    0  0.00000000000E+00  0.00000000000E+00  0.45593999997E+02  0.45594000000E+02  0.51100000000E-03 0.  1.
         11   -1    0    0    0    0 -0.00000000000E+00 -0.00000000000E+00 -0.45593999997E+02  0.45594000000E+02  0.51100000000E-03 0. -1.
    9900012    2    1    2    0    0 -0.14558757951E+02  0.68301879588E+01  0.95953043332E+01  0.72461581072E+02  0.70000014040E+02 0.  0.
         12    1    1    2    0    0  0.14558757951E+02 -0.68301879588E+01 -0.95953043332E+01  0.18726418928E+02  0.00000000000E+00 0. -1.
         11    1    3    3    0    0  0.83851462993E+01 -0.34412933003E+01 -0.97336866834E+00  0.91159544133E+01  0.51100000000E-03 0. -1.
        -11    1    3    3    0    0 -0.18691109222E+02  0.26286675332E+02  0.25440752157E+02  0.41080150128E+02  0.51100000000E-03 0.  1.
        -12    1    3    3    0    0 -0.42527950281E+01 -0.16015194073E+02 -0.14872079155E+02  0.22265476531E+02  0.00000000000E+00 0.  1.
</event>
<event>
 8    1  0.1351543E-013  0.7246158E+02  0.7816164E-02  0.1226708E+00
        -11   -1    0    0    0    0  0.00000000000E+00  0.00000000000E+00  0.45593999997E+02  0.45594000000E+02  0.51100000000E-03 0.  1.
         11   -1    0    0    0    0 -0.00000000000E+00 -0.00000000000E+00 -0.45593999997E+02  0.45594000000E+02  0.51100000000E-03 0. -1.
    9900012    2    1    2    0    0 -0.52505767556E+01  0.13276473726E+02  0.12117983751E+02  0.72461579064E+02  0.70000011424E+02 0.  0.
         24    2    3    3    0    0 -0.74472369396E+01 -0.63935721751E+01  0.15442474597E+02  0.52391993584E+02  0.49092890186E+02 0.  0.
         12    1    1    2    0    0  0.52505767556E+01 -0.13276473726E+02 -0.12117983751E+02  0.18726420936E+02  0.00000000000E+00 0. -1.
         11    1    3    3    0    0  0.21966601840E+01  0.19670045901E+02 -0.33244908453E+01  0.20069585481E+02  0.51100000000E-03 0.  1.
        -11    1    4    4    0    0 -0.41200215328E+01 -0.21557829142E+02 -0.87653891822E+01  0.23633590978E+02  0.51100000000E-03 0. -1.
         12    1    4    4    0    0 -0.33272154068E+01  0.15164256966E+02  0.24207863779E+02  0.28758402606E+02  0.00000000000E+00 0. -1.
</event>
<event>
 7    1  0.1351543E-013  0.7246158E+02  0.7816164E-02  0.1226708E+00
        -11   -1    0    0    0    0  0.00000000000E+00  0.00000000000E+00  0.45593999997E+02  0.45594000000E+02  0.51100000000E-03 0. -1.
         11   -1    0    0    0    0 -0.00000000000E+00 -0.00000000000E+00 -0.45593999997E+02  0.45594000000E+02  0.51100000000E-03 0.  1.
    9900012    2    1    2    0    0 -0.64690089035E+01  0.85921347935E+01 -0.15329904689E+02  0.72461579246E+02  0.70000011661E+02 0.  0.
         12    1    1    2    0    0  0.64690089035E+01 -0.85921347935E+01  0.15329904689E+02  0.18726420754E+02  0.00000000000E+00 0. -1.
         11    1    3    3    0    0 -0.32288125529E+02 -0.82124027695E+01  0.17585300021E+01  0.33362539433E+02  0.51100000000E-03 0. -1.
        -11    1    3    3    0    0  0.21002830127E+02  0.16224827519E+02 -0.63106004655E+01  0.27279801683E+02  0.51100000000E-03 0.  1.
         12    1    3    3    0    0  0.48162864976E+01  0.57971004411E+00 -0.10777834226E+02  0.11819238129E+02  0.00000000000E+00 0. -1.
</event>
<event>
 7    1  0.1351543E-013  0.7246159E+02  0.7816164E-02  0.1226708E+00
        -11   -1    0    0    0    0  0.00000000000E+00  0.00000000000E+00  0.45593999997E+02  0.45594000000E+02  0.51100000000E-03 0. -1.
         11   -1    0    0    0    0 -0.00000000000E+00 -0.00000000000E+00 -0.45593999997E+02  0.45594000000E+02  0.51100000000E-03 0.  1.
    9900012    2    1    2    0    0  0.17366998905E+02  0.50134359949E+01 -0.48919707487E+01  0.72461586322E+02  0.70000020879E+02 0.  0.
         12    1    1    2    0    0 -0.17366998905E+02 -0.50134359949E+01  0.48919707487E+01  0.18726413678E+02  0.00000000000E+00 0. -1.
         11    1    3    3    0    0  0.37049747071E+02 -0.50153245212E+01 -0.17087868806E+00  0.37388052074E+02  0.51100000000E-03 0. -1.
        -11    1    3    3    0    0 -0.16808246327E+02  0.14054637128E+02  0.64637558403E+01  0.22843601056E+02  0.51100000000E-03 0.  1.
         12    1    3    3    0    0 -0.28745018391E+01 -0.40258766118E+01 -0.11184847901E+02  0.12229933192E+02  0.00000000000E+00 0. -1.
</event>
<event>
 7    1  0.1351543E-013  0.7246157E+02  0.7816164E-02  0.1226708E+00
        -11   -1    0    0    0    0  0.00000000000E+00  0.00000000000E+00  0.45593999997E+02  0.45594000000E+02  0.51100000000E-03 0.  1.
         11   -1    0    0    0    0 -0.00000000000E+00 -0.00000000000E+00 -0.45593999997E+02  0.45594000000E+02  0.51100000000E-03 0. -1.
    9900012    2    1    2    0    0 -0.61035692561E+01  0.13074080516E+02  0.11937079871E+02  0.72461574424E+02  0.70000005380E+02 0.  0.
         12    1    1    2    0    0  0.61035692561E+01 -0.13074080516E+02 -0.11937079871E+02  0.18726425576E+02  0.00000000000E+00 0. -1.
         11    1    3    3    0    0  0.15297874324E+02  0.53525090133E+01 -0.57500489567E+01  0.17197016452E+02  0.51100000000E-03 0. -1.
        -11    1    3    3    0    0 -0.18314908851E+02 -0.65034826316E+01 -0.11547221874E+02  0.22606846437E+02  0.51100000000E-03 0.  1.
        -12    1    3    3    0    0 -0.30865347297E+01  0.14225054134E+02  0.29234350702E+02  0.32657711535E+02  0.00000000000E+00 0.  1.
</event>
<event>
 7    1  0.1351543E-013  0.7246154E+02  0.7816164E-02  0.1226708E+00
        -11   -1    0    0    0    0  0.00000000000E+00  0.00000000000E+00  0.45593999997E+02  0.45594000000E+02  0.51100000000E-03 0. -1.
         11   -1    0    0    0    0 -0.00000000000E+00 -0.00000000000E+00 -0.45593999997E+02  0.45594000000E+02  0.51100000000E-03 0.  1.
    9900012    2    1    2    0    0  0.41357278546E+01  0.16139567772E+02 -0.85492828312E+01  0.72461544658E+02  0.69999966603E+02 0.  0.
         12    1    1    2    0    0 -0.41357278546E+01 -0.16139567772E+02  0.85492828312E+01  0.18726455342E+02  0.00000000000E+00 0. -1.
         11    1    3    3    0    0  0.30929876662E+01  0.23428009712E+01  0.61762967582E+01  0.72939653824E+01  0.51100000000E-03 0. -1.
        -11    1    3    3    0    0  0.16692341910E+02  0.30065500729E+02 -0.22724264145E+02  0.41218452103E+02  0.51100000000E-03 0.  1.
        -12    1    3    3    0    0 -0.15649601722E+02 -0.16268733928E+02  0.79986845560E+01  0.23949127172E+02  0.00000000000E+00 0.  1.
</event>
<event>
 7    1  0.1351543E-013  0.7246155E+02  0.7816164E-02  0.1226708E+00
        -11   -1    0    0    0    0  0.00000000000E+00  0.00000000000E+00  0.45593999997E+02  0.45594000000E+02  0.51100000000E-03 0.  1.
         11   -1    0    0    0    0 -0.00000000000E+00 -0.00000000000E+00 -0.45593999997E+02  0.45594000000E+02  0.51100000000E-03 0. -1.
    9900012    2    1    2    0    0  0.13097511439E+02  0.62187010549E+01  0.11851702022E+02  0.72461551070E+02  0.69999974957E+02 0.  0.
         12    1    1    2    0    0 -0.13097511439E+02 -0.62187010549E+01 -0.11851702022E+02  0.18726448930E+02  0.00000000000E+00 0. -1.
         11    1    3    3    0    0  0.74264044450E+01  0.84275855097E+01 -0.11348857556E+02  0.15967850469E+02  0.51100000000E-03 0. -1.
        -11    1    3    3    0    0  0.20786092231E+02  0.91771702177E+01  0.28869952973E+02  0.36739029225E+02  0.51100000000E-03 0.  1.
        -12    1    3    3    0    0 -0.15114985238E+02 -0.11386054672E+02 -0.56693933949E+01  0.19754671377E+02  0.00000000000E+00 0.  1.
</event>
<event>
 7    1  0.1351543E-013  0.7246159E+02  0.7816164E-02  0.1226708E+00
        -11   -1    0    0    0    0  0.00000000000E+00  0.00000000000E+00  0.45593999997E+02  0.45594000000E+02  0.51100000000E-03 0.  1.
         11   -1    0    0    0    0 -0.00000000000E+00 -0.00000000000E+00 -0.45593999997E+02  0.45594000000E+02  0.51100000000E-03 0. -1.
    9900012    2    1    2    0    0 -0.13189746720E+02  0.10643224160E+02  0.79643446067E+01  0.72461590198E+02  0.70000025928E+02 0.  0.
         12    1    1    2    0    0  0.13189746720E+02 -0.10643224160E+02 -0.79643446067E+01  0.18726409802E+02  0.00000000000E+00 0. -1.
         11    1    3    3    0    0 -0.74086550193E+01 -0.89187883380E+01 -0.27182888972E+01  0.11908906306E+02  0.51100000000E-03 0. -1.
        -11    1    3    3    0    0  0.92284457969E+01  0.33987497026E+00  0.28752956132E+02  0.30199539954E+02  0.51100000000E-03 0.  1.
        -12    1    3    3    0    0 -0.15009537498E+02  0.19222137528E+02 -0.18070322628E+02  0.30353143938E+02  0.00000000000E+00 0.  1.
</event>
<event>
 7    1  0.1351543E-013  0.7246157E+02  0.7816164E-02  0.1226708E+00
        -11   -1    0    0    0    0  0.00000000000E+00  0.00000000000E+00  0.45593999997E+02  0.45594000000E+02  0.51100000000E-03 0. -1.
         11   -1    0    0    0    0 -0.00000000000E+00 -0.00000000000E+00 -0.45593999997E+02  0.45594000000E+02  0.51100000000E-03 0.  1.
    9900012    2    1    2    0    0 -0.17446913380E+01  0.10206292984E+02 -0.15603420731E+02  0.72461572074E+02  0.70000002319E+02 0.  0.
         12    1    1    2    0    0  0.17446913380E+01 -0.10206292984E+02  0.15603420731E+02  0.18726427926E+02  0.00000000000E+00 0. -1.
         11    1    3    3    0    0  0.28031093375E+02  0.50905031043E+00 -0.56006180526E+01  0.28589652863E+02  0.51100000000E-03 0.  1.
        -11    1    3    3    0    0 -0.18272063933E+02 -0.92396334131E+01 -0.34320409240E+01  0.20760974234E+02  0.51100000000E-03 0. -1.
         12    1    3    3    0    0 -0.11503720780E+02  0.18936876086E+02 -0.65707617548E+01  0.23110944977E+02  0.00000000000E+00 0. -1.
</event>
<event>
 7    1  0.1351543E-013  0.7246165E+02  0.7816164E-02  0.1226708E+00
        -11   -1    0    0    0    0  0.00000000000E+00  0.00000000000E+00  0.45593999997E+02  0.45594000000E+02  0.51100000000E-03 0. -1.
         11   -1    0    0    0    0 -0.00000000000E+00 -0.00000000000E+00 -0.45593999997E+02  0.45594000000E+02  0.51100000000E-03 0.  1.
    9900012    2    1    2    0    0 -0.16182396446E+02  0.62880098902E+01 -0.70190618935E+01  0.72461648167E+02  0.70000101443E+02 0.  0.
         12    1    1    2    0    0  0.16182396446E+02 -0.62880098902E+01  0.70190618935E+01  0.18726351833E+02  0.00000000000E+00 0. -1.
         11    1    3    3    0    0 -0.37392043847E+02  0.83014930201E+01  0.12976258258E+02  0.40440858152E+02  0.51100000000E-03 0. -1.
        -11    1    3    3    0    0  0.14614394129E+02 -0.13779913799E+01 -0.48005679395E+01  0.15444249053E+02  0.51100000000E-03 0.  1.
         12    1    3    3    0    0  0.65952532725E+01 -0.63549174997E+00 -0.15194752212E+02  0.16576540962E+02  0.00000000000E+00 0. -1.
</event>
<event>
 7    1  0.1351543E-013  0.7246152E+02  0.7816164E-02  0.1226708E+00
        -11   -1    0    0    0    0  0.00000000000E+00  0.00000000000E+00  0.45593999997E+02  0.45594000000E+02  0.51100000000E-03 0. -1.
         11   -1    0    0    0    0 -0.00000000000E+00 -0.00000000000E+00 -0.45593999997E+02  0.45594000000E+02  0.51100000000E-03 0.  1.
    9900012    2    1    2    0    0  0.72399085828E+01  0.25658562149E+01 -0.17078673656E+02  0.72461521734E+02  0.69999936740E+02 0.  0.
         12    1    1    2    0    0 -0.72399085828E+01 -0.25658562149E+01  0.17078673656E+02  0.18726478266E+02  0.00000000000E+00 0. -1.
         11    1    3    3    0    0  0.85832796119E+01  0.10906855225E+02  0.12188278062E+01  0.13932613584E+02  0.51100000000E-03 0. -1.
        -11    1    3    3    0    0 -0.23814801026E+02  0.73808458392E+00  0.56181320692E+01  0.24479643073E+02  0.51100000000E-03 0.  1.
        -12    1    3    3    0    0  0.22471429997E+02 -0.90790835938E+01 -0.23915633532E+02  0.34049265077E+02  0.00000000000E+00 0.  1.
</event>
<event>
 7    1  0.1351543E-013  0.7246157E+02  0.7816164E-02  0.1226708E+00
        -11   -1    0    0    0    0  0.00000000000E+00  0.00000000000E+00  0.45593999997E+02  0.45594000000E+02  0.51100000000E-03 0.  1.
         11   -1    0    0    0    0 -0.00000000000E+00 -0.00000000000E+00 -0.45593999997E+02  0.45594000000E+02  0.51100000000E-03 0. -1.
    9900012    2    1    2    0    0  0.18821567679E+01 -0.17087891230E+02  0.74256802214E+01  0.72461567677E+02  0.69999996591E+02 0.  0.
         12    1    1    2    0    0 -0.18821567679E+01  0.17087891230E+02 -0.74256802214E+01  0.18726432323E+02  0.00000000000E+00 0. -1.
         11    1    3    3    0    0 -0.20154707285E+01 -0.25920020605E+02  0.65278133152E+01  0.26805259509E+02  0.51100000000E-03 0.  1.
        -11    1    3    3    0    0 -0.25303578814E+01  0.96722429811E+01 -0.20763807635E+02  0.23045405249E+02  0.51100000000E-03 0. -1.
        -12    1    3    3    0    0  0.64279853778E+01 -0.84011360648E+00  0.21661674542E+02  0.22610902919E+02  0.00000000000E+00 0.  1.
</event>
<event>
 7    1  0.1351543E-013  0.7246157E+02  0.7816164E-02  0.1226708E+00
        -11   -1    0    0    0    0  0.00000000000E+00  0.00000000000E+00  0.45593999997E+02  0.45594000000E+02  0.51100000000E-03 0.  1.
         11   -1    0    0    0    0 -0.00000000000E+00 -0.00000000000E+00 -0.45593999997E+02  0.45594000000E+02  0.51100000000E-03 0. -1.
    9900012    2    1    2    0    0  0.52987379297E+01  0.15927890704E+02  0.83009053968E+01  0.72461565307E+02  0.69999993503E+02 0.  0.
         12    1    1    2    0    0 -0.52987379297E+01 -0.15927890704E+02 -0.83009053968E+01  0.18726434693E+02  0.00000000000E+00 0. -1.
         11    1    3    3    0    0 -0.10095145037E+02  0.11175846999E+02 -0.45947057411E+01  0.15745565426E+02  0.51100000000E-03 0.  1.
        -11    1    3    3    0    0  0.21910045512E+02 -0.76930494114E+01 -0.13467197621E+02  0.26843966093E+02  0.51100000000E-03 0. -1.
        -12    1    3    3    0    0 -0.65161625454E+01  0.12445093116E+02  0.26362808759E+02  0.29872033788E+02  0.00000000000E+00 0.  1.
</event>
<event>
 7    1  0.1351543E-013  0.7246148E+02  0.7816164E-02  0.1226708E+00
        -11   -1    0    0    0    0  0.00000000000E+00  0.00000000000E+00  0.45593999997E+02  0.45594000000E+02  0.51100000000E-03 0.  1.
         11   -1    0    0    0    0 -0.00000000000E+00 -0.00000000000E+00 -0.45593999997E+02  0.45594000000E+02  0.51100000000E-03 0. -1.
    9900012    2    1    2    0    0 -0.10755006484E+02 -0.14346241810E+02 -0.54034792067E+01  0.72461483878E+02  0.69999887426E+02 0.  0.
         12    1    1    2    0    0  0.10755006484E+02  0.14346241810E+02  0.54034792067E+01  0.18726516122E+02  0.00000000000E+00 0. -1.
         11    1    3    3    0    0  0.14150542417E+02  0.88773636934E+01 -0.22889153039E+02  0.28336527027E+02  0.51100000000E-03 0. -1.
        -11    1    3    3    0    0 -0.52220377541E+01 -0.17377846073E+02  0.16996724367E+01  0.18224930702E+02  0.51100000000E-03 0.  1.
         12    1    3    3    0    0 -0.19683511147E+02 -0.58457594301E+01  0.15786001396E+02  0.25900026148E+02  0.00000000000E+00 0. -1.
</event>
<event>
 7    1  0.1351543E-013  0.7246159E+02  0.7816164E-02  0.1226708E+00
        -11   -1    0    0    0    0  0.00000000000E+00  0.00000000000E+00  0.45593999997E+02  0.45594000000E+02  0.51100000000E-03 0.  1.
         11   -1    0    0    0    0 -0.00000000000E+00 -0.00000000000E+00 -0.45593999997E+02  0.45594000000E+02  0.51100000000E-03 0. -1.
    9900012    2    1    2    0    0  0.10545249733E+02  0.15315982044E+02  0.22128439233E+01  0.72461594148E+02  0.70000031074E+02 0.  0.
         12    1    1    2    0    0 -0.10545249733E+02 -0.15315982044E+02 -0.22128439233E+01  0.18726405852E+02  0.00000000000E+00 0. -1.
         11    1    3    3    0    0  0.32865372318E+01 -0.37116930733E+01  0.11664858034E+01  0.50930032237E+01  0.51100000000E-03 0. -1.
        -11    1    3    3    0    0 -0.25514243370E+02 -0.28353683834E+01 -0.81108812064E+01  0.26922153013E+02  0.51100000000E-03 0.  1.
        -12    1    3    3    0    0  0.32772955871E+02  0.21863043501E+02  0.91572393263E+01  0.40446437912E+02  0.00000000000E+00 0.  1.
</event>
<event>
 7    1  0.1351543E-013  0.7246165E+02  0.7816164E-02  0.1226708E+00
        -11   -1    0    0    0    0  0.00000000000E+00  0.00000000000E+00  0.45593999997E+02  0.45594000000E+02  0.51100000000E-03 0. -1.
         11   -1    0    0    0    0 -0.00000000000E+00 -0.00000000000E+00 -0.45593999997E+02  0.45594000000E+02  0.51100000000E-03 0.  1.
    9900012    2    1    2    0    0  0.49303132324E+01  0.21655718142E+01  0.17935395384E+02  0.72461652320E+02  0.70000106854E+02 0.  0.
         12    1    1    2    0    0 -0.49303132324E+01 -0.21655718142E+01 -0.17935395384E+02  0.18726347680E+02  0.00000000000E+00 0. -1.
         11    1    3    3    0    0 -0.22580088856E+02  0.12216231826E+02  0.54404034351E+01  0.26242993780E+02  0.51100000000E-03 0. -1.
        -11    1    3    3    0    0  0.14975416219E+02  0.97775656569E+00  0.22282818343E+02  0.26865276705E+02  0.51100000000E-03 0.  1.
        -12    1    3    3    0    0  0.12534985869E+02 -0.11028416577E+02 -0.97878263944E+01  0.19353381835E+02  0.00000000000E+00 0.  1.
</event>
<event>
 7    1  0.1351543E-013  0.7246162E+02  0.7816164E-02  0.1226708E+00
        -11   -1    0    0    0    0  0.00000000000E+00  0.00000000000E+00  0.45593999997E+02  0.45594000000E+02  0.51100000000E-03 0.  1.
         11   -1    0    0    0    0 -0.00000000000E+00 -0.00000000000E+00 -0.45593999997E+02  0.45594000000E+02  0.51100000000E-03 0. -1.
    9900012    2    1    2    0    0  0.17032697641E+02 -0.77816976158E+01  0.99175628856E-01  0.72461616406E+02  0.70000060069E+02 0.  0.
         12    1    1    2    0    0 -0.17032697641E+02  0.77816976158E+01 -0.99175628856E-01  0.18726383594E+02  0.00000000000E+00 0. -1.
         11    1    3    3    0    0  0.39376664541E+02  0.13942105359E+01 -0.93749900563E+01  0.40501308278E+02  0.51100000000E-03 0.  1.
        -11    1    3    3    0    0 -0.51496450030E+01 -0.48311886108E+01  0.12122363946E+02  0.14028932067E+02  0.51100000000E-03 0. -1.
         12    1    3    3    0    0 -0.17194321898E+02 -0.43447195409E+01 -0.26481982604E+01  0.17931376061E+02  0.00000000000E+00 0. -1.
</event>
<event>
 7    1  0.1351543E-013  0.7246155E+02  0.7816164E-02  0.1226708E+00
        -11   -1    0    0    0    0  0.00000000000E+00  0.00000000000E+00  0.45593999997E+02  0.45594000000E+02  0.51100000000E-03 0. -1.
         11   -1    0    0    0    0 -0.00000000000E+00 -0.00000000000E+00 -0.45593999997E+02  0.45594000000E+02  0.51100000000E-03 0.  1.
    9900012    2    1    2    0    0 -0.10206005641E+02 -0.15253650177E+02 -0.37207039101E+01  0.72461547253E+02  0.69999969985E+02 0.  0.
         12    1    1    2    0    0  0.10206005641E+02  0.15253650177E+02  0.37207039101E+01  0.18726452747E+02  0.00000000000E+00 0. -1.
         11    1    3    3    0    0  0.91641639627E+01 -0.20928090854E+02 -0.19251274710E+02  0.29876051716E+02  0.51100000000E-03 0. -1.
        -11    1    3    3    0    0 -0.10891787701E+02  0.18329761194E+02  0.71138803475E+00  0.21333477400E+02  0.51100000000E-03 0.  1.
         12    1    3    3    0    0 -0.84783819034E+01 -0.12655320518E+02  0.14819182765E+02  0.21252018138E+02  0.00000000000E+00 0. -1.
</event>
<event>
 7    1  0.1351543E-013  0.7246202E+02  0.7816164E-02  0.1226707E+00
        -11   -1    0    0    0    0  0.00000000000E+00  0.00000000000E+00  0.45593999997E+02  0.45594000000E+02  0.51100000000E-03 0.  1.
         11   -1    0    0    0    0 -0.00000000000E+00 -0.00000000000E+00 -0.45593999997E+02  0.45594000000E+02  0.51100000000E-03 0. -1.
    9900012    2    1    2    0    0  0.14946386143E+02  0.11140266531E+02  0.17782849976E+01  0.72462020863E+02  0.70000586947E+02 0.  0.
         12    1    1    2    0    0 -0.14946386143E+02 -0.11140266531E+02 -0.17782849976E+01  0.18725979137E+02  0.00000000000E+00 0. -1.
         11    1    3    3    0    0  0.25138277646E+02 -0.13297971515E+02 -0.35615877604E+01  0.28661018075E+02  0.51100000000E-03 0. -1.
        -11    1    3    3    0    0 -0.20572922697E+02  0.62847127314E+01  0.74912224332E+01  0.22778524452E+02  0.51100000000E-03 0.  1.
         12    1    3    3    0    0  0.10381031193E+02  0.18153525314E+02 -0.21513496752E+01  0.21022478336E+02  0.00000000000E+00 0. -1.
</event>
<event>
 7    1  0.1351543E-013  0.7246156E+02  0.7816164E-02  0.1226708E+00
        -11   -1    0    0    0    0  0.00000000000E+00  0.00000000000E+00  0.45593999997E+02  0.45594000000E+02  0.51100000000E-03 0.  1.
         11   -1    0    0    0    0 -0.00000000000E+00 -0.00000000000E+00 -0.45593999997E+02  0.45594000000E+02  0.51100000000E-03 0. -1.
    9900012    2    1    2    0    0  0.14670135271E+02  0.42674712851E+01  0.10828444216E+02  0.72461564563E+02  0.69999992534E+02 0.  0.
         12    1    1    2    0    0 -0.14670135271E+02 -0.42674712851E+01 -0.10828444216E+02  0.18726435437E+02  0.00000000000E+00 0. -1.
         11    1    3    3    0    0 -0.29875090435E+01 -0.42611992119E+01 -0.81704659662E+01  0.96870812619E+01  0.51100000000E-03 0. -1.
        -11    1    3    3    0    0  0.47695796878E+01 -0.11682164427E+02  0.32780095111E+02  0.35124869991E+02  0.51100000000E-03 0.  1.
        -12    1    3    3    0    0  0.12888064626E+02  0.20210834924E+02 -0.13781184929E+02  0.27649613310E+02  0.00000000000E+00 0.  1.
</event>
<event>
 7    1  0.1351543E-013  0.7246156E+02  0.7816164E-02  0.1226708E+00
        -11   -1    0    0    0    0  0.00000000000E+00  0.00000000000E+00  0.45593999997E+02  0.45594000000E+02  0.51100000000E-03 0.  1.
         11   -1    0    0    0    0 -0.00000000000E+00 -0.00000000000E+00 -0.45593999997E+02  0.45594000000E+02  0.51100000000E-03 0. -1.
    9900012    2    1    2    0    0 -0.17029681748E+02  0.76256045759E+01  0.15873783166E+01  0.72461556785E+02  0.69999982401E+02 0.  0.
         12    1    1    2    0    0  0.17029681748E+02 -0.76256045759E+01 -0.15873783166E+01  0.18726443215E+02  0.00000000000E+00 0. -1.
         11    1    3    3    0    0 -0.14890422241E+02 -0.47988738822E+01 -0.65007046357E+01  0.16941458794E+02  0.51100000000E-03 0. -1.
        -11    1    3    3    0    0  0.22277511210E+02  0.16896577717E+01 -0.87317786060E+01  0.23987213406E+02  0.51100000000E-03 0.  1.
        -12    1    3    3    0    0 -0.24416770717E+02  0.10734820686E+02  0.16819861558E+02  0.31532884585E+02  0.00000000000E+00 0.  1.
</event>
<event>
 7    1  0.1351543E-013  0.7246161E+02  0.7816164E-02  0.1226708E+00
        -11   -1    0    0    0    0  0.00000000000E+00  0.00000000000E+00  0.45593999997E+02  0.45594000000E+02  0.51100000000E-03 0.  1.
         11   -1    0    0    0    0 -0.00000000000E+00 -0.00000000000E+00 -0.45593999997E+02  0.45594000000E+02  0.51100000000E-03 0. -1.
    9900012    2    1    2    0    0 -0.18399670911E+02  0.34439984502E+01 -0.51846779679E+00  0.72461606225E+02  0.70000046806E+02 0.  0.
         12    1    1    2    0    0  0.18399670911E+02 -0.34439984502E+01  0.51846779679E+00  0.18726393775E+02  0.00000000000E+00 0. -1.
         11    1    3    3    0    0 -0.36978427539E+02  0.95964755614E+01 -0.19686309348E+02  0.42977287286E+02  0.51100000000E-03 0. -1.
        -11    1    3    3    0    0  0.11478998605E+02 -0.16148912419E+01  0.17347325006E+02  0.20863963378E+02  0.51100000000E-03 0.  1.
        -12    1    3    3    0    0  0.70997580223E+01 -0.45375858693E+01  0.18205165453E+01  0.86203555604E+01  0.00000000000E+00 0.  1.
</event>
<event>
 7    1  0.1351543E-013  0.7246156E+02  0.7816164E-02  0.1226708E+00
        -11   -1    0    0    0    0  0.00000000000E+00  0.00000000000E+00  0.45593999997E+02  0.45594000000E+02  0.51100000000E-03 0.  1.
         11   -1    0    0    0    0 -0.00000000000E+00 -0.00000000000E+00 -0.45593999997E+02  0.45594000000E+02  0.51100000000E-03 0. -1.
    9900012    2    1    2    0    0  0.14858098396E+02  0.15181581518E+01  0.11296530906E+02  0.72461561400E+02  0.69999988414E+02 0.  0.
         12    1    1    2    0    0 -0.14858098396E+02 -0.15181581518E+01 -0.11296530906E+02  0.18726438600E+02  0.00000000000E+00 0. -1.
         11    1    3    3    0    0 -0.21474207519E+02  0.29652755596E+01  0.25271460958E+02  0.33295362844E+02  0.51100000000E-03 0. -1.
        -11    1    3    3    0    0  0.17665989584E+02  0.20400704127E+00 -0.48349269429E+01  0.18316804461E+02  0.51100000000E-03 0.  1.
         12    1    3    3    0    0  0.18666316331E+02 -0.16511244491E+01 -0.91400031085E+01  0.20849394096E+02  0.00000000000E+00 0. -1.
</event>
<event>
 7    1  0.1351543E-013  0.7246157E+02  0.7816164E-02  0.1226708E+00
        -11   -1    0    0    0    0  0.00000000000E+00  0.00000000000E+00  0.45593999997E+02  0.45594000000E+02  0.51100000000E-03 0. -1.
         11   -1    0    0    0    0 -0.00000000000E+00 -0.00000000000E+00 -0.45593999997E+02  0.45594000000E+02  0.51100000000E-03 0.  1.
    9900012    2    1    2    0    0  0.14000654549E+02  0.12188959188E+02 -0.24678513700E+01  0.72461565628E+02  0.69999993922E+02 0.  0.
         12    1    1    2    0    0 -0.14000654549E+02 -0.12188959188E+02  0.24678513700E+01  0.18726434372E+02  0.00000000000E+00 0. -1.
         11    1    3    3    0    0  0.82819420227E+01 -0.13048214139E+02  0.20220627742E+02  0.25450348572E+02  0.51100000000E-03 0. -1.
        -11    1    3    3    0    0  0.25659262608E+00  0.32017317415E+02 -0.20550351836E+02  0.38045911936E+02  0.51100000000E-03 0.  1.
         12    1    3    3    0    0  0.54621199001E+01 -0.67801440881E+01 -0.21381272765E+01  0.89653051208E+01  0.00000000000E+00 0. -1.
</event>
<event>
 7    1  0.1351543E-013  0.7246160E+02  0.7816164E-02  0.1226708E+00
        -11   -1    0    0    0    0  0.00000000000E+00  0.00000000000E+00  0.45593999997E+02  0.45594000000E+02  0.51100000000E-03 0. -1.
         11   -1    0    0    0    0 -0.00000000000E+00 -0.00000000000E+00 -0.45593999997E+02  0.45594000000E+02  0.51100000000E-03 0.  1.
    9900012    2    1    2    0    0  0.53352634690E+01  0.16725044421E+02  0.65181330609E+01  0.72461596027E+02  0.70000033522E+02 0.  0.
         12    1    1    2    0    0 -0.53352634690E+01 -0.16725044421E+02 -0.65181330609E+01  0.18726403973E+02  0.00000000000E+00 0. -1.
         11    1    3    3    0    0 -0.29630429496E+01  0.33824408077E+02 -0.30790686621E+01  0.34093267215E+02  0.51100000000E-03 0.  1.
        -11    1    3    3    0    0  0.17647419545E+02 -0.24364604259E+01 -0.12735532031E+01  0.17860282585E+02  0.51100000000E-03 0. -1.
         12    1    3    3    0    0 -0.93491131263E+01 -0.14662903231E+02  0.10870754926E+02  0.20508046227E+02  0.00000000000E+00 0. -1.
</event>
<event>
 7    1  0.1351543E-013  0.7246159E+02  0.7816164E-02  0.1226708E+00
        -11   -1    0    0    0    0  0.00000000000E+00  0.00000000000E+00  0.45593999997E+02  0.45594000000E+02  0.51100000000E-03 0.  1.
         11   -1    0    0    0    0 -0.00000000000E+00 -0.00000000000E+00 -0.45593999997E+02  0.45594000000E+02  0.51100000000E-03 0. -1.
    9900012    2    1    2    0    0  0.28633500788E+00  0.11072288440E+02  0.15099701880E+02  0.72461586678E+02  0.70000021343E+02 0.  0.
         12    1    1    2    0    0 -0.28633500788E+00 -0.11072288440E+02 -0.15099701880E+02  0.18726413322E+02  0.00000000000E+00 0. -1.
         11    1    3    3    0    0  0.81418546113E+01 -0.80607231207E+00 -0.20454315963E+02  0.22029947591E+02  0.51100000000E-03 0. -1.
        -11    1    3    3    0    0 -0.29039250770E+01 -0.47659826949E+01  0.32281906799E+02  0.32760782633E+02  0.51100000000E-03 0.  1.
         12    1    3    3    0    0 -0.49515945264E+01  0.16644343447E+02  0.32721110442E+01  0.17670856454E+02  0.00000000000E+00 0. -1.
</event>
<event>
 7    1  0.1351543E-013  0.7246157E+02  0.7816164E-02  0.1226708E+00
        -11   -1    0    0    0    0  0.00000000000E+00  0.00000000000E+00  0.45593999997E+02  0.45594000000E+02  0.51100000000E-03 0. -1.
         11   -1    0    0    0    0 -0.00000000000E+00 -0.00000000000E+00 -0.45593999997E+02  0.45594000000E+02  0.51100000000E-03 0.  1.
    9900012    2    1    2    0    0 -0.18623784261E+02 -0.19212482360E+01 -0.37767061853E+00  0.72461570280E+02  0.69999999981E+02 0.  0.
         12    1    1    2    0    0  0.18623784261E+02  0.19212482360E+01  0.37767061853E+00  0.18726429720E+02  0.00000000000E+00 0. -1.
         11    1    3    3    0    0 -0.31533152422E+02  0.75403800292E+00  0.21286316932E+01  0.31613910674E+02  0.51100000000E-03 0. -1.
        -11    1    3    3    0    0  0.70832556081E+01  0.37726540592E+01 -0.19870684751E+02  0.21430108291E+02  0.51100000000E-03 0.  1.
         12    1    3    3    0    0  0.58261125527E+01 -0.64479402981E+01  0.17364382439E+02  0.19417551314E+02  0.00000000000E+00 0. -1.
</event>
<event>
 7    1  0.1351543E-013  0.7246155E+02  0.7816164E-02  0.1226708E+00
        -11   -1    0    0    0    0  0.00000000000E+00  0.00000000000E+00  0.45593999997E+02  0.45594000000E+02  0.51100000000E-03 0. -1.
         11   -1    0    0    0    0 -0.00000000000E+00 -0.00000000000E+00 -0.45593999997E+02  0.45594000000E+02  0.51100000000E-03 0.  1.
    9900012    2    1    2    0    0  0.60930183032E+00  0.18659750659E+02  0.14568558043E+01  0.72461548862E+02  0.69999972080E+02 0.  0.
         12    1    1    2    0    0 -0.60930183032E+00 -0.18659750659E+02 -0.14568558043E+01  0.18726451138E+02  0.00000000000E+00 0. -1.
         11    1    3    3    0    0  0.11626935405E+02  0.26477196472E+02 -0.80609729564E+01  0.30020107348E+02  0.51100000000E-03 0.  1.
        -11    1    3    3    0    0  0.49867019605E+01 -0.18527103501E+02 -0.30765585413E+01  0.19431571561E+02  0.51100000000E-03 0. -1.
         12    1    3    3    0    0 -0.16004335535E+02  0.10709657689E+02  0.12594387302E+02  0.23009869953E+02  0.00000000000E+00 0. -1.
</event>
<event>
 7    1  0.1351543E-013  0.7246157E+02  0.7816164E-02  0.1226708E+00
        -11   -1    0    0    0    0  0.00000000000E+00  0.00000000000E+00  0.45593999997E+02  0.45594000000E+02  0.51100000000E-03 0.  1.
         11   -1    0    0    0    0 -0.00000000000E+00 -0.00000000000E+00 -0.45593999997E+02  0.45594000000E+02  0.51100000000E-03 0. -1.
    9900012    2    1    2    0    0  0.12250106378E+02  0.31694356488E+01  0.13804668332E+02  0.72461566907E+02  0.69999995588E+02 0.  0.
         12    1    1    2    0    0 -0.12250106378E+02 -0.31694356488E+01 -0.13804668332E+02  0.18726433093E+02  0.00000000000E+00 0. -1.
         11    1    3    3    0    0  0.20555428223E+02 -0.24980255058E+02  0.99019551607E+01  0.33831752666E+02  0.51100000000E-03 0. -1.
        -11    1    3    3    0    0 -0.12152161246E+02  0.46480948619E+01  0.67298652016E+01  0.14648238621E+02  0.51100000000E-03 0.  1.
         12    1    3    3    0    0  0.38468394010E+01  0.23501595845E+02 -0.28271520299E+01  0.23981575620E+02  0.00000000000E+00 0. -1.
</event>
<event>
 7    1  0.1351543E-013  0.7246157E+02  0.7816164E-02  0.1226708E+00
        -11   -1    0    0    0    0  0.00000000000E+00  0.00000000000E+00  0.45593999997E+02  0.45594000000E+02  0.51100000000E-03 0. -1.
         11   -1    0    0    0    0 -0.00000000000E+00 -0.00000000000E+00 -0.45593999997E+02  0.45594000000E+02  0.51100000000E-03 0.  1.
    9900012    2    1    2    0    0  0.14479171885E+02  0.53571354388E+01 -0.10598766990E+02  0.72461570007E+02  0.69999999625E+02 0.  0.
         12    1    1    2    0    0 -0.14479171885E+02 -0.53571354388E+01  0.10598766990E+02  0.18726429993E+02  0.00000000000E+00 0. -1.
         11    1    3    3    0    0  0.25756952393E+02  0.13764422656E+02 -0.97797718083E+01  0.30798114626E+02  0.51100000000E-03 0.  1.
        -11    1    3    3    0    0 -0.14831672465E+02 -0.22404588544E+02  0.20229281900E+01  0.26945061415E+02  0.51100000000E-03 0. -1.
        -12    1    3    3    0    0  0.35538919564E+01  0.13997301327E+02 -0.28419233713E+01  0.14718393966E+02  0.00000000000E+00 0.  1.
</event>
<event>
 8    1  0.1351543E-013  0.7246156E+02  0.7816164E-02  0.1226708E+00
        -11   -1    0    0    0    0  0.00000000000E+00  0.00000000000E+00  0.45593999997E+02  0.45594000000E+02  0.51100000000E-03 0.  1.
         11   -1    0    0    0    0 -0.00000000000E+00 -0.00000000000E+00 -0.45593999997E+02  0.45594000000E+02  0.51100000000E-03 0. -1.
    9900012    2    1    2    0    0  0.11005631887E+02 -0.14748620671E+02  0.34689731430E+01  0.72461560948E+02  0.69999987824E+02 0.  0.
        -24    2    3    3    0    0  0.18279221536E+02 -0.24844790317E+02 -0.19063104878E+01  0.58906804503E+02  0.50149616660E+02 0.  0.
         12    1    1    2    0    0 -0.11005631887E+02  0.14748620671E+02 -0.34689731430E+01  0.18726439052E+02  0.00000000000E+00 0. -1.
         11    1    4    4    0    0 -0.70387635786E+01 -0.31648302752E+02 -0.36851247958E+01  0.32630344847E+02  0.51100000000E-03 0. -1.
        -11    1    3    3    0    0 -0.72735896489E+01  0.10096169647E+02  0.53752836308E+01  0.13554756445E+02  0.51100000000E-03 0.  1.
        -12    1    4    4    0    0  0.25317985114E+02  0.68035124349E+01  0.17788143080E+01  0.26276459656E+02  0.00000000000E+00 0.  1.
</event>
<event>
 7    1  0.1351543E-013  0.7246153E+02  0.7816164E-02  0.1226708E+00
        -11   -1    0    0    0    0  0.00000000000E+00  0.00000000000E+00  0.45593999997E+02  0.45594000000E+02  0.51100000000E-03 0.  1.
         11   -1    0    0    0    0 -0.00000000000E+00 -0.00000000000E+00 -0.45593999997E+02  0.45594000000E+02  0.51100000000E-03 0. -1.
    9900012    2    1    2    0    0  0.18654005806E+02 -0.11534801582E+01 -0.11740226819E+01  0.72461527338E+02  0.69999944041E+02 0.  0.
         12    1    1    2    0    0 -0.18654005806E+02  0.11534801582E+01  0.11740226819E+01  0.18726472662E+02  0.00000000000E+00 0. -1.
         11    1    3    3    0    0 -0.12984989229E+02  0.25747847602E+02  0.34040092365E+01  0.29037026028E+02  0.51100000000E-03 0. -1.
        -11    1    3    3    0    0  0.11803843549E+02 -0.41198820574E+01  0.15650873616E+01  0.12599747990E+02  0.51100000000E-03 0.  1.
         12    1    3    3    0    0  0.19835151486E+02 -0.22781445702E+02 -0.61431192800E+01  0.30824753320E+02  0.00000000000E+00 0. -1.
</event>
<event>
 7    1  0.1351543E-013  0.7246160E+02  0.7816164E-02  0.1226708E+00
        -11   -1    0    0    0    0  0.00000000000E+00  0.00000000000E+00  0.45593999997E+02  0.45594000000E+02  0.51100000000E-03 0.  1.
         11   -1    0    0    0    0 -0.00000000000E+00 -0.00000000000E+00 -0.45593999997E+02  0.45594000000E+02  0.51100000000E-03 0. -1.
    9900012    2    1    2    0    0 -0.13764045806E+02  0.94172707995E+01  0.85172883373E+01  0.72461597599E+02  0.70000035570E+02 0.  0.
         12    1    1    2    0    0  0.13764045806E+02 -0.94172707995E+01 -0.85172883373E+01  0.18726402401E+02  0.00000000000E+00 0. -1.
         11    1    3    3    0    0  0.90413891400E+01 -0.22276200426E+02  0.14046053641E+02  0.27843624874E+02  0.51100000000E-03 0. -1.
        -11    1    3    3    0    0 -0.22046797873E+02  0.24123478137E+02  0.34356002158E+01  0.32860414528E+02  0.51100000000E-03 0.  1.
         12    1    3    3    0    0 -0.75863707254E+00  0.75699930889E+01 -0.89643655193E+01  0.11757558196E+02  0.00000000000E+00 0. -1.
</event>
<event>
 7    1  0.1351543E-013  0.7246161E+02  0.7816164E-02  0.1226708E+00
        -11   -1    0    0    0    0  0.00000000000E+00  0.00000000000E+00  0.45593999997E+02  0.45594000000E+02  0.51100000000E-03 0.  1.
         11   -1    0    0    0    0 -0.00000000000E+00 -0.00000000000E+00 -0.45593999997E+02  0.45594000000E+02  0.51100000000E-03 0. -1.
    9900012    2    1    2    0    0  0.63330333488E+01 -0.62911476793E+01  0.16461828320E+02  0.72461611076E+02  0.70000053125E+02 0.  0.
         12    1    1    2    0    0 -0.63330333488E+01  0.62911476793E+01 -0.16461828320E+02  0.18726388924E+02  0.00000000000E+00 0. -1.
         11    1    3    3    0    0  0.29278178928E+02 -0.33866327291E+01  0.95944223023E+00  0.29489007651E+02  0.51100000000E-03 0. -1.
        -11    1    3    3    0    0 -0.33627971533E+01 -0.96506158336E+01  0.19371985386E+02  0.21902433854E+02  0.51100000000E-03 0.  1.
         12    1    3    3    0    0 -0.19582348426E+02  0.67461008834E+01 -0.38695992967E+01  0.21070169570E+02  0.00000000000E+00 0. -1.
</event>
<event>
 7    1  0.1351543E-013  0.7246154E+02  0.7816164E-02  0.1226708E+00
        -11   -1    0    0    0    0  0.00000000000E+00  0.00000000000E+00  0.45593999997E+02  0.45594000000E+02  0.51100000000E-03 0. -1.
         11   -1    0    0    0    0 -0.00000000000E+00 -0.00000000000E+00 -0.45593999997E+02  0.45594000000E+02  0.51100000000E-03 0.  1.
    9900012    2    1    2    0    0 -0.13097343575E+02  0.10377099380E+02  0.84531436010E+01  0.72461541793E+02  0.69999962871E+02 0.  0.
         12    1    1    2    0    0  0.13097343575E+02 -0.10377099380E+02 -0.84531436010E+01  0.18726458207E+02  0.00000000000E+00 0. -1.
         11    1    3    3    0    0 -0.44962852740E+01 -0.21292350053E+01  0.28328974926E+02  0.28762493695E+02  0.51100000000E-03 0. -1.
        -11    1    3    3    0    0 -0.23810805032E+01 -0.94267228816E+01 -0.18451754052E+02  0.20856650654E+02  0.51100000000E-03 0.  1.
        -12    1    3    3    0    0 -0.62199777974E+01  0.21933057267E+02 -0.14240772731E+01  0.22842397443E+02  0.00000000000E+00 0.  1.
</event>
<event>
 7    1  0.1351543E-013  0.7246159E+02  0.7816164E-02  0.1226708E+00
        -11   -1    0    0    0    0  0.00000000000E+00  0.00000000000E+00  0.45593999997E+02  0.45594000000E+02  0.51100000000E-03 0. -1.
         11   -1    0    0    0    0 -0.00000000000E+00 -0.00000000000E+00 -0.45593999997E+02  0.45594000000E+02  0.51100000000E-03 0.  1.
    9900012    2    1    2    0    0 -0.60102219126E+01  0.14014939163E+02  0.10869089288E+02  0.72461591131E+02  0.70000027143E+02 0.  0.
         12    1    1    2    0    0  0.60102219126E+01 -0.14014939163E+02 -0.10869089288E+02  0.18726408869E+02  0.00000000000E+00 0. -1.
         11    1    3    3    0    0 -0.23323846972E+01  0.19605563277E+02  0.21792232875E+02  0.29406114054E+02  0.51100000000E-03 0. -1.
        -11    1    3    3    0    0  0.14483365006E+02 -0.13103608980E+02 -0.12738005230E+02  0.23318001795E+02  0.51100000000E-03 0.  1.
        -12    1    3    3    0    0 -0.18161202221E+02  0.75129848666E+01  0.18148616429E+01  0.19737475282E+02  0.00000000000E+00 0.  1.
</event>
<event>
 7    1  0.1351543E-013  0.7246154E+02  0.7816164E-02  0.1226708E+00
        -11   -1    0    0    0    0  0.00000000000E+00  0.00000000000E+00  0.45593999997E+02  0.45594000000E+02  0.51100000000E-03 0. -1.
         11   -1    0    0    0    0 -0.00000000000E+00 -0.00000000000E+00 -0.45593999997E+02  0.45594000000E+02  0.51100000000E-03 0.  1.
    9900012    2    1    2    0    0  0.37067366956E+01 -0.16775903165E+02  0.74504639433E+01  0.72461541795E+02  0.69999962874E+02 0.  0.
         12    1    1    2    0    0 -0.37067366956E+01  0.16775903165E+02 -0.74504639433E+01  0.18726458205E+02  0.00000000000E+00 0. -1.
         11    1    3    3    0    0 -0.56813316305E+01  0.52319482825E+01  0.31076152913E+02  0.32021525449E+02  0.51100000000E-03 0. -1.
        -11    1    3    3    0    0  0.48913677791E+01 -0.24244857554E+01 -0.19071343476E+02  0.19837332284E+02  0.51100000000E-03 0.  1.
         12    1    3    3    0    0  0.44967005470E+01 -0.19583365692E+02 -0.45543454941E+01  0.20602684061E+02  0.00000000000E+00 0. -1.
</event>
<event>
 7    1  0.1351543E-013  0.7246141E+02  0.7816164E-02  0.1226708E+00
        -11   -1    0    0    0    0  0.00000000000E+00  0.00000000000E+00  0.45593999997E+02  0.45594000000E+02  0.51100000000E-03 0. -1.
         11   -1    0    0    0    0 -0.00000000000E+00 -0.00000000000E+00 -0.45593999997E+02  0.45594000000E+02  0.51100000000E-03 0.  1.
    9900012    2    1    2    0    0  0.15753776835E+02  0.47757842407E+01 -0.89272285291E+01  0.72461414382E+02  0.69999796895E+02 0.  0.
         12    1    1    2    0    0 -0.15753776835E+02 -0.47757842407E+01  0.89272285291E+01  0.18726585618E+02  0.00000000000E+00 0. -1.
         11    1    3    3    0    0 -0.15854358087E+02  0.33689274566E+01 -0.10588715213E+02  0.19360558687E+02  0.51100000000E-03 0. -1.
        -11    1    3    3    0    0  0.29910017674E+02 -0.11402204429E+02 -0.12103447809E+02  0.34221526445E+02  0.51100000000E-03 0.  1.
         12    1    3    3    0    0  0.16981172480E+01  0.12809061213E+02  0.13764934493E+02  0.18879329250E+02  0.00000000000E+00 0. -1.
</event>
<event>
 7    1  0.1351543E-013  0.7246153E+02  0.7816164E-02  0.1226708E+00
        -11   -1    0    0    0    0  0.00000000000E+00  0.00000000000E+00  0.45593999997E+02  0.45594000000E+02  0.51100000000E-03 0. -1.
         11   -1    0    0    0    0 -0.00000000000E+00 -0.00000000000E+00 -0.45593999997E+02  0.45594000000E+02  0.51100000000E-03 0.  1.
    9900012    2    1    2    0    0  0.17377172935E+02 -0.48039241511E+01  0.50632832165E+01  0.72461530408E+02  0.69999948040E+02 0.  0.
         12    1    1    2    0    0 -0.17377172935E+02  0.48039241511E+01 -0.50632832165E+01  0.18726469592E+02  0.00000000000E+00 0. -1.
         11    1    3    3    0    0  0.12290653312E+02 -0.11972817501E+01  0.30320384155E+02  0.32738652050E+02  0.51100000000E-03 0. -1.
        -11    1    3    3    0    0  0.75537260495E+01 -0.14323338170E+02 -0.54823292800E+01  0.17095985732E+02  0.51100000000E-03 0.  1.
         12    1    3    3    0    0 -0.24672064269E+01  0.10716695769E+02 -0.19774771659E+02  0.22626892626E+02  0.00000000000E+00 0. -1.
</event>
<event>
 7    1  0.1351543E-013  0.7246156E+02  0.7816164E-02  0.1226708E+00
        -11   -1    0    0    0    0  0.00000000000E+00  0.00000000000E+00  0.45593999997E+02  0.45594000000E+02  0.51100000000E-03 0. -1.
         11   -1    0    0    0    0 -0.00000000000E+00 -0.00000000000E+00 -0.45593999997E+02  0.45594000000E+02  0.51100000000E-03 0.  1.
    9900012    2    1    2    0    0  0.16531296549E+01  0.10346331882E+02 -0.15520956448E+02  0.72461561200E+02  0.69999988153E+02 0.  0.
         12    1    1    2    0    0 -0.16531296549E+01 -0.10346331882E+02  0.15520956448E+02  0.18726438800E+02  0.00000000000E+00 0. -1.
         11    1    3    3    0    0  0.10377804085E+01 -0.31028534305E+01  0.36388785013E+01  0.48934777608E+01  0.51100000000E-03 0. -1.
        -11    1    3    3    0    0 -0.11712688220E+02 -0.87555778547E+01 -0.34795476500E+02  0.37743507972E+02  0.51100000000E-03 0.  1.
        -12    1    3    3    0    0  0.12328037467E+02  0.22204763168E+02  0.15635641550E+02  0.29824575467E+02  0.00000000000E+00 0.  1.
</event>
<event>
 7    1  0.1351543E-013  0.7246159E+02  0.7816164E-02  0.1226708E+00
        -11   -1    0    0    0    0  0.00000000000E+00  0.00000000000E+00  0.45593999997E+02  0.45594000000E+02  0.51100000000E-03 0.  1.
         11   -1    0    0    0    0 -0.00000000000E+00 -0.00000000000E+00 -0.45593999997E+02  0.45594000000E+02  0.51100000000E-03 0. -1.
    9900012    2    1    2    0    0 -0.18462568452E+02  0.14734669533E+01 -0.27642082791E+01  0.72461591212E+02  0.70000027249E+02 0.  0.
         12    1    1    2    0    0  0.18462568452E+02 -0.14734669533E+01  0.27642082791E+01  0.18726408788E+02  0.00000000000E+00 0. -1.
         11    1    3    3    0    0 -0.32418231229E+02  0.30394970676E+01  0.12076410593E+02  0.34727797965E+02  0.51100000000E-03 0. -1.
        -11    1    3    3    0    0  0.17650738995E+02  0.99106845351E+01 -0.23588734244E+01  0.20379758073E+02  0.51100000000E-03 0.  1.
         12    1    3    3    0    0 -0.36950762171E+01 -0.11476714649E+02 -0.12481745447E+02  0.17354035174E+02  0.00000000000E+00 0. -1.
</event>
<event>
 7    1  0.1351543E-013  0.7246157E+02  0.7816164E-02  0.1226708E+00
        -11   -1    0    0    0    0  0.00000000000E+00  0.00000000000E+00  0.45593999997E+02  0.45594000000E+02  0.51100000000E-03 0.  1.
         11   -1    0    0    0    0 -0.00000000000E+00 -0.00000000000E+00 -0.45593999997E+02  0.45594000000E+02  0.51100000000E-03 0. -1.
    9900012    2    1    2    0    0  0.15625965202E+01 -0.11207213278E+02 -0.14920988359E+02  0.72461568654E+02  0.69999997863E+02 0.  0.
         12    1    1    2    0    0 -0.15625965202E+01  0.11207213278E+02  0.14920988359E+02  0.18726431346E+02  0.00000000000E+00 0. -1.
         11    1    3    3    0    0  0.24714615619E+02 -0.85796362232E+01 -0.50819130877E+01  0.26650482619E+02  0.51100000000E-03 0. -1.
        -11    1    3    3    0    0 -0.17157171094E+02  0.16922023927E+02 -0.74520485422E+01  0.25224124197E+02  0.51100000000E-03 0.  1.
         12    1    3    3    0    0 -0.59948480047E+01 -0.19549600982E+02 -0.23870267295E+01  0.20586961839E+02  0.00000000000E+00 0. -1.
</event>
<event>
 7    1  0.1351543E-013  0.7246156E+02  0.7816164E-02  0.1226708E+00
        -11   -1    0    0    0    0  0.00000000000E+00  0.00000000000E+00  0.45593999997E+02  0.45594000000E+02  0.51100000000E-03 0.  1.
         11   -1    0    0    0    0 -0.00000000000E+00 -0.00000000000E+00 -0.45593999997E+02  0.45594000000E+02  0.51100000000E-03 0. -1.
    9900012    2    1    2    0    0  0.67612906089E+01 -0.17437022405E+02  0.95640304287E+00  0.72461561261E+02  0.69999988233E+02 0.  0.
         12    1    1    2    0    0 -0.67612906089E+01  0.17437022405E+02 -0.95640304287E+00  0.18726438739E+02  0.00000000000E+00 0. -1.
         11    1    3    3    0    0  0.29762164564E+02 -0.23321856382E+02 -0.12063960850E+02  0.39689224940E+02  0.51100000000E-03 0.  1.
        -11    1    3    3    0    0 -0.16277497549E+02  0.12590848549E+02  0.88856179924E+01  0.22415186839E+02  0.51100000000E-03 0. -1.
        -12    1    3    3    0    0 -0.67233764068E+01 -0.67060145719E+01  0.41347459007E+01  0.10357149483E+02  0.00000000000E+00 0.  1.
</event>
<event>
 7    1  0.1351543E-013  0.7246158E+02  0.7816164E-02  0.1226708E+00
        -11   -1    0    0    0    0  0.00000000000E+00  0.00000000000E+00  0.45593999997E+02  0.45594000000E+02  0.51100000000E-03 0. -1.
         11   -1    0    0    0    0 -0.00000000000E+00 -0.00000000000E+00 -0.45593999997E+02  0.45594000000E+02  0.51100000000E-03 0.  1.
    9900012    2    1    2    0    0  0.34519372404E+01  0.13189809292E+02 -0.12837127061E+02  0.72461580934E+02  0.70000013860E+02 0.  0.
         12    1    1    2    0    0 -0.34519372404E+01 -0.13189809292E+02  0.12837127061E+02  0.18726419066E+02  0.00000000000E+00 0. -1.
         11    1    3    3    0    0  0.23382007409E+02  0.11051669349E+02  0.52137711151E+01  0.26382590384E+02  0.51100000000E-03 0. -1.
        -11    1    3    3    0    0 -0.21155295149E+02 -0.92727724909E+01  0.17798897375E+01  0.23166761324E+02  0.51100000000E-03 0.  1.
        -12    1    3    3    0    0  0.12252249806E+01  0.11410912433E+02 -0.19830787914E+02  0.22912229226E+02  0.00000000000E+00 0.  1.
</event>
<event>
 7    1  0.1351543E-013  0.7246156E+02  0.7816164E-02  0.1226708E+00
        -11   -1    0    0    0    0  0.00000000000E+00  0.00000000000E+00  0.45593999997E+02  0.45594000000E+02  0.51100000000E-03 0.  1.
         11   -1    0    0    0    0 -0.00000000000E+00 -0.00000000000E+00 -0.45593999997E+02  0.45594000000E+02  0.51100000000E-03 0. -1.
    9900012    2    1    2    0    0 -0.11085367634E+02  0.13591248067E+02  0.65629463873E+01  0.72461557068E+02  0.69999982771E+02 0.  0.
         12    1    1    2    0    0  0.11085367634E+02 -0.13591248067E+02 -0.65629463873E+01  0.18726442932E+02  0.00000000000E+00 0. -1.
         11    1    3    3    0    0 -0.20829326092E+01 -0.14023548205E+02 -0.10154489857E+02  0.17438812375E+02  0.51100000000E-03 0. -1.
        -11    1    3    3    0    0 -0.44003027542E+01  0.31438058342E+02 -0.53203105308E+01  0.32187262714E+02  0.51100000000E-03 0.  1.
        -12    1    3    3    0    0 -0.46021322707E+01 -0.38232620697E+01  0.22037746775E+02  0.22835481979E+02  0.00000000000E+00 0.  1.
</event>
<event>
 7    1  0.1351543E-013  0.7246159E+02  0.7816164E-02  0.1226708E+00
        -11   -1    0    0    0    0  0.00000000000E+00  0.00000000000E+00  0.45593999997E+02  0.45594000000E+02  0.51100000000E-03 0.  1.
         11   -1    0    0    0    0 -0.00000000000E+00 -0.00000000000E+00 -0.45593999997E+02  0.45594000000E+02  0.51100000000E-03 0. -1.
    9900012    2    1    2    0    0 -0.14876245917E+01  0.16553297593E+02  0.86286506774E+01  0.72461593493E+02  0.70000030221E+02 0.  0.
         12    1    1    2    0    0  0.14876245917E+01 -0.16553297593E+02 -0.86286506774E+01  0.18726406507E+02  0.00000000000E+00 0. -1.
         11    1    3    3    0    0 -0.75708356717E+00 -0.19812560641E+02  0.77714534941E+01  0.21295685581E+02  0.51100000000E-03 0. -1.
        -11    1    3    3    0    0  0.49125815096E+01  0.24662606000E+02 -0.16057900403E+02  0.29836785306E+02  0.51100000000E-03 0.  1.
         12    1    3    3    0    0 -0.56431225340E+01  0.11703252235E+02  0.16915097586E+02  0.21329122606E+02  0.00000000000E+00 0. -1.
</event>
<event>
 7    1  0.1351543E-013  0.7246157E+02  0.7816164E-02  0.1226708E+00
        -11   -1    0    0    0    0  0.00000000000E+00  0.00000000000E+00  0.45593999997E+02  0.45594000000E+02  0.51100000000E-03 0.  1.
         11   -1    0    0    0    0 -0.00000000000E+00 -0.00000000000E+00 -0.45593999997E+02  0.45594000000E+02  0.51100000000E-03 0. -1.
    9900012    2    1    2    0    0  0.13176468662E+02 -0.53040182994E+01  0.12203575143E+02  0.72461569940E+02  0.69999999539E+02 0.  0.
         12    1    1    2    0    0 -0.13176468662E+02  0.53040182994E+01 -0.12203575143E+02  0.18726430060E+02  0.00000000000E+00 0. -1.
         11    1    3    3    0    0 -0.22221449664E+01 -0.27972327106E+02 -0.10592171766E+02  0.29993051111E+02  0.51100000000E-03 0. -1.
        -11    1    3    3    0    0  0.66839626289E+00  0.80490314003E+01  0.19947500912E+02  0.21520605311E+02  0.51100000000E-03 0.  1.
         12    1    3    3    0    0  0.14730217365E+02  0.14619277406E+02  0.28482459966E+01  0.20947913518E+02  0.00000000000E+00 0. -1.
</event>
<event>
 7    1  0.1351543E-013  0.7246163E+02  0.7816164E-02  0.1226708E+00
        -11   -1    0    0    0    0  0.00000000000E+00  0.00000000000E+00  0.45593999997E+02  0.45594000000E+02  0.51100000000E-03 0.  1.
         11   -1    0    0    0    0 -0.00000000000E+00 -0.00000000000E+00 -0.45593999997E+02  0.45594000000E+02  0.51100000000E-03 0. -1.
    9900012    2    1    2    0    0  0.13431550890E+02 -0.47603434567E+01  0.12149463923E+02  0.72461630817E+02  0.70000078843E+02 0.  0.
         12    1    1    2    0    0 -0.13431550890E+02  0.47603434567E+01 -0.12149463923E+02  0.18726369183E+02  0.00000000000E+00 0. -1.
         11    1    3    3    0    0  0.46746119332E+01 -0.33393492212E+02  0.57778401393E+01  0.34210535742E+02  0.51100000000E-03 0. -1.
        -11    1    3    3    0    0  0.13284016107E+01  0.20415278031E+02  0.14009522212E+02  0.24795462101E+02  0.51100000000E-03 0.  1.
         12    1    3    3    0    0  0.74285373462E+01  0.82178707240E+01 -0.76378984279E+01  0.13455632974E+02  0.00000000000E+00 0. -1.
</event>
<event>
 7    1  0.1351543E-013  0.7246159E+02  0.7816164E-02  0.1226708E+00
        -11   -1    0    0    0    0  0.00000000000E+00  0.00000000000E+00  0.45593999997E+02  0.45594000000E+02  0.51100000000E-03 0. -1.
         11   -1    0    0    0    0 -0.00000000000E+00 -0.00000000000E+00 -0.45593999997E+02  0.45594000000E+02  0.51100000000E-03 0.  1.
    9900012    2    1    2    0    0  0.78736398618E+01  0.79145050590E+01 -0.15034782694E+02  0.72461593894E+02  0.70000030743E+02 0.  0.
         12    1    1    2    0    0 -0.78736398618E+01 -0.79145050590E+01  0.15034782694E+02  0.18726406106E+02  0.00000000000E+00 0. -1.
         11    1    3    3    0    0 -0.12270914820E+01 -0.41525181669E+01 -0.14288385409E+02  0.14930074296E+02  0.51100000000E-03 0. -1.
        -11    1    3    3    0    0  0.21133891738E+01  0.29508651310E+02 -0.15723874814E+02  0.33503240968E+02  0.51100000000E-03 0.  1.
        -12    1    3    3    0    0  0.69873421700E+01 -0.17441628084E+02  0.14977477529E+02  0.24028278630E+02  0.00000000000E+00 0.  1.
</event>
<event>
 7    1  0.1351543E-013  0.7246162E+02  0.7816164E-02  0.1226708E+00
        -11   -1    0    0    0    0  0.00000000000E+00  0.00000000000E+00  0.45593999997E+02  0.45594000000E+02  0.51100000000E-03 0.  1.
         11   -1    0    0    0    0 -0.00000000000E+00 -0.00000000000E+00 -0.45593999997E+02  0.45594000000E+02  0.51100000000E-03 0. -1.
    9900012    2    1    2    0    0  0.73286492628E+01  0.47082426025E+01  0.16577116019E+02  0.72461616903E+02  0.70000060716E+02 0.  0.
         12    1    1    2    0    0 -0.73286492628E+01 -0.47082426025E+01 -0.16577116019E+02  0.18726383097E+02  0.00000000000E+00 0. -1.
         11    1    3    3    0    0 -0.55229221954E+01 -0.85058684765E+01 -0.17629315729E+02  0.20338270365E+02  0.51100000000E-03 0. -1.
        -11    1    3    3    0    0 -0.10697882483E+02  0.46874025935E+01  0.20445261382E+02  0.23546234220E+02  0.51100000000E-03 0.  1.
        -12    1    3    3    0    0  0.23549453942E+02  0.85267084855E+01  0.13761170366E+02  0.28577112317E+02  0.00000000000E+00 0.  1.
</event>
<event>
 7    1  0.1351543E-013  0.7246160E+02  0.7816164E-02  0.1226708E+00
        -11   -1    0    0    0    0  0.00000000000E+00  0.00000000000E+00  0.45593999997E+02  0.45594000000E+02  0.51100000000E-03 0.  1.
         11   -1    0    0    0    0 -0.00000000000E+00 -0.00000000000E+00 -0.45593999997E+02  0.45594000000E+02  0.51100000000E-03 0. -1.
    9900012    2    1    2    0    0 -0.39270639561E+01 -0.15884478968E+02  0.91071204868E+01  0.72461597597E+02  0.70000035566E+02 0.  0.
         12    1    1    2    0    0  0.39270639561E+01  0.15884478968E+02 -0.91071204868E+01  0.18726402403E+02  0.00000000000E+00 0. -1.
         11    1    3    3    0    0 -0.64596786406E+01 -0.45460971137E+01 -0.29288369685E+02  0.30334848709E+02  0.51100000000E-03 0. -1.
        -11    1    3    3    0    0  0.32483045379E+01 -0.40381931278E+01  0.31933033579E+02  0.32350844192E+02  0.51100000000E-03 0.  1.
         12    1    3    3    0    0 -0.71568985335E+00 -0.73001887269E+01  0.64624565928E+01  0.97759046961E+01  0.00000000000E+00 0. -1.
</event>
<event>
 7    1  0.1351543E-013  0.7246133E+02  0.7816164E-02  0.1226709E+00
        -11   -1    0    0    0    0  0.00000000000E+00  0.00000000000E+00  0.45593999997E+02  0.45594000000E+02  0.51100000000E-03 0. -1.
         11   -1    0    0    0    0 -0.00000000000E+00 -0.00000000000E+00 -0.45593999997E+02  0.45594000000E+02  0.51100000000E-03 0.  1.
    9900012    2    1    2    0    0  0.30564667321E+01  0.12027918101E+02  0.14024105060E+02  0.72461325830E+02  0.69999681540E+02 0.  0.
         12    1    1    2    0    0 -0.30564667321E+01 -0.12027918101E+02 -0.14024105060E+02  0.18726674170E+02  0.00000000000E+00 0. -1.
         11    1    3    3    0    0 -0.27190179043E+02  0.88221769581E+01  0.10543442733E+02  0.30468029598E+02  0.51100000000E-03 0. -1.
        -11    1    3    3    0    0  0.18485732664E+02  0.25915194281E+00  0.16084050054E+02  0.24504818674E+02  0.51100000000E-03 0.  1.
        -12    1    3    3    0    0  0.11760913110E+02  0.29465891999E+01 -0.12603387727E+02  0.17488477558E+02  0.00000000000E+00 0.  1.
</event>
<event>
 8    1  0.1351543E-013  0.7246158E+02  0.7816164E-02  0.1226708E+00
        -11   -1    0    0    0    0  0.00000000000E+00  0.00000000000E+00  0.45593999997E+02  0.45594000000E+02  0.51100000000E-03 0.  1.
         11   -1    0    0    0    0 -0.00000000000E+00 -0.00000000000E+00 -0.45593999997E+02  0.45594000000E+02  0.51100000000E-03 0. -1.
    9900012    2    1    2    0    0 -0.10323868191E+02  0.14506530718E+02  0.58014691766E+01  0.72461581963E+02  0.70000015201E+02 0.  0.
        -24    2    3    3    0    0 -0.14547149314E+02  0.56655083170E+01  0.12952929673E+02  0.60331323597E+02  0.56818770510E+02 0.  0.
         12    1    1    2    0    0  0.10323868191E+02 -0.14506530718E+02 -0.58014691766E+01  0.18726418037E+02  0.00000000000E+00 0. -1.
         11    1    4    4    0    0 -0.54213399676E+00 -0.22469437604E+02 -0.64665070556E+01  0.23387715777E+02  0.51100000000E-03 0. -1.
        -11    1    3    3    0    0  0.42232811227E+01  0.88410224006E+01 -0.71514604960E+01  0.12130258366E+02  0.51100000000E-03 0.  1.
        -12    1    4    4    0    0 -0.14005015317E+02  0.28134945920E+02  0.19419436728E+02  0.36943607821E+02  0.00000000000E+00 0.  1.
</event>
<event>
 7    1  0.1351543E-013  0.7246175E+02  0.7816164E-02  0.1226708E+00
        -11   -1    0    0    0    0  0.00000000000E+00  0.00000000000E+00  0.45593999997E+02  0.45594000000E+02  0.51100000000E-03 0.  1.
         11   -1    0    0    0    0 -0.00000000000E+00 -0.00000000000E+00 -0.45593999997E+02  0.45594000000E+02  0.51100000000E-03 0. -1.
    9900012    2    1    2    0    0 -0.14200974257E+02  0.11171331168E+02  0.49199672135E+01  0.72461751382E+02  0.70000235900E+02 0.  0.
         12    1    1    2    0    0  0.14200974257E+02 -0.11171331168E+02 -0.49199672135E+01  0.18726248618E+02  0.00000000000E+00 0. -1.
         11    1    3    3    0    0 -0.99916924960E+01 -0.26815646022E+02  0.39797050703E+01  0.28892055019E+02  0.51100000000E-03 0. -1.
        -11    1    3    3    0    0 -0.96131312072E+01  0.34940048938E+02  0.43370303987E+01  0.36496974455E+02  0.51100000000E-03 0.  1.
         12    1    3    3    0    0  0.54038494465E+01  0.30469282518E+01 -0.33967682555E+01  0.70727219084E+01  0.00000000000E+00 0. -1.
</event>
<event>
 7    1  0.1351543E-013  0.7246154E+02  0.7816164E-02  0.1226708E+00
        -11   -1    0    0    0    0  0.00000000000E+00  0.00000000000E+00  0.45593999997E+02  0.45594000000E+02  0.51100000000E-03 0.  1.
         11   -1    0    0    0    0 -0.00000000000E+00 -0.00000000000E+00 -0.45593999997E+02  0.45594000000E+02  0.51100000000E-03 0. -1.
    9900012    2    1    2    0    0  0.10978449663E+02  0.96733189003E+01  0.11686781059E+02  0.72461539922E+02  0.69999960434E+02 0.  0.
         12    1    1    2    0    0 -0.10978449663E+02 -0.96733189003E+01 -0.11686781059E+02  0.18726460078E+02  0.00000000000E+00 0. -1.
         11    1    3    3    0    0  0.10424350963E+02  0.17935003358E+02  0.95670620620E+00  0.20766480816E+02  0.51100000000E-03 0. -1.
        -11    1    3    3    0    0 -0.59676775408E+01 -0.11308918108E+02 -0.17998527538E+02  0.22078310574E+02  0.51100000000E-03 0.  1.
        -12    1    3    3    0    0  0.65217762403E+01  0.30472336502E+01  0.28728602391E+02  0.29616748531E+02  0.00000000000E+00 0.  1.
</event>
<event>
 7    1  0.1351543E-013  0.7246167E+02  0.7816164E-02  0.1226708E+00
        -11   -1    0    0    0    0  0.00000000000E+00  0.00000000000E+00  0.45593999997E+02  0.45594000000E+02  0.51100000000E-03 0. -1.
         11   -1    0    0    0    0 -0.00000000000E+00 -0.00000000000E+00 -0.45593999997E+02  0.45594000000E+02  0.51100000000E-03 0.  1.
    9900012    2    1    2    0    0 -0.12443034968E+02 -0.66260497898E+01 -0.12326459347E+02  0.72461674811E+02  0.70000136152E+02 0.  0.
         12    1    1    2    0    0  0.12443034968E+02  0.66260497898E+01  0.12326459347E+02  0.18726325189E+02  0.00000000000E+00 0. -1.
         11    1    3    3    0    0  0.62453463457E+01  0.18066018781E+02 -0.24474091816E+02  0.31054251819E+02  0.51100000000E-03 0. -1.
        -11    1    3    3    0    0  0.46359038360E+01 -0.11067214591E+02  0.70550672302E+01  0.13919368415E+02  0.51100000000E-03 0.  1.
         12    1    3    3    0    0 -0.23324285150E+02 -0.13624853980E+02  0.50925652389E+01  0.27488054577E+02  0.00000000000E+00 0. -1.
</event>
<event>
 7    1  0.1351543E-013  0.7246155E+02  0.7816164E-02  0.1226708E+00
        -11   -1    0    0    0    0  0.00000000000E+00  0.00000000000E+00  0.45593999997E+02  0.45594000000E+02  0.51100000000E-03 0.  1.
         11   -1    0    0    0    0 -0.00000000000E+00 -0.00000000000E+00 -0.45593999997E+02  0.45594000000E+02  0.51100000000E-03 0. -1.
    9900012    2    1    2    0    0  0.86345550507E+01 -0.53211025264E+00  0.16608466603E+02  0.72461552255E+02  0.69999976501E+02 0.  0.
         12    1    1    2    0    0 -0.86345550507E+01  0.53211025264E+00 -0.16608466603E+02  0.18726447745E+02  0.00000000000E+00 0. -1.
         11    1    3    3    0    0 -0.17556620099E+02 -0.29153158560E+01 -0.61187412847E+01  0.18819483814E+02  0.51100000000E-03 0. -1.
        -11    1    3    3    0    0  0.23058597544E+01  0.18959054784E+02  0.56178855388E+01  0.19907872455E+02  0.51100000000E-03 0.  1.
        -12    1    3    3    0    0  0.23885315395E+02 -0.16575849181E+02  0.17109322349E+02  0.33734195986E+02  0.00000000000E+00 0.  1.
</event>
<event>
 7    1  0.1351543E-013  0.7246149E+02  0.7816164E-02  0.1226708E+00
        -11   -1    0    0    0    0  0.00000000000E+00  0.00000000000E+00  0.45593999997E+02  0.45594000000E+02  0.51100000000E-03 0.  1.
         11   -1    0    0    0    0 -0.00000000000E+00 -0.00000000000E+00 -0.45593999997E+02  0.45594000000E+02  0.51100000000E-03 0. -1.
    9900012    2    1    2    0    0  0.29751160244E+01 -0.72861042488E+01  0.16992456761E+02  0.72461488919E+02  0.69999893994E+02 0.  0.
         12    1    1    2    0    0 -0.29751160244E+01  0.72861042488E+01 -0.16992456761E+02  0.18726511081E+02  0.00000000000E+00 0. -1.
         11    1    3    3    0    0 -0.22213878209E+02 -0.11958479462E+02 -0.13340710843E+02  0.28538328300E+02  0.51100000000E-03 0. -1.
        -11    1    3    3    0    0  0.84160290639E+01  0.85350798656E+01  0.43403243857E+01  0.12748158673E+02  0.51100000000E-03 0.  1.
         12    1    3    3    0    0  0.16772965169E+02 -0.38627046522E+01  0.25992843218E+02  0.31175001946E+02  0.00000000000E+00 0. -1.
</event>
<event>
 7    1  0.1351543E-013  0.7246160E+02  0.7816164E-02  0.1226708E+00
        -11   -1    0    0    0    0  0.00000000000E+00  0.00000000000E+00  0.45593999997E+02  0.45594000000E+02  0.51100000000E-03 0. -1.
         11   -1    0    0    0    0 -0.00000000000E+00 -0.00000000000E+00 -0.45593999997E+02  0.45594000000E+02  0.51100000000E-03 0.  1.
    9900012    2    1    2    0    0  0.73767309848E+01  0.16286959994E+02 -0.55674819295E+01  0.72461599361E+02  0.70000037864E+02 0.  0.
         12    1    1    2    0    0 -0.73767309848E+01 -0.16286959994E+02  0.55674819295E+01  0.18726400639E+02  0.00000000000E+00 0. -1.
         11    1    3    3    0    0  0.14952594976E+02 -0.17174026939E+02  0.13533374828E+02  0.26489234272E+02  0.51100000000E-03 0. -1.
        -11    1    3    3    0    0 -0.10841428226E+02  0.27345642124E+02 -0.44327143219E+01  0.29748439719E+02  0.51100000000E-03 0.  1.
        -12    1    3    3    0    0  0.32655642355E+01  0.61153448087E+01 -0.14668142436E+02  0.16223925370E+02  0.00000000000E+00 0.  1.
</event>
<event>
 7    1  0.1351543E-013  0.7246158E+02  0.7816164E-02  0.1226708E+00
        -11   -1    0    0    0    0  0.00000000000E+00  0.00000000000E+00  0.45593999997E+02  0.45594000000E+02  0.51100000000E-03 0.  1.
         11   -1    0    0    0    0 -0.00000000000E+00 -0.00000000000E+00 -0.45593999997E+02  0.45594000000E+02  0.51100000000E-03 0. -1.
    9900012    2    1    2    0    0 -0.76785885298E+01 -0.13720431468E+02  0.10171916684E+02  0.72461578812E+02  0.70000011096E+02 0.  0.
         12    1    1    2    0    0  0.76785885298E+01  0.13720431468E+02 -0.10171916684E+02  0.18726421188E+02  0.00000000000E+00 0. -1.
         11    1    3    3    0    0  0.14356671046E+02 -0.17835685195E+02 -0.69797983529E+01  0.23936233104E+02  0.51100000000E-03 0. -1.
        -11    1    3    3    0    0 -0.22240704364E+02  0.18861141929E+02  0.53748469013E+01  0.29652665731E+02  0.51100000000E-03 0.  1.
        -12    1    3    3    0    0  0.20544478830E+00 -0.14745888202E+02  0.11776868136E+02  0.18872679977E+02  0.00000000000E+00 0.  1.
</event>
<event>
 7    1  0.1351543E-013  0.7246159E+02  0.7816164E-02  0.1226708E+00
        -11   -1    0    0    0    0  0.00000000000E+00  0.00000000000E+00  0.45593999997E+02  0.45594000000E+02  0.51100000000E-03 0. -1.
         11   -1    0    0    0    0 -0.00000000000E+00 -0.00000000000E+00 -0.45593999997E+02  0.45594000000E+02  0.51100000000E-03 0.  1.
    9900012    2    1    2    0    0  0.30554359902E+01  0.13250791018E+01 -0.18427880656E+02  0.72461593265E+02  0.70000029924E+02 0.  0.
         12    1    1    2    0    0 -0.30554359902E+01 -0.13250791018E+01  0.18427880656E+02  0.18726406735E+02  0.00000000000E+00 0. -1.
         11    1    3    3    0    0  0.68304561402E+01  0.16586723227E+02 -0.64433253641E+01  0.19060193087E+02  0.51100000000E-03 0. -1.
        -11    1    3    3    0    0 -0.41628973465E+01 -0.82924471218E+01 -0.31414290311E+02  0.32755946477E+02  0.51100000000E-03 0.  1.
        -12    1    3    3    0    0  0.38787719651E+00 -0.69691970038E+01  0.19429735019E+02  0.20645453701E+02  0.00000000000E+00 0.  1.
</event>
<event>
 7    1  0.1351543E-013  0.7246155E+02  0.7816164E-02  0.1226708E+00
        -11   -1    0    0    0    0  0.00000000000E+00  0.00000000000E+00  0.45593999997E+02  0.45594000000E+02  0.51100000000E-03 0.  1.
         11   -1    0    0    0    0 -0.00000000000E+00 -0.00000000000E+00 -0.45593999997E+02  0.45594000000E+02  0.51100000000E-03 0. -1.
    9900012    2    1    2    0    0  0.14323059236E+02  0.94931645669E+01 -0.74437594932E+01  0.72461554668E+02  0.69999979644E+02 0.  0.
         12    1    1    2    0    0 -0.14323059236E+02 -0.94931645669E+01  0.74437594932E+01  0.18726445332E+02  0.00000000000E+00 0. -1.
         11    1    3    3    0    0 -0.11145427723E+02  0.14547079278E+02  0.91962169699E+01  0.20503865037E+02  0.51100000000E-03 0. -1.
        -11    1    3    3    0    0  0.36382270415E+02 -0.85342710404E+01 -0.98692873675E+01  0.38651082988E+02  0.51100000000E-03 0.  1.
        -12    1    3    3    0    0 -0.10913783456E+02  0.34803563294E+01 -0.67706890957E+01  0.13306606643E+02  0.00000000000E+00 0.  1.
</event>
<event>
 7    1  0.1351543E-013  0.7246177E+02  0.7816164E-02  0.1226707E+00
        -11   -1    0    0    0    0  0.00000000000E+00  0.00000000000E+00  0.45593999997E+02  0.45594000000E+02  0.51100000000E-03 0. -1.
         11   -1    0    0    0    0 -0.00000000000E+00 -0.00000000000E+00 -0.45593999997E+02  0.45594000000E+02  0.51100000000E-03 0.  1.
    9900012    2    1    2    0    0  0.20907687542E+01  0.59455583832E+01 -0.17633792444E+02  0.72461772018E+02  0.70000262782E+02 0.  0.
         12    1    1    2    0    0 -0.20907687542E+01 -0.59455583832E+01  0.17633792444E+02  0.18726227982E+02  0.00000000000E+00 0. -1.
         11    1    3    3    0    0 -0.76426137646E+01  0.48611334782E+01  0.39473375227E+01  0.98803662699E+01  0.51100000000E-03 0. -1.
        -11    1    3    3    0    0 -0.18120812471E+02  0.71295502928E+01 -0.27277612874E+02  0.33515108478E+02  0.51100000000E-03 0.  1.
        -12    1    3    3    0    0  0.27854194989E+02 -0.60451253877E+01  0.56964829067E+01  0.29066297270E+02  0.00000000000E+00 0.  1.
</event>
<event>
 7    1  0.1351543E-013  0.7246151E+02  0.7816164E-02  0.1226708E+00
        -11   -1    0    0    0    0  0.00000000000E+00  0.00000000000E+00  0.45593999997E+02  0.45594000000E+02  0.51100000000E-03 0.  1.
         11   -1    0    0    0    0 -0.00000000000E+00 -0.00000000000E+00 -0.45593999997E+02  0.45594000000E+02  0.51100000000E-03 0. -1.
    9900012    2    1    2    0    0  0.13757082132E+01 -0.10375246339E+02  0.15528781609E+02  0.72461511596E+02  0.69999923534E+02 0.  0.
         12    1    1    2    0    0 -0.13757082132E+01  0.10375246339E+02 -0.15528781609E+02  0.18726488404E+02  0.00000000000E+00 0. -1.
         11    1    3    3    0    0  0.85651690798E+01  0.78739812766E+01 -0.22692241701E+02  0.25500971280E+02  0.51100000000E-03 0. -1.
        -11    1    3    3    0    0  0.50611032270E+01  0.23234439314E+00  0.81990711905E+01  0.96381283681E+01  0.51100000000E-03 0.  1.
         12    1    3    3    0    0 -0.12250564094E+02 -0.18481572009E+02  0.30021952120E+02  0.37322411948E+02  0.00000000000E+00 0. -1.
</event>
<event>
 8    1  0.1351543E-013  0.7246157E+02  0.7816164E-02  0.1226708E+00
        -11   -1    0    0    0    0  0.00000000000E+00  0.00000000000E+00  0.45593999997E+02  0.45594000000E+02  0.51100000000E-03 0. -1.
         11   -1    0    0    0    0 -0.00000000000E+00 -0.00000000000E+00 -0.45593999997E+02  0.45594000000E+02  0.51100000000E-03 0.  1.
    9900012    2    1    2    0    0 -0.54332675283E+01 -0.17919369919E+02 -0.23429838120E+00  0.72461571882E+02  0.70000002069E+02 0.  0.
         24    2    3    3    0    0 -0.16997182524E+02 -0.21242994535E+02  0.81860160066E+01  0.57775786059E+02  0.50307669058E+02 0.  0.
         12    1    1    2    0    0  0.54332675283E+01  0.17919369919E+02  0.23429838120E+00  0.18726428118E+02  0.00000000000E+00 0. -1.
         11    1    3    3    0    0  0.11563914995E+02  0.33236246164E+01 -0.84203143878E+01  0.14685785824E+02  0.51100000000E-03 0. -1.
        -11    1    4    4    0    0 -0.28689154570E+02 -0.20034968228E+02 -0.97554772756E+01  0.36326806617E+02  0.51100000000E-03 0.  1.
         12    1    4    4    0    0  0.11691972047E+02 -0.12080263071E+01  0.17941493282E+02  0.21448979442E+02  0.00000000000E+00 0. -1.
</event>
<event>
 7    1  0.1351543E-013  0.7246199E+02  0.7816164E-02  0.1226707E+00
        -11   -1    0    0    0    0  0.00000000000E+00  0.00000000000E+00  0.45593999997E+02  0.45594000000E+02  0.51100000000E-03 0. -1.
         11   -1    0    0    0    0 -0.00000000000E+00 -0.00000000000E+00 -0.45593999997E+02  0.45594000000E+02  0.51100000000E-03 0.  1.
    9900012    2    1    2    0    0 -0.85445083449E+01 -0.13759306439E+02  0.93987498385E+01  0.72461985073E+02  0.70000540324E+02 0.  0.
         12    1    1    2    0    0  0.85445083449E+01  0.13759306439E+02 -0.93987498385E+01  0.18726014927E+02  0.00000000000E+00 0. -1.
         11    1    3    3    0    0 -0.24552849470E+02 -0.14416457468E+02 -0.10142432409E+02  0.30224916848E+02  0.51100000000E-03 0. -1.
        -11    1    3    3    0    0  0.79542627448E+01  0.29191203074E+01 -0.90794553223E+01  0.12418859384E+02  0.51100000000E-03 0.  1.
         12    1    3    3    0    0  0.80540783807E+01 -0.22619692784E+01  0.28620637570E+02  0.29818208841E+02  0.00000000000E+00 0. -1.
</event>
<event>
 7    1  0.1351543E-013  0.7246150E+02  0.7816164E-02  0.1226708E+00
        -11   -1    0    0    0    0  0.00000000000E+00  0.00000000000E+00  0.45593999997E+02  0.45594000000E+02  0.51100000000E-03 0. -1.
         11   -1    0    0    0    0 -0.00000000000E+00 -0.00000000000E+00 -0.45593999997E+02  0.45594000000E+02  0.51100000000E-03 0.  1.
    9900012    2    1    2    0    0 -0.10148458632E+02 -0.19228164736E+01 -0.15620282993E+02  0.72461503355E+02  0.69999912799E+02 0.  0.
         12    1    1    2    0    0  0.10148458632E+02  0.19228164736E+01  0.15620282993E+02  0.18726496645E+02  0.00000000000E+00 0. -1.
         11    1    3    3    0    0 -0.41928840133E+01 -0.78253242208E+01  0.22241925784E+02  0.23948261698E+02  0.51100000000E-03 0. -1.
        -11    1    3    3    0    0  0.11758537907E+02  0.62425370647E+00 -0.13120053003E+02  0.17629200137E+02  0.51100000000E-03 0.  1.
         12    1    3    3    0    0 -0.17714112526E+02  0.52782540407E+01 -0.24742155774E+02  0.30884041520E+02  0.00000000000E+00 0. -1.
</event>
<event>
 7    1  0.1351543E-013  0.7246158E+02  0.7816164E-02  0.1226708E+00
        -11   -1    0    0    0    0  0.00000000000E+00  0.00000000000E+00  0.45593999997E+02  0.45594000000E+02  0.51100000000E-03 0. -1.
         11   -1    0    0    0    0 -0.00000000000E+00 -0.00000000000E+00 -0.45593999997E+02  0.45594000000E+02  0.51100000000E-03 0.  1.
    9900012    2    1    2    0    0 -0.34489457925E+01 -0.39333034105E+01 -0.17980899940E+02  0.72461578413E+02  0.70000010576E+02 0.  0.
         12    1    1    2    0    0  0.34489457925E+01  0.39333034105E+01  0.17980899940E+02  0.18726421587E+02  0.00000000000E+00 0. -1.
         11    1    3    3    0    0 -0.12099009617E+02  0.19868774535E+02  0.12264233347E+02  0.26297635922E+02  0.51100000000E-03 0.  1.
        -11    1    3    3    0    0  0.16139820195E+02 -0.21776252321E+02 -0.24009384868E+02  0.36209798716E+02  0.51100000000E-03 0. -1.
        -12    1    3    3    0    0 -0.74897563696E+01 -0.20258256245E+01 -0.62357484195E+01  0.99541437747E+01  0.00000000000E+00 0.  1.
</event>
<event>
 7    1  0.1351543E-013  0.7246147E+02  0.7816164E-02  0.1226708E+00
        -11   -1    0    0    0    0  0.00000000000E+00  0.00000000000E+00  0.45593999997E+02  0.45594000000E+02  0.51100000000E-03 0. -1.
         11   -1    0    0    0    0 -0.00000000000E+00 -0.00000000000E+00 -0.45593999997E+02  0.45594000000E+02  0.51100000000E-03 0.  1.
    9900012    2    1    2    0    0 -0.81017268787E+01 -0.32557745749E+01 -0.16566375751E+02  0.72461471971E+02  0.69999871915E+02 0.  0.
         12    1    1    2    0    0  0.81017268787E+01  0.32557745749E+01  0.16566375751E+02  0.18726528029E+02  0.00000000000E+00 0. -1.
         11    1    3    3    0    0 -0.86981807982E+01  0.19444403175E+01  0.89298680850E+01  0.12616724679E+02  0.51100000000E-03 0. -1.
        -11    1    3    3    0    0 -0.85356896167E+01 -0.22822415143E+02 -0.30826418804E+02  0.39293621960E+02  0.51100000000E-03 0.  1.
        -12    1    3    3    0    0  0.91321435362E+01  0.17622200250E+02  0.53301749673E+01  0.20551125332E+02  0.00000000000E+00 0.  1.
</event>
<event>
 7    1  0.1351543E-013  0.7246158E+02  0.7816164E-02  0.1226708E+00
        -11   -1    0    0    0    0  0.00000000000E+00  0.00000000000E+00  0.45593999997E+02  0.45594000000E+02  0.51100000000E-03 0.  1.
         11   -1    0    0    0    0 -0.00000000000E+00 -0.00000000000E+00 -0.45593999997E+02  0.45594000000E+02  0.51100000000E-03 0. -1.
    9900012    2    1    2    0    0 -0.16986192019E+02  0.70322861536E+00  0.78519720598E+01  0.72461582429E+02  0.70000015808E+02 0.  0.
         12    1    1    2    0    0  0.16986192019E+02 -0.70322861536E+00 -0.78519720598E+01  0.18726417571E+02  0.00000000000E+00 0. -1.
         11    1    3    3    0    0 -0.30027474691E+02 -0.11747770489E+02 -0.14492234968E+02  0.35350873008E+02  0.51100000000E-03 0. -1.
        -11    1    3    3    0    0  0.11511334114E+02  0.12219994046E+02  0.22282049127E+01  0.16935287567E+02  0.51100000000E-03 0.  1.
         12    1    3    3    0    0  0.15299485573E+01  0.23100505854E+00  0.20116002115E+02  0.20175421855E+02  0.00000000000E+00 0. -1.
</event>
<event>
 7    1  0.1351543E-013  0.7246206E+02  0.7816164E-02  0.1226707E+00
        -11   -1    0    0    0    0  0.00000000000E+00  0.00000000000E+00  0.45593999997E+02  0.45594000000E+02  0.51100000000E-03 0.  1.
         11   -1    0    0    0    0 -0.00000000000E+00 -0.00000000000E+00 -0.45593999997E+02  0.45594000000E+02  0.51100000000E-03 0. -1.
    9900012    2    1    2    0    0  0.10908785563E+02 -0.13009402763E+02  0.79003059514E+01  0.72462055516E+02  0.70000632088E+02 0.  0.
         12    1    1    2    0    0 -0.10908785563E+02  0.13009402763E+02 -0.79003059514E+01  0.18725944484E+02  0.00000000000E+00 0. -1.
         11    1    3    3    0    0  0.25986994740E+02 -0.56781373016E+01 -0.18247293439E+02  0.32257229530E+02  0.51100000000E-03 0. -1.
        -11    1    3    3    0    0 -0.20061247969E+02 -0.11946330574E+02  0.22793399984E+02  0.32629856992E+02  0.51100000000E-03 0.  1.
         12    1    3    3    0    0  0.49830387913E+01  0.46150651126E+01  0.33541994063E+01  0.75749689931E+01  0.00000000000E+00 0. -1.
</event>
<event>
 7    1  0.1351543E-013  0.7246169E+02  0.7816164E-02  0.1226708E+00
        -11   -1    0    0    0    0  0.00000000000E+00  0.00000000000E+00  0.45593999997E+02  0.45594000000E+02  0.51100000000E-03 0.  1.
         11   -1    0    0    0    0 -0.00000000000E+00 -0.00000000000E+00 -0.45593999997E+02  0.45594000000E+02  0.51100000000E-03 0. -1.
    9900012    2    1    2    0    0  0.72284926153E+01 -0.15895579022E+02 -0.67641869832E+01  0.72461687937E+02  0.70000153251E+02 0.  0.
         12    1    1    2    0    0 -0.72284926153E+01  0.15895579022E+02  0.67641869832E+01  0.18726312063E+02  0.00000000000E+00 0. -1.
         11    1    3    3    0    0 -0.21980123931E+02 -0.24115906288E+02 -0.18878194057E+02  0.37697334060E+02  0.51100000000E-03 0. -1.
        -11    1    3    3    0    0  0.10630077948E+02 -0.27627499555E+01  0.46644976986E+01  0.11932681323E+02  0.51100000000E-03 0.  1.
         12    1    3    3    0    0  0.18578538598E+02  0.10983077222E+02  0.74495093747E+01  0.22831672554E+02  0.00000000000E+00 0. -1.
</event>
<event>
 7    1  0.1351543E-013  0.7246156E+02  0.7816164E-02  0.1226708E+00
        -11   -1    0    0    0    0  0.00000000000E+00  0.00000000000E+00  0.45593999997E+02  0.45594000000E+02  0.51100000000E-03 0. -1.
         11   -1    0    0    0    0 -0.00000000000E+00 -0.00000000000E+00 -0.45593999997E+02  0.45594000000E+02  0.51100000000E-03 0.  1.
    9900012    2    1    2    0    0 -0.12216263889E+02  0.43190005653E+01 -0.13519940388E+02  0.72461557268E+02  0.69999983031E+02 0.  0.
         12    1    1    2    0    0  0.12216263889E+02 -0.43190005653E+01  0.13519940388E+02  0.18726442732E+02  0.00000000000E+00 0. -1.
         11    1    3    3    0    0  0.21327544522E+01  0.41790851389E+01  0.15963488597E+02  0.16638700749E+02  0.51100000000E-03 0. -1.
        -11    1    3    3    0    0 -0.26465318980E+02  0.13176009191E+02 -0.19515677868E+02  0.35424313823E+02  0.51100000000E-03 0.  1.
        -12    1    3    3    0    0  0.12116300639E+02 -0.13036093764E+02 -0.99677511174E+01  0.20398542697E+02  0.00000000000E+00 0.  1.
</event>
<event>
 7    1  0.1351543E-013  0.7246161E+02  0.7816164E-02  0.1226708E+00
        -11   -1    0    0    0    0  0.00000000000E+00  0.00000000000E+00  0.45593999997E+02  0.45594000000E+02  0.51100000000E-03 0.  1.
         11   -1    0    0    0    0 -0.00000000000E+00 -0.00000000000E+00 -0.45593999997E+02  0.45594000000E+02  0.51100000000E-03 0. -1.
    9900012    2    1    2    0    0 -0.10449255925E+02  0.48486823364E+01  0.14764182197E+02  0.72461608310E+02  0.70000049522E+02 0.  0.
         12    1    1    2    0    0  0.10449255925E+02 -0.48486823364E+01 -0.14764182197E+02  0.18726391690E+02  0.00000000000E+00 0. -1.
         11    1    3    3    0    0 -0.27209379012E+02  0.26968937089E+02 -0.33152273785E+01  0.38453408259E+02  0.51100000000E-03 0. -1.
        -11    1    3    3    0    0  0.11972330180E+02 -0.14297999634E+02  0.77498717688E+01  0.20194801216E+02  0.51100000000E-03 0.  1.
         12    1    3    3    0    0  0.47877929058E+01 -0.78222551195E+01  0.10329537806E+02  0.13813398834E+02  0.00000000000E+00 0. -1.
</event>
<event>
 7    1  0.1351543E-013  0.7246157E+02  0.7816164E-02  0.1226708E+00
        -11   -1    0    0    0    0  0.00000000000E+00  0.00000000000E+00  0.45593999997E+02  0.45594000000E+02  0.51100000000E-03 0.  1.
         11   -1    0    0    0    0 -0.00000000000E+00 -0.00000000000E+00 -0.45593999997E+02  0.45594000000E+02  0.51100000000E-03 0. -1.
    9900012    2    1    2    0    0 -0.18555681871E+02 -0.25195007164E+01  0.13447808925E+00  0.72461566866E+02  0.69999995534E+02 0.  0.
         12    1    1    2    0    0  0.18555681871E+02  0.25195007164E+01 -0.13447808925E+00  0.18726433134E+02  0.00000000000E+00 0. -1.
         11    1    3    3    0    0  0.16224764784E+02  0.13277836687E+02  0.18924089213E+02  0.28242965358E+02  0.51100000000E-03 0. -1.
        -11    1    3    3    0    0 -0.12686013267E+02 -0.12081194097E+02 -0.98384024784E+01  0.20091897546E+02  0.51100000000E-03 0.  1.
         12    1    3    3    0    0 -0.22094433389E+02 -0.37161433069E+01 -0.89512086456E+01  0.24126703962E+02  0.00000000000E+00 0. -1.
</event>
<event>
 7    1  0.1351543E-013  0.7246161E+02  0.7816164E-02  0.1226708E+00
        -11   -1    0    0    0    0  0.00000000000E+00  0.00000000000E+00  0.45593999997E+02  0.45594000000E+02  0.51100000000E-03 0.  1.
         11   -1    0    0    0    0 -0.00000000000E+00 -0.00000000000E+00 -0.45593999997E+02  0.45594000000E+02  0.51100000000E-03 0. -1.
    9900012    2    1    2    0    0 -0.12425757664E+02 -0.13118156995E+02  0.49185579644E+01  0.72461609293E+02  0.70000050802E+02 0.  0.
         12    1    1    2    0    0  0.12425757664E+02  0.13118156995E+02 -0.49185579644E+01  0.18726390707E+02  0.00000000000E+00 0. -1.
         11    1    3    3    0    0  0.11317316108E+02 -0.17770700928E+02 -0.65993342028E+01  0.22077832040E+02  0.51100000000E-03 0. -1.
        -11    1    3    3    0    0 -0.27190202225E+02  0.15386697927E+02 -0.36830965128E+01  0.31458270301E+02  0.51100000000E-03 0.  1.
        -12    1    3    3    0    0  0.34471284527E+01 -0.10734153994E+02  0.15200988680E+02  0.18925506952E+02  0.00000000000E+00 0.  1.
</event>
<event>
 7    1  0.1351543E-013  0.7246157E+02  0.7816164E-02  0.1226708E+00
        -11   -1    0    0    0    0  0.00000000000E+00  0.00000000000E+00  0.45593999997E+02  0.45594000000E+02  0.51100000000E-03 0.  1.
         11   -1    0    0    0    0 -0.00000000000E+00 -0.00000000000E+00 -0.45593999997E+02  0.45594000000E+02  0.51100000000E-03 0. -1.
    9900012    2    1    2    0    0  0.16610938804E+02 -0.33846433875E+01 -0.79561407132E+01  0.72461567508E+02  0.69999996371E+02 0.  0.
         12    1    1    2    0    0 -0.16610938804E+02  0.33846433875E+01  0.79561407132E+01  0.18726432492E+02  0.00000000000E+00 0. -1.
         11    1    3    3    0    0 -0.20990107655E+01  0.44720474838E+01 -0.14578169253E+02  0.15392468091E+02  0.51100000000E-03 0. -1.
        -11    1    3    3    0    0  0.23470320569E+02 -0.27683185960E+02  0.43082102260E+01  0.36548261356E+02  0.51100000000E-03 0.  1.
        -12    1    3    3    0    0 -0.47603709991E+01  0.19826495089E+02  0.23138183141E+01  0.20520838062E+02  0.00000000000E+00 0.  1.
</event>
<event>
 7    1  0.1351543E-013  0.7246160E+02  0.7816164E-02  0.1226708E+00
        -11   -1    0    0    0    0  0.00000000000E+00  0.00000000000E+00  0.45593999997E+02  0.45594000000E+02  0.51100000000E-03 0. -1.
         11   -1    0    0    0    0 -0.00000000000E+00 -0.00000000000E+00 -0.45593999997E+02  0.45594000000E+02  0.51100000000E-03 0.  1.
    9900012    2    1    2    0    0  0.17750547551E+01  0.13396753580E+02 -0.12963574126E+02  0.72461599385E+02  0.70000037896E+02 0.  0.
         12    1    1    2    0    0 -0.17750547551E+01 -0.13396753580E+02  0.12963574126E+02  0.18726400615E+02  0.00000000000E+00 0. -1.
         11    1    3    3    0    0  0.20814988666E+02 -0.99785139891E+01 -0.86086260513E+00  0.23099254951E+02  0.51100000000E-03 0. -1.
        -11    1    3    3    0    0 -0.18259532290E+02  0.31902109534E+02 -0.30231358915E+01  0.36882169988E+02  0.51100000000E-03 0.  1.
        -12    1    3    3    0    0 -0.78040162156E+00 -0.85268419652E+01 -0.90795756293E+01  0.12480174446E+02  0.00000000000E+00 0.  1.
</event>
<event>
 7    1  0.1351543E-013  0.7246159E+02  0.7816164E-02  0.1226708E+00
        -11   -1    0    0    0    0  0.00000000000E+00  0.00000000000E+00  0.45593999997E+02  0.45594000000E+02  0.51100000000E-03 0.  1.
         11   -1    0    0    0    0 -0.00000000000E+00 -0.00000000000E+00 -0.45593999997E+02  0.45594000000E+02  0.51100000000E-03 0. -1.
    9900012    2    1    2    0    0  0.89145816216E+01 -0.78140479383E+01  0.14496528975E+02  0.72461589159E+02  0.70000024575E+02 0.  0.
         12    1    1    2    0    0 -0.89145816216E+01  0.78140479383E+01 -0.14496528975E+02  0.18726410841E+02  0.00000000000E+00 0. -1.
         11    1    3    3    0    0 -0.15641510426E+02 -0.55434912912E+00  0.15229297901E+02  0.21837940979E+02  0.51100000000E-03 0.  1.
        -11    1    3    3    0    0  0.54556011342E+01  0.13700127087E+02 -0.13064220930E+02  0.19701038924E+02  0.51100000000E-03 0. -1.
         12    1    3    3    0    0  0.19100490913E+02 -0.20959825896E+02  0.12331452003E+02  0.30922609256E+02  0.00000000000E+00 0. -1.
</event>
<event>
 7    1  0.1351543E-013  0.7246141E+02  0.7816164E-02  0.1226708E+00
        -11   -1    0    0    0    0  0.00000000000E+00  0.00000000000E+00  0.45593999997E+02  0.45594000000E+02  0.51100000000E-03 0. -1.
         11   -1    0    0    0    0 -0.00000000000E+00 -0.00000000000E+00 -0.45593999997E+02  0.45594000000E+02  0.51100000000E-03 0.  1.
    9900012    2    1    2    0    0  0.31138518095E+01 -0.18309289699E+02  0.23998276974E+01  0.72461405666E+02  0.69999785541E+02 0.  0.
         12    1    1    2    0    0 -0.31138518095E+01  0.18309289699E+02 -0.23998276974E+01  0.18726594334E+02  0.00000000000E+00 0. -1.
         11    1    3    3    0    0 -0.68332439193E-02  0.18835973449E+02  0.15152036993E+00  0.18836584116E+02  0.51100000000E-03 0. -1.
        -11    1    3    3    0    0  0.40602793489E+01 -0.75036492023E+01 -0.16474575969E+02  0.18552689114E+02  0.51100000000E-03 0.  1.
         12    1    3    3    0    0 -0.93959429546E+00 -0.29641613945E+02  0.18722883296E+02  0.35072132437E+02  0.00000000000E+00 0. -1.
</event>
<event>
 7    1  0.1351543E-013  0.7246156E+02  0.7816164E-02  0.1226708E+00
        -11   -1    0    0    0    0  0.00000000000E+00  0.00000000000E+00  0.45593999997E+02  0.45594000000E+02  0.51100000000E-03 0. -1.
         11   -1    0    0    0    0 -0.00000000000E+00 -0.00000000000E+00 -0.45593999997E+02  0.45594000000E+02  0.51100000000E-03 0.  1.
    9900012    2    1    2    0    0 -0.64510243678E+01  0.13085835456E+02  0.11739880996E+02  0.72461558513E+02  0.69999984652E+02 0.  0.
         12    1    1    2    0    0  0.64510243678E+01 -0.13085835456E+02 -0.11739880996E+02  0.18726441487E+02  0.00000000000E+00 0. -1.
         11    1    3    3    0    0 -0.24961717898E+01  0.11306431916E+02  0.19904507419E+02  0.23027281475E+02  0.51100000000E-03 0. -1.
        -11    1    3    3    0    0  0.41736858230E+01 -0.22633253105E+02 -0.43588905060E+01  0.23423998937E+02  0.51100000000E-03 0.  1.
        -12    1    3    3    0    0 -0.81285384010E+01  0.24412656646E+02 -0.38057359165E+01  0.26010278101E+02  0.00000000000E+00 0.  1.
</event>
<event>
 7    1  0.1351543E-013  0.7246080E+02  0.7816164E-02  0.1226710E+00
        -11   -1    0    0    0    0  0.00000000000E+00  0.00000000000E+00  0.45593999997E+02  0.45594000000E+02  0.51100000000E-03 0. -1.
         11   -1    0    0    0    0 -0.00000000000E+00 -0.00000000000E+00 -0.45593999997E+02  0.45594000000E+02  0.51100000000E-03 0.  1.
    9900012    2    1    2    0    0  0.21936467008E+01 -0.17193368876E+02 -0.70911151871E+01  0.72460802298E+02  0.69998999535E+02 0.  0.
         12    1    1    2    0    0 -0.21936467008E+01  0.17193368876E+02  0.70911151871E+01  0.18727197702E+02  0.00000000000E+00 0. -1.
         11    1    3    3    0    0 -0.58124119289E+01  0.16563323776E+02  0.17382625755E+02  0.24703916802E+02  0.51100000000E-03 0. -1.
        -11    1    3    3    0    0 -0.81061901141E-01 -0.19741463400E+02 -0.16927684669E+01  0.19814071100E+02  0.51100000000E-03 0.  1.
         12    1    3    3    0    0  0.80871205309E+01 -0.14015229252E+02 -0.22780972475E+02  0.27942814396E+02  0.00000000000E+00 0. -1.
</event>
<event>
 7    1  0.1351543E-013  0.7246162E+02  0.7816164E-02  0.1226708E+00
        -11   -1    0    0    0    0  0.00000000000E+00  0.00000000000E+00  0.45593999997E+02  0.45594000000E+02  0.51100000000E-03 0.  1.
         11   -1    0    0    0    0 -0.00000000000E+00 -0.00000000000E+00 -0.45593999997E+02  0.45594000000E+02  0.51100000000E-03 0. -1.
    9900012    2    1    2    0    0 -0.69945958495E+01 -0.16981430101E+02  0.36584068459E+01  0.72461620744E+02  0.70000065720E+02 0.  0.
         12    1    1    2    0    0  0.69945958495E+01  0.16981430101E+02 -0.36584068459E+01  0.18726379256E+02  0.00000000000E+00 0. -1.
         11    1    3    3    0    0  0.20610808637E+02  0.95803052348E+01 -0.10313051417E+02  0.24958900434E+02  0.51100000000E-03 0. -1.
        -11    1    3    3    0    0 -0.24918284634E+02 -0.13953559463E+02  0.18282349263E+02  0.33909689259E+02  0.51100000000E-03 0.  1.
         12    1    3    3    0    0 -0.26871198526E+01 -0.12608175874E+02 -0.43108910001E+01  0.13593031052E+02  0.00000000000E+00 0. -1.
</event>
<event>
 7    1  0.1351543E-013  0.7246150E+02  0.7816164E-02  0.1226708E+00
        -11   -1    0    0    0    0  0.00000000000E+00  0.00000000000E+00  0.45593999997E+02  0.45594000000E+02  0.51100000000E-03 0. -1.
         11   -1    0    0    0    0 -0.00000000000E+00 -0.00000000000E+00 -0.45593999997E+02  0.45594000000E+02  0.51100000000E-03 0.  1.
    9900012    2    1    2    0    0  0.14295004951E+02  0.33156804815E+01 -0.11633603407E+02  0.72461504551E+02  0.69999914357E+02 0.  0.
         12    1    1    2    0    0 -0.14295004951E+02 -0.33156804815E+01  0.11633603407E+02  0.18726495449E+02  0.00000000000E+00 0. -1.
         11    1    3    3    0    0  0.11730069939E+02 -0.24506924594E+02 -0.14555077055E+02  0.30822624193E+02  0.51100000000E-03 0. -1.
        -11    1    3    3    0    0  0.77367815820E+00  0.12768088839E+02 -0.13969975619E+02  0.18941565129E+02  0.51100000000E-03 0.  1.
         12    1    3    3    0    0  0.17912568530E+01  0.15054516236E+02  0.16891449267E+02  0.22697315228E+02  0.00000000000E+00 0. -1.
</event>
<event>
 7    1  0.1351543E-013  0.7246093E+02  0.7816164E-02  0.1226710E+00
        -11   -1    0    0    0    0  0.00000000000E+00  0.00000000000E+00  0.45593999997E+02  0.45594000000E+02  0.51100000000E-03 0. -1.
         11   -1    0    0    0    0 -0.00000000000E+00 -0.00000000000E+00 -0.45593999997E+02  0.45594000000E+02  0.51100000000E-03 0.  1.
    9900012    2    1    2    0    0 -0.96816839779E-01 -0.16103670807E+01 -0.18657455179E+02  0.72460926299E+02  0.69999161072E+02 0.  0.
         12    1    1    2    0    0  0.96816839779E-01  0.16103670807E+01  0.18657455179E+02  0.18727073701E+02  0.00000000000E+00 0. -1.
         11    1    3    3    0    0  0.20218210567E+02  0.87924572576E+01 -0.94395154102E+01  0.23983073085E+02  0.51100000000E-03 0. -1.
        -11    1    3    3    0    0 -0.10320534775E+02 -0.17218949164E+02  0.12478092864E+02  0.23637014408E+02  0.51100000000E-03 0.  1.
        -12    1    3    3    0    0 -0.99944926320E+01  0.68161248255E+01 -0.21696032633E+02  0.24840838806E+02  0.00000000000E+00 0.  1.
</event>
<event>
 7    1  0.1351543E-013  0.7246158E+02  0.7816164E-02  0.1226708E+00
        -11   -1    0    0    0    0  0.00000000000E+00  0.00000000000E+00  0.45593999997E+02  0.45594000000E+02  0.51100000000E-03 0.  1.
         11   -1    0    0    0    0 -0.00000000000E+00 -0.00000000000E+00 -0.45593999997E+02  0.45594000000E+02  0.51100000000E-03 0. -1.
    9900012    2    1    2    0    0 -0.92787675391E+01  0.77932871314E+01  0.14277529957E+02  0.72461582483E+02  0.70000015878E+02 0.  0.
         12    1    1    2    0    0  0.92787675391E+01 -0.77932871314E+01 -0.14277529957E+02  0.18726417517E+02  0.00000000000E+00 0. -1.
         11    1    3    3    0    0 -0.27963402548E+02  0.13710819712E+01 -0.13815175643E+02  0.31220038855E+02  0.51100000000E-03 0. -1.
        -11    1    3    3    0    0  0.44223875188E+01 -0.54795021977E+01  0.19580698196E+02  0.20808320398E+02  0.51100000000E-03 0.  1.
         12    1    3    3    0    0  0.14262247490E+02  0.11901707358E+02  0.85120074043E+01  0.20433223229E+02  0.00000000000E+00 0. -1.
</event>
<event>
 7    1  0.1351543E-013  0.7246157E+02  0.7816164E-02  0.1226708E+00
        -11   -1    0    0    0    0  0.00000000000E+00  0.00000000000E+00  0.45593999997E+02  0.45594000000E+02  0.51100000000E-03 0. -1.
         11   -1    0    0    0    0 -0.00000000000E+00 -0.00000000000E+00 -0.45593999997E+02  0.45594000000E+02  0.51100000000E-03 0.  1.
    9900012    2    1    2    0    0  0.11835865849E+02 -0.25846575692E+01  0.14279740842E+02  0.72461570184E+02  0.69999999856E+02 0.  0.
         12    1    1    2    0    0 -0.11835865849E+02  0.25846575692E+01 -0.14279740842E+02  0.18726429816E+02  0.00000000000E+00 0. -1.
         11    1    3    3    0    0  0.14771676004E+02 -0.26962522102E+01 -0.23946262811E+01  0.15205473463E+02  0.51100000000E-03 0. -1.
        -11    1    3    3    0    0 -0.38991293018E+01  0.27294394229E+02  0.80959248751E+01  0.28735538371E+02  0.51100000000E-03 0.  1.
        -12    1    3    3    0    0  0.96331914747E+00 -0.27182799588E+02  0.85784422478E+01  0.28520558350E+02  0.00000000000E+00 0.  1.
</event>
<event>
 7    1  0.1351543E-013  0.7246160E+02  0.7816164E-02  0.1226708E+00
        -11   -1    0    0    0    0  0.00000000000E+00  0.00000000000E+00  0.45593999997E+02  0.45594000000E+02  0.51100000000E-03 0. -1.
         11   -1    0    0    0    0 -0.00000000000E+00 -0.00000000000E+00 -0.45593999997E+02  0.45594000000E+02  0.51100000000E-03 0.  1.
    9900012    2    1    2    0    0  0.14208846202E+01 -0.22163073383E+01 -0.18540420748E+02  0.72461597975E+02  0.70000036059E+02 0.  0.
         12    1    1    2    0    0 -0.14208846202E+01  0.22163073383E+01  0.18540420748E+02  0.18726402025E+02  0.00000000000E+00 0. -1.
         11    1    3    3    0    0  0.22217497441E+02 -0.19206850420E+02  0.70155493758E+01  0.30195003377E+02  0.51100000000E-03 0. -1.
        -11    1    3    3    0    0 -0.95811428463E+01 -0.21030050394E+01 -0.21430580613E+01  0.10040598914E+02  0.51100000000E-03 0.  1.
         12    1    3    3    0    0 -0.11215469975E+02  0.19093548121E+02 -0.23412912062E+02  0.32225995684E+02  0.00000000000E+00 0. -1.
</event>
<event>
 7    1  0.1351543E-013  0.7246157E+02  0.7816164E-02  0.1226708E+00
        -11   -1    0    0    0    0  0.00000000000E+00  0.00000000000E+00  0.45593999997E+02  0.45594000000E+02  0.51100000000E-03 0.  1.
         11   -1    0    0    0    0 -0.00000000000E+00 -0.00000000000E+00 -0.45593999997E+02  0.45594000000E+02  0.51100000000E-03 0. -1.
    9900012    2    1    2    0    0 -0.13219803262E+02  0.11923224469E+02  0.58097026657E+01  0.72461571480E+02  0.70000001545E+02 0.  0.
         12    1    1    2    0    0  0.13219803262E+02 -0.11923224469E+02 -0.58097026657E+01  0.18726428520E+02  0.00000000000E+00 0. -1.
         11    1    3    3    0    0 -0.10987948864E+02 -0.17550805312E+02 -0.83032893624E+01  0.22309424059E+02  0.51100000000E-03 0. -1.
        -11    1    3    3    0    0 -0.18918711677E+02  0.19745764520E+02  0.21467002721E+01  0.27430296941E+02  0.51100000000E-03 0.  1.
         12    1    3    3    0    0  0.16686857279E+02  0.97282652615E+01  0.11966291756E+02  0.22721850480E+02  0.00000000000E+00 0. -1.
</event>
<event>
 7    1  0.1351543E-013  0.7246157E+02  0.7816164E-02  0.1226708E+00
        -11   -1    0    0    0    0  0.00000000000E+00  0.00000000000E+00  0.45593999997E+02  0.45594000000E+02  0.51100000000E-03 0. -1.
         11   -1    0    0    0    0 -0.00000000000E+00 -0.00000000000E+00 -0.45593999997E+02  0.45594000000E+02  0.51100000000E-03 0.  1.
    9900012    2    1    2    0    0 -0.47197937740E+01  0.11127713691E+02 -0.14303037556E+02  0.72461565514E+02  0.69999993772E+02 0.  0.
         12    1    1    2    0    0  0.47197937740E+01 -0.11127713691E+02  0.14303037556E+02  0.18726434486E+02  0.00000000000E+00 0. -1.
         11    1    3    3    0    0  0.22638525795E+02 -0.54295119516E+01 -0.29131304086E+01  0.23462071077E+02  0.51100000000E-03 0. -1.
        -11    1    3    3    0    0 -0.23245647076E+02  0.23639009699E+02  0.20981698855E+01  0.33219951906E+02  0.51100000000E-03 0.  1.
        -12    1    3    3    0    0 -0.41126724929E+01 -0.70817840559E+01 -0.13488077032E+02  0.15779542531E+02  0.00000000000E+00 0.  1.
</event>
<event>
 7    1  0.1351543E-013  0.7246145E+02  0.7816164E-02  0.1226708E+00
        -11   -1    0    0    0    0  0.00000000000E+00  0.00000000000E+00  0.45593999997E+02  0.45594000000E+02  0.51100000000E-03 0.  1.
         11   -1    0    0    0    0 -0.00000000000E+00 -0.00000000000E+00 -0.45593999997E+02  0.45594000000E+02  0.51100000000E-03 0. -1.
    9900012    2    1    2    0    0  0.23849597247E+01  0.69153513377E+00  0.18561182563E+02  0.72461447945E+02  0.69999840617E+02 0.  0.
         12    1    1    2    0    0 -0.23849597247E+01 -0.69153513377E+00 -0.18561182563E+02  0.18726552055E+02  0.00000000000E+00 0. -1.
         11    1    3    3    0    0  0.30034941348E+02  0.50829900556E+01 -0.57138188713E+01  0.30993260817E+02  0.51100000000E-03 0.  1.
        -11    1    3    3    0    0 -0.36114873906E+01  0.10706860126E+01 -0.29179031029E+01  0.47648051890E+01  0.51100000000E-03 0. -1.
         12    1    3    3    0    0 -0.24038494233E+02 -0.54621409344E+01  0.27192904537E+02  0.36703381939E+02  0.00000000000E+00 0. -1.
</event>
<event>
 7    1  0.1351543E-013  0.7246155E+02  0.7816164E-02  0.1226708E+00
        -11   -1    0    0    0    0  0.00000000000E+00  0.00000000000E+00  0.45593999997E+02  0.45594000000E+02  0.51100000000E-03 0.  1.
         11   -1    0    0    0    0 -0.00000000000E+00 -0.00000000000E+00 -0.45593999997E+02  0.45594000000E+02  0.51100000000E-03 0. -1.
    9900012    2    1    2    0    0  0.77065895596E+01  0.17023910446E+02  0.12143748409E+01  0.72461554642E+02  0.69999979609E+02 0.  0.
         12    1    1    2    0    0 -0.77065895596E+01 -0.17023910446E+02 -0.12143748409E+01  0.18726445358E+02  0.00000000000E+00 0. -1.
         11    1    3    3    0    0 -0.96238183105E-01 -0.17483260179E+02  0.66446759670E+00  0.17496147168E+02  0.51100000000E-03 0.  1.
        -11    1    3    3    0    0  0.16474813985E+02  0.36638687563E+02 -0.97446909089E+01  0.41337294582E+02  0.51100000000E-03 0. -1.
        -12    1    3    3    0    0 -0.86719862427E+01 -0.21315169375E+01  0.10294598153E+02  0.13628112891E+02  0.00000000000E+00 0.  1.
</event>
<event>
 7    1  0.1351543E-013  0.7246159E+02  0.7816164E-02  0.1226708E+00
        -11   -1    0    0    0    0  0.00000000000E+00  0.00000000000E+00  0.45593999997E+02  0.45594000000E+02  0.51100000000E-03 0.  1.
         11   -1    0    0    0    0 -0.00000000000E+00 -0.00000000000E+00 -0.45593999997E+02  0.45594000000E+02  0.51100000000E-03 0. -1.
    9900012    2    1    2    0    0  0.67070677359E+01 -0.16907672692E+02 -0.44524257854E+01  0.72461594876E+02  0.70000032022E+02 0.  0.
         12    1    1    2    0    0 -0.67070677359E+01  0.16907672692E+02  0.44524257854E+01  0.18726405124E+02  0.00000000000E+00 0. -1.
         11    1    3    3    0    0 -0.18135001989E+02 -0.54814585813E+01 -0.21172208190E+02  0.28411038088E+02  0.51100000000E-03 0. -1.
        -11    1    3    3    0    0  0.14655719806E+02  0.94348880611E+01  0.87686868044E+01  0.19511460845E+02  0.51100000000E-03 0.  1.
        -12    1    3    3    0    0  0.10186349919E+02 -0.20861102172E+02  0.79510956001E+01  0.24539095944E+02  0.00000000000E+00 0.  1.
</event>
<event>
 7    1  0.1351543E-013  0.7246150E+02  0.7816164E-02  0.1226708E+00
        -11   -1    0    0    0    0  0.00000000000E+00  0.00000000000E+00  0.45593999997E+02  0.45594000000E+02  0.51100000000E-03 0.  1.
         11   -1    0    0    0    0 -0.00000000000E+00 -0.00000000000E+00 -0.45593999997E+02  0.45594000000E+02  0.51100000000E-03 0. -1.
    9900012    2    1    2    0    0 -0.10319210233E+02 -0.15254353287E+02  0.33911985985E+01  0.72461504814E+02  0.69999914699E+02 0.  0.
         12    1    1    2    0    0  0.10319210233E+02  0.15254353287E+02 -0.33911985985E+01  0.18726495186E+02  0.00000000000E+00 0. -1.
         11    1    3    3    0    0 -0.41720420250E+00 -0.24056233820E+02 -0.73237738510E+01  0.25149833173E+02  0.51100000000E-03 0. -1.
        -11    1    3    3    0    0 -0.95812456415E+01  0.65141204072E+01  0.27775704835E+02  0.30095245672E+02  0.51100000000E-03 0.  1.
         12    1    3    3    0    0 -0.32076038890E+00  0.22877601267E+01 -0.17060732385E+02  0.17216425969E+02  0.00000000000E+00 0. -1.
</event>
<event>
 7    1  0.1351543E-013  0.7246146E+02  0.7816164E-02  0.1226708E+00
        -11   -1    0    0    0    0  0.00000000000E+00  0.00000000000E+00  0.45593999997E+02  0.45594000000E+02  0.51100000000E-03 0.  1.
         11   -1    0    0    0    0 -0.00000000000E+00 -0.00000000000E+00 -0.45593999997E+02  0.45594000000E+02  0.51100000000E-03 0. -1.
    9900012    2    1    2    0    0 -0.64049581519E+01  0.94738230703E+01  0.14829243699E+02  0.72461460513E+02  0.69999856989E+02 0.  0.
         12    1    1    2    0    0  0.64049581519E+01 -0.94738230703E+01 -0.14829243699E+02  0.18726539487E+02  0.00000000000E+00 0. -1.
         11    1    3    3    0    0 -0.10291333078E+00  0.62834955938E+01 -0.50808461799E+01  0.80813307194E+01  0.51100000000E-03 0. -1.
        -11    1    3    3    0    0 -0.81874127356E+01  0.14837543520E+02  0.38668857271E+02  0.42219272233E+02  0.51100000000E-03 0.  1.
        -12    1    3    3    0    0  0.18853679145E+01 -0.11647216043E+02 -0.18758767392E+02  0.22160857560E+02  0.00000000000E+00 0.  1.
</event>
<event>
 7    1  0.2295129E-013  0.7246148E+02  0.7816164E-02  0.1226708E+00
        -11   -1    0    0    0    0  0.00000000000E+00  0.00000000000E+00  0.45593999997E+02  0.45594000000E+02  0.51100000000E-03 0. -1.
         11   -1    0    0    0    0 -0.00000000000E+00 -0.00000000000E+00 -0.45593999997E+02  0.45594000000E+02  0.51100000000E-03 0.  1.
    9900012    2    1    2    0    0 -0.47095606389E+01 -0.95514324559E+01 -0.15403665511E+02  0.72461475107E+02  0.69999876001E+02 0.  0.
         12    1    1    2    0    0  0.47095606389E+01  0.95514324559E+01  0.15403665511E+02  0.18726524893E+02  0.00000000000E+00 0. -1.
         11    1    3    3    0    0 -0.51030916969E+01  0.17574845709E+02  0.12284216299E+02  0.22041295717E+02  0.51100000000E-03 0. -1.
        -11    1    3    3    0    0  0.65720193721E+01 -0.94764079126E+01 -0.29459593799E+02  0.31636393799E+02  0.51100000000E-03 0.  1.
         12    1    3    3    0    0 -0.61784883140E+01 -0.17649870252E+02  0.17717119886E+01  0.18783785591E+02  0.00000000000E+00 0. -1.
</event>
<event>
 7    1  0.1351543E-013  0.7246157E+02  0.7816164E-02  0.1226708E+00
        -11   -1    0    0    0    0  0.00000000000E+00  0.00000000000E+00  0.45593999997E+02  0.45594000000E+02  0.51100000000E-03 0. -1.
         11   -1    0    0    0    0 -0.00000000000E+00 -0.00000000000E+00 -0.45593999997E+02  0.45594000000E+02  0.51100000000E-03 0.  1.
    9900012    2    1    2    0    0 -0.83407203603E+00 -0.12469027751E+02 -0.13946573400E+02  0.72461568444E+02  0.69999997590E+02 0.  0.
         12    1    1    2    0    0  0.83407203603E+00  0.12469027751E+02  0.13946573400E+02  0.18726431556E+02  0.00000000000E+00 0. -1.
         11    1    3    3    0    0  0.22306365196E+02 -0.16897429637E+02 -0.51125630379E+01  0.28447062373E+02  0.51100000000E-03 0. -1.
        -11    1    3    3    0    0 -0.14047681756E+02 -0.24555881964E+01  0.13054160112E+02  0.19333348717E+02  0.51100000000E-03 0.  1.
        -12    1    3    3    0    0 -0.90927554764E+01  0.68839900826E+01 -0.21888170474E+02  0.24681157354E+02  0.00000000000E+00 0.  1.
</event>
<event>
 7    1  0.1351543E-013  0.7246160E+02  0.7816164E-02  0.1226708E+00
        -11   -1    0    0    0    0  0.00000000000E+00  0.00000000000E+00  0.45593999997E+02  0.45594000000E+02  0.51100000000E-03 0.  1.
         11   -1    0    0    0    0 -0.00000000000E+00 -0.00000000000E+00 -0.45593999997E+02  0.45594000000E+02  0.51100000000E-03 0. -1.
    9900012    2    1    2    0    0  0.59836349879E+01  0.11356414566E+02  0.13634739071E+02  0.72461597543E+02  0.70000035496E+02 0.  0.
         12    1    1    2    0    0 -0.59836349879E+01 -0.11356414566E+02 -0.13634739071E+02  0.18726402457E+02  0.00000000000E+00 0. -1.
         11    1    3    3    0    0 -0.56678923370E+01  0.20141288068E+02  0.49869926030E+01  0.21509685819E+02  0.51100000000E-03 0. -1.
        -11    1    3    3    0    0  0.19308906748E+02 -0.85546642351E+01 -0.15124166783E+02  0.25976077092E+02  0.51100000000E-03 0.  1.
        -12    1    3    3    0    0 -0.76573794228E+01 -0.23020926622E+00  0.23771913250E+02  0.24975834631E+02  0.00000000000E+00 0.  1.
</event>
<event>
 7    1  0.1351543E-013  0.7246176E+02  0.7816164E-02  0.1226707E+00
        -11   -1    0    0    0    0  0.00000000000E+00  0.00000000000E+00  0.45593999997E+02  0.45594000000E+02  0.51100000000E-03 0. -1.
         11   -1    0    0    0    0 -0.00000000000E+00 -0.00000000000E+00 -0.45593999997E+02  0.45594000000E+02  0.51100000000E-03 0.  1.
    9900012    2    1    2    0    0  0.16542855944E+02  0.74566717663E+01 -0.46264307897E+01  0.72461764434E+02  0.70000252902E+02 0.  0.
         12    1    1    2    0    0 -0.16542855944E+02 -0.74566717663E+01  0.46264307897E+01  0.18726235566E+02  0.00000000000E+00 0. -1.
         11    1    3    3    0    0  0.61026809455E+01 -0.19461770241E+02  0.16736531502E+02  0.26383985722E+02  0.51100000000E-03 0. -1.
        -11    1    3    3    0    0  0.22433004247E+01  0.18083365491E+02 -0.27158278554E+02  0.32704932328E+02  0.51100000000E-03 0.  1.
         12    1    3    3    0    0  0.81968745741E+01  0.88350765157E+01  0.57953162622E+01  0.13372846384E+02  0.00000000000E+00 0. -1.
</event>
<event>
 7    1  0.1351543E-013  0.7246157E+02  0.7816164E-02  0.1226708E+00
        -11   -1    0    0    0    0  0.00000000000E+00  0.00000000000E+00  0.45593999997E+02  0.45594000000E+02  0.51100000000E-03 0.  1.
         11   -1    0    0    0    0 -0.00000000000E+00 -0.00000000000E+00 -0.45593999997E+02  0.45594000000E+02  0.51100000000E-03 0. -1.
    9900012    2    1    2    0    0  0.38014469851E+01  0.15791740593E+02  0.93192774248E+01  0.72461574771E+02  0.70000005832E+02 0.  0.
         12    1    1    2    0    0 -0.38014469851E+01 -0.15791740593E+02 -0.93192774248E+01  0.18726425229E+02  0.00000000000E+00 0. -1.
         11    1    3    3    0    0  0.12848293182E+01 -0.16401453407E+02 -0.33711924698E+01  0.16793552309E+02  0.51100000000E-03 0. -1.
        -11    1    3    3    0    0 -0.17660658405E+02  0.15836575319E+02  0.17205850860E+02  0.29304219444E+02  0.51100000000E-03 0.  1.
        -12    1    3    3    0    0  0.20177276071E+02  0.16356618680E+02 -0.45153809658E+01  0.26363803018E+02  0.00000000000E+00 0.  1.
</event>
<event>
 7    1  0.1351543E-013  0.7246158E+02  0.7816164E-02  0.1226708E+00
        -11   -1    0    0    0    0  0.00000000000E+00  0.00000000000E+00  0.45593999997E+02  0.45594000000E+02  0.51100000000E-03 0. -1.
         11   -1    0    0    0    0 -0.00000000000E+00 -0.00000000000E+00 -0.45593999997E+02  0.45594000000E+02  0.51100000000E-03 0.  1.
    9900012    2    1    2    0    0 -0.19205640393E+01  0.33055693039E+01 -0.18332032526E+02  0.72461580930E+02  0.70000013855E+02 0.  0.
         12    1    1    2    0    0  0.19205640393E+01 -0.33055693039E+01  0.18332032526E+02  0.18726419070E+02  0.00000000000E+00 0. -1.
         11    1    3    3    0    0 -0.17319708120E+02  0.60221578676E+01  0.65404995173E+01  0.19468354037E+02  0.51100000000E-03 0. -1.
        -11    1    3    3    0    0 -0.57899954894E+01 -0.17537589886E+02 -0.18958861103E+02  0.26467518233E+02  0.51100000000E-03 0.  1.
         12    1    3    3    0    0  0.21189139570E+02  0.14821001323E+02 -0.59136709400E+01  0.26525708660E+02  0.00000000000E+00 0. -1.
</event>
<event>
 7    1  0.1351543E-013  0.7246183E+02  0.7816164E-02  0.1226707E+00
        -11   -1    0    0    0    0  0.00000000000E+00  0.00000000000E+00  0.45593999997E+02  0.45594000000E+02  0.51100000000E-03 0. -1.
         11   -1    0    0    0    0 -0.00000000000E+00 -0.00000000000E+00 -0.45593999997E+02  0.45594000000E+02  0.51100000000E-03 0.  1.
    9900012    2    1    2    0    0  0.53331814138E+00  0.51208037913E+01 -0.18004506599E+02  0.72461833345E+02  0.70000342672E+02 0.  0.
         12    1    1    2    0    0 -0.53331814138E+00 -0.51208037913E+01  0.18004506599E+02  0.18726166655E+02  0.00000000000E+00 0. -1.
         11    1    3    3    0    0 -0.11818756437E+00  0.23006996425E+02 -0.33570833139E+02  0.40698116550E+02  0.51100000000E-03 0. -1.
        -11    1    3    3    0    0 -0.66994074706E+01 -0.11896134908E+02  0.13706339804E+00  0.13653529684E+02  0.51100000000E-03 0.  1.
         12    1    3    3    0    0  0.73509131764E+01 -0.59900577254E+01  0.15429263142E+02  0.18110187111E+02  0.00000000000E+00 0. -1.
</event>
<event>
 7    1  0.1351543E-013  0.7246173E+02  0.7816164E-02  0.1226708E+00
        -11   -1    0    0    0    0  0.00000000000E+00  0.00000000000E+00  0.45593999997E+02  0.45594000000E+02  0.51100000000E-03 0. -1.
         11   -1    0    0    0    0 -0.00000000000E+00 -0.00000000000E+00 -0.45593999997E+02  0.45594000000E+02  0.51100000000E-03 0.  1.
    9900012    2    1    2    0    0  0.10395025219E+02  0.13103288246E+02 -0.84214282688E+01  0.72461730584E+02  0.70000208807E+02 0.  0.
         12    1    1    2    0    0 -0.10395025219E+02 -0.13103288246E+02  0.84214282688E+01  0.18726269416E+02  0.00000000000E+00 0. -1.
         11    1    3    3    0    0  0.67639693261E+01  0.28400533750E+02 -0.59823998932E+01  0.29801521892E+02  0.51100000000E-03 0. -1.
        -11    1    3    3    0    0  0.19893445932E+02 -0.94962741102E+01  0.68115816886E+01  0.23072192318E+02  0.51100000000E-03 0.  1.
        -12    1    3    3    0    0 -0.16262390039E+02 -0.58009713944E+01 -0.92506100642E+01  0.19588016374E+02  0.00000000000E+00 0.  1.
</event>
<event>
 7    1  0.1351543E-013  0.7246194E+02  0.7816164E-02  0.1226707E+00
        -11   -1    0    0    0    0  0.00000000000E+00  0.00000000000E+00  0.45593999997E+02  0.45594000000E+02  0.51100000000E-03 0.  1.
         11   -1    0    0    0    0 -0.00000000000E+00 -0.00000000000E+00 -0.45593999997E+02  0.45594000000E+02  0.51100000000E-03 0. -1.
    9900012    2    1    2    0    0  0.13550916062E+01  0.18479002728E+02  0.27121105202E+01  0.72461939054E+02  0.70000480377E+02 0.  0.
         12    1    1    2    0    0 -0.13550916062E+01 -0.18479002728E+02 -0.27121105202E+01  0.18726060946E+02  0.00000000000E+00 0. -1.
         11    1    3    3    0    0 -0.14722220567E+01 -0.23790256080E+02  0.17587249327E+01  0.23900561412E+02  0.51100000000E-03 0. -1.
        -11    1    3    3    0    0 -0.23334742981E+01  0.52428979198E+01  0.86620627846E+01  0.10390592516E+02  0.51100000000E-03 0.  1.
         12    1    3    3    0    0  0.51607879610E+01  0.37026360888E+02 -0.77086771971E+01  0.38170785126E+02  0.00000000000E+00 0. -1.
</event>
<event>
 7    1  0.1351543E-013  0.7246159E+02  0.7816164E-02  0.1226708E+00
        -11   -1    0    0    0    0  0.00000000000E+00  0.00000000000E+00  0.45593999997E+02  0.45594000000E+02  0.51100000000E-03 0. -1.
         11   -1    0    0    0    0 -0.00000000000E+00 -0.00000000000E+00 -0.45593999997E+02  0.45594000000E+02  0.51100000000E-03 0.  1.
    9900012    2    1    2    0    0  0.13767128390E+01 -0.17403613612E+02 -0.67747609321E+01  0.72461588419E+02  0.70000023611E+02 0.  0.
         12    1    1    2    0    0 -0.13767128390E+01  0.17403613612E+02  0.67747609321E+01  0.18726411581E+02  0.00000000000E+00 0. -1.
         11    1    3    3    0    0 -0.20831846328E+01  0.85370639190E+01  0.20962265796E+01  0.90341178156E+01  0.51100000000E-03 0. -1.
        -11    1    3    3    0    0  0.15016935452E+02 -0.40963458744E+02 -0.86160055596E+01  0.44471888364E+02  0.51100000000E-03 0.  1.
        -12    1    3    3    0    0 -0.11557037981E+02  0.15022781213E+02 -0.25498195210E+00  0.18955582240E+02  0.00000000000E+00 0.  1.
</event>
<event>
 7    1  0.1351543E-013  0.7246152E+02  0.7816164E-02  0.1226708E+00
        -11   -1    0    0    0    0  0.00000000000E+00  0.00000000000E+00  0.45593999997E+02  0.45594000000E+02  0.51100000000E-03 0. -1.
         11   -1    0    0    0    0 -0.00000000000E+00 -0.00000000000E+00 -0.45593999997E+02  0.45594000000E+02  0.51100000000E-03 0.  1.
    9900012    2    1    2    0    0  0.58257108315E+01  0.78438157394E+01 -0.15975508675E+02  0.72461515294E+02  0.69999928351E+02 0.  0.
         12    1    1    2    0    0 -0.58257108315E+01 -0.78438157394E+01  0.15975508675E+02  0.18726484706E+02  0.00000000000E+00 0. -1.
         11    1    3    3    0    0  0.23976741493E+02  0.28310565569E+02 -0.88186053327E+01  0.38133188377E+02  0.51100000000E-03 0. -1.
        -11    1    3    3    0    0 -0.13649106134E+02 -0.11847625938E+01 -0.18172934742E+01  0.13820431126E+02  0.51100000000E-03 0.  1.
         12    1    3    3    0    0 -0.45019245275E+01 -0.19281987236E+02 -0.53396098678E+01  0.20507895791E+02  0.00000000000E+00 0. -1.
</event>
<event>
 7    1  0.1351543E-013  0.7246153E+02  0.7816164E-02  0.1226708E+00
        -11   -1    0    0    0    0  0.00000000000E+00  0.00000000000E+00  0.45593999997E+02  0.45594000000E+02  0.51100000000E-03 0.  1.
         11   -1    0    0    0    0 -0.00000000000E+00 -0.00000000000E+00 -0.45593999997E+02  0.45594000000E+02  0.51100000000E-03 0. -1.
    9900012    2    1    2    0    0 -0.16866916030E+02 -0.31890663875E+00  0.81293467253E+01  0.72461525799E+02  0.69999942037E+02 0.  0.
         12    1    1    2    0    0  0.16866916030E+02  0.31890663875E+00 -0.81293467253E+01  0.18726474201E+02  0.00000000000E+00 0. -1.
         11    1    3    3    0    0  0.70523348152E+01 -0.22860502344E+02 -0.68509889920E+01  0.24885217383E+02  0.51100000000E-03 0. -1.
        -11    1    3    3    0    0 -0.27513463274E+02  0.61623008983E+01  0.11498531551E+02  0.30449644362E+02  0.51100000000E-03 0.  1.
        -12    1    3    3    0    0  0.35942124286E+01  0.16379294807E+02  0.34818041660E+01  0.17126664054E+02  0.00000000000E+00 0.  1.
</event>
<event>
 7    1  0.1351543E-013  0.7246157E+02  0.7816164E-02  0.1226708E+00
        -11   -1    0    0    0    0  0.00000000000E+00  0.00000000000E+00  0.45593999997E+02  0.45594000000E+02  0.51100000000E-03 0.  1.
         11   -1    0    0    0    0 -0.00000000000E+00 -0.00000000000E+00 -0.45593999997E+02  0.45594000000E+02  0.51100000000E-03 0. -1.
    9900012    2    1    2    0    0 -0.11102305334E+02 -0.13370558902E+02  0.69746757014E+01  0.72461571343E+02  0.70000001366E+02 0.  0.
         12    1    1    2    0    0  0.11102305334E+02  0.13370558902E+02 -0.69746757014E+01  0.18726428657E+02  0.00000000000E+00 0. -1.
         11    1    3    3    0    0 -0.22173704112E+00 -0.21106474007E+02 -0.19925436284E+02  0.29026805262E+02  0.51100000000E-03 0. -1.
        -11    1    3    3    0    0 -0.57805662540E+01  0.18551767195E+02  0.78811159160E+01  0.20968905566E+02  0.51100000000E-03 0.  1.
        -12    1    3    3    0    0 -0.51000020390E+01 -0.10815852091E+02  0.19018996069E+02  0.22465860516E+02  0.00000000000E+00 0.  1.
</event>
<event>
 7    1  0.1351543E-013  0.7246196E+02  0.7816164E-02  0.1226707E+00
        -11   -1    0    0    0    0  0.00000000000E+00  0.00000000000E+00  0.45593999997E+02  0.45594000000E+02  0.51100000000E-03 0. -1.
         11   -1    0    0    0    0 -0.00000000000E+00 -0.00000000000E+00 -0.45593999997E+02  0.45594000000E+02  0.51100000000E-03 0.  1.
    9900012    2    1    2    0    0  0.10059808750E+02  0.13180119468E+02 -0.87034081407E+01  0.72461958920E+02  0.70000506255E+02 0.  0.
         12    1    1    2    0    0 -0.10059808750E+02 -0.13180119468E+02  0.87034081407E+01  0.18726041080E+02  0.00000000000E+00 0. -1.
         11    1    3    3    0    0  0.22191485942E+02  0.55117216659E+01 -0.12620417002E+02  0.26117351505E+02  0.51100000000E-03 0. -1.
        -11    1    3    3    0    0 -0.10131324533E+02 -0.16733712127E+02  0.86810937958E+01  0.21401454346E+02  0.51100000000E-03 0.  1.
         12    1    3    3    0    0 -0.20003526587E+01  0.24402109930E+02 -0.47640849342E+01  0.24943153069E+02  0.00000000000E+00 0. -1.
</event>
<event>
 7    1  0.1351543E-013  0.7246135E+02  0.7816164E-02  0.1226709E+00
        -11   -1    0    0    0    0  0.00000000000E+00  0.00000000000E+00  0.45593999997E+02  0.45594000000E+02  0.51100000000E-03 0.  1.
         11   -1    0    0    0    0 -0.00000000000E+00 -0.00000000000E+00 -0.45593999997E+02  0.45594000000E+02  0.51100000000E-03 0. -1.
    9900012    2    1    2    0    0  0.10842650428E+02  0.43056495553E+00  0.15262342147E+02  0.72461346740E+02  0.69999708779E+02 0.  0.
         12    1    1    2    0    0 -0.10842650428E+02 -0.43056495553E+00 -0.15262342147E+02  0.18726653260E+02  0.00000000000E+00 0. -1.
         11    1    3    3    0    0 -0.38762982829E+01  0.67506626459E+01 -0.17094338638E+02  0.18783331661E+02  0.51100000000E-03 0. -1.
        -11    1    3    3    0    0  0.14578162190E+02 -0.21916576013E+02  0.14814926051E+02  0.30204985534E+02  0.51100000000E-03 0.  1.
        -12    1    3    3    0    0  0.14078652129E+00  0.15596478322E+02  0.17541754735E+02  0.23473029546E+02  0.00000000000E+00 0.  1.
</event>
<event>
 7    1  0.1351543E-013  0.7246164E+02  0.7816164E-02  0.1226708E+00
        -11   -1    0    0    0    0  0.00000000000E+00  0.00000000000E+00  0.45593999997E+02  0.45594000000E+02  0.51100000000E-03 0. -1.
         11   -1    0    0    0    0 -0.00000000000E+00 -0.00000000000E+00 -0.45593999997E+02  0.45594000000E+02  0.51100000000E-03 0.  1.
    9900012    2    1    2    0    0 -0.60351798897E+01 -0.13318951254E+02 -0.11698665690E+02  0.72461637894E+02  0.70000088061E+02 0.  0.
         12    1    1    2    0    0  0.60351798897E+01  0.13318951254E+02  0.11698665690E+02  0.18726362106E+02  0.00000000000E+00 0. -1.
         11    1    3    3    0    0  0.18359982698E+02 -0.14293705343E+02 -0.17790594983E+02  0.29290002513E+02  0.51100000000E-03 0. -1.
        -11    1    3    3    0    0 -0.23206178229E+02 -0.32002253562E+01 -0.10753354438E+02  0.25776011760E+02  0.51100000000E-03 0.  1.
         12    1    3    3    0    0 -0.11889843589E+01  0.41749794455E+01  0.16845283731E+02  0.17395623620E+02  0.00000000000E+00 0. -1.
</event>
<event>
 7    1  0.1351543E-013  0.7246122E+02  0.7816164E-02  0.1226709E+00
        -11   -1    0    0    0    0  0.00000000000E+00  0.00000000000E+00  0.45593999997E+02  0.45594000000E+02  0.51100000000E-03 0. -1.
         11   -1    0    0    0    0 -0.00000000000E+00 -0.00000000000E+00 -0.45593999997E+02  0.45594000000E+02  0.51100000000E-03 0.  1.
    9900012    2    1    2    0    0  0.96647373104E+01 -0.96890420916E+01 -0.12783100388E+02  0.72461218657E+02  0.69999541926E+02 0.  0.
         12    1    1    2    0    0 -0.96647373104E+01  0.96890420916E+01  0.12783100388E+02  0.18726781343E+02  0.00000000000E+00 0. -1.
         11    1    3    3    0    0 -0.79063432796E+01 -0.22641257402E+02 -0.25604263908E+02  0.35081549728E+02  0.51100000000E-03 0. -1.
        -11    1    3    3    0    0 -0.27975593420E+00  0.97458841790E+01 -0.58335108143E+01  0.11361794334E+02  0.51100000000E-03 0.  1.
         12    1    3    3    0    0  0.17850836524E+02  0.32063311314E+01  0.18654674334E+02  0.26017874595E+02  0.00000000000E+00 0. -1.
</event>
<event>
 7    1  0.1351543E-013  0.7246127E+02  0.7816164E-02  0.1226709E+00
        -11   -1    0    0    0    0  0.00000000000E+00  0.00000000000E+00  0.45593999997E+02  0.45594000000E+02  0.51100000000E-03 0.  1.
         11   -1    0    0    0    0 -0.00000000000E+00 -0.00000000000E+00 -0.45593999997E+02  0.45594000000E+02  0.51100000000E-03 0. -1.
    9900012    2    1    2    0    0  0.48966676926E+01  0.73604626842E+01  0.16508680893E+02  0.72461272837E+02  0.69999612505E+02 0.  0.
         12    1    1    2    0    0 -0.48966676926E+01 -0.73604626842E+01 -0.16508680893E+02  0.18726727163E+02  0.00000000000E+00 0. -1.
         11    1    3    3    0    0  0.10855431695E+02 -0.11126927665E+02 -0.14151270117E+02  0.21021592774E+02  0.51100000000E-03 0. -1.
        -11    1    3    3    0    0 -0.16648214358E+02  0.20754799677E+02  0.10686965315E+02  0.28672913680E+02  0.51100000000E-03 0.  1.
        -12    1    3    3    0    0  0.10689450356E+02 -0.22674093278E+01  0.19972985695E+02  0.22766766383E+02  0.00000000000E+00 0.  1.
</event>
<event>
 7    1  0.1351543E-013  0.7246156E+02  0.7816164E-02  0.1226708E+00
        -11   -1    0    0    0    0  0.00000000000E+00  0.00000000000E+00  0.45593999997E+02  0.45594000000E+02  0.51100000000E-03 0. -1.
         11   -1    0    0    0    0 -0.00000000000E+00 -0.00000000000E+00 -0.45593999997E+02  0.45594000000E+02  0.51100000000E-03 0.  1.
    9900012    2    1    2    0    0 -0.55614788797E+01  0.58305853798E+01 -0.16904247924E+02  0.72461564913E+02  0.69999992990E+02 0.  0.
         12    1    1    2    0    0  0.55614788797E+01 -0.58305853798E+01  0.16904247924E+02  0.18726435087E+02  0.00000000000E+00 0. -1.
         11    1    3    3    0    0 -0.22389839495E+02  0.29665231646E+02 -0.35615603231E+01  0.37336518228E+02  0.51100000000E-03 0. -1.
        -11    1    3    3    0    0  0.14308837824E+02 -0.24667049696E+02 -0.87640950327E+01  0.29833128274E+02  0.51100000000E-03 0.  1.
        -12    1    3    3    0    0  0.25195227911E+01  0.83240342985E+00 -0.45785925679E+01  0.52919184109E+01  0.00000000000E+00 0.  1.
</event>
<event>
 8    1  0.1351543E-013  0.7246155E+02  0.7816164E-02  0.1226708E+00
        -11   -1    0    0    0    0  0.00000000000E+00  0.00000000000E+00  0.45593999997E+02  0.45594000000E+02  0.51100000000E-03 0. -1.
         11   -1    0    0    0    0 -0.00000000000E+00 -0.00000000000E+00 -0.45593999997E+02  0.45594000000E+02  0.51100000000E-03 0.  1.
    9900012    2    1    2    0    0  0.10001715535E+02 -0.73824228854E+01 -0.14005189951E+02  0.72461552743E+02  0.69999977136E+02 0.  0.
        -24    2    3    3    0    0 -0.47993891953E+00 -0.19021097381E+02 -0.13365586944E+02  0.56785682229E+02  0.51806778561E+02 0.  0.
         12    1    1    2    0    0 -0.10001715535E+02  0.73824228854E+01  0.14005189951E+02  0.18726447257E+02  0.00000000000E+00 0. -1.
         11    1    4    4    0    0 -0.13576220589E+02 -0.31741013172E+02 -0.16498070263E+02  0.38262148467E+02  0.51100000000E-03 0.  1.
        -11    1    3    3    0    0  0.10481654454E+02  0.11638674495E+02 -0.63960300688E+00  0.15675870514E+02  0.51100000000E-03 0. -1.
        -12    1    4    4    0    0  0.13096281669E+02  0.12719915791E+02  0.31324833182E+01  0.18523533762E+02  0.00000000000E+00 0.  1.
</event>
<event>
 7    1  0.1351543E-013  0.7246153E+02  0.7816164E-02  0.1226708E+00
        -11   -1    0    0    0    0  0.00000000000E+00  0.00000000000E+00  0.45593999997E+02  0.45594000000E+02  0.51100000000E-03 0.  1.
         11   -1    0    0    0    0 -0.00000000000E+00 -0.00000000000E+00 -0.45593999997E+02  0.45594000000E+02  0.51100000000E-03 0. -1.
    9900012    2    1    2    0    0  0.14801976736E+02 -0.10115457001E+02 -0.54092388223E+01  0.72461525419E+02  0.69999941541E+02 0.  0.
         12    1    1    2    0    0 -0.14801976736E+02  0.10115457001E+02  0.54092388223E+01  0.18726474581E+02  0.00000000000E+00 0. -1.
         11    1    3    3    0    0  0.42841366366E+02 -0.41170825938E+01 -0.41433041333E+01  0.43237715141E+02  0.51100000000E-03 0. -1.
        -11    1    3    3    0    0 -0.24124168166E+02 -0.55730935526E+01  0.80826228480E+00  0.24772729959E+02  0.51100000000E-03 0.  1.
         12    1    3    3    0    0 -0.39152214646E+01 -0.42528085405E+00 -0.20741969738E+01  0.44510803192E+01  0.00000000000E+00 0. -1.
</event>
<event>
 7    1  0.1894702E-013  0.7246135E+02  0.7816164E-02  0.1226709E+00
        -11   -1    0    0    0    0  0.00000000000E+00  0.00000000000E+00  0.45593999997E+02  0.45594000000E+02  0.51100000000E-03 0. -1.
         11   -1    0    0    0    0 -0.00000000000E+00 -0.00000000000E+00 -0.45593999997E+02  0.45594000000E+02  0.51100000000E-03 0.  1.
    9900012    2    1    2    0    0 -0.14619967598E+02  0.10769909083E+02 -0.45774396305E+01  0.72461351934E+02  0.69999715544E+02 0.  0.
         12    1    1    2    0    0  0.14619967598E+02 -0.10769909083E+02  0.45774396305E+01  0.18726648066E+02  0.00000000000E+00 0. -1.
         11    1    3    3    0    0 -0.18174543284E+02  0.13833393579E+02  0.19439603160E+02  0.29992915376E+02  0.51100000000E-03 0. -1.
        -11    1    3    3    0    0 -0.12536350699E+02 -0.73467784582E+01 -0.21014140478E+02  0.25548568314E+02  0.51100000000E-03 0.  1.
         12    1    3    3    0    0  0.16090926385E+02  0.42832939625E+01 -0.30029023116E+01  0.16919868244E+02  0.00000000000E+00 0. -1.
</event>
<event>
 7    1  0.1351543E-013  0.7246156E+02  0.7816164E-02  0.1226708E+00
        -11   -1    0    0    0    0  0.00000000000E+00  0.00000000000E+00  0.45593999997E+02  0.45594000000E+02  0.51100000000E-03 0.  1.
         11   -1    0    0    0    0 -0.00000000000E+00 -0.00000000000E+00 -0.45593999997E+02  0.45594000000E+02  0.51100000000E-03 0. -1.
    9900012    2    1    2    0    0 -0.11068336899E+02 -0.21860019118E+01  0.14946328133E+02  0.72461563854E+02  0.69999991610E+02 0.  0.
         12    1    1    2    0    0  0.11068336899E+02  0.21860019118E+01 -0.14946328133E+02  0.18726436146E+02  0.00000000000E+00 0. -1.
         11    1    3    3    0    0 -0.19982024767E+02  0.32923641532E+01  0.26949048714E+02  0.33710120177E+02  0.51100000000E-03 0. -1.
        -11    1    3    3    0    0  0.14841081827E+02  0.87760462237E+01  0.26772129494E+01  0.17448328475E+02  0.51100000000E-03 0.  1.
         12    1    3    3    0    0 -0.59273939594E+01 -0.14254412289E+02 -0.14679933531E+02  0.21303115202E+02  0.00000000000E+00 0. -1.
</event>
<event>
 7    1  0.1351543E-013  0.7246158E+02  0.7816164E-02  0.1226708E+00
        -11   -1    0    0    0    0  0.00000000000E+00  0.00000000000E+00  0.45593999997E+02  0.45594000000E+02  0.51100000000E-03 0.  1.
         11   -1    0    0    0    0 -0.00000000000E+00 -0.00000000000E+00 -0.45593999997E+02  0.45594000000E+02  0.51100000000E-03 0. -1.
    9900012    2    1    2    0    0 -0.14514322121E+02 -0.65687332580E+01  0.98420083573E+01  0.72461576643E+02  0.70000008270E+02 0.  0.
         12    1    1    2    0    0  0.14514322121E+02  0.65687332580E+01 -0.98420083573E+01  0.18726423357E+02  0.00000000000E+00 0. -1.
         11    1    3    3    0    0  0.18897515215E+02  0.25024554925E+01  0.67446033663E+01  0.20220485643E+02  0.51100000000E-03 0. -1.
        -11    1    3    3    0    0 -0.38031227048E+02 -0.17515374762E+02 -0.74484282528E+00  0.41877408885E+02  0.51100000000E-03 0.  1.
        -12    1    3    3    0    0  0.46193897122E+01  0.84441860112E+01  0.38422478162E+01  0.10363682115E+02  0.00000000000E+00 0.  1.
</event>
<event>
 7    1  0.1351543E-013  0.7246157E+02  0.7816164E-02  0.1226708E+00
        -11   -1    0    0    0    0  0.00000000000E+00  0.00000000000E+00  0.45593999997E+02  0.45594000000E+02  0.51100000000E-03 0. -1.
         11   -1    0    0    0    0 -0.00000000000E+00 -0.00000000000E+00 -0.45593999997E+02  0.45594000000E+02  0.51100000000E-03 0.  1.
    9900012    2    1    2    0    0 -0.15834307863E+02 -0.30660197877E+01 -0.95159546408E+01  0.72461570133E+02  0.69999999790E+02 0.  0.
         12    1    1    2    0    0  0.15834307863E+02  0.30660197877E+01  0.95159546408E+01  0.18726429867E+02  0.00000000000E+00 0. -1.
         11    1    3    3    0    0 -0.26868179142E+02  0.13657497737E+02  0.58108548658E+01  0.30695151562E+02  0.51100000000E-03 0. -1.
        -11    1    3    3    0    0  0.65258218230E+01 -0.26861987785E+02 -0.12362349962E+02  0.30281684812E+02  0.51100000000E-03 0.  1.
         12    1    3    3    0    0  0.45080494567E+01  0.10138470261E+02 -0.29644595450E+01  0.11484733759E+02  0.00000000000E+00 0. -1.
</event>
<event>
 7    1  0.1351543E-013  0.7246156E+02  0.7816164E-02  0.1226708E+00
        -11   -1    0    0    0    0  0.00000000000E+00  0.00000000000E+00  0.45593999997E+02  0.45594000000E+02  0.51100000000E-03 0. -1.
         11   -1    0    0    0    0 -0.00000000000E+00 -0.00000000000E+00 -0.45593999997E+02  0.45594000000E+02  0.51100000000E-03 0.  1.
    9900012    2    1    2    0    0  0.13983776362E+02 -0.95649769172E+00 -0.12418484910E+02  0.72461557288E+02  0.69999983057E+02 0.  0.
         12    1    1    2    0    0 -0.13983776362E+02  0.95649769172E+00  0.12418484910E+02  0.18726442712E+02  0.00000000000E+00 0. -1.
         11    1    3    3    0    0  0.22338463553E+02 -0.16627827270E+01 -0.29506379273E+02  0.37045893407E+02  0.51100000000E-03 0. -1.
        -11    1    3    3    0    0 -0.16150787341E+02  0.50639801911E-01 -0.50800502183E+00  0.16158854089E+02  0.51100000000E-03 0.  1.
         12    1    3    3    0    0  0.77961001499E+01  0.65564523337E+00  0.17595899384E+02  0.19256809792E+02  0.00000000000E+00 0. -1.
</event>
<event>
 7    1  0.1351543E-013  0.7246164E+02  0.7816164E-02  0.1226708E+00
        -11   -1    0    0    0    0  0.00000000000E+00  0.00000000000E+00  0.45593999997E+02  0.45594000000E+02  0.51100000000E-03 0. -1.
         11   -1    0    0    0    0 -0.00000000000E+00 -0.00000000000E+00 -0.45593999997E+02  0.45594000000E+02  0.51100000000E-03 0.  1.
    9900012    2    1    2    0    0  0.17044979037E+02 -0.26183846543E+01  0.72999633329E+01  0.72461635878E+02  0.70000085435E+02 0.  0.
         12    1    1    2    0    0 -0.17044979037E+02  0.26183846543E+01 -0.72999633329E+01  0.18726364122E+02  0.00000000000E+00 0. -1.
         11    1    3    3    0    0  0.20110293848E+02  0.76274618569E+01  0.24074818187E+02  0.32283106481E+02  0.51100000000E-03 0. -1.
        -11    1    3    3    0    0 -0.18574948481E+02 -0.26920661318E+01 -0.54579042723E+01  0.19546474118E+02  0.51100000000E-03 0.  1.
        -12    1    3    3    0    0  0.15509633670E+02 -0.75537803793E+01 -0.11316950582E+02  0.20632055280E+02  0.00000000000E+00 0.  1.
</event>
<event>
 7    1  0.1351543E-013  0.7246159E+02  0.7816164E-02  0.1226708E+00
        -11   -1    0    0    0    0  0.00000000000E+00  0.00000000000E+00  0.45593999997E+02  0.45594000000E+02  0.51100000000E-03 0.  1.
         11   -1    0    0    0    0 -0.00000000000E+00 -0.00000000000E+00 -0.45593999997E+02  0.45594000000E+02  0.51100000000E-03 0. -1.
    9900012    2    1    2    0    0  0.17543791112E+02  0.65280860061E+01  0.52731703934E+00  0.72461586122E+02  0.70000020618E+02 0.  0.
         12    1    1    2    0    0 -0.17543791112E+02 -0.65280860061E+01 -0.52731703934E+00  0.18726413878E+02  0.00000000000E+00 0. -1.
         11    1    3    3    0    0 -0.10827043180E+01  0.24205497859E+02  0.22912836747E+02  0.33347810472E+02  0.51100000000E-03 0. -1.
        -11    1    3    3    0    0  0.16982266710E+02 -0.80509124100E+01 -0.22539117295E+02  0.29346658787E+02  0.51100000000E-03 0.  1.
        -12    1    3    3    0    0  0.16442287200E+01 -0.96264994425E+01  0.15359758750E+00  0.97671168632E+01  0.00000000000E+00 0.  1.
</event>
<event>
 7    1  0.1351543E-013  0.7246155E+02  0.7816164E-02  0.1226708E+00
        -11   -1    0    0    0    0  0.00000000000E+00  0.00000000000E+00  0.45593999997E+02  0.45594000000E+02  0.51100000000E-03 0.  1.
         11   -1    0    0    0    0 -0.00000000000E+00 -0.00000000000E+00 -0.45593999997E+02  0.45594000000E+02  0.51100000000E-03 0. -1.
    9900012    2    1    2    0    0 -0.14883007940E+02 -0.97907336320E+01  0.57721380292E+01  0.72461548979E+02  0.69999972233E+02 0.  0.
         12    1    1    2    0    0  0.14883007940E+02  0.97907336320E+01 -0.57721380292E+01  0.18726451021E+02  0.00000000000E+00 0. -1.
         11    1    3    3    0    0 -0.31647974556E+02 -0.12755314434E+02 -0.29848153624E+01  0.34252028594E+02  0.51100000000E-03 0. -1.
        -11    1    3    3    0    0  0.82560023180E+01  0.83321554832E+01  0.19960516232E+02  0.23151859488E+02  0.51100000000E-03 0.  1.
         12    1    3    3    0    0  0.85089642978E+01 -0.53675746814E+01 -0.11203562840E+02  0.15057660897E+02  0.00000000000E+00 0. -1.
</event>
<event>
 7    1  0.1351543E-013  0.7246165E+02  0.7816164E-02  0.1226708E+00
        -11   -1    0    0    0    0  0.00000000000E+00  0.00000000000E+00  0.45593999997E+02  0.45594000000E+02  0.51100000000E-03 0.  1.
         11   -1    0    0    0    0 -0.00000000000E+00 -0.00000000000E+00 -0.45593999997E+02  0.45594000000E+02  0.51100000000E-03 0. -1.
    9900012    2    1    2    0    0 -0.10515421009E+02 -0.12845662843E+02  0.86655086251E+01  0.72461650313E+02  0.70000104240E+02 0.  0.
         12    1    1    2    0    0  0.10515421009E+02  0.12845662843E+02 -0.86655086251E+01  0.18726349687E+02  0.00000000000E+00 0. -1.
         11    1    3    3    0    0 -0.15570367381E+02 -0.26655345469E+02  0.21672720585E+02  0.37718040779E+02  0.51100000000E-03 0.  1.
        -11    1    3    3    0    0 -0.74186470603E+01  0.15206862485E+02 -0.14262689889E+02  0.22129376719E+02  0.51100000000E-03 0. -1.
        -12    1    3    3    0    0  0.12473593432E+02 -0.13971798592E+01  0.12554779296E+01  0.12614232815E+02  0.00000000000E+00 0.  1.
</event>
<event>
 7    1  0.1351543E-013  0.7246161E+02  0.7816164E-02  0.1226708E+00
        -11   -1    0    0    0    0  0.00000000000E+00  0.00000000000E+00  0.45593999997E+02  0.45594000000E+02  0.51100000000E-03 0.  1.
         11   -1    0    0    0    0 -0.00000000000E+00 -0.00000000000E+00 -0.45593999997E+02  0.45594000000E+02  0.51100000000E-03 0. -1.
    9900012    2    1    2    0    0 -0.15119513964E+02  0.54241719357E+01  0.96258103084E+01  0.72461613061E+02  0.70000055712E+02 0.  0.
         12    1    1    2    0    0  0.15119513964E+02 -0.54241719357E+01 -0.96258103084E+01  0.18726386939E+02  0.00000000000E+00 0. -1.
         11    1    3    3    0    0  0.70022169321E+01 -0.91090188498E+01 -0.92241238022E+01  0.14733965065E+02  0.51100000000E-03 0. -1.
        -11    1    3    3    0    0 -0.27797706866E+02  0.14337776095E+02 -0.63330016792E+01  0.31912242806E+02  0.51100000000E-03 0.  1.
        -12    1    3    3    0    0  0.56759759704E+01  0.19541469042E+00  0.25182935790E+02  0.25815405190E+02  0.00000000000E+00 0.  1.
</event>
<event>
 7    1  0.1351543E-013  0.7246119E+02  0.7816164E-02  0.1226709E+00
        -11   -1    0    0    0    0  0.00000000000E+00  0.00000000000E+00  0.45593999997E+02  0.45594000000E+02  0.51100000000E-03 0.  1.
         11   -1    0    0    0    0 -0.00000000000E+00 -0.00000000000E+00 -0.45593999997E+02  0.45594000000E+02  0.51100000000E-03 0. -1.
    9900012    2    1    2    0    0 -0.12716558504E+02 -0.10584396497E+02 -0.87722843365E+01  0.72461193495E+02  0.69999509148E+02 0.  0.
         12    1    1    2    0    0  0.12716558504E+02  0.10584396497E+02  0.87722843365E+01  0.18726806505E+02  0.00000000000E+00 0. -1.
         11    1    3    3    0    0 -0.24607929225E+02  0.16730398391E+02 -0.80235199329E+01  0.30819365397E+02  0.51100000000E-03 0. -1.
        -11    1    3    3    0    0  0.75746167934E+01 -0.17694326809E+02  0.13793010060E+02  0.23679340100E+02  0.51100000000E-03 0.  1.
         12    1    3    3    0    0  0.43167539281E+01 -0.96204680794E+01 -0.14541774464E+02  0.17962487999E+02  0.00000000000E+00 0. -1.
</event>
<event>
 7    1  0.1351543E-013  0.7246161E+02  0.7816164E-02  0.1226708E+00
        -11   -1    0    0    0    0  0.00000000000E+00  0.00000000000E+00  0.45593999997E+02  0.45594000000E+02  0.51100000000E-03 0. -1.
         11   -1    0    0    0    0 -0.00000000000E+00 -0.00000000000E+00 -0.45593999997E+02  0.45594000000E+02  0.51100000000E-03 0.  1.
    9900012    2    1    2    0    0  0.24951701936E+01  0.18455974370E+02 -0.19567234427E+01  0.72461611377E+02  0.70000053517E+02 0.  0.
         12    1    1    2    0    0 -0.24951701936E+01 -0.18455974370E+02  0.19567234427E+01  0.18726388623E+02  0.00000000000E+00 0. -1.
         11    1    3    3    0    0 -0.60643175627E+01 -0.48789717081E+01 -0.26190686315E+02  0.27322744415E+02  0.51100000000E-03 0. -1.
        -11    1    3    3    0    0  0.16381374092E+02  0.36172857277E+01  0.91393151748E+01  0.19103959152E+02  0.51100000000E-03 0.  1.
         12    1    3    3    0    0 -0.78218863354E+01  0.19717660350E+02  0.15094647698E+02  0.26034907810E+02  0.00000000000E+00 0. -1.
</event>
<event>
 7    1  0.1351543E-013  0.7246157E+02  0.7816164E-02  0.1226708E+00
        -11   -1    0    0    0    0  0.00000000000E+00  0.00000000000E+00  0.45593999997E+02  0.45594000000E+02  0.51100000000E-03 0.  1.
         11   -1    0    0    0    0 -0.00000000000E+00 -0.00000000000E+00 -0.45593999997E+02  0.45594000000E+02  0.51100000000E-03 0. -1.
    9900012    2    1    2    0    0  0.17722399715E+02 -0.59883557309E+01 -0.85740292138E+00  0.72461574933E+02  0.70000006043E+02 0.  0.
         12    1    1    2    0    0 -0.17722399715E+02  0.59883557309E+01  0.85740292138E+00  0.18726425067E+02  0.00000000000E+00 0. -1.
         11    1    3    3    0    0  0.24781191940E+02  0.15290136340E+02 -0.21261484968E+01  0.29196168429E+02  0.51100000000E-03 0. -1.
        -11    1    3    3    0    0  0.12822842571E+02 -0.13002237347E+02 -0.78521106162E+01  0.19878106273E+02  0.51100000000E-03 0.  1.
         12    1    3    3    0    0 -0.19881634795E+02 -0.82762547235E+01  0.91208561917E+01  0.23387300230E+02  0.00000000000E+00 0. -1.
</event>
<event>
 7    1  0.1351543E-013  0.7246157E+02  0.7816164E-02  0.1226708E+00
        -11   -1    0    0    0    0  0.00000000000E+00  0.00000000000E+00  0.45593999997E+02  0.45594000000E+02  0.51100000000E-03 0. -1.
         11   -1    0    0    0    0 -0.00000000000E+00 -0.00000000000E+00 -0.45593999997E+02  0.45594000000E+02  0.51100000000E-03 0.  1.
    9900012    2    1    2    0    0 -0.16865842270E+02 -0.79613331398E+01 -0.16851173219E+01  0.72461572652E+02  0.70000003071E+02 0.  0.
         12    1    1    2    0    0  0.16865842270E+02  0.79613331398E+01  0.16851173219E+01  0.18726427348E+02  0.00000000000E+00 0. -1.
         11    1    3    3    0    0 -0.62168230692E+01  0.22942389300E+02  0.64879069470E+01  0.24639298948E+02  0.51100000000E-03 0. -1.
        -11    1    3    3    0    0 -0.16645690812E+02 -0.34568567979E+02 -0.11489885993E+02  0.40050997429E+02  0.51100000000E-03 0.  1.
        -12    1    3    3    0    0  0.59966716112E+01  0.36648455393E+01  0.33168617237E+01  0.77712762744E+01  0.00000000000E+00 0.  1.
</event>
<event>
 7    1  0.1351543E-013  0.7246156E+02  0.7816164E-02  0.1226708E+00
        -11   -1    0    0    0    0  0.00000000000E+00  0.00000000000E+00  0.45593999997E+02  0.45594000000E+02  0.51100000000E-03 0. -1.
         11   -1    0    0    0    0 -0.00000000000E+00 -0.00000000000E+00 -0.45593999997E+02  0.45594000000E+02  0.51100000000E-03 0.  1.
    9900012    2    1    2    0    0 -0.29597427638E+01 -0.63021832638E+00 -0.18480321179E+02  0.72461560850E+02  0.69999987697E+02 0.  0.
         12    1    1    2    0    0  0.29597427638E+01  0.63021832638E+00  0.18480321179E+02  0.18726439150E+02  0.00000000000E+00 0. -1.
         11    1    3    3    0    0 -0.75503307134E+01  0.19559877288E+02  0.77008393784E+01  0.22336052041E+02  0.51100000000E-03 0. -1.
        -11    1    3    3    0    0  0.11948915700E+02  0.46461996072E+00 -0.25527517078E+02  0.28189476521E+02  0.51100000000E-03 0.  1.
        -12    1    3    3    0    0 -0.73583277500E+01 -0.20654715575E+02 -0.65364347869E+00  0.21936032288E+02  0.00000000000E+00 0.  1.
</event>
<event>
 7    1  0.1351543E-013  0.7246156E+02  0.7816164E-02  0.1226708E+00
        -11   -1    0    0    0    0  0.00000000000E+00  0.00000000000E+00  0.45593999997E+02  0.45594000000E+02  0.51100000000E-03 0. -1.
         11   -1    0    0    0    0 -0.00000000000E+00 -0.00000000000E+00 -0.45593999997E+02  0.45594000000E+02  0.51100000000E-03 0.  1.
    9900012    2    1    2    0    0  0.15235718172E+02 -0.64676869675E+01 -0.87590741487E+01  0.72461562462E+02  0.69999989797E+02 0.  0.
         12    1    1    2    0    0 -0.15235718172E+02  0.64676869675E+01  0.87590741487E+01  0.18726437538E+02  0.00000000000E+00 0. -1.
         11    1    3    3    0    0  0.62429340985E+01 -0.47531318559E+01  0.19764686077E+01  0.80915336628E+01  0.51100000000E-03 0. -1.
        -11    1    3    3    0    0 -0.33259487509E+00  0.17425326718E+02  0.20286318046E+02  0.26744856154E+02  0.51100000000E-03 0.  1.
        -12    1    3    3    0    0  0.93253789488E+01 -0.19139881829E+02 -0.31021860802E+02  0.37625172645E+02  0.00000000000E+00 0.  1.
</event>
<event>
 7    1  0.1351543E-013  0.7246142E+02  0.7816164E-02  0.1226708E+00
        -11   -1    0    0    0    0  0.00000000000E+00  0.00000000000E+00  0.45593999997E+02  0.45594000000E+02  0.51100000000E-03 0.  1.
         11   -1    0    0    0    0 -0.00000000000E+00 -0.00000000000E+00 -0.45593999997E+02  0.45594000000E+02  0.51100000000E-03 0. -1.
    9900012    2    1    2    0    0  0.15875659843E+01  0.26881203383E+01  0.18464518753E+02  0.72461419706E+02  0.69999803831E+02 0.  0.
         12    1    1    2    0    0 -0.15875659843E+01 -0.26881203383E+01 -0.18464518753E+02  0.18726580294E+02  0.00000000000E+00 0. -1.
         11    1    3    3    0    0  0.11519985579E+02  0.12972435517E+02  0.35333840640E+02  0.39363364257E+02  0.51100000000E-03 0. -1.
        -11    1    3    3    0    0 -0.16899044484E+02 -0.64705288983E+01 -0.49240813863E+01  0.18753453721E+02  0.51100000000E-03 0.  1.
         12    1    3    3    0    0  0.69666248893E+01 -0.38137862807E+01 -0.11945240500E+02  0.14344601729E+02  0.00000000000E+00 0. -1.
</event>
<event>
 7    1  0.1351543E-013  0.7246153E+02  0.7816164E-02  0.1226708E+00
        -11   -1    0    0    0    0  0.00000000000E+00  0.00000000000E+00  0.45593999997E+02  0.45594000000E+02  0.51100000000E-03 0. -1.
         11   -1    0    0    0    0 -0.00000000000E+00 -0.00000000000E+00 -0.45593999997E+02  0.45594000000E+02  0.51100000000E-03 0.  1.
    9900012    2    1    2    0    0 -0.10623680803E+02 -0.15324673105E+02 -0.17240881162E+01  0.72461529980E+02  0.69999947483E+02 0.  0.
         12    1    1    2    0    0  0.10623680803E+02  0.15324673105E+02  0.17240881162E+01  0.18726470020E+02  0.00000000000E+00 0. -1.
         11    1    3    3    0    0 -0.21697526099E+02  0.10611934418E+02  0.20920738511E+02  0.31954234320E+02  0.51100000000E-03 0. -1.
        -11    1    3    3    0    0 -0.49928456706E+00 -0.97442479316E+01 -0.17360894781E+02  0.19914826655E+02  0.51100000000E-03 0.  1.
         12    1    3    3    0    0  0.11573129863E+02 -0.16192359592E+02 -0.52839318457E+01  0.20592469005E+02  0.00000000000E+00 0. -1.
</event>
<event>
 7    1  0.1351543E-013  0.7246161E+02  0.7816164E-02  0.1226708E+00
        -11   -1    0    0    0    0  0.00000000000E+00  0.00000000000E+00  0.45593999997E+02  0.45594000000E+02  0.51100000000E-03 0. -1.
         11   -1    0    0    0    0 -0.00000000000E+00 -0.00000000000E+00 -0.45593999997E+02  0.45594000000E+02  0.51100000000E-03 0.  1.
    9900012    2    1    2    0    0  0.14077132803E+02 -0.78160219571E+01  0.95614662286E+01  0.72461614774E+02  0.70000057943E+02 0.  0.
         12    1    1    2    0    0 -0.14077132803E+02  0.78160219571E+01 -0.95614662286E+01  0.18726385226E+02  0.00000000000E+00 0. -1.
         11    1    3    3    0    0 -0.12518189029E+02 -0.25216086212E+02  0.32780520078E+01  0.28342577259E+02  0.51100000000E-03 0. -1.
        -11    1    3    3    0    0  0.18889791257E+01  0.16807704210E+02  0.91668701651E+01  0.19237948743E+02  0.51100000000E-03 0.  1.
         12    1    3    3    0    0  0.24706342706E+02  0.59236004548E+00 -0.28834559443E+01  0.24881088773E+02  0.00000000000E+00 0. -1.
</event>
<event>
 7    1  0.1351543E-013  0.7246127E+02  0.7816164E-02  0.1226709E+00
        -11   -1    0    0    0    0  0.00000000000E+00  0.00000000000E+00  0.45593999997E+02  0.45594000000E+02  0.51100000000E-03 0.  1.
         11   -1    0    0    0    0 -0.00000000000E+00 -0.00000000000E+00 -0.45593999997E+02  0.45594000000E+02  0.51100000000E-03 0. -1.
    9900012    2    1    2    0    0  0.13588742386E+02 -0.12192683057E+02 -0.41683352043E+01  0.72461268888E+02  0.69999607361E+02 0.  0.
         12    1    1    2    0    0 -0.13588742386E+02  0.12192683057E+02  0.41683352043E+01  0.18726731112E+02  0.00000000000E+00 0. -1.
         11    1    3    3    0    0 -0.10760945270E+02  0.45673156888E+01 -0.14052214339E+02  0.18279032901E+02  0.51100000000E-03 0. -1.
        -11    1    3    3    0    0  0.36179626498E+02 -0.17449277103E+02  0.25546927269E+01  0.40248839737E+02  0.51100000000E-03 0.  1.
        -12    1    3    3    0    0 -0.11829938842E+02  0.68927835770E+00  0.73291864076E+01  0.13933396250E+02  0.00000000000E+00 0.  1.
</event>
<event>
 7    1  0.1351543E-013  0.7246155E+02  0.7816164E-02  0.1226708E+00
        -11   -1    0    0    0    0  0.00000000000E+00  0.00000000000E+00  0.45593999997E+02  0.45594000000E+02  0.51100000000E-03 0.  1.
         11   -1    0    0    0    0 -0.00000000000E+00 -0.00000000000E+00 -0.45593999997E+02  0.45594000000E+02  0.51100000000E-03 0. -1.
    9900012    2    1    2    0    0  0.17768727211E+02 -0.38941889205E+01 -0.44483280226E+01  0.72461548221E+02  0.69999971245E+02 0.  0.
         12    1    1    2    0    0 -0.17768727211E+02  0.38941889205E+01  0.44483280226E+01  0.18726451779E+02  0.00000000000E+00 0. -1.
         11    1    3    3    0    0 -0.15312662492E+02  0.67463716310E+01  0.13319954346E+02  0.21387200537E+02  0.51100000000E-03 0. -1.
        -11    1    3    3    0    0  0.32984956423E+02 -0.73834034523E+00 -0.27799576386E+01  0.33110129287E+02  0.51100000000E-03 0.  1.
         12    1    3    3    0    0  0.96433280365E-01 -0.99022202063E+01 -0.14988324730E+02  0.17964218396E+02  0.00000000000E+00 0. -1.
</event>
<event>
 7    1  0.1351543E-013  0.7246162E+02  0.7816164E-02  0.1226708E+00
        -11   -1    0    0    0    0  0.00000000000E+00  0.00000000000E+00  0.45593999997E+02  0.45594000000E+02  0.51100000000E-03 0.  1.
         11   -1    0    0    0    0 -0.00000000000E+00 -0.00000000000E+00 -0.45593999997E+02  0.45594000000E+02  0.51100000000E-03 0. -1.
    9900012    2    1    2    0    0 -0.16360223003E+02  0.77533721605E+01  0.47859781339E+01  0.72461621192E+02  0.70000066303E+02 0.  0.
         12    1    1    2    0    0  0.16360223003E+02 -0.77533721605E+01 -0.47859781339E+01  0.18726378808E+02  0.00000000000E+00 0. -1.
         11    1    3    3    0    0  0.56793997393E+01 -0.10771367322E+02 -0.48319769430E+01  0.13100608262E+02  0.51100000000E-03 0. -1.
        -11    1    3    3    0    0 -0.38534240924E+02  0.13454065957E+02  0.10286280881E+02  0.42091652248E+02  0.51100000000E-03 0.  1.
        -12    1    3    3    0    0  0.16494618182E+02  0.50706735260E+01 -0.66832580392E+00  0.17269360682E+02  0.00000000000E+00 0.  1.
</event>
<event>
 7    1  0.1351543E-013  0.7246158E+02  0.7816164E-02  0.1226708E+00
        -11   -1    0    0    0    0  0.00000000000E+00  0.00000000000E+00  0.45593999997E+02  0.45594000000E+02  0.51100000000E-03 0. -1.
         11   -1    0    0    0    0 -0.00000000000E+00 -0.00000000000E+00 -0.45593999997E+02  0.45594000000E+02  0.51100000000E-03 0.  1.
    9900012    2    1    2    0    0 -0.15716757273E+02  0.72653143190E+01 -0.71328397512E+01  0.72461584052E+02  0.70000017922E+02 0.  0.
         12    1    1    2    0    0  0.15716757273E+02 -0.72653143190E+01  0.71328397512E+01  0.18726415948E+02  0.00000000000E+00 0. -1.
         11    1    3    3    0    0 -0.38213295404E+01  0.18449001083E+02  0.90027811567E+00  0.18862096950E+02  0.51100000000E-03 0. -1.
        -11    1    3    3    0    0 -0.17564865914E+02 -0.22098921690E+02 -0.21408142193E+02  0.35428737021E+02  0.51100000000E-03 0.  1.
        -12    1    3    3    0    0  0.56694381813E+01  0.10915234926E+02  0.13375024327E+02  0.18170750081E+02  0.00000000000E+00 0.  1.
</event>
<event>
 7    1  0.1351543E-013  0.7246159E+02  0.7816164E-02  0.1226708E+00
        -11   -1    0    0    0    0  0.00000000000E+00  0.00000000000E+00  0.45593999997E+02  0.45594000000E+02  0.51100000000E-03 0. -1.
         11   -1    0    0    0    0 -0.00000000000E+00 -0.00000000000E+00 -0.45593999997E+02  0.45594000000E+02  0.51100000000E-03 0.  1.
    9900012    2    1    2    0    0 -0.19843710286E+01  0.18278844984E+02  0.35531168437E+01  0.72461587059E+02  0.70000021839E+02 0.  0.
         12    1    1    2    0    0  0.19843710286E+01 -0.18278844984E+02 -0.35531168437E+01  0.18726412941E+02  0.00000000000E+00 0. -1.
         11    1    3    3    0    0  0.48581419747E+01  0.20508248106E+02 -0.41965770314E+01  0.21489556600E+02  0.51100000000E-03 0. -1.
        -11    1    3    3    0    0  0.19344951238E+01 -0.20476915194E+02  0.18833664033E+02  0.27888227416E+02  0.51100000000E-03 0.  1.
        -12    1    3    3    0    0 -0.87770081271E+01  0.18247512072E+02 -0.11083970158E+02  0.23083803043E+02  0.00000000000E+00 0.  1.
</event>
<event>
 7    1  0.1351543E-013  0.7246161E+02  0.7816164E-02  0.1226708E+00
        -11   -1    0    0    0    0  0.00000000000E+00  0.00000000000E+00  0.45593999997E+02  0.45594000000E+02  0.51100000000E-03 0.  1.
         11   -1    0    0    0    0 -0.00000000000E+00 -0.00000000000E+00 -0.45593999997E+02  0.45594000000E+02  0.51100000000E-03 0. -1.
    9900012    2    1    2    0    0 -0.39231414803E+01 -0.94628011205E+01  0.15676161252E+02  0.72461610179E+02  0.70000051958E+02 0.  0.
         12    1    1    2    0    0  0.39231414803E+01  0.94628011205E+01 -0.15676161252E+02  0.18726389821E+02  0.00000000000E+00 0. -1.
         11    1    3    3    0    0 -0.24684735175E+02 -0.24541746766E+02  0.70909573443E+01  0.35523445234E+02  0.51100000000E-03 0.  1.
        -11    1    3    3    0    0  0.16728047513E+02  0.15989275557E+02 -0.41843475623E+01  0.23515808964E+02  0.51100000000E-03 0. -1.
        -12    1    3    3    0    0  0.40335461816E+01 -0.91032991135E+00  0.12769551470E+02  0.13422355981E+02  0.00000000000E+00 0.  1.
</event>
<event>
 7    1  0.1351543E-013  0.7246154E+02  0.7816164E-02  0.1226708E+00
        -11   -1    0    0    0    0  0.00000000000E+00  0.00000000000E+00  0.45593999997E+02  0.45594000000E+02  0.51100000000E-03 0. -1.
         11   -1    0    0    0    0 -0.00000000000E+00 -0.00000000000E+00 -0.45593999997E+02  0.45594000000E+02  0.51100000000E-03 0.  1.
    9900012    2    1    2    0    0  0.12461585295E+01  0.18634027053E+02  0.13785096345E+01  0.72461543739E+02  0.69999965406E+02 0.  0.
         12    1    1    2    0    0 -0.12461585295E+01 -0.18634027053E+02 -0.13785096345E+01  0.18726456261E+02  0.00000000000E+00 0. -1.
         11    1    3    3    0    0 -0.22261854130E+01 -0.69395131946E+01  0.97657734853E+01  0.12185363224E+02  0.51100000000E-03 0. -1.
        -11    1    3    3    0    0 -0.73482316133E+01  0.19627269282E+02 -0.29280201452E+02  0.36007727013E+02  0.51100000000E-03 0.  1.
        -12    1    3    3    0    0  0.10820575556E+02  0.59462709659E+01  0.20892937601E+02  0.24268453502E+02  0.00000000000E+00 0.  1.
</event>
<event>
 7    1  0.1351543E-013  0.7246161E+02  0.7816164E-02  0.1226708E+00
        -11   -1    0    0    0    0  0.00000000000E+00  0.00000000000E+00  0.45593999997E+02  0.45594000000E+02  0.51100000000E-03 0.  1.
         11   -1    0    0    0    0 -0.00000000000E+00 -0.00000000000E+00 -0.45593999997E+02  0.45594000000E+02  0.51100000000E-03 0. -1.
    9900012    2    1    2    0    0 -0.54826586359E+01  0.81182164379E+01  0.15959716780E+02  0.72461613708E+02  0.70000056555E+02 0.  0.
         12    1    1    2    0    0  0.54826586359E+01 -0.81182164379E+01 -0.15959716780E+02  0.18726386292E+02  0.00000000000E+00 0. -1.
         11    1    3    3    0    0  0.12162498721E+02 -0.30893304437E+01  0.17607186863E+02  0.21621363676E+02  0.51100000000E-03 0. -1.
        -11    1    3    3    0    0 -0.83974085994E+01  0.29299033283E+02 -0.34736725999E+00  0.30480657584E+02  0.51100000000E-03 0.  1.
         12    1    3    3    0    0 -0.92477487575E+01 -0.18091486401E+02 -0.13001028224E+01  0.20359592448E+02  0.00000000000E+00 0. -1.
</event>
<event>
 7    1  0.1351543E-013  0.7246152E+02  0.7816164E-02  0.1226708E+00
        -11   -1    0    0    0    0  0.00000000000E+00  0.00000000000E+00  0.45593999997E+02  0.45594000000E+02  0.51100000000E-03 0.  1.
         11   -1    0    0    0    0 -0.00000000000E+00 -0.00000000000E+00 -0.45593999997E+02  0.45594000000E+02  0.51100000000E-03 0. -1.
    9900012    2    1    2    0    0  0.68058288538E+01  0.10499035732E+02  0.13933131907E+02  0.72461515481E+02  0.69999928596E+02 0.  0.
         12    1    1    2    0    0 -0.68058288538E+01 -0.10499035732E+02 -0.13933131907E+02  0.18726484519E+02  0.00000000000E+00 0. -1.
         11    1    3    3    0    0 -0.83922765089E+00  0.15504985769E+01 -0.21099661819E+02  0.21173192438E+02  0.51100000000E-03 0. -1.
        -11    1    3    3    0    0  0.15750295429E+02  0.11956089677E+02  0.55125861459E+01  0.20528236474E+02  0.51100000000E-03 0.  1.
         12    1    3    3    0    0 -0.81052389243E+01 -0.30075525211E+01  0.29520207580E+02  0.30760086569E+02  0.00000000000E+00 0. -1.
</event>
<event>
 7    1  0.1351543E-013  0.7246159E+02  0.7816164E-02  0.1226708E+00
        -11   -1    0    0    0    0  0.00000000000E+00  0.00000000000E+00  0.45593999997E+02  0.45594000000E+02  0.51100000000E-03 0.  1.
         11   -1    0    0    0    0 -0.00000000000E+00 -0.00000000000E+00 -0.45593999997E+02  0.45594000000E+02  0.51100000000E-03 0. -1.
    9900012    2    1    2    0    0  0.40997460908E+01  0.14235157396E+02 -0.11455596821E+02  0.72461592907E+02  0.70000029457E+02 0.  0.
         12    1    1    2    0    0 -0.40997460908E+01 -0.14235157396E+02  0.11455596821E+02  0.18726407093E+02  0.00000000000E+00 0. -1.
         11    1    3    3    0    0 -0.12532815761E+01  0.61697181161E+01 -0.15494995618E+02  0.16725161458E+02  0.51100000000E-03 0. -1.
        -11    1    3    3    0    0 -0.16286493092E+02 -0.14146932932E+02  0.10604771687E+02  0.24038443198E+02  0.51100000000E-03 0.  1.
        -12    1    3    3    0    0  0.21639520759E+02  0.22212372211E+02 -0.65653728894E+01  0.31697988250E+02  0.00000000000E+00 0.  1.
</event>
<event>
 7    1  0.1351543E-013  0.7246157E+02  0.7816164E-02  0.1226708E+00
        -11   -1    0    0    0    0  0.00000000000E+00  0.00000000000E+00  0.45593999997E+02  0.45594000000E+02  0.51100000000E-03 0.  1.
         11   -1    0    0    0    0 -0.00000000000E+00 -0.00000000000E+00 -0.45593999997E+02  0.45594000000E+02  0.51100000000E-03 0. -1.
    9900012    2    1    2    0    0 -0.26712664935E+01  0.17519582720E+02  0.60504364255E+01  0.72461568832E+02  0.69999998094E+02 0.  0.
         12    1    1    2    0    0  0.26712664935E+01 -0.17519582720E+02 -0.60504364255E+01  0.18726431168E+02  0.00000000000E+00 0. -1.
         11    1    3    3    0    0 -0.15176801392E+02  0.36443499687E+02 -0.28143944420E+01  0.39577579338E+02  0.51100000000E-03 0. -1.
        -11    1    3    3    0    0  0.76116944610E+01 -0.13345170393E+01  0.12085125867E+02  0.14344653909E+02  0.51100000000E-03 0.  1.
         12    1    3    3    0    0  0.48938404373E+01 -0.17589399927E+02 -0.32202949994E+01  0.18539335584E+02  0.00000000000E+00 0. -1.
</event>
<event>
 7    1  0.1351543E-013  0.7246154E+02  0.7816164E-02  0.1226708E+00
        -11   -1    0    0    0    0  0.00000000000E+00  0.00000000000E+00  0.45593999997E+02  0.45594000000E+02  0.51100000000E-03 0.  1.
         11   -1    0    0    0    0 -0.00000000000E+00 -0.00000000000E+00 -0.45593999997E+02  0.45594000000E+02  0.51100000000E-03 0. -1.
    9900012    2    1    2    0    0  0.37966457141E+00  0.87202116339E+01  0.16567862719E+02  0.72461539811E+02  0.69999960290E+02 0.  0.
         12    1    1    2    0    0 -0.37966457141E+00 -0.87202116339E+01 -0.16567862719E+02  0.18726460189E+02  0.00000000000E+00 0. -1.
         11    1    3    3    0    0  0.29425609768E+02 -0.86000780734E+01  0.42462147029E+01  0.30949284203E+02  0.51100000000E-03 0. -1.
        -11    1    3    3    0    0 -0.17519526958E+02  0.73325495153E+01  0.17072659141E+02  0.25537732821E+02  0.51100000000E-03 0.  1.
         12    1    3    3    0    0 -0.11526418239E+02  0.99877401921E+01 -0.47510111247E+01  0.15974522787E+02  0.00000000000E+00 0. -1.
</event>
<event>
 7    1  0.1351543E-013  0.7246158E+02  0.7816164E-02  0.1226708E+00
        -11   -1    0    0    0    0  0.00000000000E+00  0.00000000000E+00  0.45593999997E+02  0.45594000000E+02  0.51100000000E-03 0. -1.
         11   -1    0    0    0    0 -0.00000000000E+00 -0.00000000000E+00 -0.45593999997E+02  0.45594000000E+02  0.51100000000E-03 0.  1.
    9900012    2    1    2    0    0  0.27770602228E+01 -0.14004251866E+02 -0.12118074446E+02  0.72461578503E+02  0.70000010693E+02 0.  0.
         12    1    1    2    0    0 -0.27770602228E+01  0.14004251866E+02  0.12118074446E+02  0.18726421497E+02  0.00000000000E+00 0. -1.
         11    1    3    3    0    0 -0.13956414766E+02  0.44576497939E+01 -0.19272414054E+02  0.24209049931E+02  0.51100000000E-03 0.  1.
        -11    1    3    3    0    0  0.27333181418E+02 -0.23278782509E+02  0.71598491914E+01  0.36609670338E+02  0.51100000000E-03 0. -1.
         12    1    3    3    0    0 -0.10599706429E+02  0.48168808492E+01 -0.55095828661E-02  0.11642858234E+02  0.00000000000E+00 0. -1.
</event>
<event>
 7    1  0.1351543E-013  0.7246159E+02  0.7816164E-02  0.1226708E+00
        -11   -1    0    0    0    0  0.00000000000E+00  0.00000000000E+00  0.45593999997E+02  0.45594000000E+02  0.51100000000E-03 0. -1.
         11   -1    0    0    0    0 -0.00000000000E+00 -0.00000000000E+00 -0.45593999997E+02  0.45594000000E+02  0.51100000000E-03 0.  1.
    9900012    2    1    2    0    0 -0.14955021978E+02 -0.11222469584E+02 -0.10401320978E+01  0.72461591356E+02  0.70000027437E+02 0.  0.
         12    1    1    2    0    0  0.14955021978E+02  0.11222469584E+02  0.10401320978E+01  0.18726408644E+02  0.00000000000E+00 0. -1.
         11    1    3    3    0    0 -0.27409600832E+02 -0.14668569046E+02 -0.16322376332E+02  0.35112292790E+02  0.51100000000E-03 0. -1.
        -11    1    3    3    0    0  0.18495325725E+02 -0.72481820226E+01  0.32012532629E+01  0.20121163958E+02  0.51100000000E-03 0.  1.
         12    1    3    3    0    0 -0.60407468711E+01  0.10694281485E+02  0.12080990971E+02  0.17228134608E+02  0.00000000000E+00 0. -1.
</event>
<event>
 7    1  0.1351543E-013  0.7246161E+02  0.7816164E-02  0.1226708E+00
        -11   -1    0    0    0    0  0.00000000000E+00  0.00000000000E+00  0.45593999997E+02  0.45594000000E+02  0.51100000000E-03 0. -1.
         11   -1    0    0    0    0 -0.00000000000E+00 -0.00000000000E+00 -0.45593999997E+02  0.45594000000E+02  0.51100000000E-03 0.  1.
    9900012    2    1    2    0    0 -0.12708077902E+02  0.66585891238E+01 -0.12035187882E+02  0.72461606849E+02  0.70000047620E+02 0.  0.
         12    1    1    2    0    0  0.12708077902E+02 -0.66585891238E+01  0.12035187882E+02  0.18726393151E+02  0.00000000000E+00 0. -1.
         11    1    3    3    0    0 -0.11410050948E+02  0.48677677389E+01  0.13984139912E+02  0.18693330220E+02  0.51100000000E-03 0. -1.
        -11    1    3    3    0    0  0.11107970007E+02  0.21239522276E+02 -0.12558266010E+02  0.27059459522E+02  0.51100000000E-03 0.  1.
        -12    1    3    3    0    0 -0.12405996961E+02 -0.19448700891E+02 -0.13461061783E+02  0.26708817107E+02  0.00000000000E+00 0.  1.
</event>
<event>
 7    1  0.1351543E-013  0.7246147E+02  0.7816164E-02  0.1226708E+00
        -11   -1    0    0    0    0  0.00000000000E+00  0.00000000000E+00  0.45593999997E+02  0.45594000000E+02  0.51100000000E-03 0.  1.
         11   -1    0    0    0    0 -0.00000000000E+00 -0.00000000000E+00 -0.45593999997E+02  0.45594000000E+02  0.51100000000E-03 0. -1.
    9900012    2    1    2    0    0 -0.54075742704E+01 -0.99348079217E+01  0.14924497575E+02  0.72461470802E+02  0.69999870392E+02 0.  0.
         12    1    1    2    0    0  0.54075742704E+01  0.99348079217E+01 -0.14924497575E+02  0.18726529198E+02  0.00000000000E+00 0. -1.
         11    1    3    3    0    0  0.19523679726E+02  0.72013714878E+01  0.35561603513E+01  0.21111136825E+02  0.51100000000E-03 0. -1.
        -11    1    3    3    0    0 -0.17677596946E+02 -0.18500103407E+02  0.25047610677E+02  0.35806899624E+02  0.51100000000E-03 0.  1.
         12    1    3    3    0    0 -0.72536570503E+01  0.13639239970E+01 -0.13679273453E+02  0.15543434352E+02  0.00000000000E+00 0. -1.
</event>
<event>
 7    1  0.1351543E-013  0.7246158E+02  0.7816164E-02  0.1226708E+00
        -11   -1    0    0    0    0  0.00000000000E+00  0.00000000000E+00  0.45593999997E+02  0.45594000000E+02  0.51100000000E-03 0.  1.
         11   -1    0    0    0    0 -0.00000000000E+00 -0.00000000000E+00 -0.45593999997E+02  0.45594000000E+02  0.51100000000E-03 0. -1.
    9900012    2    1    2    0    0 -0.16738868404E+01 -0.18597192582E+02 -0.14216812529E+01  0.72461584255E+02  0.70000018186E+02 0.  0.
         12    1    1    2    0    0  0.16738868404E+01  0.18597192582E+02  0.14216812529E+01  0.18726415745E+02  0.00000000000E+00 0. -1.
         11    1    3    3    0    0 -0.26499073536E+02 -0.26161434712E+02  0.10354883659E+02  0.38650293405E+02  0.51100000000E-03 0.  1.
        -11    1    3    3    0    0  0.16935682724E+02 -0.40922553613E+01 -0.83710371319E+01  0.19329722352E+02  0.51100000000E-03 0. -1.
        -12    1    3    3    0    0  0.78895039722E+01  0.11656497491E+02 -0.34055277801E+01  0.14481568498E+02  0.00000000000E+00 0.  1.
</event>
<event>
 7    1  0.1351543E-013  0.7246153E+02  0.7816164E-02  0.1226708E+00
        -11   -1    0    0    0    0  0.00000000000E+00  0.00000000000E+00  0.45593999997E+02  0.45594000000E+02  0.51100000000E-03 0. -1.
         11   -1    0    0    0    0 -0.00000000000E+00 -0.00000000000E+00 -0.45593999997E+02  0.45594000000E+02  0.51100000000E-03 0.  1.
    9900012    2    1    2    0    0  0.11850758588E+02  0.11398501366E+02 -0.89618311811E+01  0.72461528613E+02  0.69999945702E+02 0.  0.
         12    1    1    2    0    0 -0.11850758588E+02 -0.11398501366E+02  0.89618311811E+01  0.18726471387E+02  0.00000000000E+00 0. -1.
         11    1    3    3    0    0  0.98139746337E+01  0.79759729042E+01  0.20968060395E+02  0.24486522800E+02  0.51100000000E-03 0. -1.
        -11    1    3    3    0    0  0.16288471679E+02 -0.76576589736E+01 -0.21535444293E+02  0.28066517628E+02  0.51100000000E-03 0.  1.
        -12    1    3    3    0    0 -0.14251687725E+02  0.11080187435E+02 -0.83944472825E+01  0.19908488184E+02  0.00000000000E+00 0.  1.
</event>
<event>
 7    1  0.1351543E-013  0.7246155E+02  0.7816164E-02  0.1226708E+00
        -11   -1    0    0    0    0  0.00000000000E+00  0.00000000000E+00  0.45593999997E+02  0.45594000000E+02  0.51100000000E-03 0.  1.
         11   -1    0    0    0    0 -0.00000000000E+00 -0.00000000000E+00 -0.45593999997E+02  0.45594000000E+02  0.51100000000E-03 0. -1.
    9900012    2    1    2    0    0 -0.92709233172E+01  0.10151314983E+02  0.12715377312E+02  0.72461547180E+02  0.69999969889E+02 0.  0.
         12    1    1    2    0    0  0.92709233172E+01 -0.10151314983E+02 -0.12715377312E+02  0.18726452820E+02  0.00000000000E+00 0. -1.
         11    1    3    3    0    0 -0.11774525145E+02  0.22216098035E+02 -0.64904639616E+01  0.25967683320E+02  0.51100000000E-03 0.  1.
        -11    1    3    3    0    0  0.34719305583E+01 -0.25144337983E+02  0.21395132731E+02  0.33197044135E+02  0.51100000000E-03 0. -1.
         12    1    3    3    0    0 -0.96832873067E+00  0.13079554931E+02 -0.21892914575E+01  0.13296819725E+02  0.00000000000E+00 0. -1.
</event>
<event>
 7    1  0.1351543E-013  0.7246150E+02  0.7816164E-02  0.1226708E+00
        -11   -1    0    0    0    0  0.00000000000E+00  0.00000000000E+00  0.45593999997E+02  0.45594000000E+02  0.51100000000E-03 0. -1.
         11   -1    0    0    0    0 -0.00000000000E+00 -0.00000000000E+00 -0.45593999997E+02  0.45594000000E+02  0.51100000000E-03 0.  1.
    9900012    2    1    2    0    0  0.15071509520E+02 -0.10998626806E+02 -0.16005196200E+01  0.72461498622E+02  0.69999906633E+02 0.  0.
         12    1    1    2    0    0 -0.15071509520E+02  0.10998626806E+02  0.16005196200E+01  0.18726501378E+02  0.00000000000E+00 0. -1.
         11    1    3    3    0    0  0.12794782271E+02  0.76997812200E+01  0.22318470070E+02  0.26853439086E+02  0.51100000000E-03 0. -1.
        -11    1    3    3    0    0 -0.12442756633E+02 -0.98415777355E+01 -0.23587488132E+02  0.28426192879E+02  0.51100000000E-03 0.  1.
         12    1    3    3    0    0  0.14719483882E+02 -0.88568302901E+01 -0.33150155823E+00  0.17181866657E+02  0.00000000000E+00 0. -1.
</event>
<event>
 7    1  0.1351543E-013  0.7246170E+02  0.7816164E-02  0.1226708E+00
        -11   -1    0    0    0    0  0.00000000000E+00  0.00000000000E+00  0.45593999997E+02  0.45594000000E+02  0.51100000000E-03 0.  1.
         11   -1    0    0    0    0 -0.00000000000E+00 -0.00000000000E+00 -0.45593999997E+02  0.45594000000E+02  0.51100000000E-03 0. -1.
    9900012    2    1    2    0    0  0.10053509300E+02 -0.12603016183E+02 -0.95270746311E+01  0.72461702524E+02  0.70000172253E+02 0.  0.
         12    1    1    2    0    0 -0.10053509300E+02  0.12603016183E+02  0.95270746311E+01  0.18726297476E+02  0.00000000000E+00 0. -1.
         11    1    3    3    0    0  0.31590596135E+02 -0.14561444382E+02 -0.15495840580E-02  0.34785074807E+02  0.51100000000E-03 0. -1.
        -11    1    3    3    0    0 -0.37707341999E+01  0.96441659584E+01 -0.14379311694E+02  0.17719847022E+02  0.51100000000E-03 0.  1.
        -12    1    3    3    0    0 -0.17766352636E+02 -0.76857377595E+01  0.48537866466E+01  0.19956780695E+02  0.00000000000E+00 0.  1.
</event>
<event>
 7    1  0.1351543E-013  0.7246156E+02  0.7816164E-02  0.1226708E+00
        -11   -1    0    0    0    0  0.00000000000E+00  0.00000000000E+00  0.45593999997E+02  0.45594000000E+02  0.51100000000E-03 0.  1.
         11   -1    0    0    0    0 -0.00000000000E+00 -0.00000000000E+00 -0.45593999997E+02  0.45594000000E+02  0.51100000000E-03 0. -1.
    9900012    2    1    2    0    0  0.18205111528E+02  0.22338569631E+01  0.37766944068E+01  0.72461558178E+02  0.69999984216E+02 0.  0.
         12    1    1    2    0    0 -0.18205111528E+02 -0.22338569631E+01 -0.37766944068E+01  0.18726441822E+02  0.00000000000E+00 0. -1.
         11    1    3    3    0    0 -0.10628536437E+02  0.22191537212E+02 -0.43672700631E+01  0.24990061199E+02  0.51100000000E-03 0. -1.
        -11    1    3    3    0    0  0.82309958363E+01 -0.23858763298E+02  0.79141882876E+00  0.25251063792E+02  0.51100000000E-03 0.  1.
        -12    1    3    3    0    0  0.20602652128E+02  0.39010830489E+01  0.73525456411E+01  0.22220433188E+02  0.00000000000E+00 0.  1.
</event>
<event>
 7    1  0.1351543E-013  0.7246127E+02  0.7816164E-02  0.1226709E+00
        -11   -1    0    0    0    0  0.00000000000E+00  0.00000000000E+00  0.45593999997E+02  0.45594000000E+02  0.51100000000E-03 0.  1.
         11   -1    0    0    0    0 -0.00000000000E+00 -0.00000000000E+00 -0.45593999997E+02  0.45594000000E+02  0.51100000000E-03 0. -1.
    9900012    2    1    2    0    0 -0.17600945507E+02 -0.53663987648E+01 -0.34783352177E+01  0.72461272194E+02  0.69999611668E+02 0.  0.
         12    1    1    2    0    0  0.17600945507E+02  0.53663987648E+01  0.34783352177E+01  0.18726727806E+02  0.00000000000E+00 0. -1.
         11    1    3    3    0    0  0.15406440483E+02 -0.22058165954E+01 -0.13495546202E+02  0.20599849581E+02  0.51100000000E-03 0. -1.
        -11    1    3    3    0    0 -0.95518980420E+01 -0.61062506325E+01  0.22451152405E+02  0.25151129151E+02  0.51100000000E-03 0.  1.
        -12    1    3    3    0    0 -0.23455487948E+02  0.29456684631E+01 -0.12433941421E+02  0.26710293462E+02  0.00000000000E+00 0.  1.
</event>
<event>
 7    1  0.1351543E-013  0.7246158E+02  0.7816164E-02  0.1226708E+00
        -11   -1    0    0    0    0  0.00000000000E+00  0.00000000000E+00  0.45593999997E+02  0.45594000000E+02  0.51100000000E-03 0.  1.
         11   -1    0    0    0    0 -0.00000000000E+00 -0.00000000000E+00 -0.45593999997E+02  0.45594000000E+02  0.51100000000E-03 0. -1.
    9900012    2    1    2    0    0  0.17122923795E+01 -0.14537991205E+02  0.11678768168E+02  0.72461581245E+02  0.70000014265E+02 0.  0.
         12    1    1    2    0    0 -0.17122923795E+01  0.14537991205E+02 -0.11678768168E+02  0.18726418755E+02  0.00000000000E+00 0. -1.
         11    1    3    3    0    0  0.20645538260E+02  0.82092141821E+01  0.21018033058E+02  0.30584099814E+02  0.51100000000E-03 0. -1.
        -11    1    3    3    0    0 -0.13415976479E+02 -0.55232879621E+01 -0.16901136734E+02  0.22274280190E+02  0.51100000000E-03 0.  1.
         12    1    3    3    0    0 -0.55172694014E+01 -0.17223917425E+02  0.75618718438E+01  0.19603201241E+02  0.00000000000E+00 0. -1.
</event>
<event>
 7    1  0.1351543E-013  0.7246168E+02  0.7816164E-02  0.1226708E+00
        -11   -1    0    0    0    0  0.00000000000E+00  0.00000000000E+00  0.45593999997E+02  0.45594000000E+02  0.51100000000E-03 0.  1.
         11   -1    0    0    0    0 -0.00000000000E+00 -0.00000000000E+00 -0.45593999997E+02  0.45594000000E+02  0.51100000000E-03 0. -1.
    9900012    2    1    2    0    0  0.42513627730E+01  0.17155344395E+02  0.61883074772E+01  0.72461679588E+02  0.70000142375E+02 0.  0.
         12    1    1    2    0    0 -0.42513627730E+01 -0.17155344395E+02 -0.61883074772E+01  0.18726320412E+02  0.00000000000E+00 0. -1.
         11    1    3    3    0    0  0.12053831260E+02  0.19908934851E+02 -0.11809533745E+02  0.26098383523E+02  0.51100000000E-03 0. -1.
        -11    1    3    3    0    0  0.33735333953E+00  0.40046328896E+01  0.30055032651E+02  0.30322530893E+02  0.51100000000E-03 0.  1.
         12    1    3    3    0    0 -0.81398218264E+01 -0.67582233451E+01 -0.12057191429E+02  0.16040765172E+02  0.00000000000E+00 0. -1.
</event>
<event>
 7    1  0.1351543E-013  0.7246156E+02  0.7816164E-02  0.1226708E+00
        -11   -1    0    0    0    0  0.00000000000E+00  0.00000000000E+00  0.45593999997E+02  0.45594000000E+02  0.51100000000E-03 0. -1.
         11   -1    0    0    0    0 -0.00000000000E+00 -0.00000000000E+00 -0.45593999997E+02  0.45594000000E+02  0.51100000000E-03 0.  1.
    9900012    2    1    2    0    0 -0.13431671448E+01 -0.13759872406E+02  0.12630968853E+02  0.72461559848E+02  0.69999986391E+02 0.  0.
         12    1    1    2    0    0  0.13431671448E+01  0.13759872406E+02 -0.12630968853E+02  0.18726440152E+02  0.00000000000E+00 0. -1.
         11    1    3    3    0    0  0.25069484221E+01 -0.48850980612E+01  0.15982094207E+02  0.16899003194E+02  0.51100000000E-03 0. -1.
        -11    1    3    3    0    0  0.14728344561E+02  0.52258229711E+01 -0.21097484321E+02  0.26255231939E+02  0.51100000000E-03 0.  1.
        -12    1    3    3    0    0 -0.18578460127E+02 -0.14100597316E+02  0.17746358967E+02  0.29307324715E+02  0.00000000000E+00 0.  1.
</event>
<event>
 7    1  0.1351543E-013  0.7246153E+02  0.7816164E-02  0.1226708E+00
        -11   -1    0    0    0    0  0.00000000000E+00  0.00000000000E+00  0.45593999997E+02  0.45594000000E+02  0.51100000000E-03 0.  1.
         11   -1    0    0    0    0 -0.00000000000E+00 -0.00000000000E+00 -0.45593999997E+02  0.45594000000E+02  0.51100000000E-03 0. -1.
    9900012    2    1    2    0    0 -0.49702235193E+01 -0.16659970047E+02  0.69586473939E+01  0.72461534841E+02  0.69999953815E+02 0.  0.
         12    1    1    2    0    0  0.49702235193E+01  0.16659970047E+02 -0.69586473939E+01  0.18726465159E+02  0.00000000000E+00 0. -1.
         11    1    3    3    0    0 -0.87328016204E+01 -0.15413533667E+02  0.34449566578E+02  0.38737726856E+02  0.51100000000E-03 0.  1.
        -11    1    3    3    0    0 -0.24945293800E+01 -0.68786315481E+01 -0.23095440128E+02  0.24226795161E+02  0.51100000000E-03 0. -1.
        -12    1    3    3    0    0  0.62571074810E+01  0.56321951682E+01 -0.43954790564E+01  0.94970128239E+01  0.00000000000E+00 0.  1.
</event>
<event>
 7    1  0.1351543E-013  0.7246173E+02  0.7816164E-02  0.1226708E+00
        -11   -1    0    0    0    0  0.00000000000E+00  0.00000000000E+00  0.45593999997E+02  0.45594000000E+02  0.51100000000E-03 0. -1.
         11   -1    0    0    0    0 -0.00000000000E+00 -0.00000000000E+00 -0.45593999997E+02  0.45594000000E+02  0.51100000000E-03 0.  1.
    9900012    2    1    2    0    0 -0.16975550768E+01 -0.16447332446E+02 -0.87907209038E+01  0.72461729367E+02  0.70000207221E+02 0.  0.
         12    1    1    2    0    0  0.16975550768E+01  0.16447332446E+02  0.87907209038E+01  0.18726270633E+02  0.00000000000E+00 0. -1.
         11    1    3    3    0    0  0.33957755162E+01  0.17334479724E+02  0.14492760764E+02  0.22848535915E+02  0.51100000000E-03 0. -1.
        -11    1    3    3    0    0  0.60505422675E+01 -0.16139920740E+02 -0.23003092409E+02  0.28744536244E+02  0.51100000000E-03 0.  1.
        -12    1    3    3    0    0 -0.11143872861E+02 -0.17641891429E+02 -0.28038925847E+00  0.20868657208E+02  0.00000000000E+00 0.  1.
</event>
<event>
 7    1  0.1351543E-013  0.7246162E+02  0.7816164E-02  0.1226708E+00
        -11   -1    0    0    0    0  0.00000000000E+00  0.00000000000E+00  0.45593999997E+02  0.45594000000E+02  0.51100000000E-03 0. -1.
         11   -1    0    0    0    0 -0.00000000000E+00 -0.00000000000E+00 -0.45593999997E+02  0.45594000000E+02  0.51100000000E-03 0.  1.
    9900012    2    1    2    0    0 -0.10605119632E+02  0.15157209391E+02  0.29099260730E+01  0.72461622115E+02  0.70000067506E+02 0.  0.
         12    1    1    2    0    0  0.10605119632E+02 -0.15157209391E+02 -0.29099260730E+01  0.18726377885E+02  0.00000000000E+00 0. -1.
         11    1    3    3    0    0  0.35736824076E+01 -0.41129247757E+01 -0.97877890549E+01  0.11202150285E+02  0.51100000000E-03 0. -1.
        -11    1    3    3    0    0 -0.19594754418E+01  0.10509406004E+02  0.33742481115E+02  0.35395510883E+02  0.51100000000E-03 0.  1.
        -12    1    3    3    0    0 -0.12219326597E+02  0.87607281623E+01 -0.21044765988E+02  0.25863960948E+02  0.00000000000E+00 0.  1.
</event>
<event>
 7    1  0.1351543E-013  0.7246162E+02  0.7816164E-02  0.1226708E+00
        -11   -1    0    0    0    0  0.00000000000E+00  0.00000000000E+00  0.45593999997E+02  0.45594000000E+02  0.51100000000E-03 0.  1.
         11   -1    0    0    0    0 -0.00000000000E+00 -0.00000000000E+00 -0.45593999997E+02  0.45594000000E+02  0.51100000000E-03 0. -1.
    9900012    2    1    2    0    0 -0.58476207596E+00 -0.10174628277E+02  0.15710261423E+02  0.72461619644E+02  0.70000064287E+02 0.  0.
         12    1    1    2    0    0  0.58476207596E+00  0.10174628277E+02 -0.15710261423E+02  0.18726380356E+02  0.00000000000E+00 0. -1.
         11    1    3    3    0    0  0.96123765104E+01  0.13071404180E+02  0.25235356693E+02  0.30001376920E+02  0.51100000000E-03 0. -1.
        -11    1    3    3    0    0 -0.21999793823E+02 -0.17923277392E+02 -0.55296568668E+01  0.28910411724E+02  0.51100000000E-03 0.  1.
         12    1    3    3    0    0  0.11802655236E+02 -0.53227550650E+01 -0.39954384034E+01  0.13549831001E+02  0.00000000000E+00 0. -1.
</event>
<event>
 7    1  0.1351543E-013  0.7246160E+02  0.7816164E-02  0.1226708E+00
        -11   -1    0    0    0    0  0.00000000000E+00  0.00000000000E+00  0.45593999997E+02  0.45594000000E+02  0.51100000000E-03 0. -1.
         11   -1    0    0    0    0 -0.00000000000E+00 -0.00000000000E+00 -0.45593999997E+02  0.45594000000E+02  0.51100000000E-03 0.  1.
    9900012    2    1    2    0    0 -0.28258262108E+01 -0.14364648249E+02 -0.11676892286E+02  0.72461595472E+02  0.70000032798E+02 0.  0.
         12    1    1    2    0    0  0.28258262108E+01  0.14364648249E+02  0.11676892286E+02  0.18726404528E+02  0.00000000000E+00 0. -1.
         11    1    3    3    0    0 -0.24240843789E+02 -0.59365847751E+01 -0.44388200295E+00  0.24961141358E+02  0.51100000000E-03 0. -1.
        -11    1    3    3    0    0  0.23242412090E+02  0.81563141412E+00 -0.22808608322E+02  0.32574646402E+02  0.51100000000E-03 0.  1.
         12    1    3    3    0    0 -0.18273945117E+01 -0.92436948881E+01  0.11575598039E+02  0.14925807712E+02  0.00000000000E+00 0. -1.
</event>
<event>
 7    1  0.1351543E-013  0.7246158E+02  0.7816164E-02  0.1226708E+00
        -11   -1    0    0    0    0  0.00000000000E+00  0.00000000000E+00  0.45593999997E+02  0.45594000000E+02  0.51100000000E-03 0.  1.
         11   -1    0    0    0    0 -0.00000000000E+00 -0.00000000000E+00 -0.45593999997E+02  0.45594000000E+02  0.51100000000E-03 0. -1.
    9900012    2    1    2    0    0 -0.58869123883E+00 -0.83091710106E+01  0.16771700255E+02  0.72461579902E+02  0.70000012515E+02 0.  0.
         12    1    1    2    0    0  0.58869123883E+00  0.83091710106E+01 -0.16771700255E+02  0.18726420098E+02  0.00000000000E+00 0. -1.
         11    1    3    3    0    0  0.20318223266E+02  0.94985551062E+01 -0.16978351947E+02  0.28130360483E+02  0.51100000000E-03 0. -1.
        -11    1    3    3    0    0 -0.48656750260E+01 -0.89874830709E+01  0.95533886363E+01  0.13989884921E+02  0.51100000000E-03 0.  1.
         12    1    3    3    0    0 -0.16041239479E+02 -0.88202430458E+01  0.24196663566E+02  0.30341334498E+02  0.00000000000E+00 0. -1.
</event>
<event>
 7    1  0.1351543E-013  0.7246157E+02  0.7816164E-02  0.1226708E+00
        -11   -1    0    0    0    0  0.00000000000E+00  0.00000000000E+00  0.45593999997E+02  0.45594000000E+02  0.51100000000E-03 0. -1.
         11   -1    0    0    0    0 -0.00000000000E+00 -0.00000000000E+00 -0.45593999997E+02  0.45594000000E+02  0.51100000000E-03 0.  1.
    9900012    2    1    2    0    0 -0.64393596633E+01  0.15282245394E+02  0.86986773971E+01  0.72461565058E+02  0.69999993179E+02 0.  0.
         12    1    1    2    0    0  0.64393596633E+01 -0.15282245394E+02 -0.86986773971E+01  0.18726434942E+02  0.00000000000E+00 0. -1.
         11    1    3    3    0    0 -0.14656753557E+02 -0.52253013042E+01  0.15531827303E+02  0.21985491993E+02  0.51100000000E-03 0. -1.
        -11    1    3    3    0    0 -0.13204525714E+01  0.33668514817E+02 -0.34163023872E+01  0.33867146429E+02  0.51100000000E-03 0.  1.
        -12    1    3    3    0    0  0.95378464656E+01 -0.13160968119E+02 -0.34168475184E+01  0.16608926636E+02  0.00000000000E+00 0.  1.
</event>
<event>
 7    1  0.1351543E-013  0.7246166E+02  0.7816164E-02  0.1226708E+00
        -11   -1    0    0    0    0  0.00000000000E+00  0.00000000000E+00  0.45593999997E+02  0.45594000000E+02  0.51100000000E-03 0. -1.
         11   -1    0    0    0    0 -0.00000000000E+00 -0.00000000000E+00 -0.45593999997E+02  0.45594000000E+02  0.51100000000E-03 0.  1.
    9900012    2    1    2    0    0  0.39696921411E+01 -0.15300333033E+02 -0.10040772428E+02  0.72461661395E+02  0.70000118675E+02 0.  0.
         12    1    1    2    0    0 -0.39696921411E+01  0.15300333033E+02  0.10040772428E+02  0.18726338605E+02  0.00000000000E+00 0. -1.
         11    1    3    3    0    0  0.18999341213E+02 -0.92671466157E+00  0.87220329863E+01  0.20926242526E+02  0.51100000000E-03 0. -1.
        -11    1    3    3    0    0 -0.20508424284E+02 -0.27115735033E+02 -0.11580740438E+02  0.35916181622E+02  0.51100000000E-03 0.  1.
        -12    1    3    3    0    0  0.54787752120E+01  0.12742116662E+02 -0.71820649763E+01  0.15619237247E+02  0.00000000000E+00 0.  1.
</event>
<event>
 7    1  0.1351543E-013  0.7246175E+02  0.7816164E-02  0.1226708E+00
        -11   -1    0    0    0    0  0.00000000000E+00  0.00000000000E+00  0.45593999997E+02  0.45594000000E+02  0.51100000000E-03 0.  1.
         11   -1    0    0    0    0 -0.00000000000E+00 -0.00000000000E+00 -0.45593999997E+02  0.45594000000E+02  0.51100000000E-03 0. -1.
    9900012    2    1    2    0    0  0.10193267127E+02 -0.14879132979E+02  0.50379787561E+01  0.72461747762E+02  0.70000231184E+02 0.  0.
         12    1    1    2    0    0 -0.10193267127E+02  0.14879132979E+02 -0.50379787561E+01  0.18726252238E+02  0.00000000000E+00 0. -1.
         11    1    3    3    0    0 -0.18120507888E+02  0.51343849677E+01 -0.14933923390E+02  0.24036155749E+02  0.51100000000E-03 0. -1.
        -11    1    3    3    0    0  0.23447375373E+02 -0.19550925809E+02  0.26392641651E+02  0.40355788252E+02  0.51100000000E-03 0.  1.
        -12    1    3    3    0    0  0.48663996417E+01 -0.46259213796E+00 -0.64207395047E+01  0.80698037613E+01  0.00000000000E+00 0.  1.
</event>
<event>
 7    1  0.1351543E-013  0.7246151E+02  0.7816164E-02  0.1226708E+00
        -11   -1    0    0    0    0  0.00000000000E+00  0.00000000000E+00  0.45593999997E+02  0.45594000000E+02  0.51100000000E-03 0.  1.
         11   -1    0    0    0    0 -0.00000000000E+00 -0.00000000000E+00 -0.45593999997E+02  0.45594000000E+02  0.51100000000E-03 0. -1.
    9900012    2    1    2    0    0  0.47060388314E+01 -0.14219885624E+02  0.11239640671E+02  0.72461508843E+02  0.69999919948E+02 0.  0.
         12    1    1    2    0    0 -0.47060388314E+01  0.14219885624E+02 -0.11239640671E+02  0.18726491157E+02  0.00000000000E+00 0. -1.
         11    1    3    3    0    0  0.58457887774E+00 -0.19943034524E+02 -0.22914164431E+01  0.20082752502E+02  0.51100000000E-03 0. -1.
        -11    1    3    3    0    0 -0.21605537894E+02  0.10342339250E+02  0.10178514271E+02  0.26026244483E+02  0.51100000000E-03 0.  1.
        -12    1    3    3    0    0  0.25726997848E+02 -0.46191903500E+01  0.33525428433E+01  0.26352511859E+02  0.00000000000E+00 0.  1.
</event>
<event>
 7    1  0.1351543E-013  0.7246164E+02  0.7816164E-02  0.1226708E+00
        -11   -1    0    0    0    0  0.00000000000E+00  0.00000000000E+00  0.45593999997E+02  0.45594000000E+02  0.51100000000E-03 0. -1.
         11   -1    0    0    0    0 -0.00000000000E+00 -0.00000000000E+00 -0.45593999997E+02  0.45594000000E+02  0.51100000000E-03 0.  1.
    9900012    2    1    2    0    0  0.46036343011E+01  0.25260263274E+01 -0.17975043650E+02  0.72461642853E+02  0.70000094521E+02 0.  0.
         12    1    1    2    0    0 -0.46036343011E+01 -0.25260263274E+01  0.17975043650E+02  0.18726357147E+02  0.00000000000E+00 0. -1.
         11    1    3    3    0    0 -0.66704320249E+01 -0.19316305352E+02 -0.18933204370E+02  0.27858222195E+02  0.51100000000E-03 0. -1.
        -11    1    3    3    0    0  0.23629935973E+02  0.57815154348E+01  0.75777501477E+00  0.24338734931E+02  0.51100000000E-03 0.  1.
         12    1    3    3    0    0 -0.12355869647E+02  0.16060816245E+02  0.20038570493E+00  0.20264685727E+02  0.00000000000E+00 0. -1.
</event>
<event>
 7    1  0.1446299E-013  0.7246119E+02  0.7816164E-02  0.1226709E+00
        -11   -1    0    0    0    0  0.00000000000E+00  0.00000000000E+00  0.45593999997E+02  0.45594000000E+02  0.51100000000E-03 0. -1.
         11   -1    0    0    0    0 -0.00000000000E+00 -0.00000000000E+00 -0.45593999997E+02  0.45594000000E+02  0.51100000000E-03 0.  1.
    9900012    2    1    2    0    0 -0.47478841408E+01 -0.67673335542E+01 -0.16803395164E+02  0.72461193110E+02  0.69999508646E+02 0.  0.
         12    1    1    2    0    0  0.47478841408E+01  0.67673335542E+01  0.16803395164E+02  0.18726806890E+02  0.00000000000E+00 0. -1.
         11    1    3    3    0    0 -0.11095639951E+02  0.24400014436E+02 -0.14554173347E+02  0.30500785113E+02  0.51100000000E-03 0. -1.
        -11    1    3    3    0    0 -0.39514961030E+01 -0.16597573272E+02 -0.12712046550E+02  0.21276510234E+02  0.51100000000E-03 0.  1.
         12    1    3    3    0    0  0.10299251913E+02 -0.14569774718E+02  0.10462824733E+02  0.20683897764E+02  0.00000000000E+00 0. -1.
</event>
<event>
 7    1  0.1351543E-013  0.7246156E+02  0.7816164E-02  0.1226708E+00
        -11   -1    0    0    0    0  0.00000000000E+00  0.00000000000E+00  0.45593999997E+02  0.45594000000E+02  0.51100000000E-03 0.  1.
         11   -1    0    0    0    0 -0.00000000000E+00 -0.00000000000E+00 -0.45593999997E+02  0.45594000000E+02  0.51100000000E-03 0. -1.
    9900012    2    1    2    0    0  0.15356944998E+02 -0.10231214915E+02 -0.31884057834E+01  0.72461562812E+02  0.69999990253E+02 0.  0.
         12    1    1    2    0    0 -0.15356944998E+02  0.10231214915E+02  0.31884057834E+01  0.18726437188E+02  0.00000000000E+00 0. -1.
         11    1    3    3    0    0  0.14959116061E+02  0.15673057501E+02 -0.96780747475E+01  0.23729412463E+02  0.51100000000E-03 0. -1.
        -11    1    3    3    0    0  0.42686985532E+01 -0.72185201156E+01  0.22380121786E+02  0.23899762999E+02  0.51100000000E-03 0.  1.
        -12    1    3    3    0    0 -0.38708696162E+01 -0.18685752301E+02 -0.15890452822E+02  0.24832387350E+02  0.00000000000E+00 0.  1.
</event>
<event>
 7    1  0.1351543E-013  0.7246157E+02  0.7816164E-02  0.1226708E+00
        -11   -1    0    0    0    0  0.00000000000E+00  0.00000000000E+00  0.45593999997E+02  0.45594000000E+02  0.51100000000E-03 0.  1.
         11   -1    0    0    0    0 -0.00000000000E+00 -0.00000000000E+00 -0.45593999997E+02  0.45594000000E+02  0.51100000000E-03 0. -1.
    9900012    2    1    2    0    0  0.55795567505E+01  0.12171430257E+02  0.13092140815E+02  0.72461566299E+02  0.69999994796E+02 0.  0.
         12    1    1    2    0    0 -0.55795567505E+01 -0.12171430257E+02 -0.13092140815E+02  0.18726433701E+02  0.00000000000E+00 0. -1.
         11    1    3    3    0    0 -0.12380889774E+01  0.38170148084E+01 -0.13611015071E+02  0.14190214864E+02  0.51100000000E-03 0. -1.
        -11    1    3    3    0    0  0.26463052064E+02  0.10472736360E+02  0.25923421078E+02  0.38496689365E+02  0.51100000000E-03 0.  1.
        -12    1    3    3    0    0 -0.19645406337E+02 -0.21183209107E+01  0.77973480759E+00  0.19774662070E+02  0.00000000000E+00 0.  1.
</event>
<event>
 7    1  0.1351543E-013  0.7246181E+02  0.7816164E-02  0.1226707E+00
        -11   -1    0    0    0    0  0.00000000000E+00  0.00000000000E+00  0.45593999997E+02  0.45594000000E+02  0.51100000000E-03 0.  1.
         11   -1    0    0    0    0 -0.00000000000E+00 -0.00000000000E+00 -0.45593999997E+02  0.45594000000E+02  0.51100000000E-03 0. -1.
    9900012    2    1    2    0    0 -0.10436275070E+02  0.11180288984E+02  0.10805343814E+02  0.72461811011E+02  0.70000313578E+02 0.  0.
         12    1    1    2    0    0  0.10436275070E+02 -0.11180288984E+02 -0.10805343814E+02  0.18726188989E+02  0.00000000000E+00 0. -1.
         11    1    3    3    0    0 -0.19495853651E+02  0.25267593752E+02  0.75376934450E+00  0.31923467420E+02  0.51100000000E-03 0. -1.
        -11    1    3    3    0    0  0.77245696449E+01 -0.95947254537E+00  0.21627039652E+02  0.22985178010E+02  0.51100000000E-03 0.  1.
        -12    1    3    3    0    0  0.13350089369E+01 -0.13127832223E+02 -0.11575465183E+02  0.17553165582E+02  0.00000000000E+00 0.  1.
</event>
<event>
 7    1  0.1351543E-013  0.7246156E+02  0.7816164E-02  0.1226708E+00
        -11   -1    0    0    0    0  0.00000000000E+00  0.00000000000E+00  0.45593999997E+02  0.45594000000E+02  0.51100000000E-03 0.  1.
         11   -1    0    0    0    0 -0.00000000000E+00 -0.00000000000E+00 -0.45593999997E+02  0.45594000000E+02  0.51100000000E-03 0. -1.
    9900012    2    1    2    0    0  0.14650838404E+02  0.72898217376E+01  0.91044492422E+01  0.72461559791E+02  0.69999986317E+02 0.  0.
         12    1    1    2    0    0 -0.14650838404E+02 -0.72898217376E+01 -0.91044492422E+01  0.18726440209E+02  0.00000000000E+00 0. -1.
         11    1    3    3    0    0  0.12591450996E+02 -0.81311909157E+01 -0.73368182554E+01  0.16688013851E+02  0.51100000000E-03 0. -1.
        -11    1    3    3    0    0 -0.20768339091E+02  0.13584837894E+02 -0.39261443640E+01  0.25125412216E+02  0.51100000000E-03 0.  1.
        -12    1    3    3    0    0  0.22827726499E+02  0.18361747597E+01  0.20367411862E+02  0.30648133724E+02  0.00000000000E+00 0.  1.
</event>
<event>
 7    1  0.1351543E-013  0.7246185E+02  0.7816164E-02  0.1226707E+00
        -11   -1    0    0    0    0  0.00000000000E+00  0.00000000000E+00  0.45593999997E+02  0.45594000000E+02  0.51100000000E-03 0. -1.
         11   -1    0    0    0    0 -0.00000000000E+00 -0.00000000000E+00 -0.45593999997E+02  0.45594000000E+02  0.51100000000E-03 0.  1.
    9900012    2    1    2    0    0 -0.20261135564E+01  0.13679691200E+02 -0.12626541573E+02  0.72461851449E+02  0.70000366255E+02 0.  0.
         12    1    1    2    0    0  0.20261135564E+01 -0.13679691200E+02  0.12626541573E+02  0.18726148551E+02  0.00000000000E+00 0. -1.
         11    1    3    3    0    0 -0.19164425722E+02  0.40836930499E+01 -0.34470374221E+02  0.39650453483E+02  0.51100000000E-03 0.  1.
        -11    1    3    3    0    0  0.15502201395E+02  0.35038794350E+01  0.21163598498E+02  0.26466834356E+02  0.51100000000E-03 0. -1.
        -12    1    3    3    0    0  0.16361107708E+01  0.60921187150E+01  0.68023415029E+00  0.63445636092E+01  0.00000000000E+00 0.  1.
</event>
<event>
 7    1  0.1351543E-013  0.7246163E+02  0.7816164E-02  0.1226708E+00
        -11   -1    0    0    0    0  0.00000000000E+00  0.00000000000E+00  0.45593999997E+02  0.45594000000E+02  0.51100000000E-03 0.  1.
         11   -1    0    0    0    0 -0.00000000000E+00 -0.00000000000E+00 -0.45593999997E+02  0.45594000000E+02  0.51100000000E-03 0. -1.
    9900012    2    1    2    0    0 -0.49611107505E+00  0.41519833756E+01  0.18253546384E+02  0.72461626947E+02  0.70000073800E+02 0.  0.
         12    1    1    2    0    0  0.49611107505E+00 -0.41519833756E+01 -0.18253546384E+02  0.18726373053E+02  0.00000000000E+00 0. -1.
         11    1    3    3    0    0 -0.35456004096E+01 -0.22126945496E+02  0.22778231835E+02  0.31953416798E+02  0.51100000000E-03 0. -1.
        -11    1    3    3    0    0 -0.13656747655E+02  0.13458951699E+02 -0.28291986515E+01  0.19381808549E+02  0.51100000000E-03 0.  1.
         12    1    3    3    0    0  0.16706236990E+02  0.12819977172E+02 -0.16954868003E+01  0.21126401600E+02  0.00000000000E+00 0. -1.
</event>
<event>
 7    1  0.1351543E-013  0.7246160E+02  0.7816164E-02  0.1226708E+00
        -11   -1    0    0    0    0  0.00000000000E+00  0.00000000000E+00  0.45593999997E+02  0.45594000000E+02  0.51100000000E-03 0. -1.
         11   -1    0    0    0    0 -0.00000000000E+00 -0.00000000000E+00 -0.45593999997E+02  0.45594000000E+02  0.51100000000E-03 0.  1.
    9900012    2    1    2    0    0 -0.14994217711E+02 -0.81144093245E+01  0.77464810338E+01  0.72461596932E+02  0.70000034701E+02 0.  0.
         12    1    1    2    0    0  0.14994217711E+02  0.81144093245E+01 -0.77464810338E+01  0.18726403068E+02  0.00000000000E+00 0. -1.
         11    1    3    3    0    0 -0.55449699348E+01 -0.23121846347E+02  0.31926728671E+02  0.39808070463E+02  0.51100000000E-03 0. -1.
        -11    1    3    3    0    0 -0.10039965075E+02  0.89313636695E+01 -0.22688372881E+02  0.26369156603E+02  0.51100000000E-03 0.  1.
        -12    1    3    3    0    0  0.59071729906E+00  0.60760733531E+01 -0.14918747563E+01  0.62843698656E+01  0.00000000000E+00 0.  1.
</event>
<event>
 7    1  0.1351543E-013  0.7246154E+02  0.7816164E-02  0.1226708E+00
        -11   -1    0    0    0    0  0.00000000000E+00  0.00000000000E+00  0.45593999997E+02  0.45594000000E+02  0.51100000000E-03 0.  1.
         11   -1    0    0    0    0 -0.00000000000E+00 -0.00000000000E+00 -0.45593999997E+02  0.45594000000E+02  0.51100000000E-03 0. -1.
    9900012    2    1    2    0    0  0.34254010534E+01 -0.97641194135E+00  0.18384599694E+02  0.72461541217E+02  0.69999962121E+02 0.  0.
         12    1    1    2    0    0 -0.34254010534E+01  0.97641194135E+00 -0.18384599694E+02  0.18726458783E+02  0.00000000000E+00 0. -1.
         11    1    3    3    0    0  0.56123944969E+01 -0.17048190064E+02  0.13210234416E+02  0.22285646727E+02  0.51100000000E-03 0. -1.
        -11    1    3    3    0    0 -0.76297580569E+00  0.21279741934E+02  0.23122410162E+02  0.31433348546E+02  0.51100000000E-03 0.  1.
        -12    1    3    3    0    0 -0.14240176378E+01 -0.52079638115E+01 -0.17948044884E+02  0.18742545944E+02  0.00000000000E+00 0.  1.
</event>
<event>
 7    1  0.1351543E-013  0.7246159E+02  0.7816164E-02  0.1226708E+00
        -11   -1    0    0    0    0  0.00000000000E+00  0.00000000000E+00  0.45593999997E+02  0.45594000000E+02  0.51100000000E-03 0.  1.
         11   -1    0    0    0    0 -0.00000000000E+00 -0.00000000000E+00 -0.45593999997E+02  0.45594000000E+02  0.51100000000E-03 0. -1.
    9900012    2    1    2    0    0 -0.80336306179E+01  0.16483710331E+02  0.37982448651E+01  0.72461585735E+02  0.70000020114E+02 0.  0.
         12    1    1    2    0    0  0.80336306179E+01 -0.16483710331E+02 -0.37982448651E+01  0.18726414265E+02  0.00000000000E+00 0. -1.
         11    1    3    3    0    0 -0.17208817101E+01  0.32126540681E+02  0.16382729524E+02  0.36103599224E+02  0.51100000000E-03 0. -1.
        -11    1    3    3    0    0 -0.16698340439E+02 -0.37116764887E+01 -0.17717333908E+01  0.17197388035E+02  0.51100000000E-03 0.  1.
         12    1    3    3    0    0  0.10385591531E+02 -0.11931153862E+02 -0.10812751269E+02  0.19160598475E+02  0.00000000000E+00 0. -1.
</event>
<event>
 8    1  0.1351543E-013  0.7246152E+02  0.7816164E-02  0.1226708E+00
        -11   -1    0    0    0    0  0.00000000000E+00  0.00000000000E+00  0.45593999997E+02  0.45594000000E+02  0.51100000000E-03 0. -1.
         11   -1    0    0    0    0 -0.00000000000E+00 -0.00000000000E+00 -0.45593999997E+02  0.45594000000E+02  0.51100000000E-03 0.  1.
    9900012    2    1    2    0    0  0.52891411032E+00  0.15699036946E+02 -0.10195165452E+02  0.72461523830E+02  0.69999939472E+02 0.  0.
         24    2    3    3    0    0 -0.10947160650E+02  0.18348757552E+02 -0.16620176493E+02  0.59045038510E+02  0.52474461179E+02 0.  0.
         12    1    1    2    0    0 -0.52891411032E+00 -0.15699036946E+02  0.10195165452E+02  0.18726476170E+02  0.00000000000E+00 0. -1.
         11    1    3    3    0    0  0.11476074760E+02 -0.26497206062E+01  0.64250110416E+01  0.13416485320E+02  0.51100000000E-03 0. -1.
        -11    1    4    4    0    0 -0.51762387485E+01  0.25916501986E+02 -0.31663757949E+02  0.41243812754E+02  0.51100000000E-03 0.  1.
         12    1    4    4    0    0 -0.57709219011E+01 -0.75677444341E+01  0.15043581456E+02  0.17801225756E+02  0.00000000000E+00 0. -1.
</event>
<event>
 7    1  0.1351543E-013  0.7246156E+02  0.7816164E-02  0.1226708E+00
        -11   -1    0    0    0    0  0.00000000000E+00  0.00000000000E+00  0.45593999997E+02  0.45594000000E+02  0.51100000000E-03 0. -1.
         11   -1    0    0    0    0 -0.00000000000E+00 -0.00000000000E+00 -0.45593999997E+02  0.45594000000E+02  0.51100000000E-03 0.  1.
    9900012    2    1    2    0    0  0.10830858638E+02 -0.47972058316E+01 -0.14503759647E+02  0.72461555422E+02  0.69999980626E+02 0.  0.
         12    1    1    2    0    0 -0.10830858638E+02  0.47972058316E+01  0.14503759647E+02  0.18726444578E+02  0.00000000000E+00 0. -1.
         11    1    3    3    0    0  0.37720392293E+02 -0.14733322594E+02 -0.42346389002E+01  0.40716470332E+02  0.51100000000E-03 0. -1.
        -11    1    3    3    0    0 -0.18519568537E+02  0.79467012568E+01 -0.11260294534E+02  0.23085032226E+02  0.51100000000E-03 0.  1.
         12    1    3    3    0    0 -0.83699651181E+01  0.19894155055E+01  0.99117378692E+00  0.86600528640E+01  0.00000000000E+00 0. -1.
</event>
<event>
 7    1  0.1351543E-013  0.7246156E+02  0.7816164E-02  0.1226708E+00
        -11   -1    0    0    0    0  0.00000000000E+00  0.00000000000E+00  0.45593999997E+02  0.45594000000E+02  0.51100000000E-03 0. -1.
         11   -1    0    0    0    0 -0.00000000000E+00 -0.00000000000E+00 -0.45593999997E+02  0.45594000000E+02  0.51100000000E-03 0.  1.
    9900012    2    1    2    0    0  0.10498787882E+02 -0.15519946122E+01 -0.15428749973E+02  0.72461559868E+02  0.69999986418E+02 0.  0.
         12    1    1    2    0    0 -0.10498787882E+02  0.15519946122E+01  0.15428749973E+02  0.18726440132E+02  0.00000000000E+00 0. -1.
         11    1    3    3    0    0  0.19545920564E+02 -0.38138814989E+00  0.21910966459E+02  0.29364586138E+02  0.51100000000E-03 0. -1.
        -11    1    3    3    0    0 -0.14135427510E+02 -0.51566658784E+01 -0.25532363179E+02  0.29636178627E+02  0.51100000000E-03 0.  1.
        -12    1    3    3    0    0  0.50882948282E+01  0.39860594161E+01 -0.11807353254E+02  0.13460795103E+02  0.00000000000E+00 0.  1.
</event>
<event>
 7    1  0.1351543E-013  0.7246159E+02  0.7816164E-02  0.1226708E+00
        -11   -1    0    0    0    0  0.00000000000E+00  0.00000000000E+00  0.45593999997E+02  0.45594000000E+02  0.51100000000E-03 0. -1.
         11   -1    0    0    0    0 -0.00000000000E+00 -0.00000000000E+00 -0.45593999997E+02  0.45594000000E+02  0.51100000000E-03 0.  1.
    9900012    2    1    2    0    0  0.88116430996E+01  0.68547442133E+01 -0.15034826001E+02  0.72461586429E+02  0.70000021019E+02 0.  0.
         12    1    1    2    0    0 -0.88116430996E+01 -0.68547442133E+01  0.15034826001E+02  0.18726413571E+02  0.00000000000E+00 0. -1.
         11    1    3    3    0    0  0.89195075886E+01 -0.98372410756E+01  0.12038744358E+02  0.17923735481E+02  0.51100000000E-03 0. -1.
        -11    1    3    3    0    0 -0.10135704306E+02  0.18990671552E+02 -0.35313256491E+02  0.41357033163E+02  0.51100000000E-03 0.  1.
        -12    1    3    3    0    0  0.10027839817E+02 -0.22986862630E+01  0.82396861324E+01  0.13180817786E+02  0.00000000000E+00 0.  1.
</event>
<event>
 7    1  0.1351543E-013  0.7246155E+02  0.7816164E-02  0.1226708E+00
        -11   -1    0    0    0    0  0.00000000000E+00  0.00000000000E+00  0.45593999997E+02  0.45594000000E+02  0.51100000000E-03 0. -1.
         11   -1    0    0    0    0 -0.00000000000E+00 -0.00000000000E+00 -0.45593999997E+02  0.45594000000E+02  0.51100000000E-03 0.  1.
    9900012    2    1    2    0    0  0.82510308416E+01  0.13506704785E+02  0.10008463526E+02  0.72461550089E+02  0.69999973679E+02 0.  0.
         12    1    1    2    0    0 -0.82510308416E+01 -0.13506704785E+02 -0.10008463526E+02  0.18726449911E+02  0.00000000000E+00 0. -1.
         11    1    3    3    0    0 -0.21462751377E+02  0.22954278006E+02 -0.12433925261E+00  0.31425531594E+02  0.51100000000E-03 0. -1.
        -11    1    3    3    0    0  0.50830126453E+01 -0.55682331743E+01 -0.73923939072E+01  0.10558869550E+02  0.51100000000E-03 0.  1.
         12    1    3    3    0    0  0.24630769573E+02 -0.38793400461E+01  0.17525196686E+02  0.30477148945E+02  0.00000000000E+00 0. -1.
</event>
<event>
 7    1  0.1351543E-013  0.7246166E+02  0.7816164E-02  0.1226708E+00
        -11   -1    0    0    0    0  0.00000000000E+00  0.00000000000E+00  0.45593999997E+02  0.45594000000E+02  0.51100000000E-03 0.  1.
         11   -1    0    0    0    0 -0.00000000000E+00 -0.00000000000E+00 -0.45593999997E+02  0.45594000000E+02  0.51100000000E-03 0. -1.
    9900012    2    1    2    0    0 -0.25543807754E+01 -0.18039332353E+02  0.43282343643E+01  0.72461655306E+02  0.70000110743E+02 0.  0.
         12    1    1    2    0    0  0.25543807754E+01  0.18039332353E+02 -0.43282343643E+01  0.18726344694E+02  0.00000000000E+00 0. -1.
         11    1    3    3    0    0 -0.32322113925E+02 -0.10043436010E+01  0.12020278585E+02  0.34499490607E+02  0.51100000000E-03 0. -1.
        -11    1    3    3    0    0  0.17293517796E+02 -0.89426761451E+01  0.29307971590E+01  0.19688239806E+02  0.51100000000E-03 0.  1.
        -12    1    3    3    0    0  0.12474215354E+02 -0.80923126070E+01 -0.10622841379E+02  0.18273924893E+02  0.00000000000E+00 0.  1.
</event>
<event>
 7    1  0.1351543E-013  0.7246157E+02  0.7816164E-02  0.1226708E+00
        -11   -1    0    0    0    0  0.00000000000E+00  0.00000000000E+00  0.45593999997E+02  0.45594000000E+02  0.51100000000E-03 0. -1.
         11   -1    0    0    0    0 -0.00000000000E+00 -0.00000000000E+00 -0.45593999997E+02  0.45594000000E+02  0.51100000000E-03 0.  1.
    9900012    2    1    2    0    0  0.16315313811E+02  0.91148007464E+01  0.11875491192E+01  0.72461566001E+02  0.69999994407E+02 0.  0.
         12    1    1    2    0    0 -0.16315313811E+02 -0.91148007464E+01 -0.11875491192E+01  0.18726433999E+02  0.00000000000E+00 0. -1.
         11    1    3    3    0    0  0.17407067833E+02 -0.20629758172E+01 -0.16669190827E+02  0.24189332419E+02  0.51100000000E-03 0.  1.
        -11    1    3    3    0    0  0.10427260335E+02  0.82219254746E+01  0.29049883330E+02  0.31940938282E+02  0.51100000000E-03 0. -1.
         12    1    3    3    0    0 -0.11519014356E+02  0.29558510890E+01 -0.11193143383E+02  0.16331295300E+02  0.00000000000E+00 0. -1.
</event>
<event>
 7    1  0.1351543E-013  0.7246155E+02  0.7816164E-02  0.1226708E+00
        -11   -1    0    0    0    0  0.00000000000E+00  0.00000000000E+00  0.45593999997E+02  0.45594000000E+02  0.51100000000E-03 0. -1.
         11   -1    0    0    0    0 -0.00000000000E+00 -0.00000000000E+00 -0.45593999997E+02  0.45594000000E+02  0.51100000000E-03 0.  1.
    9900012    2    1    2    0    0 -0.14564326206E+02  0.35356182948E+01 -0.11227624398E+02  0.72461554951E+02  0.69999980012E+02 0.  0.
         12    1    1    2    0    0  0.14564326206E+02 -0.35356182948E+01  0.11227624398E+02  0.18726445049E+02  0.00000000000E+00 0. -1.
         11    1    3    3    0    0  0.86010916555E+01  0.14303982740E+01 -0.72975225452E+01  0.11370077064E+02  0.51100000000E-03 0. -1.
        -11    1    3    3    0    0 -0.31939108055E+02  0.57009495013E+01  0.18068831850E+02  0.37136102828E+02  0.51100000000E-03 0.  1.
        -12    1    3    3    0    0  0.87736901934E+01 -0.35957294804E+01 -0.21998933703E+02  0.23955375059E+02  0.00000000000E+00 0.  1.
</event>
<event>
 7    1  0.1351543E-013  0.7246154E+02  0.7816164E-02  0.1226708E+00
        -11   -1    0    0    0    0  0.00000000000E+00  0.00000000000E+00  0.45593999997E+02  0.45594000000E+02  0.51100000000E-03 0. -1.
         11   -1    0    0    0    0 -0.00000000000E+00 -0.00000000000E+00 -0.45593999997E+02  0.45594000000E+02  0.51100000000E-03 0.  1.
    9900012    2    1    2    0    0 -0.18641153232E+02  0.11312186892E+01 -0.13813170185E+01  0.72461540477E+02  0.69999961158E+02 0.  0.
         12    1    1    2    0    0  0.18641153232E+02 -0.11312186892E+01  0.13813170185E+01  0.18726459523E+02  0.00000000000E+00 0. -1.
         11    1    3    3    0    0 -0.32847706012E+02 -0.64969046321E+01 -0.11281217232E+02  0.35333375476E+02  0.51100000000E-03 0.  1.
        -11    1    3    3    0    0  0.16590992474E+02 -0.13381273976E+01 -0.68349237231E+01  0.17993548810E+02  0.51100000000E-03 0. -1.
         12    1    3    3    0    0 -0.23844396943E+01  0.89662507189E+01  0.16734823937E+02  0.19134616192E+02  0.00000000000E+00 0. -1.
</event>
<event>
 7    1  0.1351543E-013  0.7246154E+02  0.7816164E-02  0.1226708E+00
        -11   -1    0    0    0    0  0.00000000000E+00  0.00000000000E+00  0.45593999997E+02  0.45594000000E+02  0.51100000000E-03 0.  1.
         11   -1    0    0    0    0 -0.00000000000E+00 -0.00000000000E+00 -0.45593999997E+02  0.45594000000E+02  0.51100000000E-03 0. -1.
    9900012    2    1    2    0    0 -0.77548964514E+01  0.74264427473E+01  0.15342417920E+02  0.72461541219E+02  0.69999962124E+02 0.  0.
         12    1    1    2    0    0  0.77548964514E+01 -0.74264427473E+01 -0.15342417920E+02  0.18726458781E+02  0.00000000000E+00 0. -1.
         11    1    3    3    0    0  0.57253014704E+00  0.13717030537E+02 -0.72536955081E+01  0.15527421431E+02  0.51100000000E-03 0. -1.
        -11    1    3    3    0    0 -0.12905712316E+02 -0.11083844008E+02 -0.12567847234E+02  0.21150881606E+02  0.51100000000E-03 0.  1.
        -12    1    3    3    0    0  0.45782857174E+01  0.47932562184E+01  0.35163960662E+02  0.35783238181E+02  0.00000000000E+00 0.  1.
</event>
<event>
 7    1  0.1351543E-013  0.7246157E+02  0.7816164E-02  0.1226708E+00
        -11   -1    0    0    0    0  0.00000000000E+00  0.00000000000E+00  0.45593999997E+02  0.45594000000E+02  0.51100000000E-03 0.  1.
         11   -1    0    0    0    0 -0.00000000000E+00 -0.00000000000E+00 -0.45593999997E+02  0.45594000000E+02  0.51100000000E-03 0. -1.
    9900012    2    1    2    0    0  0.38817573348E+01  0.11882789324E+02  0.13943108652E+02  0.72461574794E+02  0.70000005861E+02 0.  0.
         12    1    1    2    0    0 -0.38817573348E+01 -0.11882789324E+02 -0.13943108652E+02  0.18726425206E+02  0.00000000000E+00 0. -1.
         11    1    3    3    0    0  0.13818636264E+02 -0.71783605355E+01  0.78405480644E+01  0.17434384486E+02  0.51100000000E-03 0. -1.
        -11    1    3    3    0    0 -0.22546378334E+02 -0.52863633088E+01  0.13265302808E+02  0.26688069841E+02  0.51100000000E-03 0.  1.
        -12    1    3    3    0    0  0.12609499405E+02  0.24347513168E+02 -0.71627422202E+01  0.28339120467E+02  0.00000000000E+00 0.  1.
</event>
<event>
 7    1  0.1351543E-013  0.7246156E+02  0.7816164E-02  0.1226708E+00
        -11   -1    0    0    0    0  0.00000000000E+00  0.00000000000E+00  0.45593999997E+02  0.45594000000E+02  0.51100000000E-03 0.  1.
         11   -1    0    0    0    0 -0.00000000000E+00 -0.00000000000E+00 -0.45593999997E+02  0.45594000000E+02  0.51100000000E-03 0. -1.
    9900012    2    1    2    0    0  0.11335154750E+02 -0.12918160153E+02  0.74374110205E+01  0.72461556728E+02  0.69999982327E+02 0.  0.
         12    1    1    2    0    0 -0.11335154750E+02  0.12918160153E+02 -0.74374110205E+01  0.18726443272E+02  0.00000000000E+00 0. -1.
         11    1    3    3    0    0 -0.16126219852E+02  0.32686482202E+01 -0.77240859031E+01  0.18176923040E+02  0.51100000000E-03 0. -1.
        -11    1    3    3    0    0  0.26314964082E+02  0.77849537531E+01  0.37054596516E+01  0.27691393447E+02  0.51100000000E-03 0.  1.
         12    1    3    3    0    0  0.11464105200E+01 -0.23971762126E+02  0.11456037272E+02  0.26593240241E+02  0.00000000000E+00 0. -1.
</event>
<event>
 7    1  0.1351543E-013  0.7246155E+02  0.7816164E-02  0.1226708E+00
        -11   -1    0    0    0    0  0.00000000000E+00  0.00000000000E+00  0.45593999997E+02  0.45594000000E+02  0.51100000000E-03 0.  1.
         11   -1    0    0    0    0 -0.00000000000E+00 -0.00000000000E+00 -0.45593999997E+02  0.45594000000E+02  0.51100000000E-03 0. -1.
    9900012    2    1    2    0    0 -0.11374575827E+02 -0.21966955168E+01  0.14713036721E+02  0.72461550898E+02  0.69999974732E+02 0.  0.
         12    1    1    2    0    0  0.11374575827E+02  0.21966955168E+01 -0.14713036721E+02  0.18726449102E+02  0.00000000000E+00 0. -1.
         11    1    3    3    0    0  0.58847730768E+01 -0.25488596151E+02 -0.62592161510E+01  0.26897525444E+02  0.51100000000E-03 0. -1.
        -11    1    3    3    0    0  0.27782217526E+01  0.19844553531E+02  0.11846497143E+02  0.23277979203E+02  0.51100000000E-03 0.  1.
         12    1    3    3    0    0 -0.20037570656E+02  0.34473471030E+01  0.91257557282E+01  0.22286046250E+02  0.00000000000E+00 0. -1.
</event>
<event>
 7    1  0.1351543E-013  0.7246163E+02  0.7816164E-02  0.1226708E+00
        -11   -1    0    0    0    0  0.00000000000E+00  0.00000000000E+00  0.45593999997E+02  0.45594000000E+02  0.51100000000E-03 0.  1.
         11   -1    0    0    0    0 -0.00000000000E+00 -0.00000000000E+00 -0.45593999997E+02  0.45594000000E+02  0.51100000000E-03 0. -1.
    9900012    2    1    2    0    0  0.18714271126E+02  0.19188662824E+00 -0.64517495128E+00  0.72461627822E+02  0.70000074940E+02 0.  0.
         12    1    1    2    0    0 -0.18714271126E+02 -0.19188662824E+00  0.64517495128E+00  0.18726372178E+02  0.00000000000E+00 0. -1.
         11    1    3    3    0    0  0.10115201583E+02 -0.13424475295E+02 -0.15854051456E+02  0.23105947023E+02  0.51100000000E-03 0. -1.
        -11    1    3    3    0    0  0.55262867862E+00  0.47444935665E+01  0.29969049402E+02  0.30347315202E+02  0.51100000000E-03 0.  1.
        -12    1    3    3    0    0  0.80464408645E+01  0.88718683565E+01 -0.14760172897E+02  0.19008365597E+02  0.00000000000E+00 0.  1.
</event>
<event>
 7    1  0.1351543E-013  0.7246159E+02  0.7816164E-02  0.1226708E+00
        -11   -1    0    0    0    0  0.00000000000E+00  0.00000000000E+00  0.45593999997E+02  0.45594000000E+02  0.51100000000E-03 0. -1.
         11   -1    0    0    0    0 -0.00000000000E+00 -0.00000000000E+00 -0.45593999997E+02  0.45594000000E+02  0.51100000000E-03 0.  1.
    9900012    2    1    2    0    0 -0.14524826702E+02  0.22694990527E+00  0.11817629049E+02  0.72461589417E+02  0.70000024911E+02 0.  0.
         12    1    1    2    0    0  0.14524826702E+02 -0.22694990527E+00 -0.11817629049E+02  0.18726410583E+02  0.00000000000E+00 0. -1.
         11    1    3    3    0    0  0.58192584800E+01 -0.86240401716E+01  0.18806514674E+02  0.21492390109E+02  0.51100000000E-03 0. -1.
        -11    1    3    3    0    0 -0.29099976949E+02  0.20238394594E+02 -0.87149040453E+01  0.36501381164E+02  0.51100000000E-03 0.  1.
        -12    1    3    3    0    0  0.87558917670E+01 -0.11387404517E+02  0.17260184204E+01  0.14467818144E+02  0.00000000000E+00 0.  1.
</event>
<event>
 7    1  0.1351543E-013  0.7246166E+02  0.7816164E-02  0.1226708E+00
        -11   -1    0    0    0    0  0.00000000000E+00  0.00000000000E+00  0.45593999997E+02  0.45594000000E+02  0.51100000000E-03 0.  1.
         11   -1    0    0    0    0 -0.00000000000E+00 -0.00000000000E+00 -0.45593999997E+02  0.45594000000E+02  0.51100000000E-03 0. -1.
    9900012    2    1    2    0    0 -0.37785835498E+01  0.84074343788E+01  0.16300706790E+02  0.72461663243E+02  0.70000121083E+02 0.  0.
         12    1    1    2    0    0  0.37785835498E+01 -0.84074343788E+01 -0.16300706790E+02  0.18726336757E+02  0.00000000000E+00 0. -1.
         11    1    3    3    0    0  0.82058234906E-01  0.18724867575E+02  0.25653131354E+02  0.31760203837E+02  0.51100000000E-03 0. -1.
        -11    1    3    3    0    0  0.74379400531E+01 -0.16437118849E+02  0.74751418375E+01  0.19528941959E+02  0.51100000000E-03 0.  1.
         12    1    3    3    0    0 -0.11298581838E+02  0.61196856528E+01 -0.16827566402E+02  0.21172517447E+02  0.00000000000E+00 0. -1.
</event>
<event>
 7    1  0.1351543E-013  0.7246152E+02  0.7816164E-02  0.1226708E+00
        -11   -1    0    0    0    0  0.00000000000E+00  0.00000000000E+00  0.45593999997E+02  0.45594000000E+02  0.51100000000E-03 0.  1.
         11   -1    0    0    0    0 -0.00000000000E+00 -0.00000000000E+00 -0.45593999997E+02  0.45594000000E+02  0.51100000000E-03 0. -1.
    9900012    2    1    2    0    0 -0.26866806150E+01 -0.20635051696E+01  0.18417507629E+02  0.72461524262E+02  0.69999940035E+02 0.  0.
         12    1    1    2    0    0  0.26866806150E+01  0.20635051696E+01 -0.18417507629E+02  0.18726475738E+02  0.00000000000E+00 0. -1.
         11    1    3    3    0    0 -0.35446706338E+02 -0.38175147766E+01  0.65845100312E+01  0.36254629799E+02  0.51100000000E-03 0. -1.
        -11    1    3    3    0    0  0.58074548978E+01  0.14126224773E+01  0.63116807614E+01  0.86924880758E+01  0.51100000000E-03 0.  1.
         12    1    3    3    0    0  0.26952570825E+02  0.34138712969E+00  0.55213168359E+01  0.27514406387E+02  0.00000000000E+00 0. -1.
</event>
<event>
 7    1  0.1351543E-013  0.7246155E+02  0.7816164E-02  0.1226708E+00
        -11   -1    0    0    0    0  0.00000000000E+00  0.00000000000E+00  0.45593999997E+02  0.45594000000E+02  0.51100000000E-03 0. -1.
         11   -1    0    0    0    0 -0.00000000000E+00 -0.00000000000E+00 -0.45593999997E+02  0.45594000000E+02  0.51100000000E-03 0.  1.
    9900012    2    1    2    0    0  0.17021711623E+02  0.70588662323E+01  0.33337329095E+01  0.72461547208E+02  0.69999969926E+02 0.  0.
         12    1    1    2    0    0 -0.17021711623E+02 -0.70588662323E+01 -0.33337329095E+01  0.18726452792E+02  0.00000000000E+00 0. -1.
         11    1    3    3    0    0  0.73733503694E+01 -0.27046866085E+02 -0.82884128200E+01  0.29233491889E+02  0.51100000000E-03 0. -1.
        -11    1    3    3    0    0  0.42824067874E+01  0.34372537314E+02  0.54822412632E+01  0.35069435394E+02  0.51100000000E-03 0.  1.
        -12    1    3    3    0    0  0.53659544659E+01 -0.26680499683E+00  0.61399044664E+01  0.81586199258E+01  0.00000000000E+00 0.  1.
</event>
<event>
 7    1  0.1351543E-013  0.7246157E+02  0.7816164E-02  0.1226708E+00
        -11   -1    0    0    0    0  0.00000000000E+00  0.00000000000E+00  0.45593999997E+02  0.45594000000E+02  0.51100000000E-03 0. -1.
         11   -1    0    0    0    0 -0.00000000000E+00 -0.00000000000E+00 -0.45593999997E+02  0.45594000000E+02  0.51100000000E-03 0.  1.
    9900012    2    1    2    0    0  0.29072769976E+01  0.96613610725E+01 -0.15776086237E+02  0.72461573371E+02  0.70000004008E+02 0.  0.
         12    1    1    2    0    0 -0.29072769976E+01 -0.96613610725E+01  0.15776086237E+02  0.18726426629E+02  0.00000000000E+00 0. -1.
         11    1    3    3    0    0  0.11433737359E+02  0.52035118821E+01  0.21540513404E+02  0.24935929978E+02  0.51100000000E-03 0. -1.
        -11    1    3    3    0    0 -0.16969613746E+02 -0.40407300978E+01 -0.21618946623E+02  0.27779023449E+02  0.51100000000E-03 0.  1.
        -12    1    3    3    0    0  0.84431533845E+01  0.84985792882E+01 -0.15697653018E+02  0.19746619945E+02  0.00000000000E+00 0.  1.
</event>
<event>
 7    1  0.1351543E-013  0.7246152E+02  0.7816164E-02  0.1226708E+00
        -11   -1    0    0    0    0  0.00000000000E+00  0.00000000000E+00  0.45593999997E+02  0.45594000000E+02  0.51100000000E-03 0. -1.
         11   -1    0    0    0    0 -0.00000000000E+00 -0.00000000000E+00 -0.45593999997E+02  0.45594000000E+02  0.51100000000E-03 0.  1.
    9900012    2    1    2    0    0 -0.48291265489E+01  0.16742169573E+02 -0.68600530686E+01  0.72461520530E+02  0.69999935173E+02 0.  0.
         12    1    1    2    0    0  0.48291265489E+01 -0.16742169573E+02  0.68600530686E+01  0.18726479470E+02  0.00000000000E+00 0. -1.
         11    1    3    3    0    0  0.18875754985E+02 -0.33415420898E+01 -0.92819195650E+01  0.21298217317E+02  0.51100000000E-03 0. -1.
        -11    1    3    3    0    0 -0.26440945932E+02  0.12686600056E+02 -0.14335112968E+02  0.32643052964E+02  0.51100000000E-03 0.  1.
         12    1    3    3    0    0  0.27360643980E+01  0.73971116066E+01  0.16756979464E+02  0.18520250249E+02  0.00000000000E+00 0. -1.
</event>
<event>
 7    1  0.1351543E-013  0.7246164E+02  0.7816164E-02  0.1226708E+00
        -11   -1    0    0    0    0  0.00000000000E+00  0.00000000000E+00  0.45593999997E+02  0.45594000000E+02  0.51100000000E-03 0.  1.
         11   -1    0    0    0    0 -0.00000000000E+00 -0.00000000000E+00 -0.45593999997E+02  0.45594000000E+02  0.51100000000E-03 0. -1.
    9900012    2    1    2    0    0 -0.18144983331E+02  0.43767951833E+01 -0.15098686257E+01  0.72461642655E+02  0.70000094263E+02 0.  0.
         12    1    1    2    0    0  0.18144983331E+02 -0.43767951833E+01  0.15098686257E+01  0.18726357345E+02  0.00000000000E+00 0. -1.
         11    1    3    3    0    0  0.10438648247E+02  0.19073440253E+02 -0.22295845131E+02  0.31142675073E+02  0.51100000000E-03 0. -1.
        -11    1    3    3    0    0 -0.67506841863E+01  0.51060865391E+00  0.11103972862E+02  0.13005024866E+02  0.51100000000E-03 0.  1.
         12    1    3    3    0    0 -0.21832947391E+02 -0.15207253724E+02  0.96820036434E+01  0.28313942716E+02  0.00000000000E+00 0. -1.
</event>
<event>
 7    1  0.1351543E-013  0.7246165E+02  0.7816164E-02  0.1226708E+00
        -11   -1    0    0    0    0  0.00000000000E+00  0.00000000000E+00  0.45593999997E+02  0.45594000000E+02  0.51100000000E-03 0.  1.
         11   -1    0    0    0    0 -0.00000000000E+00 -0.00000000000E+00 -0.45593999997E+02  0.45594000000E+02  0.51100000000E-03 0. -1.
    9900012    2    1    2    0    0 -0.85869921832E+01 -0.16340164647E+02  0.31525635405E+01  0.72461652991E+02  0.70000107727E+02 0.  0.
         12    1    1    2    0    0  0.85869921832E+01  0.16340164647E+02 -0.31525635405E+01  0.18726347009E+02  0.00000000000E+00 0. -1.
         11    1    3    3    0    0 -0.24757034631E+02 -0.96327312806E+01  0.21947114971E+02  0.34458324560E+02  0.51100000000E-03 0.  1.
        -11    1    3    3    0    0  0.14631850455E+02  0.88650654436E+01 -0.12250774368E+02  0.21041908324E+02  0.51100000000E-03 0. -1.
        -12    1    3    3    0    0  0.15381919931E+01 -0.15572498810E+02 -0.65437770632E+01  0.16961420107E+02  0.00000000000E+00 0.  1.
</event>
<event>
 7    1  0.1351543E-013  0.7246157E+02  0.7816164E-02  0.1226708E+00
        -11   -1    0    0    0    0  0.00000000000E+00  0.00000000000E+00  0.45593999997E+02  0.45594000000E+02  0.51100000000E-03 0.  1.
         11   -1    0    0    0    0 -0.00000000000E+00 -0.00000000000E+00 -0.45593999997E+02  0.45594000000E+02  0.51100000000E-03 0. -1.
    9900012    2    1    2    0    0  0.80438607684E+01  0.12670316033E+02  0.11199939085E+02  0.72461568414E+02  0.69999997550E+02 0.  0.
         12    1    1    2    0    0 -0.80438607684E+01 -0.12670316033E+02 -0.11199939085E+02  0.18726431586E+02  0.00000000000E+00 0. -1.
         11    1    3    3    0    0  0.90623703447E+01  0.22566301765E+02 -0.17582902749E+02  0.30008715417E+02  0.51100000000E-03 0. -1.
        -11    1    3    3    0    0  0.11497394523E+02 -0.57862548636E+01  0.25966857457E+02  0.28981865237E+02  0.51100000000E-03 0.  1.
        -12    1    3    3    0    0 -0.12515904099E+02 -0.41097308682E+01  0.28159843781E+01  0.13470987761E+02  0.00000000000E+00 0.  1.
</event>
<event>
 7    1  0.1351543E-013  0.7246152E+02  0.7816164E-02  0.1226708E+00
        -11   -1    0    0    0    0  0.00000000000E+00  0.00000000000E+00  0.45593999997E+02  0.45594000000E+02  0.51100000000E-03 0.  1.
         11   -1    0    0    0    0 -0.00000000000E+00 -0.00000000000E+00 -0.45593999997E+02  0.45594000000E+02  0.51100000000E-03 0. -1.
    9900012    2    1    2    0    0 -0.16176733358E+02 -0.52456863158E+01 -0.78407231981E+01  0.72461524962E+02  0.69999940947E+02 0.  0.
         12    1    1    2    0    0  0.16176733358E+02  0.52456863158E+01  0.78407231981E+01  0.18726475038E+02  0.00000000000E+00 0. -1.
         11    1    3    3    0    0  0.21852177689E+02 -0.15894145626E+02 -0.14357950186E+01  0.27059250591E+02  0.51100000000E-03 0. -1.
        -11    1    3    3    0    0 -0.19634674145E+02  0.14617795477E+02 -0.96403994302E+01  0.26308509551E+02  0.51100000000E-03 0.  1.
        -12    1    3    3    0    0 -0.18394236902E+02 -0.39693361663E+01  0.32354712507E+01  0.19093764820E+02  0.00000000000E+00 0.  1.
</event>
<event>
 7    1  0.1351543E-013  0.7246165E+02  0.7816164E-02  0.1226708E+00
        -11   -1    0    0    0    0  0.00000000000E+00  0.00000000000E+00  0.45593999997E+02  0.45594000000E+02  0.51100000000E-03 0.  1.
         11   -1    0    0    0    0 -0.00000000000E+00 -0.00000000000E+00 -0.45593999997E+02  0.45594000000E+02  0.51100000000E-03 0. -1.
    9900012    2    1    2    0    0  0.99130397049E+01  0.66470475575E+01  0.14429992804E+02  0.72461647185E+02  0.70000100165E+02 0.  0.
         12    1    1    2    0    0 -0.99130397049E+01 -0.66470475575E+01 -0.14429992804E+02  0.18726352815E+02  0.00000000000E+00 0. -1.
         11    1    3    3    0    0 -0.15182496295E+02 -0.46857645863E+01 -0.13605047345E+02  0.20917980234E+02  0.51100000000E-03 0. -1.
        -11    1    3    3    0    0  0.27217606998E+02 -0.34390364204E+01  0.12995178325E+02  0.30356214556E+02  0.51100000000E-03 0.  1.
        -12    1    3    3    0    0 -0.21220709982E+01  0.14771848564E+02  0.15039861824E+02  0.21187452396E+02  0.00000000000E+00 0.  1.
</event>
<event>
 7    1  0.1351543E-013  0.7246155E+02  0.7816164E-02  0.1226708E+00
        -11   -1    0    0    0    0  0.00000000000E+00  0.00000000000E+00  0.45593999997E+02  0.45594000000E+02  0.51100000000E-03 0.  1.
         11   -1    0    0    0    0 -0.00000000000E+00 -0.00000000000E+00 -0.45593999997E+02  0.45594000000E+02  0.51100000000E-03 0. -1.
    9900012    2    1    2    0    0 -0.11404408306E+02 -0.11535278958E+02  0.93571731926E+01  0.72461551335E+02  0.69999975302E+02 0.  0.
         12    1    1    2    0    0  0.11404408306E+02  0.11535278958E+02 -0.93571731926E+01  0.18726448665E+02  0.00000000000E+00 0. -1.
         11    1    3    3    0    0 -0.23829909853E+02 -0.27595200847E+02  0.31618289719E+01  0.36597224978E+02  0.51100000000E-03 0.  1.
        -11    1    3    3    0    0  0.44173811534E+01  0.22637560691E+02 -0.12586608316E+01  0.23098844941E+02  0.51100000000E-03 0. -1.
         12    1    3    3    0    0  0.80081203940E+01 -0.65776388019E+01  0.74540050523E+01  0.12765481416E+02  0.00000000000E+00 0. -1.
</event>
<event>
 7    1  0.1351543E-013  0.7246152E+02  0.7816164E-02  0.1226708E+00
        -11   -1    0    0    0    0  0.00000000000E+00  0.00000000000E+00  0.45593999997E+02  0.45594000000E+02  0.51100000000E-03 0.  1.
         11   -1    0    0    0    0 -0.00000000000E+00 -0.00000000000E+00 -0.45593999997E+02  0.45594000000E+02  0.51100000000E-03 0. -1.
    9900012    2    1    2    0    0  0.13004258963E+02  0.64673715278E+01 -0.11821313058E+02  0.72461519069E+02  0.69999933269E+02 0.  0.
         12    1    1    2    0    0 -0.13004258963E+02 -0.64673715278E+01  0.11821313058E+02  0.18726480931E+02  0.00000000000E+00 0. -1.
         11    1    3    3    0    0 -0.14345864717E+02 -0.37597202040E+01 -0.42995781931E+00  0.14836582979E+02  0.51100000000E-03 0. -1.
        -11    1    3    3    0    0  0.33851258582E+02  0.16087353194E+02 -0.22320966600E+02  0.43622656849E+02  0.51100000000E-03 0.  1.
        -12    1    3    3    0    0 -0.65011349018E+01 -0.58602614624E+01  0.10929611361E+02  0.14002279241E+02  0.00000000000E+00 0.  1.
</event>
<event>
 7    1  0.1351543E-013  0.7246204E+02  0.7816164E-02  0.1226707E+00
        -11   -1    0    0    0    0  0.00000000000E+00  0.00000000000E+00  0.45593999997E+02  0.45594000000E+02  0.51100000000E-03 0.  1.
         11   -1    0    0    0    0 -0.00000000000E+00 -0.00000000000E+00 -0.45593999997E+02  0.45594000000E+02  0.51100000000E-03 0. -1.
    9900012    2    1    2    0    0 -0.33814431542E+01  0.18371458037E+02  0.13102759951E+01  0.72462043379E+02  0.70000616277E+02 0.  0.
         12    1    1    2    0    0  0.33814431542E+01 -0.18371458037E+02 -0.13102759951E+01  0.18725956621E+02  0.00000000000E+00 0. -1.
         11    1    3    3    0    0  0.20029286002E+02  0.22453269512E+02  0.13090836788E+02  0.32812979408E+02  0.51100000000E-03 0. -1.
        -11    1    3    3    0    0 -0.38995922371E+01 -0.11865126044E+02  0.42843389590E+01  0.13203923517E+02  0.51100000000E-03 0.  1.
         12    1    3    3    0    0 -0.19511136919E+02  0.77833145692E+01 -0.16064899752E+02  0.26445140454E+02  0.00000000000E+00 0. -1.
</event>
<event>
 7    1  0.1351543E-013  0.7246155E+02  0.7816164E-02  0.1226708E+00
        -11   -1    0    0    0    0  0.00000000000E+00  0.00000000000E+00  0.45593999997E+02  0.45594000000E+02  0.51100000000E-03 0. -1.
         11   -1    0    0    0    0 -0.00000000000E+00 -0.00000000000E+00 -0.45593999997E+02  0.45594000000E+02  0.51100000000E-03 0.  1.
    9900012    2    1    2    0    0  0.74857934309E+01 -0.11481691427E+02 -0.12759837186E+02  0.72461553826E+02  0.69999978547E+02 0.  0.
         12    1    1    2    0    0 -0.74857934309E+01  0.11481691427E+02  0.12759837186E+02  0.18726446174E+02  0.00000000000E+00 0. -1.
         11    1    3    3    0    0 -0.20488030761E+02  0.13540446561E+02  0.29435082181E-01  0.24558175100E+02  0.51100000000E-03 0. -1.
        -11    1    3    3    0    0  0.32641535959E+02 -0.19421953269E+02 -0.70647530817E+01  0.38634089544E+02  0.51100000000E-03 0.  1.
         12    1    3    3    0    0 -0.46677117668E+01 -0.56001847190E+01 -0.57245191861E+01  0.92692891819E+01  0.00000000000E+00 0. -1.
</event>
<event>
 7    1  0.1351543E-013  0.7246161E+02  0.7816164E-02  0.1226708E+00
        -11   -1    0    0    0    0  0.00000000000E+00  0.00000000000E+00  0.45593999997E+02  0.45594000000E+02  0.51100000000E-03 0.  1.
         11   -1    0    0    0    0 -0.00000000000E+00 -0.00000000000E+00 -0.45593999997E+02  0.45594000000E+02  0.51100000000E-03 0. -1.
    9900012    2    1    2    0    0  0.10950418667E+01 -0.62084342685E+01  0.17633320824E+02  0.72461607501E+02  0.70000048469E+02 0.  0.
         12    1    1    2    0    0 -0.10950418667E+01  0.62084342685E+01 -0.17633320824E+02  0.18726392499E+02  0.00000000000E+00 0. -1.
         11    1    3    3    0    0  0.24519470679E+00 -0.23319794179E+02  0.86411358897E+01  0.24870507649E+02  0.51100000000E-03 0. -1.
        -11    1    3    3    0    0 -0.18687195026E+02  0.19345093437E+02  0.31706168776E+01  0.27083144383E+02  0.51100000000E-03 0.  1.
        -12    1    3    3    0    0  0.19537042186E+02 -0.22337335263E+01  0.58215680562E+01  0.20507955468E+02  0.00000000000E+00 0.  1.
</event>
<event>
 7    1  0.1351543E-013  0.7246157E+02  0.7816164E-02  0.1226708E+00
        -11   -1    0    0    0    0  0.00000000000E+00  0.00000000000E+00  0.45593999997E+02  0.45594000000E+02  0.51100000000E-03 0.  1.
         11   -1    0    0    0    0 -0.00000000000E+00 -0.00000000000E+00 -0.45593999997E+02  0.45594000000E+02  0.51100000000E-03 0. -1.
    9900012    2    1    2    0    0  0.32689035460E+01 -0.17664546262E+02  0.52874479513E+01  0.72461573996E+02  0.70000004822E+02 0.  0.
         12    1    1    2    0    0 -0.32689035460E+01  0.17664546262E+02 -0.52874479513E+01  0.18726426004E+02  0.00000000000E+00 0. -1.
         11    1    3    3    0    0 -0.81786327473E+01 -0.22181981981E+02 -0.22472469759E+02  0.32618127714E+02  0.51100000000E-03 0. -1.
        -11    1    3    3    0    0  0.24134378662E+01 -0.10101188935E+02  0.15795427615E+02  0.18903815330E+02  0.51100000000E-03 0.  1.
         12    1    3    3    0    0  0.90340984271E+01  0.14618624654E+02  0.11964490095E+02  0.20939630952E+02  0.00000000000E+00 0. -1.
</event>
<event>
 7    1  0.1351543E-013  0.7246157E+02  0.7816164E-02  0.1226708E+00
        -11   -1    0    0    0    0  0.00000000000E+00  0.00000000000E+00  0.45593999997E+02  0.45594000000E+02  0.51100000000E-03 0.  1.
         11   -1    0    0    0    0 -0.00000000000E+00 -0.00000000000E+00 -0.45593999997E+02  0.45594000000E+02  0.51100000000E-03 0. -1.
    9900012    2    1    2    0    0  0.14784582100E+02  0.11302441122E+02  0.20857063540E+01  0.72461569102E+02  0.69999998447E+02 0.  0.
         12    1    1    2    0    0 -0.14784582100E+02 -0.11302441122E+02 -0.20857063540E+01  0.18726430898E+02  0.00000000000E+00 0. -1.
         11    1    3    3    0    0 -0.16449668386E+02 -0.17700358147E+01 -0.10111926518E+02  0.19390092186E+02  0.51100000000E-03 0. -1.
        -11    1    3    3    0    0  0.27316801185E+02 -0.44222890495E+01 -0.51236466088E+01  0.28142779220E+02  0.51100000000E-03 0.  1.
         12    1    3    3    0    0  0.39174493011E+01  0.17494765986E+02  0.17321279481E+02  0.24928697696E+02  0.00000000000E+00 0. -1.
</event>
<event>
 7    1  0.1351543E-013  0.7246148E+02  0.7816164E-02  0.1226708E+00
        -11   -1    0    0    0    0  0.00000000000E+00  0.00000000000E+00  0.45593999997E+02  0.45594000000E+02  0.51100000000E-03 0.  1.
         11   -1    0    0    0    0 -0.00000000000E+00 -0.00000000000E+00 -0.45593999997E+02  0.45594000000E+02  0.51100000000E-03 0. -1.
    9900012    2    1    2    0    0 -0.12457110849E+02 -0.50182397486E+01  0.13050678126E+02  0.72461480291E+02  0.69999882753E+02 0.  0.
         12    1    1    2    0    0  0.12457110849E+02  0.50182397486E+01 -0.13050678126E+02  0.18726519709E+02  0.00000000000E+00 0. -1.
         11    1    3    3    0    0  0.24262373123E+02 -0.73623076671E+01  0.63335271529E+01  0.26133883948E+02  0.51100000000E-03 0. -1.
        -11    1    3    3    0    0 -0.17743535768E+02  0.87434974670E+01  0.14827981957E+02  0.24721465545E+02  0.51100000000E-03 0.  1.
         12    1    3    3    0    0 -0.18975948204E+02 -0.63994295485E+01 -0.81108309843E+01  0.21606130798E+02  0.00000000000E+00 0. -1.
</event>
<event>
 7    1  0.1351543E-013  0.7246159E+02  0.7816164E-02  0.1226708E+00
        -11   -1    0    0    0    0  0.00000000000E+00  0.00000000000E+00  0.45593999997E+02  0.45594000000E+02  0.51100000000E-03 0. -1.
         11   -1    0    0    0    0 -0.00000000000E+00 -0.00000000000E+00 -0.45593999997E+02  0.45594000000E+02  0.51100000000E-03 0.  1.
    9900012    2    1    2    0    0  0.13369288284E+02  0.12966595791E+02  0.19513761615E+01  0.72461592321E+02  0.70000028694E+02 0.  0.
         12    1    1    2    0    0 -0.13369288284E+02 -0.12966595791E+02 -0.19513761615E+01  0.18726407679E+02  0.00000000000E+00 0. -1.
         11    1    3    3    0    0  0.22443338794E+02  0.60510075959E+01  0.15946022201E+02  0.28188539753E+02  0.51100000000E-03 0. -1.
        -11    1    3    3    0    0 -0.13170900260E+01 -0.15446497874E+02 -0.13565675799E+02  0.20599917060E+02  0.51100000000E-03 0.  1.
        -12    1    3    3    0    0 -0.77569604836E+01  0.22362086069E+02 -0.42897024031E+00  0.23673135508E+02  0.00000000000E+00 0.  1.
</event>
<event>
 7    1  0.1351543E-013  0.7246162E+02  0.7816164E-02  0.1226708E+00
        -11   -1    0    0    0    0  0.00000000000E+00  0.00000000000E+00  0.45593999997E+02  0.45594000000E+02  0.51100000000E-03 0. -1.
         11   -1    0    0    0    0 -0.00000000000E+00 -0.00000000000E+00 -0.45593999997E+02  0.45594000000E+02  0.51100000000E-03 0.  1.
    9900012    2    1    2    0    0  0.22252537911E+01 -0.16991850256E+02  0.75499930960E+01  0.72461624875E+02  0.70000071102E+02 0.  0.
         12    1    1    2    0    0 -0.22252537911E+01  0.16991850256E+02 -0.75499930960E+01  0.18726375125E+02  0.00000000000E+00 0. -1.
         11    1    3    3    0    0 -0.78686079035E+01 -0.91265253711E+01  0.18710914186E+02  0.22255488438E+02  0.51100000000E-03 0. -1.
        -11    1    3    3    0    0  0.28684244190E+02 -0.12197611151E+01 -0.30839337120E+01  0.28875323883E+02  0.51100000000E-03 0.  1.
        -12    1    3    3    0    0 -0.18590382495E+02 -0.66455637699E+01 -0.80769873778E+01  0.21330812555E+02  0.00000000000E+00 0.  1.
</event>
<event>
 7    1  0.1351543E-013  0.7246144E+02  0.7816164E-02  0.1226708E+00
        -11   -1    0    0    0    0  0.00000000000E+00  0.00000000000E+00  0.45593999997E+02  0.45594000000E+02  0.51100000000E-03 0.  1.
         11   -1    0    0    0    0 -0.00000000000E+00 -0.00000000000E+00 -0.45593999997E+02  0.45594000000E+02  0.51100000000E-03 0. -1.
    9900012    2    1    2    0    0  0.54976417815E+01  0.17897120817E+02 -0.39109847445E+00  0.72461442476E+02  0.69999833492E+02 0.  0.
         12    1    1    2    0    0 -0.54976417815E+01 -0.17897120817E+02  0.39109847445E+00  0.18726557524E+02  0.00000000000E+00 0. -1.
         11    1    3    3    0    0  0.24030246877E+02 -0.11227263091E+02 -0.12585928375E+02  0.29358300271E+02  0.51100000000E-03 0.  1.
        -11    1    3    3    0    0 -0.19916825666E+02  0.25314497255E+02  0.17317664935E+02  0.36570551472E+02  0.51100000000E-03 0. -1.
         12    1    3    3    0    0  0.13842205710E+01  0.38098866529E+01 -0.51228350347E+01  0.65325907334E+01  0.00000000000E+00 0. -1.
</event>
<event>
 7    1  0.1351543E-013  0.7246157E+02  0.7816164E-02  0.1226708E+00
        -11   -1    0    0    0    0  0.00000000000E+00  0.00000000000E+00  0.45593999997E+02  0.45594000000E+02  0.51100000000E-03 0. -1.
         11   -1    0    0    0    0 -0.00000000000E+00 -0.00000000000E+00 -0.45593999997E+02  0.45594000000E+02  0.51100000000E-03 0.  1.
    9900012    2    1    2    0    0  0.14546791064E+02  0.25186296318E+01  0.11520696042E+02  0.72461573144E+02  0.70000003713E+02 0.  0.
         12    1    1    2    0    0 -0.14546791064E+02 -0.25186296318E+01 -0.11520696042E+02  0.18726426856E+02  0.00000000000E+00 0. -1.
         11    1    3    3    0    0 -0.19686849025E+02 -0.27385268751E+01  0.12844327093E+02  0.23665339480E+02  0.51100000000E-03 0. -1.
        -11    1    3    3    0    0  0.26461494040E+02  0.18529500427E+02  0.39320794461E+01  0.32542499934E+02  0.51100000000E-03 0.  1.
         12    1    3    3    0    0  0.77721460489E+01 -0.13272343920E+02 -0.52557104962E+01  0.16253733730E+02  0.00000000000E+00 0. -1.
</event>
<event>
 7    1  0.1351543E-013  0.7246155E+02  0.7816164E-02  0.1226708E+00
        -11   -1    0    0    0    0  0.00000000000E+00  0.00000000000E+00  0.45593999997E+02  0.45594000000E+02  0.51100000000E-03 0. -1.
         11   -1    0    0    0    0 -0.00000000000E+00 -0.00000000000E+00 -0.45593999997E+02  0.45594000000E+02  0.51100000000E-03 0.  1.
    9900012    2    1    2    0    0  0.63971285976E+01  0.15459180999E+02 -0.84125130853E+01  0.72461550580E+02  0.69999974319E+02 0.  0.
         12    1    1    2    0    0 -0.63971285976E+01 -0.15459180999E+02  0.84125130853E+01  0.18726449420E+02  0.00000000000E+00 0. -1.
         11    1    3    3    0    0  0.86736754121E+01 -0.14049123802E+02 -0.59785196177E+00  0.16521741796E+02  0.51100000000E-03 0. -1.
        -11    1    3    3    0    0  0.47690788159E+01  0.40477183766E+02 -0.32944455517E-01  0.40757178558E+02  0.51100000000E-03 0.  1.
        -12    1    3    3    0    0 -0.70456256304E+01 -0.10968878965E+02 -0.77817166680E+01  0.15182630226E+02  0.00000000000E+00 0.  1.
</event>
<event>
 7    1  0.1351543E-013  0.7246161E+02  0.7816164E-02  0.1226708E+00
        -11   -1    0    0    0    0  0.00000000000E+00  0.00000000000E+00  0.45593999997E+02  0.45594000000E+02  0.51100000000E-03 0.  1.
         11   -1    0    0    0    0 -0.00000000000E+00 -0.00000000000E+00 -0.45593999997E+02  0.45594000000E+02  0.51100000000E-03 0. -1.
    9900012    2    1    2    0    0 -0.17796452833E+02  0.43108118825E+01  0.39218503834E+01  0.72461608384E+02  0.70000049619E+02 0.  0.
         12    1    1    2    0    0  0.17796452833E+02 -0.43108118825E+01 -0.39218503834E+01  0.18726391616E+02  0.00000000000E+00 0. -1.
         11    1    3    3    0    0  0.15785829439E+02 -0.85919301734E+01 -0.10454174148E+02  0.20791907863E+02  0.51100000000E-03 0. -1.
        -11    1    3    3    0    0 -0.30581952727E+02  0.67454114099E+01 -0.44544131050E+01  0.31632233624E+02  0.51100000000E-03 0.  1.
        -12    1    3    3    0    0 -0.30003295459E+01  0.61573306459E+01  0.18830437636E+02  0.20037466897E+02  0.00000000000E+00 0.  1.
</event>
<event>
 7    1  0.1351543E-013  0.7246160E+02  0.7816164E-02  0.1226708E+00
        -11   -1    0    0    0    0  0.00000000000E+00  0.00000000000E+00  0.45593999997E+02  0.45594000000E+02  0.51100000000E-03 0. -1.
         11   -1    0    0    0    0 -0.00000000000E+00 -0.00000000000E+00 -0.45593999997E+02  0.45594000000E+02  0.51100000000E-03 0.  1.
    9900012    2    1    2    0    0  0.15650117594E+02 -0.34717600871E+01 -0.96798173050E+01  0.72461597199E+02  0.70000035049E+02 0.  0.
         12    1    1    2    0    0 -0.15650117594E+02  0.34717600871E+01  0.96798173050E+01  0.18726402801E+02  0.00000000000E+00 0. -1.
         11    1    3    3    0    0  0.31135633815E+02 -0.90777338771E+01 -0.15559599839E+01  0.32469277127E+02  0.51100000000E-03 0. -1.
        -11    1    3    3    0    0 -0.15462665387E+02 -0.13011954505E+02 -0.16312106319E+01  0.20274758428E+02  0.51100000000E-03 0.  1.
        -12    1    3    3    0    0 -0.22850834325E-01  0.18617928295E+02 -0.64926466892E+01  0.19717561645E+02  0.00000000000E+00 0.  1.
</event>
<event>
 7    1  0.1351543E-013  0.7246155E+02  0.7816164E-02  0.1226708E+00
        -11   -1    0    0    0    0  0.00000000000E+00  0.00000000000E+00  0.45593999997E+02  0.45594000000E+02  0.51100000000E-03 0. -1.
         11   -1    0    0    0    0 -0.00000000000E+00 -0.00000000000E+00 -0.45593999997E+02  0.45594000000E+02  0.51100000000E-03 0.  1.
    9900012    2    1    2    0    0  0.18400537900E+02  0.19108881392E+01 -0.29066620733E+01  0.72461548844E+02  0.69999972057E+02 0.  0.
         12    1    1    2    0    0 -0.18400537900E+02 -0.19108881392E+01  0.29066620733E+01  0.18726451156E+02  0.00000000000E+00 0. -1.
         11    1    3    3    0    0  0.15415124012E+01  0.10758575382E+02  0.46543468201E+01  0.11823119272E+02  0.51100000000E-03 0. -1.
        -11    1    3    3    0    0  0.17452646352E+02 -0.30845448323E+02 -0.13370307610E+02  0.37878776020E+02  0.51100000000E-03 0.  1.
        -12    1    3    3    0    0 -0.59362085361E+00  0.21997761080E+02  0.58092987170E+01  0.22759653552E+02  0.00000000000E+00 0.  1.
</event>
<event>
 7    1  0.1722151E-013  0.7246157E+02  0.7816164E-02  0.1226708E+00
        -11   -1    0    0    0    0  0.00000000000E+00  0.00000000000E+00  0.45593999997E+02  0.45594000000E+02  0.51100000000E-03 0.  1.
         11   -1    0    0    0    0 -0.00000000000E+00 -0.00000000000E+00 -0.45593999997E+02  0.45594000000E+02  0.51100000000E-03 0. -1.
    9900012    2    1    2    0    0 -0.15996248109E+02 -0.87772844355E+01  0.42140730838E+01  0.72461572482E+02  0.70000002850E+02 0.  0.
         12    1    1    2    0    0  0.15996248109E+02  0.87772844355E+01 -0.42140730838E+01  0.18726427518E+02  0.00000000000E+00 0. -1.
         11    1    3    3    0    0 -0.49004985858E+01  0.17627387378E+02  0.20729215617E+02  0.27648509047E+02  0.51100000000E-03 0. -1.
        -11    1    3    3    0    0 -0.15078446071E+02 -0.20717183478E+02  0.13369004581E+01  0.25658303340E+02  0.51100000000E-03 0.  1.
         12    1    3    3    0    0  0.39826965486E+01 -0.56874883360E+01 -0.17852042991E+02  0.19154760096E+02  0.00000000000E+00 0. -1.
</event>
<event>
 7    1  0.1351543E-013  0.7246162E+02  0.7816164E-02  0.1226708E+00
        -11   -1    0    0    0    0  0.00000000000E+00  0.00000000000E+00  0.45593999997E+02  0.45594000000E+02  0.51100000000E-03 0.  1.
         11   -1    0    0    0    0 -0.00000000000E+00 -0.00000000000E+00 -0.45593999997E+02  0.45594000000E+02  0.51100000000E-03 0. -1.
    9900012    2    1    2    0    0 -0.67681348216E+01  0.17423781561E+02  0.11320966246E+01  0.72461616056E+02  0.70000059613E+02 0.  0.
         12    1    1    2    0    0  0.67681348216E+01 -0.17423781561E+02 -0.11320966246E+01  0.18726383944E+02  0.00000000000E+00 0. -1.
         11    1    3    3    0    0  0.11148237380E+02 -0.81614168393E+00 -0.22481810540E+02  0.25107391130E+02  0.51100000000E-03 0. -1.
        -11    1    3    3    0    0  0.41189933344E+01  0.18001090767E+02  0.69681742504E+01  0.19737295345E+02  0.51100000000E-03 0.  1.
         12    1    3    3    0    0 -0.22035365536E+02  0.23883247749E+00  0.16645732914E+02  0.27616929581E+02  0.00000000000E+00 0. -1.
</event>
<event>
 7    1  0.1351543E-013  0.7246153E+02  0.7816164E-02  0.1226708E+00
        -11   -1    0    0    0    0  0.00000000000E+00  0.00000000000E+00  0.45593999997E+02  0.45594000000E+02  0.51100000000E-03 0.  1.
         11   -1    0    0    0    0 -0.00000000000E+00 -0.00000000000E+00 -0.45593999997E+02  0.45594000000E+02  0.51100000000E-03 0. -1.
    9900012    2    1    2    0    0  0.46637702411E+01  0.38522741997E+01  0.17722578365E+02  0.72461533348E+02  0.69999951870E+02 0.  0.
         12    1    1    2    0    0 -0.46637702411E+01 -0.38522741997E+01 -0.17722578365E+02  0.18726466652E+02  0.00000000000E+00 0. -1.
         11    1    3    3    0    0  0.24177371405E+02 -0.12493222234E+02  0.88742164574E+01  0.28624772625E+02  0.51100000000E-03 0. -1.
        -11    1    3    3    0    0 -0.91869733598E+01  0.21061652265E+02  0.18052860242E+02  0.29221557775E+02  0.51100000000E-03 0.  1.
        -12    1    3    3    0    0 -0.10326627804E+02 -0.47161558306E+01 -0.92044983344E+01  0.14615202948E+02  0.00000000000E+00 0.  1.
</event>
<event>
 7    1  0.1351543E-013  0.7246159E+02  0.7816164E-02  0.1226708E+00
        -11   -1    0    0    0    0  0.00000000000E+00  0.00000000000E+00  0.45593999997E+02  0.45594000000E+02  0.51100000000E-03 0.  1.
         11   -1    0    0    0    0 -0.00000000000E+00 -0.00000000000E+00 -0.45593999997E+02  0.45594000000E+02  0.51100000000E-03 0. -1.
    9900012    2    1    2    0    0 -0.15806442126E+02  0.13884453870E+01 -0.99452048329E+01  0.72461588373E+02  0.70000023551E+02 0.  0.
         12    1    1    2    0    0  0.15806442126E+02 -0.13884453870E+01  0.99452048329E+01  0.18726411627E+02  0.00000000000E+00 0. -1.
         11    1    3    3    0    0 -0.14061032896E+02  0.12552564587E+02 -0.85303586935E+01  0.20689285718E+02  0.51100000000E-03 0. -1.
        -11    1    3    3    0    0 -0.14418718359E+02 -0.21046592219E+02  0.14340859460E+02  0.29266341307E+02  0.51100000000E-03 0.  1.
        -12    1    3    3    0    0  0.12673309129E+02  0.98824730191E+01 -0.15755705600E+02  0.22505961348E+02  0.00000000000E+00 0.  1.
</event>
<event>
 7    1  0.1351543E-013  0.7246152E+02  0.7816164E-02  0.1226708E+00
        -11   -1    0    0    0    0  0.00000000000E+00  0.00000000000E+00  0.45593999997E+02  0.45594000000E+02  0.51100000000E-03 0.  1.
         11   -1    0    0    0    0 -0.00000000000E+00 -0.00000000000E+00 -0.45593999997E+02  0.45594000000E+02  0.51100000000E-03 0. -1.
    9900012    2    1    2    0    0  0.86628296103E+01  0.16569614229E+02 -0.10413258222E+01  0.72461518964E+02  0.69999933132E+02 0.  0.
         12    1    1    2    0    0 -0.86628296103E+01 -0.16569614229E+02  0.10413258222E+01  0.18726481036E+02  0.00000000000E+00 0. -1.
         11    1    3    3    0    0  0.87401214334E+01 -0.89449497773E+01 -0.36003271632E+01  0.13014000351E+02  0.51100000000E-03 0. -1.
        -11    1    3    3    0    0 -0.22698212803E+02  0.27109897818E+02  0.77200427649E+01  0.36190530318E+02  0.51100000000E-03 0.  1.
        -12    1    3    3    0    0  0.22620920980E+02 -0.15953338121E+01 -0.51610414239E+01  0.23256988295E+02  0.00000000000E+00 0.  1.
</event>
<event>
 7    1  0.1351543E-013  0.7246148E+02  0.7816164E-02  0.1226708E+00
        -11   -1    0    0    0    0  0.00000000000E+00  0.00000000000E+00  0.45593999997E+02  0.45594000000E+02  0.51100000000E-03 0. -1.
         11   -1    0    0    0    0 -0.00000000000E+00 -0.00000000000E+00 -0.45593999997E+02  0.45594000000E+02  0.51100000000E-03 0.  1.
    9900012    2    1    2    0    0 -0.11527757219E+02 -0.10228350640E+02 -0.10638336242E+02  0.72461480267E+02  0.69999882722E+02 0.  0.
         12    1    1    2    0    0  0.11527757219E+02  0.10228350640E+02  0.10638336242E+02  0.18726519733E+02  0.00000000000E+00 0. -1.
         11    1    3    3    0    0  0.11331261628E+02 -0.16252501315E+01  0.25516791723E+01  0.11728170997E+02  0.51100000000E-03 0. -1.
        -11    1    3    3    0    0 -0.25763441960E+01 -0.20149878711E+01 -0.32078812502E+02  0.32245122691E+02  0.51100000000E-03 0.  1.
        -12    1    3    3    0    0 -0.20282674652E+02 -0.65881126372E+01  0.18888797088E+02  0.28488186579E+02  0.00000000000E+00 0.  1.
</event>
<event>
 7    1  0.1351543E-013  0.7246157E+02  0.7816164E-02  0.1226708E+00
        -11   -1    0    0    0    0  0.00000000000E+00  0.00000000000E+00  0.45593999997E+02  0.45594000000E+02  0.51100000000E-03 0.  1.
         11   -1    0    0    0    0 -0.00000000000E+00 -0.00000000000E+00 -0.45593999997E+02  0.45594000000E+02  0.51100000000E-03 0. -1.
    9900012    2    1    2    0    0  0.11656765376E+02  0.14544667740E+02 -0.18032133804E+01  0.72461571692E+02  0.70000001820E+02 0.  0.
         12    1    1    2    0    0 -0.11656765376E+02 -0.14544667740E+02  0.18032133804E+01  0.18726428308E+02  0.00000000000E+00 0. -1.
         11    1    3    3    0    0  0.14740114661E+02 -0.14870526561E+02 -0.18336269591E+02  0.27832037712E+02  0.51100000000E-03 0. -1.
        -11    1    3    3    0    0 -0.87140835778E+01  0.23645614975E+01  0.14296042003E+02  0.16908672949E+02  0.51100000000E-03 0.  1.
        -12    1    3    3    0    0  0.56307342926E+01  0.27050632804E+02  0.22370142073E+01  0.27720861031E+02  0.00000000000E+00 0.  1.
</event>
<event>
 7    1  0.1351543E-013  0.7246149E+02  0.7816164E-02  0.1226708E+00
        -11   -1    0    0    0    0  0.00000000000E+00  0.00000000000E+00  0.45593999997E+02  0.45594000000E+02  0.51100000000E-03 0. -1.
         11   -1    0    0    0    0 -0.00000000000E+00 -0.00000000000E+00 -0.45593999997E+02  0.45594000000E+02  0.51100000000E-03 0.  1.
    9900012    2    1    2    0    0  0.92273383781E+00 -0.93855212144E+01 -0.16178460554E+02  0.72461493863E+02  0.69999900434E+02 0.  0.
         12    1    1    2    0    0 -0.92273383781E+00  0.93855212144E+01  0.16178460554E+02  0.18726506137E+02  0.00000000000E+00 0. -1.
         11    1    3    3    0    0 -0.56474197251E+01 -0.30710324082E+01  0.82280234203E+01  0.10441501773E+02  0.51100000000E-03 0. -1.
        -11    1    3    3    0    0  0.30202584744E+02 -0.12341722222E+02 -0.13970096438E+02  0.35491940316E+02  0.51100000000E-03 0.  1.
        -12    1    3    3    0    0 -0.23632431181E+02  0.60272334158E+01 -0.10436387536E+02  0.26528051775E+02  0.00000000000E+00 0.  1.
</event>
<event>
 7    1  0.1351543E-013  0.7246157E+02  0.7816164E-02  0.1226708E+00
        -11   -1    0    0    0    0  0.00000000000E+00  0.00000000000E+00  0.45593999997E+02  0.45594000000E+02  0.51100000000E-03 0. -1.
         11   -1    0    0    0    0 -0.00000000000E+00 -0.00000000000E+00 -0.45593999997E+02  0.45594000000E+02  0.51100000000E-03 0.  1.
    9900012    2    1    2    0    0 -0.17424354401E+01 -0.21144246908E+01 -0.18524912683E+02  0.72461567800E+02  0.69999996751E+02 0.  0.
         12    1    1    2    0    0  0.17424354401E+01  0.21144246908E+01  0.18524912683E+02  0.18726432200E+02  0.00000000000E+00 0. -1.
         11    1    3    3    0    0  0.26112909433E+02  0.11296217658E+02 -0.24045478693E+01  0.28552940709E+02  0.51100000000E-03 0. -1.
        -11    1    3    3    0    0 -0.18397076295E+02  0.56878098389E+01 -0.10192447272E+02  0.21787371999E+02  0.51100000000E-03 0.  1.
         12    1    3    3    0    0 -0.94582685781E+01 -0.19098452187E+02 -0.59279175408E+01  0.22121255091E+02  0.00000000000E+00 0. -1.
</event>
<event>
 7    1  0.1351543E-013  0.7246152E+02  0.7816164E-02  0.1226708E+00
        -11   -1    0    0    0    0  0.00000000000E+00  0.00000000000E+00  0.45593999997E+02  0.45594000000E+02  0.51100000000E-03 0. -1.
         11   -1    0    0    0    0 -0.00000000000E+00 -0.00000000000E+00 -0.45593999997E+02  0.45594000000E+02  0.51100000000E-03 0.  1.
    9900012    2    1    2    0    0  0.82654216010E+01  0.12376410646E+02  0.11366104910E+02  0.72461519403E+02  0.69999933705E+02 0.  0.
         12    1    1    2    0    0 -0.82654216010E+01 -0.12376410646E+02 -0.11366104910E+02  0.18726480597E+02  0.00000000000E+00 0. -1.
         11    1    3    3    0    0  0.24111183892E+02  0.18350800124E+02  0.21758466571E+02  0.37303242777E+02  0.51100000000E-03 0. -1.
        -11    1    3    3    0    0 -0.70616260912E+01 -0.72435420076E+01  0.91845184841E+01  0.13663485789E+02  0.51100000000E-03 0.  1.
         12    1    3    3    0    0 -0.87841361999E+01  0.12691525292E+01 -0.19576880145E+02  0.21494790837E+02  0.00000000000E+00 0. -1.
</event>
<event>
 7    1  0.1351543E-013  0.7246158E+02  0.7816164E-02  0.1226708E+00
        -11   -1    0    0    0    0  0.00000000000E+00  0.00000000000E+00  0.45593999997E+02  0.45594000000E+02  0.51100000000E-03 0.  1.
         11   -1    0    0    0    0 -0.00000000000E+00 -0.00000000000E+00 -0.45593999997E+02  0.45594000000E+02  0.51100000000E-03 0. -1.
    9900012    2    1    2    0    0 -0.11953168626E+02 -0.13460828428E+02  0.51581716076E+01  0.72461578119E+02  0.70000010192E+02 0.  0.
         12    1    1    2    0    0  0.11953168626E+02  0.13460828428E+02 -0.51581716076E+01  0.18726421881E+02  0.00000000000E+00 0. -1.
         11    1    3    3    0    0  0.23674554722E+02 -0.10880098051E+02 -0.13489810422E+02  0.29340007845E+02  0.51100000000E-03 0.  1.
        -11    1    3    3    0    0 -0.24895636550E+02  0.49571900218E+01  0.15097214409E+02  0.29534595567E+02  0.51100000000E-03 0. -1.
        -12    1    3    3    0    0 -0.10732086797E+02 -0.75379203982E+01  0.35507676210E+01  0.13586974706E+02  0.00000000000E+00 0.  1.
</event>
<event>
 7    1  0.1351543E-013  0.7246144E+02  0.7816164E-02  0.1226708E+00
        -11   -1    0    0    0    0  0.00000000000E+00  0.00000000000E+00  0.45593999997E+02  0.45594000000E+02  0.51100000000E-03 0.  1.
         11   -1    0    0    0    0 -0.00000000000E+00 -0.00000000000E+00 -0.45593999997E+02  0.45594000000E+02  0.51100000000E-03 0. -1.
    9900012    2    1    2    0    0 -0.64289911278E+01 -0.99366149206E+01  0.14512614207E+02  0.72461435603E+02  0.69999824539E+02 0.  0.
         12    1    1    2    0    0  0.64289911278E+01  0.99366149206E+01 -0.14512614207E+02  0.18726564397E+02  0.00000000000E+00 0. -1.
         11    1    3    3    0    0 -0.19468026364E+02 -0.80639136139E+01 -0.17883378499E+02  0.27637763659E+02  0.51100000000E-03 0. -1.
        -11    1    3    3    0    0  0.17964711784E+02 -0.46502925140E+00  0.76130678420E+01  0.19516811315E+02  0.51100000000E-03 0.  1.
        -12    1    3    3    0    0 -0.49256765478E+01 -0.14076720553E+01  0.24782924864E+02  0.25306860628E+02  0.00000000000E+00 0.  1.
</event>
<event>
 7    1  0.1351543E-013  0.7246156E+02  0.7816164E-02  0.1226708E+00
        -11   -1    0    0    0    0  0.00000000000E+00  0.00000000000E+00  0.45593999997E+02  0.45594000000E+02  0.51100000000E-03 0.  1.
         11   -1    0    0    0    0 -0.00000000000E+00 -0.00000000000E+00 -0.45593999997E+02  0.45594000000E+02  0.51100000000E-03 0. -1.
    9900012    2    1    2    0    0 -0.63056663802E+01 -0.31162043543E+01  0.17355323960E+02  0.72461563397E+02  0.69999991015E+02 0.  0.
         12    1    1    2    0    0  0.63056663802E+01  0.31162043543E+01 -0.17355323960E+02  0.18726436603E+02  0.00000000000E+00 0. -1.
         11    1    3    3    0    0  0.99147020747E+01  0.23706295470E+02 -0.59357666439E+00  0.25702958890E+02  0.51100000000E-03 0. -1.
        -11    1    3    3    0    0 -0.19508729452E+02 -0.12893843170E+02  0.21765905757E+02  0.31946774018E+02  0.51100000000E-03 0.  1.
         12    1    3    3    0    0  0.32883609970E+01 -0.13928656655E+02 -0.38170051323E+01  0.14811830489E+02  0.00000000000E+00 0. -1.
</event>
<event>
 7    1  0.1351543E-013  0.7246153E+02  0.7816164E-02  0.1226708E+00
        -11   -1    0    0    0    0  0.00000000000E+00  0.00000000000E+00  0.45593999997E+02  0.45594000000E+02  0.51100000000E-03 0.  1.
         11   -1    0    0    0    0 -0.00000000000E+00 -0.00000000000E+00 -0.45593999997E+02  0.45594000000E+02  0.51100000000E-03 0. -1.
    9900012    2    1    2    0    0 -0.25803432091E+01  0.74863072802E+01  0.16969903736E+02  0.72461532085E+02  0.69999950225E+02 0.  0.
         12    1    1    2    0    0  0.25803432091E+01 -0.74863072802E+01 -0.16969903736E+02  0.18726467915E+02  0.00000000000E+00 0. -1.
         11    1    3    3    0    0 -0.20338576094E+02 -0.50540665650E+01  0.25159514491E+02  0.32744502380E+02  0.51100000000E-03 0.  1.
        -11    1    3    3    0    0  0.30218193212E+01  0.29392911152E+01 -0.18739263650E+02  0.19207572118E+02  0.51100000000E-03 0. -1.
         12    1    3    3    0    0  0.14736413564E+02  0.96010827300E+01  0.10549652895E+02  0.20509457587E+02  0.00000000000E+00 0. -1.
</event>
<event>
 7    1  0.1351543E-013  0.7246159E+02  0.7816164E-02  0.1226708E+00
        -11   -1    0    0    0    0  0.00000000000E+00  0.00000000000E+00  0.45593999997E+02  0.45594000000E+02  0.51100000000E-03 0.  1.
         11   -1    0    0    0    0 -0.00000000000E+00 -0.00000000000E+00 -0.45593999997E+02  0.45594000000E+02  0.51100000000E-03 0. -1.
    9900012    2    1    2    0    0  0.10274422068E+02 -0.11888082698E+02  0.10187648443E+02  0.72461589776E+02  0.70000025378E+02 0.  0.
         12    1    1    2    0    0 -0.10274422068E+02  0.11888082698E+02 -0.10187648443E+02  0.18726410224E+02  0.00000000000E+00 0. -1.
         11    1    3    3    0    0 -0.17292287771E+02 -0.58737467341E+01 -0.19596901015E+01  0.18367484928E+02  0.51100000000E-03 0. -1.
        -11    1    3    3    0    0  0.28087324784E+02 -0.21741792128E+02  0.14144517384E+02  0.38231802347E+02  0.51100000000E-03 0.  1.
        -12    1    3    3    0    0 -0.52061494498E+00  0.15727456163E+02 -0.19971788389E+01  0.15862302500E+02  0.00000000000E+00 0.  1.
</event>
<event>
 7    1  0.1351543E-013  0.7246154E+02  0.7816164E-02  0.1226708E+00
        -11   -1    0    0    0    0  0.00000000000E+00  0.00000000000E+00  0.45593999997E+02  0.45594000000E+02  0.51100000000E-03 0. -1.
         11   -1    0    0    0    0 -0.00000000000E+00 -0.00000000000E+00 -0.45593999997E+02  0.45594000000E+02  0.51100000000E-03 0.  1.
    9900012    2    1    2    0    0 -0.15657586023E+02 -0.98565542503E+01  0.28928613378E+01  0.72461539884E+02  0.69999960385E+02 0.  0.
         12    1    1    2    0    0  0.15657586023E+02  0.98565542503E+01 -0.28928613378E+01  0.18726460116E+02  0.00000000000E+00 0. -1.
         11    1    3    3    0    0 -0.24885943547E+02  0.15949579258E+02 -0.47274136822E+01  0.29934055941E+02  0.51100000000E-03 0. -1.
        -11    1    3    3    0    0  0.39595928881E+01 -0.32375457805E+02  0.25923918103E+01  0.32719552862E+02  0.51100000000E-03 0.  1.
        -12    1    3    3    0    0  0.52687646358E+01  0.65693242973E+01  0.50278832096E+01  0.98079310805E+01  0.00000000000E+00 0.  1.
</event>
<event>
 7    1  0.1351543E-013  0.7246157E+02  0.7816164E-02  0.1226708E+00
        -11   -1    0    0    0    0  0.00000000000E+00  0.00000000000E+00  0.45593999997E+02  0.45594000000E+02  0.51100000000E-03 0. -1.
         11   -1    0    0    0    0 -0.00000000000E+00 -0.00000000000E+00 -0.45593999997E+02  0.45594000000E+02  0.51100000000E-03 0.  1.
    9900012    2    1    2    0    0  0.16253861857E+02  0.68137266358E+01  0.63296349391E+01  0.72461570164E+02  0.69999999830E+02 0.  0.
         12    1    1    2    0    0 -0.16253861857E+02 -0.68137266358E+01 -0.63296349391E+01  0.18726429836E+02  0.00000000000E+00 0. -1.
         11    1    3    3    0    0  0.98018777656E+01 -0.52633885728E+01  0.17699465590E+02  0.20905768329E+02  0.51100000000E-03 0. -1.
        -11    1    3    3    0    0  0.25350209631E+02 -0.35970955646E+01 -0.76543324675E+01  0.26723791472E+02  0.51100000000E-03 0.  1.
         12    1    3    3    0    0 -0.18898225540E+02  0.15674210773E+02 -0.37154981832E+01  0.24832010363E+02  0.00000000000E+00 0. -1.
</event>
<event>
 7    1  0.1351543E-013  0.7246134E+02  0.7816164E-02  0.1226709E+00
        -11   -1    0    0    0    0  0.00000000000E+00  0.00000000000E+00  0.45593999997E+02  0.45594000000E+02  0.51100000000E-03 0.  1.
         11   -1    0    0    0    0 -0.00000000000E+00 -0.00000000000E+00 -0.45593999997E+02  0.45594000000E+02  0.51100000000E-03 0. -1.
    9900012    2    1    2    0    0  0.60579399667E+00 -0.69710322025E+01  0.17370248288E+02  0.72461339809E+02  0.69999699749E+02 0.  0.
         12    1    1    2    0    0 -0.60579399667E+00  0.69710322025E+01 -0.17370248288E+02  0.18726660191E+02  0.00000000000E+00 0. -1.
         11    1    3    3    0    0  0.24482479385E+02  0.97977736839E+01 -0.86637728534E+01  0.27756965366E+02  0.51100000000E-03 0. -1.
        -11    1    3    3    0    0 -0.28613967299E+01 -0.73708834772E+01  0.19084143824E+02  0.20657252001E+02  0.51100000000E-03 0.  1.
         12    1    3    3    0    0 -0.21015288659E+02 -0.93979224092E+01  0.69498773171E+01  0.24047122442E+02  0.00000000000E+00 0. -1.
</event>
<event>
 7    1  0.1351543E-013  0.7246153E+02  0.7816164E-02  0.1226708E+00
        -11   -1    0    0    0    0  0.00000000000E+00  0.00000000000E+00  0.45593999997E+02  0.45594000000E+02  0.51100000000E-03 0.  1.
         11   -1    0    0    0    0 -0.00000000000E+00 -0.00000000000E+00 -0.45593999997E+02  0.45594000000E+02  0.51100000000E-03 0. -1.
    9900012    2    1    2    0    0  0.16612401240E+00 -0.38656597887E+01  0.18322386055E+02  0.72461528001E+02  0.69999944905E+02 0.  0.
         12    1    1    2    0    0 -0.16612401240E+00  0.38656597887E+01 -0.18322386055E+02  0.18726471999E+02  0.00000000000E+00 0. -1.
         11    1    3    3    0    0  0.42888526167E+01 -0.11377363045E+02  0.36334355294E+01  0.12690173389E+02  0.51100000000E-03 0. -1.
        -11    1    3    3    0    0  0.20335850098E+02  0.21229453017E+02  0.11422220493E+02  0.31538921920E+02  0.51100000000E-03 0.  1.
        -12    1    3    3    0    0 -0.24458578703E+02 -0.13717749760E+02  0.32667300325E+01  0.28232432693E+02  0.00000000000E+00 0.  1.
</event>
<event>
 7    1  0.1351543E-013  0.7246151E+02  0.7816164E-02  0.1226708E+00
        -11   -1    0    0    0    0  0.00000000000E+00  0.00000000000E+00  0.45593999997E+02  0.45594000000E+02  0.51100000000E-03 0.  1.
         11   -1    0    0    0    0 -0.00000000000E+00 -0.00000000000E+00 -0.45593999997E+02  0.45594000000E+02  0.51100000000E-03 0. -1.
    9900012    2    1    2    0    0 -0.69662487798E+01 -0.13683690077E+02  0.10719583658E+02  0.72461508872E+02  0.69999919985E+02 0.  0.
         12    1    1    2    0    0  0.69662487798E+01  0.13683690077E+02 -0.10719583658E+02  0.18726491128E+02  0.00000000000E+00 0. -1.
         11    1    3    3    0    0 -0.74212981021E+01  0.19811578322E+02 -0.15292329279E+01  0.21211149303E+02  0.51100000000E-03 0.  1.
        -11    1    3    3    0    0 -0.14489128821E+01 -0.33115357626E+02 -0.53229029880E+01  0.33571707667E+02  0.51100000000E-03 0. -1.
         12    1    3    3    0    0  0.19039622044E+01 -0.37991077408E+00  0.17571719574E+02  0.17678651901E+02  0.00000000000E+00 0. -1.
</event>
<event>
 7    1  0.1351543E-013  0.7246148E+02  0.7816164E-02  0.1226708E+00
        -11   -1    0    0    0    0  0.00000000000E+00  0.00000000000E+00  0.45593999997E+02  0.45594000000E+02  0.51100000000E-03 0.  1.
         11   -1    0    0    0    0 -0.00000000000E+00 -0.00000000000E+00 -0.45593999997E+02  0.45594000000E+02  0.51100000000E-03 0. -1.
    9900012    2    1    2    0    0 -0.16825055825E+02 -0.53090973037E+00  0.82047757042E+01  0.72461475683E+02  0.69999876751E+02 0.  0.
         12    1    1    2    0    0  0.16825055825E+02  0.53090973037E+00 -0.82047757042E+01  0.18726524317E+02  0.00000000000E+00 0. -1.
         11    1    3    3    0    0 -0.58467552926E+01  0.96794229125E+01  0.17189005050E+02  0.20575171208E+02  0.51100000000E-03 0.  1.
        -11    1    3    3    0    0 -0.22028283640E+02 -0.24549050188E+02 -0.64343540495E+01  0.33605089757E+02  0.51100000000E-03 0. -1.
        -12    1    3    3    0    0  0.11049983108E+02  0.14338717546E+02 -0.25498752962E+01  0.18281214718E+02  0.00000000000E+00 0.  1.
</event>
<event>
 7    1  0.1351543E-013  0.7246180E+02  0.7816164E-02  0.1226707E+00
        -11   -1    0    0    0    0  0.00000000000E+00  0.00000000000E+00  0.45593999997E+02  0.45594000000E+02  0.51100000000E-03 0. -1.
         11   -1    0    0    0    0 -0.00000000000E+00 -0.00000000000E+00 -0.45593999997E+02  0.45594000000E+02  0.51100000000E-03 0.  1.
    9900012    2    1    2    0    0  0.12271346101E+02  0.12634389824E+02 -0.63605722409E+01  0.72461798554E+02  0.70000297351E+02 0.  0.
         12    1    1    2    0    0 -0.12271346101E+02 -0.12634389824E+02  0.63605722409E+01  0.18726201446E+02  0.00000000000E+00 0. -1.
         11    1    3    3    0    0 -0.97145324850E+01  0.19037886947E+02 -0.18174432594E+02  0.28055717442E+02  0.51100000000E-03 0. -1.
        -11    1    3    3    0    0  0.18185435899E+02 -0.18823818491E+02 -0.95666569620E+00  0.26190865410E+02  0.51100000000E-03 0.  1.
         12    1    3    3    0    0  0.38004426870E+01  0.12420321369E+02  0.12770526049E+02  0.18215215703E+02  0.00000000000E+00 0. -1.
</event>
<event>
 7    1  0.1351543E-013  0.7246154E+02  0.7816164E-02  0.1226708E+00
        -11   -1    0    0    0    0  0.00000000000E+00  0.00000000000E+00  0.45593999997E+02  0.45594000000E+02  0.51100000000E-03 0.  1.
         11   -1    0    0    0    0 -0.00000000000E+00 -0.00000000000E+00 -0.45593999997E+02  0.45594000000E+02  0.51100000000E-03 0. -1.
    9900012    2    1    2    0    0 -0.12544931280E+02  0.13902407602E+02  0.16724533728E+00  0.72461542541E+02  0.69999963846E+02 0.  0.
         12    1    1    2    0    0  0.12544931280E+02 -0.13902407602E+02 -0.16724533728E+00  0.18726457459E+02  0.00000000000E+00 0. -1.
         11    1    3    3    0    0  0.32033279281E+01  0.13189981507E+02 -0.45160619595E+01  0.14304955010E+02  0.51100000000E-03 0. -1.
        -11    1    3    3    0    0  0.51539774857E+01 -0.24334542398E+02 -0.16327587951E+01  0.24927882766E+02  0.51100000000E-03 0.  1.
        -12    1    3    3    0    0 -0.20902236693E+02  0.25046968493E+02  0.63160660919E+01  0.33228704765E+02  0.00000000000E+00 0.  1.
</event>
<event>
 7    1  0.1351543E-013  0.7246158E+02  0.7816164E-02  0.1226708E+00
        -11   -1    0    0    0    0  0.00000000000E+00  0.00000000000E+00  0.45593999997E+02  0.45594000000E+02  0.51100000000E-03 0.  1.
         11   -1    0    0    0    0 -0.00000000000E+00 -0.00000000000E+00 -0.45593999997E+02  0.45594000000E+02  0.51100000000E-03 0. -1.
    9900012    2    1    2    0    0 -0.16412022011E+02  0.86895799613E+01  0.24115610680E+01  0.72461577673E+02  0.70000009612E+02 0.  0.
         12    1    1    2    0    0  0.16412022011E+02 -0.86895799613E+01 -0.24115610680E+01  0.18726422327E+02  0.00000000000E+00 0. -1.
         11    1    3    3    0    0 -0.21738535838E+02  0.31165349246E+02  0.13115182075E+02  0.40197648378E+02  0.51100000000E-03 0. -1.
        -11    1    3    3    0    0 -0.16915754600E+01 -0.73012899479E+01  0.52532749889E+01  0.91524401561E+01  0.51100000000E-03 0.  1.
         12    1    3    3    0    0  0.70180892875E+01 -0.15174479337E+02 -0.15956895996E+02  0.23111489139E+02  0.00000000000E+00 0. -1.
</event>
<event>
 7    1  0.1351543E-013  0.7246162E+02  0.7816164E-02  0.1226708E+00
        -11   -1    0    0    0    0  0.00000000000E+00  0.00000000000E+00  0.45593999997E+02  0.45594000000E+02  0.51100000000E-03 0.  1.
         11   -1    0    0    0    0 -0.00000000000E+00 -0.00000000000E+00 -0.45593999997E+02  0.45594000000E+02  0.51100000000E-03 0. -1.
    9900012    2    1    2    0    0  0.77392747975E+01  0.16291438575E+02  0.50368617377E+01  0.72461619640E+02  0.70000064282E+02 0.  0.
         12    1    1    2    0    0 -0.77392747975E+01 -0.16291438575E+02 -0.50368617377E+01  0.18726380360E+02  0.00000000000E+00 0. -1.
         11    1    3    3    0    0 -0.15491037913E+02  0.12290324862E+02 -0.12455568927E+02  0.23370184817E+02  0.51100000000E-03 0. -1.
        -11    1    3    3    0    0  0.29229210066E+02 -0.41699074211E+01  0.23117397552E+02  0.37498652226E+02  0.51100000000E-03 0.  1.
        -12    1    3    3    0    0 -0.59988973555E+01  0.81710211335E+01 -0.56249668876E+01  0.11592782597E+02  0.00000000000E+00 0.  1.
</event>
<event>
 7    1  0.1351543E-013  0.7246153E+02  0.7816164E-02  0.1226708E+00
        -11   -1    0    0    0    0  0.00000000000E+00  0.00000000000E+00  0.45593999997E+02  0.45594000000E+02  0.51100000000E-03 0. -1.
         11   -1    0    0    0    0 -0.00000000000E+00 -0.00000000000E+00 -0.45593999997E+02  0.45594000000E+02  0.51100000000E-03 0.  1.
    9900012    2    1    2    0    0 -0.87699768155E+01  0.11686425382E+02  0.11713053878E+02  0.72461530426E+02  0.69999948064E+02 0.  0.
         12    1    1    2    0    0  0.87699768155E+01 -0.11686425382E+02 -0.11713053878E+02  0.18726469574E+02  0.00000000000E+00 0. -1.
         11    1    3    3    0    0  0.27248435541E+01 -0.26462325832E+02  0.39353827406E+01  0.26891758931E+02  0.51100000000E-03 0. -1.
        -11    1    3    3    0    0 -0.72489668234E+01  0.38568436466E+02  0.10352765549E+02  0.40586347042E+02  0.51100000000E-03 0.  1.
         12    1    3    3    0    0 -0.42458535462E+01 -0.41968525126E+00 -0.25750944123E+01  0.49834244530E+01  0.00000000000E+00 0. -1.
</event>
<event>
 7    1  0.1351543E-013  0.7246156E+02  0.7816164E-02  0.1226708E+00
        -11   -1    0    0    0    0  0.00000000000E+00  0.00000000000E+00  0.45593999997E+02  0.45594000000E+02  0.51100000000E-03 0. -1.
         11   -1    0    0    0    0 -0.00000000000E+00 -0.00000000000E+00 -0.45593999997E+02  0.45594000000E+02  0.51100000000E-03 0.  1.
    9900012    2    1    2    0    0 -0.16186346691E+02  0.92364260478E+01  0.18358308195E+01  0.72461557195E+02  0.69999982935E+02 0.  0.
         12    1    1    2    0    0  0.16186346691E+02 -0.92364260478E+01 -0.18358308195E+01  0.18726442805E+02  0.00000000000E+00 0. -1.
         11    1    3    3    0    0 -0.41144185779E+01 -0.21792297063E+01 -0.13307665989E+02  0.14098633149E+02  0.51100000000E-03 0. -1.
        -11    1    3    3    0    0 -0.28569513350E+02  0.21778529745E+02  0.14867080269E+02  0.38878677021E+02  0.51100000000E-03 0.  1.
        -12    1    3    3    0    0  0.16497585236E+02 -0.10362873991E+02  0.27641653910E+00  0.19484247024E+02  0.00000000000E+00 0.  1.
</event>
<event>
 7    1  0.1351543E-013  0.7246130E+02  0.7816164E-02  0.1226709E+00
        -11   -1    0    0    0    0  0.00000000000E+00  0.00000000000E+00  0.45593999997E+02  0.45594000000E+02  0.51100000000E-03 0.  1.
         11   -1    0    0    0    0 -0.00000000000E+00 -0.00000000000E+00 -0.45593999997E+02  0.45594000000E+02  0.51100000000E-03 0. -1.
    9900012    2    1    2    0    0  0.32162236321E+01 -0.18448113753E+02 -0.11074747078E+00  0.72461300865E+02  0.69999649017E+02 0.  0.
         12    1    1    2    0    0 -0.32162236321E+01  0.18448113753E+02  0.11074747078E+00  0.18726699135E+02  0.00000000000E+00 0. -1.
         11    1    3    3    0    0  0.22545653700E+01  0.89601318779E+01  0.30238771662E+01  0.97216696948E+01  0.51100000000E-03 0. -1.
        -11    1    3    3    0    0 -0.58076703516E+00 -0.11201599861E+02 -0.29607819120E+02  0.31661271028E+02  0.51100000000E-03 0.  1.
        -12    1    3    3    0    0  0.15424252972E+01 -0.16206645770E+02  0.26473194483E+02  0.31078360141E+02  0.00000000000E+00 0.  1.
</event>
<event>
 7    1  0.1351543E-013  0.7246171E+02  0.7816164E-02  0.1226708E+00
        -11   -1    0    0    0    0  0.00000000000E+00  0.00000000000E+00  0.45593999997E+02  0.45594000000E+02  0.51100000000E-03 0. -1.
         11   -1    0    0    0    0 -0.00000000000E+00 -0.00000000000E+00 -0.45593999997E+02  0.45594000000E+02  0.51100000000E-03 0.  1.
    9900012    2    1    2    0    0 -0.73520394058E+01 -0.35418070053E+01 -0.16854586824E+02  0.72461708928E+02  0.70000180596E+02 0.  0.
         12    1    1    2    0    0  0.73520394058E+01  0.35418070053E+01  0.16854586824E+02  0.18726291072E+02  0.00000000000E+00 0. -1.
         11    1    3    3    0    0  0.19351271444E+02  0.42608398517E+01 -0.11558431993E+02  0.22939568722E+02  0.51100000000E-03 0. -1.
        -11    1    3    3    0    0 -0.35437604221E+02  0.27425148258E+01 -0.40192528959E+01  0.35770093298E+02  0.51100000000E-03 0.  1.
        -12    1    3    3    0    0  0.87342933711E+01 -0.10545161683E+02 -0.12769019356E+01  0.13752046908E+02  0.00000000000E+00 0.  1.
</event>
<event>
 7    1  0.1351543E-013  0.7246167E+02  0.7816164E-02  0.1226708E+00
        -11   -1    0    0    0    0  0.00000000000E+00  0.00000000000E+00  0.45593999997E+02  0.45594000000E+02  0.51100000000E-03 0. -1.
         11   -1    0    0    0    0 -0.00000000000E+00 -0.00000000000E+00 -0.45593999997E+02  0.45594000000E+02  0.51100000000E-03 0.  1.
    9900012    2    1    2    0    0 -0.10424508466E+01  0.17222426986E+02 -0.72785189886E+01  0.72461667371E+02  0.70000126460E+02 0.  0.
         12    1    1    2    0    0  0.10424508466E+01 -0.17222426986E+02  0.72785189886E+01  0.18726332629E+02  0.00000000000E+00 0. -1.
         11    1    3    3    0    0  0.26841088439E+02 -0.35626126154E+00  0.15362169928E+01  0.26887374613E+02  0.51100000000E-03 0. -1.
        -11    1    3    3    0    0 -0.30477564071E+02  0.22205191942E+02 -0.31905635446E+01  0.37843521993E+02  0.51100000000E-03 0.  1.
        -12    1    3    3    0    0  0.25940247859E+01 -0.46265036938E+01 -0.56241724368E+01  0.77307707648E+01  0.00000000000E+00 0.  1.
</event>
<event>
 7    1  0.1351543E-013  0.7246157E+02  0.7816164E-02  0.1226708E+00
        -11   -1    0    0    0    0  0.00000000000E+00  0.00000000000E+00  0.45593999997E+02  0.45594000000E+02  0.51100000000E-03 0.  1.
         11   -1    0    0    0    0 -0.00000000000E+00 -0.00000000000E+00 -0.45593999997E+02  0.45594000000E+02  0.51100000000E-03 0. -1.
    9900012    2    1    2    0    0  0.18086948236E+02 -0.46615316301E+01  0.13459042264E+01  0.72461573971E+02  0.70000004789E+02 0.  0.
         12    1    1    2    0    0 -0.18086948236E+02  0.46615316301E+01 -0.13459042264E+01  0.18726426029E+02  0.00000000000E+00 0. -1.
         11    1    3    3    0    0  0.33142934310E+02  0.33735809398E+01 -0.46172014878E+01  0.33632628397E+02  0.51100000000E-03 0.  1.
        -11    1    3    3    0    0 -0.91656987619E+01 -0.17037069828E+02 -0.82263236470E+01  0.21022468531E+02  0.51100000000E-03 0. -1.
        -12    1    3    3    0    0 -0.58902873119E+01  0.90019572585E+01  0.14189429361E+02  0.17806477043E+02  0.00000000000E+00 0.  1.
</event>
<event>
 7    1  0.1351543E-013  0.7246143E+02  0.7816164E-02  0.1226708E+00
        -11   -1    0    0    0    0  0.00000000000E+00  0.00000000000E+00  0.45593999997E+02  0.45594000000E+02  0.51100000000E-03 0. -1.
         11   -1    0    0    0    0 -0.00000000000E+00 -0.00000000000E+00 -0.45593999997E+02  0.45594000000E+02  0.51100000000E-03 0.  1.
    9900012    2    1    2    0    0 -0.10336746117E+02  0.71806608745E+01 -0.13866304277E+02  0.72461425162E+02  0.69999810937E+02 0.  0.
         12    1    1    2    0    0  0.10336746117E+02 -0.71806608745E+01  0.13866304277E+02  0.18726574838E+02  0.00000000000E+00 0. -1.
         11    1    3    3    0    0  0.17866152937E+02 -0.47249438239E+01  0.14270004721E+02  0.23348609164E+02  0.51100000000E-03 0.  1.
        -11    1    3    3    0    0 -0.32655605167E+02  0.12870282754E+02 -0.21837331885E+02  0.41338865383E+02  0.51100000000E-03 0. -1.
        -12    1    3    3    0    0  0.44527061136E+01 -0.96467805609E+00 -0.62989771132E+01  0.77739506146E+01  0.00000000000E+00 0.  1.
</event>
<event>
 7    1  0.1351543E-013  0.7246163E+02  0.7816164E-02  0.1226708E+00
        -11   -1    0    0    0    0  0.00000000000E+00  0.00000000000E+00  0.45593999997E+02  0.45594000000E+02  0.51100000000E-03 0. -1.
         11   -1    0    0    0    0 -0.00000000000E+00 -0.00000000000E+00 -0.45593999997E+02  0.45594000000E+02  0.51100000000E-03 0.  1.
    9900012    2    1    2    0    0  0.89577324989E+01 -0.66881877317E+01 -0.15023451735E+02  0.72461630125E+02  0.70000077941E+02 0.  0.
         12    1    1    2    0    0 -0.89577324989E+01  0.66881877317E+01  0.15023451735E+02  0.18726369875E+02  0.00000000000E+00 0. -1.
         11    1    3    3    0    0 -0.72236169802E+01 -0.40193237704E+01  0.57367854148E+01  0.10062122689E+02  0.51100000000E-03 0. -1.
        -11    1    3    3    0    0  0.17105265771E+02 -0.24145804518E+02 -0.26955693905E+02  0.40027733224E+02  0.51100000000E-03 0.  1.
        -12    1    3    3    0    0 -0.92391629211E+00  0.21476940557E+02  0.61954567551E+01  0.22371774212E+02  0.00000000000E+00 0.  1.
</event>
<event>
 7    1  0.1351543E-013  0.7246158E+02  0.7816164E-02  0.1226708E+00
        -11   -1    0    0    0    0  0.00000000000E+00  0.00000000000E+00  0.45593999997E+02  0.45594000000E+02  0.51100000000E-03 0.  1.
         11   -1    0    0    0    0 -0.00000000000E+00 -0.00000000000E+00 -0.45593999997E+02  0.45594000000E+02  0.51100000000E-03 0. -1.
    9900012    2    1    2    0    0  0.11559234360E+01  0.14978453755E+02  0.11179832478E+02  0.72461577755E+02  0.70000009718E+02 0.  0.
         12    1    1    2    0    0 -0.11559234360E+01 -0.14978453755E+02 -0.11179832478E+02  0.18726422245E+02  0.00000000000E+00 0. -1.
         11    1    3    3    0    0  0.16881066962E+02  0.32038214454E+02  0.15828854620E+02  0.39521769267E+02  0.51100000000E-03 0.  1.
        -11    1    3    3    0    0 -0.97859245023E+01 -0.21209603136E+02  0.15426420113E+01  0.23409214600E+02  0.51100000000E-03 0. -1.
         12    1    3    3    0    0 -0.59392190234E+01  0.41498424364E+01 -0.61916641531E+01  0.95305938870E+01  0.00000000000E+00 0. -1.
</event>
<event>
 7    1  0.1351543E-013  0.7246156E+02  0.7816164E-02  0.1226708E+00
        -11   -1    0    0    0    0  0.00000000000E+00  0.00000000000E+00  0.45593999997E+02  0.45594000000E+02  0.51100000000E-03 0.  1.
         11   -1    0    0    0    0 -0.00000000000E+00 -0.00000000000E+00 -0.45593999997E+02  0.45594000000E+02  0.51100000000E-03 0. -1.
    9900012    2    1    2    0    0 -0.21521823509E+00  0.18309591139E+02  0.39232560498E+01  0.72461564551E+02  0.69999992519E+02 0.  0.
         12    1    1    2    0    0  0.21521823509E+00 -0.18309591139E+02 -0.39232560498E+01  0.18726435449E+02  0.00000000000E+00 0. -1.
         11    1    3    3    0    0 -0.38516076581E+01 -0.99767321227E+01  0.19093348705E+01  0.10863499681E+02  0.51100000000E-03 0. -1.
        -11    1    3    3    0    0 -0.57825893688E+01  0.39382029564E+02 -0.11815656292E+02  0.41520986576E+02  0.51100000000E-03 0.  1.
        -12    1    3    3    0    0  0.94189787918E+01 -0.11095706302E+02  0.13829577471E+02  0.20077078295E+02  0.00000000000E+00 0.  1.
</event>
<event>
 7    1  0.1351543E-013  0.7246159E+02  0.7816164E-02  0.1226708E+00
        -11   -1    0    0    0    0  0.00000000000E+00  0.00000000000E+00  0.45593999997E+02  0.45594000000E+02  0.51100000000E-03 0.  1.
         11   -1    0    0    0    0 -0.00000000000E+00 -0.00000000000E+00 -0.45593999997E+02  0.45594000000E+02  0.51100000000E-03 0. -1.
    9900012    2    1    2    0    0 -0.13657922231E+02  0.11914662292E+02  0.47096047166E+01  0.72461591006E+02  0.70000026981E+02 0.  0.
         12    1    1    2    0    0  0.13657922231E+02 -0.11914662292E+02 -0.47096047166E+01  0.18726408994E+02  0.00000000000E+00 0. -1.
         11    1    3    3    0    0  0.23571755507E+02  0.43168194113E+01  0.18054501410E+02  0.30003793242E+02  0.51100000000E-03 0.  1.
        -11    1    3    3    0    0 -0.21954725504E+02  0.65694808616E+01 -0.14477272526E+02  0.27106447034E+02  0.51100000000E-03 0. -1.
        -12    1    3    3    0    0 -0.15274952235E+02  0.10283620192E+01  0.11323758330E+01  0.15351350730E+02  0.00000000000E+00 0.  1.
</event>
<event>
 7    1  0.1351543E-013  0.7246156E+02  0.7816164E-02  0.1226708E+00
        -11   -1    0    0    0    0  0.00000000000E+00  0.00000000000E+00  0.45593999997E+02  0.45594000000E+02  0.51100000000E-03 0.  1.
         11   -1    0    0    0    0 -0.00000000000E+00 -0.00000000000E+00 -0.45593999997E+02  0.45594000000E+02  0.51100000000E-03 0. -1.
    9900012    2    1    2    0    0 -0.30036708564E+01  0.17265077936E+02  0.66011095577E+01  0.72461558743E+02  0.69999984952E+02 0.  0.
         12    1    1    2    0    0  0.30036708564E+01 -0.17265077936E+02 -0.66011095577E+01  0.18726441257E+02  0.00000000000E+00 0. -1.
         11    1    3    3    0    0  0.21494048656E+02  0.19041047639E+02  0.22665215764E+02  0.36582340394E+02  0.51100000000E-03 0.  1.
        -11    1    3    3    0    0 -0.19134607240E+02  0.20557809930E+01 -0.20356615226E+02  0.28013411313E+02  0.51100000000E-03 0. -1.
        -12    1    3    3    0    0 -0.53631122726E+01 -0.38317506959E+01  0.42925090196E+01  0.78658070359E+01  0.00000000000E+00 0.  1.
</event>
<event>
 7    1  0.1351543E-013  0.7246155E+02  0.7816164E-02  0.1226708E+00
        -11   -1    0    0    0    0  0.00000000000E+00  0.00000000000E+00  0.45593999997E+02  0.45594000000E+02  0.51100000000E-03 0. -1.
         11   -1    0    0    0    0 -0.00000000000E+00 -0.00000000000E+00 -0.45593999997E+02  0.45594000000E+02  0.51100000000E-03 0.  1.
    9900012    2    1    2    0    0 -0.96872344390E+01  0.82789530280E+01 -0.13722109848E+02  0.72461551511E+02  0.69999975532E+02 0.  0.
         12    1    1    2    0    0  0.96872344390E+01 -0.82789530280E+01  0.13722109848E+02  0.18726448489E+02  0.00000000000E+00 0. -1.
         11    1    3    3    0    0 -0.23587348795E+02 -0.22397195845E+02 -0.16615811234E+02  0.36525095320E+02  0.51100000000E-03 0.  1.
        -11    1    3    3    0    0  0.13616270236E+02  0.29461018859E+02  0.56197635538E+01  0.32938369571E+02  0.51100000000E-03 0. -1.
        -12    1    3    3    0    0  0.28384412078E+00  0.12151300142E+01 -0.27260621682E+01  0.29980866201E+01  0.00000000000E+00 0.  1.
</event>
<event>
 7    1  0.1351543E-013  0.7246155E+02  0.7816164E-02  0.1226708E+00
        -11   -1    0    0    0    0  0.00000000000E+00  0.00000000000E+00  0.45593999997E+02  0.45594000000E+02  0.51100000000E-03 0. -1.
         11   -1    0    0    0    0 -0.00000000000E+00 -0.00000000000E+00 -0.45593999997E+02  0.45594000000E+02  0.51100000000E-03 0.  1.
    9900012    2    1    2    0    0 -0.27263126433E+00 -0.16255523403E+02  0.92931974607E+01  0.72461551112E+02  0.69999975011E+02 0.  0.
         12    1    1    2    0    0  0.27263126433E+00  0.16255523403E+02 -0.92931974607E+01  0.18726448888E+02  0.00000000000E+00 0. -1.
         11    1    3    3    0    0  0.28400045649E+02  0.12018810325E+02  0.88495758423E+01  0.32083163612E+02  0.51100000000E-03 0. -1.
        -11    1    3    3    0    0 -0.16330197528E+02 -0.17064920092E+02  0.15372016250E+01  0.23669597338E+02  0.51100000000E-03 0.  1.
         12    1    3    3    0    0 -0.12342479386E+02 -0.11209413636E+02 -0.10935800065E+01  0.16708790162E+02  0.00000000000E+00 0. -1.
</event>
<event>
 7    1  0.1351543E-013  0.7246159E+02  0.7816164E-02  0.1226708E+00
        -11   -1    0    0    0    0  0.00000000000E+00  0.00000000000E+00  0.45593999997E+02  0.45594000000E+02  0.51100000000E-03 0. -1.
         11   -1    0    0    0    0 -0.00000000000E+00 -0.00000000000E+00 -0.45593999997E+02  0.45594000000E+02  0.51100000000E-03 0.  1.
    9900012    2    1    2    0    0 -0.30928349143E+01  0.44990566248E+00 -0.18463763161E+02  0.72461585688E+02  0.70000020054E+02 0.  0.
         12    1    1    2    0    0  0.30928349143E+01 -0.44990566248E+00  0.18463763161E+02  0.18726414312E+02  0.00000000000E+00 0. -1.
         11    1    3    3    0    0 -0.36111759162E+01  0.28484218903E+02  0.33589285806E+01  0.28908021715E+02  0.51100000000E-03 0. -1.
        -11    1    3    3    0    0 -0.20201562786E+01 -0.27264304562E+02 -0.66306111707E+01  0.28131625254E+02  0.51100000000E-03 0.  1.
        -12    1    3    3    0    0  0.25384972806E+01 -0.77000867820E+00 -0.15192080571E+02  0.15421938720E+02  0.00000000000E+00 0.  1.
</event>
<event>
 7    1  0.1351543E-013  0.7246158E+02  0.7816164E-02  0.1226708E+00
        -11   -1    0    0    0    0  0.00000000000E+00  0.00000000000E+00  0.45593999997E+02  0.45594000000E+02  0.51100000000E-03 0. -1.
         11   -1    0    0    0    0 -0.00000000000E+00 -0.00000000000E+00 -0.45593999997E+02  0.45594000000E+02  0.51100000000E-03 0.  1.
    9900012    2    1    2    0    0  0.17665086471E+01 -0.16228065687E+02 -0.91765030597E+01  0.72461578101E+02  0.70000010169E+02 0.  0.
         12    1    1    2    0    0 -0.17665086471E+01  0.16228065687E+02  0.91765030597E+01  0.18726421899E+02  0.00000000000E+00 0. -1.
         11    1    3    3    0    0 -0.12773258675E+02 -0.29065406381E+02  0.74057430011E+01  0.32600598383E+02  0.51100000000E-03 0. -1.
        -11    1    3    3    0    0 -0.38272771667E+01  0.11497758929E+01 -0.17618463004E+02  0.18065997731E+02  0.51100000000E-03 0.  1.
         12    1    3    3    0    0  0.18367044489E+02  0.11687564801E+02  0.10362169437E+01  0.21794981986E+02  0.00000000000E+00 0. -1.
</event>
<event>
 7    1  0.1351543E-013  0.7246158E+02  0.7816164E-02  0.1226708E+00
        -11   -1    0    0    0    0  0.00000000000E+00  0.00000000000E+00  0.45593999997E+02  0.45594000000E+02  0.51100000000E-03 0.  1.
         11   -1    0    0    0    0 -0.00000000000E+00 -0.00000000000E+00 -0.45593999997E+02  0.45594000000E+02  0.51100000000E-03 0. -1.
    9900012    2    1    2    0    0 -0.14034671721E+02 -0.68745707699E+01  0.10317317267E+02  0.72461580984E+02  0.70000013925E+02 0.  0.
         12    1    1    2    0    0  0.14034671721E+02  0.68745707699E+01 -0.10317317267E+02  0.18726419016E+02  0.00000000000E+00 0. -1.
         11    1    3    3    0    0 -0.88494147263E+01  0.31376547793E+02  0.89472941209E+00  0.32612887535E+02  0.51100000000E-03 0. -1.
        -11    1    3    3    0    0 -0.39743517975E+01 -0.18315144056E+02  0.48660553986E+01  0.19362811505E+02  0.51100000000E-03 0.  1.
         12    1    3    3    0    0 -0.12109051969E+01 -0.19935974508E+02  0.45565324564E+01  0.20485881943E+02  0.00000000000E+00 0. -1.
</event>
<event>
 7    1  0.1351543E-013  0.7246156E+02  0.7816164E-02  0.1226708E+00
        -11   -1    0    0    0    0  0.00000000000E+00  0.00000000000E+00  0.45593999997E+02  0.45594000000E+02  0.51100000000E-03 0.  1.
         11   -1    0    0    0    0 -0.00000000000E+00 -0.00000000000E+00 -0.45593999997E+02  0.45594000000E+02  0.51100000000E-03 0. -1.
    9900012    2    1    2    0    0  0.13427450047E+02  0.89228286388E+01  0.95271283175E+01  0.72461562548E+02  0.69999989908E+02 0.  0.
         12    1    1    2    0    0 -0.13427450047E+02 -0.89228286388E+01 -0.95271283175E+01  0.18726437452E+02  0.00000000000E+00 0. -1.
         11    1    3    3    0    0 -0.12242908899E+02  0.12446055559E+02  0.84351529309E+01  0.19389299175E+02  0.51100000000E-03 0. -1.
        -11    1    3    3    0    0  0.28111601616E+02  0.95930674115E+01 -0.14077590063E+02  0.32870467445E+02  0.51100000000E-03 0.  1.
        -12    1    3    3    0    0 -0.24412426707E+01 -0.13116294332E+02  0.15169565450E+02  0.20201795928E+02  0.00000000000E+00 0.  1.
</event>
<event>
 7    1  0.1351543E-013  0.7246146E+02  0.7816164E-02  0.1226708E+00
        -11   -1    0    0    0    0  0.00000000000E+00  0.00000000000E+00  0.45593999997E+02  0.45594000000E+02  0.51100000000E-03 0. -1.
         11   -1    0    0    0    0 -0.00000000000E+00 -0.00000000000E+00 -0.45593999997E+02  0.45594000000E+02  0.51100000000E-03 0.  1.
    9900012    2    1    2    0    0  0.41232389836E+01  0.14573243560E+02 -0.11013746263E+02  0.72461464434E+02  0.69999862097E+02 0.  0.
         12    1    1    2    0    0 -0.41232389836E+01 -0.14573243560E+02  0.11013746263E+02  0.18726535566E+02  0.00000000000E+00 0. -1.
         11    1    3    3    0    0 -0.17556659643E+02 -0.73036706233E+01 -0.18319366507E+01  0.19103295384E+02  0.51100000000E-03 0. -1.
        -11    1    3    3    0    0  0.15951768049E+02  0.28562359747E+02  0.83292247194E+01  0.33758603094E+02  0.51100000000E-03 0.  1.
        -12    1    3    3    0    0  0.57281305776E+01 -0.66854455634E+01 -0.17511034331E+02  0.19599565956E+02  0.00000000000E+00 0.  1.
</event>
<event>
 7    1  0.1351543E-013  0.7246154E+02  0.7816164E-02  0.1226708E+00
        -11   -1    0    0    0    0  0.00000000000E+00  0.00000000000E+00  0.45593999997E+02  0.45594000000E+02  0.51100000000E-03 0.  1.
         11   -1    0    0    0    0 -0.00000000000E+00 -0.00000000000E+00 -0.45593999997E+02  0.45594000000E+02  0.51100000000E-03 0. -1.
    9900012    2    1    2    0    0  0.11872996392E+02 -0.11367817313E+02  0.89713505179E+01  0.72461536268E+02  0.69999955674E+02 0.  0.
         12    1    1    2    0    0 -0.11872996392E+02  0.11367817313E+02 -0.89713505179E+01  0.18726463732E+02  0.00000000000E+00 0. -1.
         11    1    3    3    0    0 -0.18134570961E+02  0.10281764917E+02  0.14468159000E+02  0.25375282833E+02  0.51100000000E-03 0. -1.
        -11    1    3    3    0    0  0.26314386133E+02 -0.17784571713E+02  0.78434057099E+01  0.32714781399E+02  0.51100000000E-03 0.  1.
         12    1    3    3    0    0  0.36931812194E+01 -0.38650105169E+01 -0.13340214191E+02  0.14371472036E+02  0.00000000000E+00 0. -1.
</event>
<event>
 7    1  0.1351543E-013  0.7246170E+02  0.7816164E-02  0.1226708E+00
        -11   -1    0    0    0    0  0.00000000000E+00  0.00000000000E+00  0.45593999997E+02  0.45594000000E+02  0.51100000000E-03 0. -1.
         11   -1    0    0    0    0 -0.00000000000E+00 -0.00000000000E+00 -0.45593999997E+02  0.45594000000E+02  0.51100000000E-03 0.  1.
    9900012    2    1    2    0    0 -0.79918499725E+01 -0.10496078953E+02 -0.13290481402E+02  0.72461702040E+02  0.70000171623E+02 0.  0.
         12    1    1    2    0    0  0.79918499725E+01  0.10496078953E+02  0.13290481402E+02  0.18726297960E+02  0.00000000000E+00 0. -1.
         11    1    3    3    0    0 -0.21291298397E+02  0.90635767676E+00 -0.20238669740E+02  0.29389532571E+02  0.51100000000E-03 0. -1.
        -11    1    3    3    0    0  0.24037149871E+02  0.31975643974E+01  0.22713810212E+01  0.24355043913E+02  0.51100000000E-03 0.  1.
         12    1    3    3    0    0 -0.10737701447E+02 -0.14600001028E+02  0.46768073169E+01  0.18717125555E+02  0.00000000000E+00 0. -1.
</event>
<event>
 7    1  0.1351543E-013  0.7246154E+02  0.7816164E-02  0.1226708E+00
        -11   -1    0    0    0    0  0.00000000000E+00  0.00000000000E+00  0.45593999997E+02  0.45594000000E+02  0.51100000000E-03 0. -1.
         11   -1    0    0    0    0 -0.00000000000E+00 -0.00000000000E+00 -0.45593999997E+02  0.45594000000E+02  0.51100000000E-03 0.  1.
    9900012    2    1    2    0    0 -0.53394494378E+01  0.64811981866E+01 -0.16738116844E+02  0.72461542628E+02  0.69999963959E+02 0.  0.
         12    1    1    2    0    0  0.53394494378E+01 -0.64811981866E+01  0.16738116844E+02  0.18726457372E+02  0.00000000000E+00 0. -1.
         11    1    3    3    0    0  0.14413551186E+02  0.21464826526E+02 -0.69706556432E+01  0.26778335944E+02  0.51100000000E-03 0. -1.
        -11    1    3    3    0    0 -0.79038055265E+01 -0.26735891475E+02 -0.49777841242E+01  0.28320599743E+02  0.51100000000E-03 0.  1.
         12    1    3    3    0    0 -0.11849195097E+02  0.11752263136E+02 -0.47896770762E+01  0.17362606940E+02  0.00000000000E+00 0. -1.
</event>
<event>
 7    1  0.1351543E-013  0.7246156E+02  0.7816164E-02  0.1226708E+00
        -11   -1    0    0    0    0  0.00000000000E+00  0.00000000000E+00  0.45593999997E+02  0.45594000000E+02  0.51100000000E-03 0.  1.
         11   -1    0    0    0    0 -0.00000000000E+00 -0.00000000000E+00 -0.45593999997E+02  0.45594000000E+02  0.51100000000E-03 0. -1.
    9900012    2    1    2    0    0 -0.58170972359E+01  0.15103190662E+02  0.94199009880E+01  0.72461560855E+02  0.69999987704E+02 0.  0.
         12    1    1    2    0    0  0.58170972359E+01 -0.15103190662E+02 -0.94199009880E+01  0.18726439145E+02  0.00000000000E+00 0. -1.
         11    1    3    3    0    0  0.21886035369E+02  0.18418351819E+01 -0.12801557204E+02  0.25421856111E+02  0.51100000000E-03 0. -1.
        -11    1    3    3    0    0 -0.12328567212E+01  0.12861430378E+02  0.14589627986E+02  0.19488293207E+02  0.51100000000E-03 0.  1.
         12    1    3    3    0    0 -0.26470275884E+02  0.39992510146E+00  0.76318302052E+01  0.27551411538E+02  0.00000000000E+00 0. -1.
</event>
<event>
 7    1  0.1351543E-013  0.7246163E+02  0.7816164E-02  0.1226708E+00
        -11   -1    0    0    0    0  0.00000000000E+00  0.00000000000E+00  0.45593999997E+02  0.45594000000E+02  0.51100000000E-03 0.  1.
         11   -1    0    0    0    0 -0.00000000000E+00 -0.00000000000E+00 -0.45593999997E+02  0.45594000000E+02  0.51100000000E-03 0. -1.
    9900012    2    1    2    0    0  0.64583339777E+01  0.16571618936E+02  0.58607437421E+01  0.72461629580E+02  0.70000077230E+02 0.  0.
         12    1    1    2    0    0 -0.64583339777E+01 -0.16571618936E+02 -0.58607437421E+01  0.18726370420E+02  0.00000000000E+00 0. -1.
         11    1    3    3    0    0  0.30024074387E+02  0.20580870018E+02 -0.97826691288E+01  0.37692411292E+02  0.51100000000E-03 0. -1.
        -11    1    3    3    0    0  0.12456815893E+01 -0.60301433311E+01  0.30484705869E+01  0.68707732021E+01  0.51100000000E-03 0.  1.
         12    1    3    3    0    0 -0.24811421998E+02  0.20208922491E+01  0.12594942284E+02  0.27898445086E+02  0.00000000000E+00 0. -1.
</event>
<event>
 7    1  0.1351543E-013  0.7246158E+02  0.7816164E-02  0.1226708E+00
        -11   -1    0    0    0    0  0.00000000000E+00  0.00000000000E+00  0.45593999997E+02  0.45594000000E+02  0.51100000000E-03 0. -1.
         11   -1    0    0    0    0 -0.00000000000E+00 -0.00000000000E+00 -0.45593999997E+02  0.45594000000E+02  0.51100000000E-03 0.  1.
    9900012    2    1    2    0    0 -0.15931478626E+02 -0.97507197517E+01  0.13380074921E+01  0.72461579869E+02  0.70000012473E+02 0.  0.
         12    1    1    2    0    0  0.15931478626E+02  0.97507197517E+01 -0.13380074921E+01  0.18726420131E+02  0.00000000000E+00 0. -1.
         11    1    3    3    0    0  0.11363897425E+02 -0.14092348125E+02  0.57661936229E+01  0.18999511297E+02  0.51100000000E-03 0. -1.
        -11    1    3    3    0    0 -0.27424716965E+02 -0.16131343565E+02 -0.76827093946E+01  0.32731626445E+02  0.51100000000E-03 0.  1.
        -12    1    3    3    0    0  0.12934091471E+00  0.20472971939E+02  0.32545232638E+01  0.20730442127E+02  0.00000000000E+00 0.  1.
</event>
<event>
 7    1  0.1351543E-013  0.7246156E+02  0.7816164E-02  0.1226708E+00
        -11   -1    0    0    0    0  0.00000000000E+00  0.00000000000E+00  0.45593999997E+02  0.45594000000E+02  0.51100000000E-03 0. -1.
         11   -1    0    0    0    0 -0.00000000000E+00 -0.00000000000E+00 -0.45593999997E+02  0.45594000000E+02  0.51100000000E-03 0.  1.
    9900012    2    1    2    0    0 -0.11317160810E+02 -0.14436589956E+02 -0.37664726503E+01  0.72461559479E+02  0.69999985911E+02 0.  0.
         12    1    1    2    0    0  0.11317160810E+02  0.14436589956E+02  0.37664726503E+01  0.18726440521E+02  0.00000000000E+00 0. -1.
         11    1    3    3    0    0  0.54614873623E+01  0.20039812519E+02  0.11786974287E+02  0.23882099847E+02  0.51100000000E-03 0. -1.
        -11    1    3    3    0    0 -0.37134699321E+01  0.27504045047E+01 -0.67103682322E+01  0.81476147398E+01  0.51100000000E-03 0.  1.
         12    1    3    3    0    0 -0.13065178240E+02 -0.37226806980E+02 -0.88430787052E+01  0.40431844892E+02  0.00000000000E+00 0. -1.
</event>
<event>
 7    1  0.1351543E-013  0.7246204E+02  0.7816164E-02  0.1226707E+00
        -11   -1    0    0    0    0  0.00000000000E+00  0.00000000000E+00  0.45593999997E+02  0.45594000000E+02  0.51100000000E-03 0.  1.
         11   -1    0    0    0    0 -0.00000000000E+00 -0.00000000000E+00 -0.45593999997E+02  0.45594000000E+02  0.51100000000E-03 0. -1.
    9900012    2    1    2    0    0 -0.18163631773E+02 -0.32763101801E+01 -0.31638405791E+01  0.72462039016E+02  0.70000610594E+02 0.  0.
         12    1    1    2    0    0  0.18163631773E+02  0.32763101801E+01  0.31638405791E+01  0.18725960984E+02  0.00000000000E+00 0. -1.
         11    1    3    3    0    0  0.25064017489E+01  0.92260915946E+01  0.23413912876E+02  0.25290593750E+02  0.51100000000E-03 0.  1.
        -11    1    3    3    0    0 -0.13832045973E+02 -0.10543352503E+02 -0.33182895888E+02  0.37464548010E+02  0.51100000000E-03 0. -1.
         12    1    3    3    0    0 -0.68379875488E+01 -0.19590492715E+01  0.66051424334E+01  0.97068972556E+01  0.00000000000E+00 0. -1.
</event>
<event>
 7    1  0.1351543E-013  0.7246157E+02  0.7816164E-02  0.1226708E+00
        -11   -1    0    0    0    0  0.00000000000E+00  0.00000000000E+00  0.45593999997E+02  0.45594000000E+02  0.51100000000E-03 0. -1.
         11   -1    0    0    0    0 -0.00000000000E+00 -0.00000000000E+00 -0.45593999997E+02  0.45594000000E+02  0.51100000000E-03 0.  1.
    9900012    2    1    2    0    0 -0.53619421799E+01 -0.12821070032E+02 -0.12551851025E+02  0.72461568817E+02  0.69999998076E+02 0.  0.
         12    1    1    2    0    0  0.53619421799E+01  0.12821070032E+02  0.12551851025E+02  0.18726431183E+02  0.00000000000E+00 0. -1.
         11    1    3    3    0    0  0.22267515678E+01  0.42461126798E+01  0.96785187453E+01  0.10801000916E+02  0.51100000000E-03 0. -1.
        -11    1    3    3    0    0  0.18057439308E+02 -0.24727216170E+02 -0.97957550787E+01  0.32147521704E+02  0.51100000000E-03 0.  1.
        -12    1    3    3    0    0 -0.25646133056E+02  0.76600334591E+01 -0.12434614691E+02  0.29513046197E+02  0.00000000000E+00 0.  1.
</event>
<event>
 7    1  0.1351543E-013  0.7246154E+02  0.7816164E-02  0.1226708E+00
        -11   -1    0    0    0    0  0.00000000000E+00  0.00000000000E+00  0.45593999997E+02  0.45594000000E+02  0.51100000000E-03 0.  1.
         11   -1    0    0    0    0 -0.00000000000E+00 -0.00000000000E+00 -0.45593999997E+02  0.45594000000E+02  0.51100000000E-03 0. -1.
    9900012    2    1    2    0    0  0.65808095361E+01 -0.15433119784E+02  0.83181747145E+01  0.72461540885E+02  0.69999961689E+02 0.  0.
         12    1    1    2    0    0 -0.65808095361E+01  0.15433119784E+02 -0.83181747145E+01  0.18726459115E+02  0.00000000000E+00 0. -1.
         11    1    3    3    0    0 -0.20032739642E+02  0.93245191119E+01 -0.46091392157E+01  0.22572139438E+02  0.51100000000E-03 0. -1.
        -11    1    3    3    0    0  0.53699654032E+00 -0.17739034497E+02  0.14385871855E+02  0.22845459493E+02  0.51100000000E-03 0.  1.
         12    1    3    3    0    0  0.26076552638E+02 -0.70186043984E+01 -0.14585579245E+01  0.27043941954E+02  0.00000000000E+00 0. -1.
</event>
<event>
 7    1  0.1351543E-013  0.7246160E+02  0.7816164E-02  0.1226708E+00
        -11   -1    0    0    0    0  0.00000000000E+00  0.00000000000E+00  0.45593999997E+02  0.45594000000E+02  0.51100000000E-03 0.  1.
         11   -1    0    0    0    0 -0.00000000000E+00 -0.00000000000E+00 -0.45593999997E+02  0.45594000000E+02  0.51100000000E-03 0. -1.
    9900012    2    1    2    0    0 -0.15921900296E+02  0.98388083881E+01 -0.60748684246E+00  0.72461598856E+02  0.70000037207E+02 0.  0.
         12    1    1    2    0    0  0.15921900296E+02 -0.98388083881E+01  0.60748684246E+00  0.18726401144E+02  0.00000000000E+00 0. -1.
         11    1    3    3    0    0 -0.30697028437E+02  0.90265395901E+01  0.87457074763E+01  0.33170368875E+02  0.51100000000E-03 0. -1.
        -11    1    3    3    0    0  0.15982444586E+02 -0.15191375860E+02 -0.43026330754E+01  0.22466176513E+02  0.51100000000E-03 0.  1.
        -12    1    3    3    0    0 -0.12073164456E+01  0.16003644658E+02 -0.50505612433E+01  0.16825053468E+02  0.00000000000E+00 0.  1.
</event>
<event>
 7    1  0.1351543E-013  0.7246156E+02  0.7816164E-02  0.1226708E+00
        -11   -1    0    0    0    0  0.00000000000E+00  0.00000000000E+00  0.45593999997E+02  0.45594000000E+02  0.51100000000E-03 0. -1.
         11   -1    0    0    0    0 -0.00000000000E+00 -0.00000000000E+00 -0.45593999997E+02  0.45594000000E+02  0.51100000000E-03 0.  1.
    9900012    2    1    2    0    0 -0.11806737789E+02  0.13337713342E+02 -0.57780630663E+01  0.72461557005E+02  0.69999982689E+02 0.  0.
         12    1    1    2    0    0  0.11806737789E+02 -0.13337713342E+02  0.57780630663E+01  0.18726442995E+02  0.00000000000E+00 0. -1.
         11    1    3    3    0    0 -0.12999621630E+02  0.22708347221E+02  0.41198976113E+01  0.26488351263E+02  0.51100000000E-03 0. -1.
        -11    1    3    3    0    0  0.16731235578E+02 -0.91905007883E+01 -0.19834654002E+02  0.27528404392E+02  0.51100000000E-03 0.  1.
        -12    1    3    3    0    0 -0.15538351738E+02 -0.18013309023E+00  0.99366933245E+01  0.18444801351E+02  0.00000000000E+00 0.  1.
</event>
<event>
 7    1  0.1351543E-013  0.7246147E+02  0.7816164E-02  0.1226708E+00
        -11   -1    0    0    0    0  0.00000000000E+00  0.00000000000E+00  0.45593999997E+02  0.45594000000E+02  0.51100000000E-03 0. -1.
         11   -1    0    0    0    0 -0.00000000000E+00 -0.00000000000E+00 -0.45593999997E+02  0.45594000000E+02  0.51100000000E-03 0.  1.
    9900012    2    1    2    0    0 -0.54454697338E+01  0.16527724841E+02 -0.69184002208E+01  0.72461465600E+02  0.69999863615E+02 0.  0.
         12    1    1    2    0    0  0.54454697338E+01 -0.16527724841E+02  0.69184002208E+01  0.18726534400E+02  0.00000000000E+00 0. -1.
         11    1    3    3    0    0  0.12763770430E+02 -0.15534633180E+02  0.76283049339E+01  0.21504178665E+02  0.51100000000E-03 0. -1.
        -11    1    3    3    0    0 -0.29551165490E+01  0.43879239878E+01 -0.18379451679E+02  0.19125659075E+02  0.51100000000E-03 0.  1.
         12    1    3    3    0    0 -0.15254123614E+02  0.27674434033E+02  0.38327465247E+01  0.31831627860E+02  0.00000000000E+00 0. -1.
</event>
<event>
 8    1  0.1351543E-013  0.7246147E+02  0.7816164E-02  0.1226708E+00
        -11   -1    0    0    0    0  0.00000000000E+00  0.00000000000E+00  0.45593999997E+02  0.45594000000E+02  0.51100000000E-03 0. -1.
         11   -1    0    0    0    0 -0.00000000000E+00 -0.00000000000E+00 -0.45593999997E+02  0.45594000000E+02  0.51100000000E-03 0.  1.
    9900012    2    1    2    0    0  0.94271720908E+01  0.12678151400E+02  0.10053642469E+02  0.72461472734E+02  0.69999872909E+02 0.  0.
        -24    2    3    3    0    0  0.21809980775E+02  0.11460653844E+02  0.12095674482E+02  0.59852501871E+02  0.53188295621E+02 0.  0.
         12    1    1    2    0    0 -0.94271720908E+01 -0.12678151400E+02 -0.10053642469E+02  0.18726527266E+02  0.00000000000E+00 0. -1.
         11    1    4    4    0    0  0.32132408096E+02  0.42833277726E+01  0.25670587199E+02  0.41349940681E+02  0.51100000000E-03 0. -1.
        -11    1    3    3    0    0 -0.12382808685E+02  0.12174975566E+01 -0.20420320134E+01  0.12608970863E+02  0.51100000000E-03 0.  1.
        -12    1    4    4    0    0 -0.10322427321E+02  0.71773260709E+01 -0.13574912717E+02  0.18502561190E+02  0.00000000000E+00 0.  1.
</event>
<event>
 7    1  0.1351543E-013  0.7246155E+02  0.7816164E-02  0.1226708E+00
        -11   -1    0    0    0    0  0.00000000000E+00  0.00000000000E+00  0.45593999997E+02  0.45594000000E+02  0.51100000000E-03 0.  1.
         11   -1    0    0    0    0 -0.00000000000E+00 -0.00000000000E+00 -0.45593999997E+02  0.45594000000E+02  0.51100000000E-03 0. -1.
    9900012    2    1    2    0    0 -0.71004008798E+01  0.76864081428E+01  0.15530083364E+02  0.72461546730E+02  0.69999969303E+02 0.  0.
         12    1    1    2    0    0  0.71004008798E+01 -0.76864081428E+01 -0.15530083364E+02  0.18726453270E+02  0.00000000000E+00 0. -1.
         11    1    3    3    0    0 -0.62920890807E+01 -0.50660278000E+01  0.10609126700E+01  0.81474265031E+01  0.51100000000E-03 0. -1.
        -11    1    3    3    0    0  0.11301282510E+02  0.26139883305E+02  0.29367836363E+02  0.40908217982E+02  0.51100000000E-03 0.  1.
        -12    1    3    3    0    0 -0.12109594309E+02 -0.13387447362E+02 -0.14898665669E+02  0.23405902245E+02  0.00000000000E+00 0.  1.
</event>
<event>
 7    1  0.1351543E-013  0.7246157E+02  0.7816164E-02  0.1226708E+00
        -11   -1    0    0    0    0  0.00000000000E+00  0.00000000000E+00  0.45593999997E+02  0.45594000000E+02  0.51100000000E-03 0.  1.
         11   -1    0    0    0    0 -0.00000000000E+00 -0.00000000000E+00 -0.45593999997E+02  0.45594000000E+02  0.51100000000E-03 0. -1.
    9900012    2    1    2    0    0  0.11611414522E+02 -0.11054657505E+02  0.96772308882E+01  0.72461569549E+02  0.69999999030E+02 0.  0.
         12    1    1    2    0    0 -0.11611414522E+02  0.11054657505E+02 -0.96772308882E+01  0.18726430451E+02  0.00000000000E+00 0. -1.
         11    1    3    3    0    0 -0.79118510219E+00  0.15616163164E+02 -0.46275337576E+01  0.16306581333E+02  0.51100000000E-03 0. -1.
        -11    1    3    3    0    0  0.39967244724E+01 -0.19953118092E+02  0.30527342715E+02  0.36688136797E+02  0.51100000000E-03 0.  1.
        -12    1    3    3    0    0  0.84058751521E+01 -0.67177025765E+01 -0.16222578069E+02  0.19466851419E+02  0.00000000000E+00 0.  1.
</event>
<event>
 7    1  0.1351543E-013  0.7246156E+02  0.7816164E-02  0.1226708E+00
        -11   -1    0    0    0    0  0.00000000000E+00  0.00000000000E+00  0.45593999997E+02  0.45594000000E+02  0.51100000000E-03 0.  1.
         11   -1    0    0    0    0 -0.00000000000E+00 -0.00000000000E+00 -0.45593999997E+02  0.45594000000E+02  0.51100000000E-03 0. -1.
    9900012    2    1    2    0    0  0.16114890351E+02  0.30748349460E+01  0.90296924652E+01  0.72461557546E+02  0.69999983393E+02 0.  0.
         12    1    1    2    0    0 -0.16114890351E+02 -0.30748349460E+01 -0.90296924652E+01  0.18726442454E+02  0.00000000000E+00 0. -1.
         11    1    3    3    0    0 -0.18113388182E+02 -0.62438055301E+01  0.53094346877E+01  0.19881399244E+02  0.51100000000E-03 0. -1.
        -11    1    3    3    0    0  0.25493166999E+01  0.14488537604E+02 -0.98787098848E+01  0.17720204479E+02  0.51100000000E-03 0.  1.
        -12    1    3    3    0    0  0.31678961832E+02 -0.51698971280E+01  0.13598967662E+02  0.34859953823E+02  0.00000000000E+00 0.  1.
</event>
<event>
 7    1  0.1351543E-013  0.7246153E+02  0.7816164E-02  0.1226708E+00
        -11   -1    0    0    0    0  0.00000000000E+00  0.00000000000E+00  0.45593999997E+02  0.45594000000E+02  0.51100000000E-03 0. -1.
         11   -1    0    0    0    0 -0.00000000000E+00 -0.00000000000E+00 -0.45593999997E+02  0.45594000000E+02  0.51100000000E-03 0.  1.
    9900012    2    1    2    0    0  0.16608258984E+02 -0.33126001264E+00 -0.86450433140E+01  0.72461527466E+02  0.69999944207E+02 0.  0.
         12    1    1    2    0    0 -0.16608258984E+02  0.33126001264E+00  0.86450433140E+01  0.18726472534E+02  0.00000000000E+00 0. -1.
         11    1    3    3    0    0  0.44764095744E+01 -0.25884960477E+02 -0.16299084543E+02  0.30914876334E+02  0.51100000000E-03 0.  1.
        -11    1    3    3    0    0  0.30512326016E+01  0.26168537930E+02 -0.41189131651E+01  0.26665855391E+02  0.51100000000E-03 0. -1.
         12    1    3    3    0    0  0.90806168082E+01 -0.61483746625E+00  0.11772954394E+02  0.14880795741E+02  0.00000000000E+00 0. -1.
</event>
<event>
 7    1  0.1351543E-013  0.7246097E+02  0.7816164E-02  0.1226710E+00
        -11   -1    0    0    0    0  0.00000000000E+00  0.00000000000E+00  0.45593999997E+02  0.45594000000E+02  0.51100000000E-03 0. -1.
         11   -1    0    0    0    0 -0.00000000000E+00 -0.00000000000E+00 -0.45593999997E+02  0.45594000000E+02  0.51100000000E-03 0.  1.
    9900012    2    1    2    0    0 -0.46767656731E+00  0.18634772663E+02  0.17967570499E+01  0.72460965812E+02  0.69999212545E+02 0.  0.
         12    1    1    2    0    0  0.46767656731E+00 -0.18634772663E+02 -0.17967570499E+01  0.18727034188E+02  0.00000000000E+00 0. -1.
         11    1    3    3    0    0  0.25521206136E+02  0.90490103721E+01  0.12029260417E+01  0.27104678244E+02  0.51100000000E-03 0. -1.
        -11    1    3    3    0    0 -0.28747454991E+02 -0.59557547097E+01  0.24655417572E+01  0.29461264043E+02  0.51100000000E-03 0.  1.
        -12    1    3    3    0    0  0.27585722870E+01  0.15541517001E+02 -0.18717107491E+01  0.15895023525E+02  0.00000000000E+00 0.  1.
</event>
<event>
 7    1  0.1351543E-013  0.7246157E+02  0.7816164E-02  0.1226708E+00
        -11   -1    0    0    0    0  0.00000000000E+00  0.00000000000E+00  0.45593999997E+02  0.45594000000E+02  0.51100000000E-03 0. -1.
         11   -1    0    0    0    0 -0.00000000000E+00 -0.00000000000E+00 -0.45593999997E+02  0.45594000000E+02  0.51100000000E-03 0.  1.
    9900012    2    1    2    0    0  0.32935765797E+01 -0.13743328461E+01 -0.18383217541E+02  0.72461571493E+02  0.70000001561E+02 0.  0.
         12    1    1    2    0    0 -0.32935765797E+01  0.13743328461E+01  0.18383217541E+02  0.18726428507E+02  0.00000000000E+00 0. -1.
         11    1    3    3    0    0  0.82304778017E+01 -0.21862949927E+02 -0.22302156658E+02  0.32297299209E+02  0.51100000000E-03 0. -1.
        -11    1    3    3    0    0 -0.17621672434E+02  0.20777268910E+02  0.35179929079E+01  0.27469883821E+02  0.51100000000E-03 0.  1.
        -12    1    3    3    0    0  0.12684771212E+02 -0.28865182946E+00  0.40094620846E+00  0.12694388463E+02  0.00000000000E+00 0.  1.
</event>
<event>
 7    1  0.1351543E-013  0.7246155E+02  0.7816164E-02  0.1226708E+00
        -11   -1    0    0    0    0  0.00000000000E+00  0.00000000000E+00  0.45593999997E+02  0.45594000000E+02  0.51100000000E-03 0.  1.
         11   -1    0    0    0    0 -0.00000000000E+00 -0.00000000000E+00 -0.45593999997E+02  0.45594000000E+02  0.51100000000E-03 0. -1.
    9900012    2    1    2    0    0  0.17912095026E+02  0.30189035815E+01  0.45522668252E+01  0.72461546510E+02  0.69999969017E+02 0.  0.
         12    1    1    2    0    0 -0.17912095026E+02 -0.30189035815E+01 -0.45522668252E+01  0.18726453490E+02  0.00000000000E+00 0. -1.
         11    1    3    3    0    0 -0.11092955429E+02  0.13340445186E+01 -0.14423882701E+02  0.18245046652E+02  0.51100000000E-03 0. -1.
        -11    1    3    3    0    0  0.15158207351E+02 -0.11684179990E+02 -0.82769852226E+01  0.20851853558E+02  0.51100000000E-03 0.  1.
         12    1    3    3    0    0  0.13846843104E+02  0.13369039053E+02  0.27253134748E+02  0.33364646300E+02  0.00000000000E+00 0. -1.
</event>
<event>
 7    1  0.1351543E-013  0.7246156E+02  0.7816164E-02  0.1226708E+00
        -11   -1    0    0    0    0  0.00000000000E+00  0.00000000000E+00  0.45593999997E+02  0.45594000000E+02  0.51100000000E-03 0. -1.
         11   -1    0    0    0    0 -0.00000000000E+00 -0.00000000000E+00 -0.45593999997E+02  0.45594000000E+02  0.51100000000E-03 0.  1.
    9900012    2    1    2    0    0 -0.12880306011E+02 -0.13580457997E+02 -0.59017609662E+00  0.72461563335E+02  0.69999990934E+02 0.  0.
         12    1    1    2    0    0  0.12880306011E+02  0.13580457997E+02  0.59017609662E+00  0.18726436665E+02  0.00000000000E+00 0. -1.
         11    1    3    3    0    0  0.17438659075E+01 -0.65005969511E+01  0.16207706583E+02  0.17549603471E+02  0.51100000000E-03 0. -1.
        -11    1    3    3    0    0  0.12601472559E+01 -0.48944370265E+01 -0.32250311292E+02  0.32643928434E+02  0.51100000000E-03 0.  1.
        -12    1    3    3    0    0 -0.15884319174E+02 -0.21854240197E+01  0.15452428612E+02  0.22268031430E+02  0.00000000000E+00 0.  1.
</event>
<event>
 7    1  0.1351543E-013  0.7246166E+02  0.7816164E-02  0.1226708E+00
        -11   -1    0    0    0    0  0.00000000000E+00  0.00000000000E+00  0.45593999997E+02  0.45594000000E+02  0.51100000000E-03 0. -1.
         11   -1    0    0    0    0 -0.00000000000E+00 -0.00000000000E+00 -0.45593999997E+02  0.45594000000E+02  0.51100000000E-03 0.  1.
    9900012    2    1    2    0    0 -0.17196178069E+02  0.70552663743E+01 -0.22782408378E+01  0.72461662795E+02  0.70000120500E+02 0.  0.
         12    1    1    2    0    0  0.17196178069E+02 -0.70552663743E+01  0.22782408378E+01  0.18726337205E+02  0.00000000000E+00 0. -1.
         11    1    3    3    0    0 -0.29289091140E+02  0.69835922722E+01  0.85585879576E+01  0.31302888827E+02  0.51100000000E-03 0. -1.
        -11    1    3    3    0    0  0.17503926696E+02 -0.13482863012E+02  0.13629816310E+01  0.22136683671E+02  0.51100000000E-03 0.  1.
        -12    1    3    3    0    0 -0.54110136249E+01  0.13554537114E+02 -0.12199810426E+02  0.19022090297E+02  0.00000000000E+00 0.  1.
</event>
<event>
 7    1  0.1351543E-013  0.7246168E+02  0.7816164E-02  0.1226708E+00
        -11   -1    0    0    0    0  0.00000000000E+00  0.00000000000E+00  0.45593999997E+02  0.45594000000E+02  0.51100000000E-03 0.  1.
         11   -1    0    0    0    0 -0.00000000000E+00 -0.00000000000E+00 -0.45593999997E+02  0.45594000000E+02  0.51100000000E-03 0. -1.
    9900012    2    1    2    0    0 -0.12770074942E+02 -0.68565901557E+01  0.11856955810E+02  0.72461680456E+02  0.70000143506E+02 0.  0.
         12    1    1    2    0    0  0.12770074942E+02  0.68565901557E+01 -0.11856955810E+02  0.18726319544E+02  0.00000000000E+00 0. -1.
         11    1    3    3    0    0 -0.16757597531E+01 -0.27195814884E+02 -0.18544475138E+02  0.32959339744E+02  0.51100000000E-03 0. -1.
        -11    1    3    3    0    0 -0.20108159825E+01  0.12384940870E+01 -0.12464192936E+00  0.23649068461E+01  0.51100000000E-03 0.  1.
         12    1    3    3    0    0 -0.90834992069E+01  0.19100730641E+02  0.30526072877E+02  0.37137433866E+02  0.00000000000E+00 0. -1.
</event>
<event>
 7    1  0.1351543E-013  0.7246154E+02  0.7816164E-02  0.1226708E+00
        -11   -1    0    0    0    0  0.00000000000E+00  0.00000000000E+00  0.45593999997E+02  0.45594000000E+02  0.51100000000E-03 0. -1.
         11   -1    0    0    0    0 -0.00000000000E+00 -0.00000000000E+00 -0.45593999997E+02  0.45594000000E+02  0.51100000000E-03 0.  1.
    9900012    2    1    2    0    0 -0.13247536838E+02  0.13079074540E+02  0.20299515510E+01  0.72461544745E+02  0.69999966718E+02 0.  0.
         12    1    1    2    0    0  0.13247536838E+02 -0.13079074540E+02 -0.20299515510E+01  0.18726455255E+02  0.00000000000E+00 0. -1.
         11    1    3    3    0    0 -0.82863425256E+01  0.32518256040E+02  0.11428062059E+02  0.35449979563E+02  0.51100000000E-03 0. -1.
        -11    1    3    3    0    0  0.30172261742E+01 -0.58971587030E+01 -0.17939268286E+02  0.19123218386E+02  0.51100000000E-03 0.  1.
        -12    1    3    3    0    0 -0.79784204866E+01 -0.13542022797E+02  0.85411577779E+01  0.17888346796E+02  0.00000000000E+00 0.  1.
</event>
<event>
 7    1  0.1351543E-013  0.7246155E+02  0.7816164E-02  0.1226708E+00
        -11   -1    0    0    0    0  0.00000000000E+00  0.00000000000E+00  0.45593999997E+02  0.45594000000E+02  0.51100000000E-03 0.  1.
         11   -1    0    0    0    0 -0.00000000000E+00 -0.00000000000E+00 -0.45593999997E+02  0.45594000000E+02  0.51100000000E-03 0. -1.
    9900012    2    1    2    0    0 -0.10473594597E+02 -0.13834493563E+01  0.15461887376E+02  0.72461546060E+02  0.69999968431E+02 0.  0.
         12    1    1    2    0    0  0.10473594597E+02  0.13834493563E+01 -0.15461887376E+02  0.18726453940E+02  0.00000000000E+00 0. -1.
         11    1    3    3    0    0 -0.17231169705E+02 -0.47781277823E+01 -0.97478902294E+01  0.20365782054E+02  0.51100000000E-03 0. -1.
        -11    1    3    3    0    0 -0.62283963478E+01 -0.59036858430E+01  0.33161623461E+02  0.34254046453E+02  0.51100000000E-03 0.  1.
        -12    1    3    3    0    0  0.12985971455E+02  0.92983642690E+01 -0.79518458553E+01  0.17841717552E+02  0.00000000000E+00 0.  1.
</event>
<event>
 7    1  0.1351543E-013  0.7246157E+02  0.7816164E-02  0.1226708E+00
        -11   -1    0    0    0    0  0.00000000000E+00  0.00000000000E+00  0.45593999997E+02  0.45594000000E+02  0.51100000000E-03 0.  1.
         11   -1    0    0    0    0 -0.00000000000E+00 -0.00000000000E+00 -0.45593999997E+02  0.45594000000E+02  0.51100000000E-03 0. -1.
    9900012    2    1    2    0    0  0.10210946289E+02  0.38436635439E+01  0.15219794916E+02  0.72461565987E+02  0.69999994389E+02 0.  0.
         12    1    1    2    0    0 -0.10210946289E+02 -0.38436635439E+01 -0.15219794916E+02  0.18726434013E+02  0.00000000000E+00 0. -1.
         11    1    3    3    0    0  0.18575923720E+02  0.28297645336E+02  0.66166365153E+01  0.34490600932E+02  0.51100000000E-03 0. -1.
        -11    1    3    3    0    0 -0.77557743535E+01  0.38442472867E+01  0.25785374604E+01  0.90321165139E+01  0.51100000000E-03 0.  1.
         12    1    3    3    0    0 -0.60920307763E+00 -0.28298229079E+02  0.60246209404E+01  0.28938848541E+02  0.00000000000E+00 0. -1.
</event>
<event>
 7    1  0.1351543E-013  0.7246158E+02  0.7816164E-02  0.1226708E+00
        -11   -1    0    0    0    0  0.00000000000E+00  0.00000000000E+00  0.45593999997E+02  0.45594000000E+02  0.51100000000E-03 0.  1.
         11   -1    0    0    0    0 -0.00000000000E+00 -0.00000000000E+00 -0.45593999997E+02  0.45594000000E+02  0.51100000000E-03 0. -1.
    9900012    2    1    2    0    0  0.58473424202E+00  0.30318116080E+01  0.18470110663E+02  0.72461580597E+02  0.70000013421E+02 0.  0.
         12    1    1    2    0    0 -0.58473424202E+00 -0.30318116080E+01 -0.18470110663E+02  0.18726419403E+02  0.00000000000E+00 0. -1.
         11    1    3    3    0    0 -0.17610561693E+02 -0.21285664736E+02 -0.57934025837E+01  0.28227201777E+02  0.51100000000E-03 0. -1.
        -11    1    3    3    0    0  0.52979539478E+01  0.11854779852E+01  0.15363376268E+02  0.16294385681E+02  0.51100000000E-03 0.  1.
         12    1    3    3    0    0  0.12897341987E+02  0.23131998359E+02  0.89001369782E+01  0.27939993140E+02  0.00000000000E+00 0. -1.
</event>
<event>
 7    1  0.1351543E-013  0.7246159E+02  0.7816164E-02  0.1226708E+00
        -11   -1    0    0    0    0  0.00000000000E+00  0.00000000000E+00  0.45593999997E+02  0.45594000000E+02  0.51100000000E-03 0.  1.
         11   -1    0    0    0    0 -0.00000000000E+00 -0.00000000000E+00 -0.45593999997E+02  0.45594000000E+02  0.51100000000E-03 0. -1.
    9900012    2    1    2    0    0 -0.14094646418E+02  0.71424181756E+01  0.10050134087E+02  0.72461591103E+02  0.70000027107E+02 0.  0.
         12    1    1    2    0    0  0.14094646418E+02 -0.71424181756E+01 -0.10050134087E+02  0.18726408897E+02  0.00000000000E+00 0. -1.
         11    1    3    3    0    0  0.97608308425E+01 -0.30886074897E+01 -0.12791806645E+02  0.16384249524E+02  0.51100000000E-03 0. -1.
        -11    1    3    3    0    0 -0.65782199679E+01 -0.28636867731E+01  0.31815645830E+02  0.32614551962E+02  0.51100000000E-03 0.  1.
         12    1    3    3    0    0 -0.17277257292E+02  0.13094712438E+02 -0.89737050983E+01  0.23462789616E+02  0.00000000000E+00 0. -1.
</event>
<event>
 7    1  0.1351543E-013  0.7246158E+02  0.7816164E-02  0.1226708E+00
        -11   -1    0    0    0    0  0.00000000000E+00  0.00000000000E+00  0.45593999997E+02  0.45594000000E+02  0.51100000000E-03 0.  1.
         11   -1    0    0    0    0 -0.00000000000E+00 -0.00000000000E+00 -0.45593999997E+02  0.45594000000E+02  0.51100000000E-03 0. -1.
    9900012    2    1    2    0    0  0.52878506142E+00  0.61508840105E+01  0.17679535246E+02  0.72461576042E+02  0.70000007487E+02 0.  0.
         12    1    1    2    0    0 -0.52878506142E+00 -0.61508840105E+01 -0.17679535246E+02  0.18726423958E+02  0.00000000000E+00 0. -1.
         11    1    3    3    0    0 -0.72010218155E+00  0.79382634797E+01  0.28946160268E+02  0.30023570220E+02  0.51100000000E-03 0. -1.
        -11    1    3    3    0    0 -0.19026949873E+02 -0.31659310211E+01 -0.10807973908E+02  0.22110184100E+02  0.51100000000E-03 0.  1.
         12    1    3    3    0    0  0.20275837116E+02  0.13785515519E+01 -0.45865111372E+00  0.20327821722E+02  0.00000000000E+00 0. -1.
</event>
<event>
 7    1  0.1351543E-013  0.7246160E+02  0.7816164E-02  0.1226708E+00
        -11   -1    0    0    0    0  0.00000000000E+00  0.00000000000E+00  0.45593999997E+02  0.45594000000E+02  0.51100000000E-03 0. -1.
         11   -1    0    0    0    0 -0.00000000000E+00 -0.00000000000E+00 -0.45593999997E+02  0.45594000000E+02  0.51100000000E-03 0.  1.
    9900012    2    1    2    0    0 -0.14224066379E+02 -0.74017457029E+01  0.96730564095E+01  0.72461603547E+02  0.70000043318E+02 0.  0.
         12    1    1    2    0    0  0.14224066379E+02  0.74017457029E+01 -0.96730564095E+01  0.18726396453E+02  0.00000000000E+00 0. -1.
         11    1    3    3    0    0 -0.75783302585E+00 -0.22943708712E+01  0.33515456240E+02  0.33602444194E+02  0.51100000000E-03 0. -1.
        -11    1    3    3    0    0 -0.21823684034E+02 -0.31106383983E+01 -0.18116949707E+02  0.28533719053E+02  0.51100000000E-03 0.  1.
        -12    1    3    3    0    0  0.83574506810E+01 -0.19967364334E+01 -0.57254501235E+01  0.10325440300E+02  0.00000000000E+00 0.  1.
</event>
<event>
 7    1  0.1351543E-013  0.7246156E+02  0.7816164E-02  0.1226708E+00
        -11   -1    0    0    0    0  0.00000000000E+00  0.00000000000E+00  0.45593999997E+02  0.45594000000E+02  0.51100000000E-03 0. -1.
         11   -1    0    0    0    0 -0.00000000000E+00 -0.00000000000E+00 -0.45593999997E+02  0.45594000000E+02  0.51100000000E-03 0.  1.
    9900012    2    1    2    0    0 -0.27632365324E+00 -0.12019802230E+02 -0.14357149409E+02  0.72461555074E+02  0.69999980173E+02 0.  0.
         12    1    1    2    0    0  0.27632365324E+00  0.12019802230E+02  0.14357149409E+02  0.18726444926E+02  0.00000000000E+00 0. -1.
         11    1    3    3    0    0 -0.77771881297E+01 -0.33650206462E+01  0.15437015824E+02  0.17609925524E+02  0.51100000000E-03 0. -1.
        -11    1    3    3    0    0  0.21473688902E+02 -0.58184343776E+01 -0.47905413300E+00  0.22253156783E+02  0.51100000000E-03 0.  1.
        -12    1    3    3    0    0 -0.13972824426E+02 -0.28363472061E+01 -0.29315111101E+02  0.32598472767E+02  0.00000000000E+00 0.  1.
</event>
<event>
 7    1  0.1351543E-013  0.7246164E+02  0.7816164E-02  0.1226708E+00
        -11   -1    0    0    0    0  0.00000000000E+00  0.00000000000E+00  0.45593999997E+02  0.45594000000E+02  0.51100000000E-03 0.  1.
         11   -1    0    0    0    0 -0.00000000000E+00 -0.00000000000E+00 -0.45593999997E+02  0.45594000000E+02  0.51100000000E-03 0. -1.
    9900012    2    1    2    0    0  0.50821553585E+01 -0.12005182101E+00  0.18023143518E+02  0.72461643767E+02  0.70000095711E+02 0.  0.
         12    1    1    2    0    0 -0.50821553585E+01  0.12005182101E+00 -0.18023143518E+02  0.18726356233E+02  0.00000000000E+00 0. -1.
         11    1    3    3    0    0 -0.57643708439E+01 -0.14300895981E+02 -0.19967947216E+01  0.15547693929E+02  0.51100000000E-03 0. -1.
        -11    1    3    3    0    0  0.60357143484E+01  0.32991114457E+02  0.15660702904E+02  0.37014876692E+02  0.51100000000E-03 0.  1.
        -12    1    3    3    0    0  0.48108118540E+01 -0.18810270297E+02  0.43592353353E+01  0.19899073146E+02  0.00000000000E+00 0.  1.
</event>
<event>
 7    1  0.1351543E-013  0.7246158E+02  0.7816164E-02  0.1226708E+00
        -11   -1    0    0    0    0  0.00000000000E+00  0.00000000000E+00  0.45593999997E+02  0.45594000000E+02  0.51100000000E-03 0. -1.
         11   -1    0    0    0    0 -0.00000000000E+00 -0.00000000000E+00 -0.45593999997E+02  0.45594000000E+02  0.51100000000E-03 0.  1.
    9900012    2    1    2    0    0 -0.45885819020E+01 -0.78096406318E+00 -0.18138743075E+02  0.72461575112E+02  0.70000006276E+02 0.  0.
         12    1    1    2    0    0  0.45885819020E+01  0.78096406318E+00  0.18138743075E+02  0.18726424888E+02  0.00000000000E+00 0. -1.
         11    1    3    3    0    0  0.25659816247E+02  0.17920171551E+02 -0.10985756835E+01  0.31317177188E+02  0.51100000000E-03 0. -1.
        -11    1    3    3    0    0 -0.75992282630E+01 -0.14631263541E+01  0.42471861772E+00  0.77504448316E+01  0.51100000000E-03 0.  1.
         12    1    3    3    0    0 -0.22649169886E+02 -0.17238009260E+02 -0.17464886010E+02  0.33393953092E+02  0.00000000000E+00 0. -1.
</event>
<event>
 7    1  0.1351543E-013  0.7246158E+02  0.7816164E-02  0.1226708E+00
        -11   -1    0    0    0    0  0.00000000000E+00  0.00000000000E+00  0.45593999997E+02  0.45594000000E+02  0.51100000000E-03 0. -1.
         11   -1    0    0    0    0 -0.00000000000E+00 -0.00000000000E+00 -0.45593999997E+02  0.45594000000E+02  0.51100000000E-03 0.  1.
    9900012    2    1    2    0    0  0.10752162151E+02 -0.86532808043E+01 -0.12656646594E+02  0.72461575819E+02  0.70000007197E+02 0.  0.
         12    1    1    2    0    0 -0.10752162151E+02  0.86532808043E+01  0.12656646594E+02  0.18726424181E+02  0.00000000000E+00 0. -1.
         11    1    3    3    0    0 -0.90876235808E+01 -0.22566250648E+02 -0.23512826211E+02  0.33833024804E+02  0.51100000000E-03 0. -1.
        -11    1    3    3    0    0  0.25240981572E+02  0.72880182646E+01  0.20434175283E+01  0.26351431012E+02  0.51100000000E-03 0.  1.
        -12    1    3    3    0    0 -0.54011958405E+01  0.66249515794E+01  0.88127620887E+01  0.12277120003E+02  0.00000000000E+00 0.  1.
</event>
<event>
 7    1  0.1351543E-013  0.7246152E+02  0.7816164E-02  0.1226708E+00
        -11   -1    0    0    0    0  0.00000000000E+00  0.00000000000E+00  0.45593999997E+02  0.45594000000E+02  0.51100000000E-03 0. -1.
         11   -1    0    0    0    0 -0.00000000000E+00 -0.00000000000E+00 -0.45593999997E+02  0.45594000000E+02  0.51100000000E-03 0.  1.
    9900012    2    1    2    0    0  0.13382140312E+02  0.97407172499E+00 -0.13063335031E+02  0.72461515621E+02  0.69999928778E+02 0.  0.
         12    1    1    2    0    0 -0.13382140312E+02 -0.97407172499E+00  0.13063335031E+02  0.18726484379E+02  0.00000000000E+00 0. -1.
         11    1    3    3    0    0 -0.25383305688E+02  0.26291145330E+01  0.37383406558E+01  0.25791464519E+02  0.51100000000E-03 0. -1.
        -11    1    3    3    0    0  0.13473716076E+02 -0.87841620921E+01 -0.12432808523E+01  0.16132212375E+02  0.51100000000E-03 0.  1.
         12    1    3    3    0    0  0.25291729925E+02  0.71291192841E+01 -0.15558394834E+02  0.30537838728E+02  0.00000000000E+00 0. -1.
</event>
<event>
 7    1  0.1351543E-013  0.7246156E+02  0.7816164E-02  0.1226708E+00
        -11   -1    0    0    0    0  0.00000000000E+00  0.00000000000E+00  0.45593999997E+02  0.45594000000E+02  0.51100000000E-03 0. -1.
         11   -1    0    0    0    0 -0.00000000000E+00 -0.00000000000E+00 -0.45593999997E+02  0.45594000000E+02  0.51100000000E-03 0.  1.
    9900012    2    1    2    0    0  0.12676235857E+02  0.42285681741E+01 -0.13119146114E+02  0.72461555087E+02  0.69999980190E+02 0.  0.
         12    1    1    2    0    0 -0.12676235857E+02 -0.42285681741E+01  0.13119146114E+02  0.18726444913E+02  0.00000000000E+00 0. -1.
         11    1    3    3    0    0  0.30478435960E+01  0.25872751038E+01 -0.28197556449E+01  0.48922760763E+01  0.51100000000E-03 0. -1.
        -11    1    3    3    0    0 -0.11720268709E+02 -0.27609667730E+02 -0.90689190250E+01  0.31335343358E+02  0.51100000000E-03 0.  1.
        -12    1    3    3    0    0  0.21348660970E+02  0.29250960801E+02 -0.12304714443E+01  0.36233935654E+02  0.00000000000E+00 0.  1.
</event>
<event>
 7    1  0.1351543E-013  0.7246169E+02  0.7816164E-02  0.1226708E+00
        -11   -1    0    0    0    0  0.00000000000E+00  0.00000000000E+00  0.45593999997E+02  0.45594000000E+02  0.51100000000E-03 0.  1.
         11   -1    0    0    0    0 -0.00000000000E+00 -0.00000000000E+00 -0.45593999997E+02  0.45594000000E+02  0.51100000000E-03 0. -1.
    9900012    2    1    2    0    0 -0.17052788062E+02  0.60075201000E+01  0.48771788847E+01  0.72461688235E+02  0.70000153640E+02 0.  0.
         12    1    1    2    0    0  0.17052788062E+02 -0.60075201000E+01 -0.48771788847E+01  0.18726311765E+02  0.00000000000E+00 0. -1.
         11    1    3    3    0    0 -0.39917542408E+01  0.20300287339E+02 -0.21198614261E+02  0.29621225748E+02  0.51100000000E-03 0. -1.
        -11    1    3    3    0    0 -0.17343654868E+02 -0.50128198449E+01  0.39679577188E+01  0.18484464171E+02  0.51100000000E-03 0.  1.
         12    1    3    3    0    0  0.42826210473E+01 -0.92799473944E+01  0.22107835427E+02  0.24355998316E+02  0.00000000000E+00 0. -1.
</event>
<event>
 7    1  0.1351543E-013  0.7246156E+02  0.7816164E-02  0.1226708E+00
        -11   -1    0    0    0    0  0.00000000000E+00  0.00000000000E+00  0.45593999997E+02  0.45594000000E+02  0.51100000000E-03 0.  1.
         11   -1    0    0    0    0 -0.00000000000E+00 -0.00000000000E+00 -0.45593999997E+02  0.45594000000E+02  0.51100000000E-03 0. -1.
    9900012    2    1    2    0    0  0.15441070859E+02  0.92237638100E+01 -0.52129862398E+01  0.72461555766E+02  0.69999981074E+02 0.  0.
         12    1    1    2    0    0 -0.15441070859E+02 -0.92237638100E+01  0.52129862398E+01  0.18726444234E+02  0.00000000000E+00 0. -1.
         11    1    3    3    0    0  0.36654409871E+02 -0.33150727827E+01 -0.23634325487E+01  0.36879822182E+02  0.51100000000E-03 0. -1.
        -11    1    3    3    0    0 -0.26419612016E+02  0.99559495242E+01  0.15753745050E+01  0.28277175161E+02  0.51100000000E-03 0.  1.
        -12    1    3    3    0    0  0.52062730048E+01  0.25828870685E+01 -0.44249281961E+01  0.73045584227E+01  0.00000000000E+00 0.  1.
</event>
<event>
 7    1  0.1351543E-013  0.7246167E+02  0.7816164E-02  0.1226708E+00
        -11   -1    0    0    0    0  0.00000000000E+00  0.00000000000E+00  0.45593999997E+02  0.45594000000E+02  0.51100000000E-03 0.  1.
         11   -1    0    0    0    0 -0.00000000000E+00 -0.00000000000E+00 -0.45593999997E+02  0.45594000000E+02  0.51100000000E-03 0. -1.
    9900012    2    1    2    0    0  0.15062911892E+02 -0.10257975265E+02  0.43078985707E+01  0.72461671975E+02  0.70000132458E+02 0.  0.
         12    1    1    2    0    0 -0.15062911892E+02  0.10257975265E+02 -0.43078985707E+01  0.18726328025E+02  0.00000000000E+00 0. -1.
         11    1    3    3    0    0 -0.57300777486E+01  0.62873314360E+00 -0.12197623556E+02  0.13491149582E+02  0.51100000000E-03 0. -1.
        -11    1    3    3    0    0  0.24485374575E+02  0.14984336796E+02  0.15931450946E+02  0.32831007398E+02  0.51100000000E-03 0.  1.
        -12    1    3    3    0    0 -0.36923849338E+01 -0.25871045204E+02  0.57407118038E+00  0.26139514995E+02  0.00000000000E+00 0.  1.
</event>
<event>
 7    1  0.1351543E-013  0.7246154E+02  0.7816164E-02  0.1226708E+00
        -11   -1    0    0    0    0  0.00000000000E+00  0.00000000000E+00  0.45593999997E+02  0.45594000000E+02  0.51100000000E-03 0. -1.
         11   -1    0    0    0    0 -0.00000000000E+00 -0.00000000000E+00 -0.45593999997E+02  0.45594000000E+02  0.51100000000E-03 0.  1.
    9900012    2    1    2    0    0  0.14275672867E+02  0.88565801866E+01 -0.82732393751E+01  0.72461539091E+02  0.69999959352E+02 0.  0.
         12    1    1    2    0    0 -0.14275672867E+02 -0.88565801866E+01  0.82732393751E+01  0.18726460909E+02  0.00000000000E+00 0. -1.
         11    1    3    3    0    0  0.75477099282E+01  0.24100377461E+02  0.21307691198E+02  0.33042606183E+02  0.51100000000E-03 0. -1.
        -11    1    3    3    0    0  0.12396453661E+02 -0.33089894064E+01 -0.15150216144E+02  0.19853224517E+02  0.51100000000E-03 0.  1.
         12    1    3    3    0    0 -0.56684907214E+01 -0.11934807868E+02 -0.14430714429E+02  0.19565708391E+02  0.00000000000E+00 0. -1.
</event>
<event>
 7    1  0.1351543E-013  0.7246157E+02  0.7816164E-02  0.1226708E+00
        -11   -1    0    0    0    0  0.00000000000E+00  0.00000000000E+00  0.45593999997E+02  0.45594000000E+02  0.51100000000E-03 0. -1.
         11   -1    0    0    0    0 -0.00000000000E+00 -0.00000000000E+00 -0.45593999997E+02  0.45594000000E+02  0.51100000000E-03 0.  1.
    9900012    2    1    2    0    0  0.17389141987E+02  0.49129617545E+01 -0.49152444017E+01  0.72461572690E+02  0.70000003121E+02 0.  0.
         12    1    1    2    0    0 -0.17389141987E+02 -0.49129617545E+01  0.49152444017E+01  0.18726427310E+02  0.00000000000E+00 0. -1.
         11    1    3    3    0    0  0.14618770944E+02  0.27710528351E+02 -0.52299107437E+00  0.31334571408E+02  0.51100000000E-03 0. -1.
        -11    1    3    3    0    0  0.39003980045E+01 -0.28699166130E+02  0.55692046318E+01  0.29493580347E+02  0.51100000000E-03 0.  1.
        -12    1    3    3    0    0 -0.11300269615E+01  0.59015995340E+01 -0.99614579591E+01  0.11633420936E+02  0.00000000000E+00 0.  1.
</event>
<event>
 7    1  0.1351543E-013  0.7246158E+02  0.7816164E-02  0.1226708E+00
        -11   -1    0    0    0    0  0.00000000000E+00  0.00000000000E+00  0.45593999997E+02  0.45594000000E+02  0.51100000000E-03 0.  1.
         11   -1    0    0    0    0 -0.00000000000E+00 -0.00000000000E+00 -0.45593999997E+02  0.45594000000E+02  0.51100000000E-03 0. -1.
    9900012    2    1    2    0    0 -0.70137996312E+01  0.11450390713E+01  0.17325542474E+02  0.72461576910E+02  0.70000008618E+02 0.  0.
         12    1    1    2    0    0  0.70137996312E+01 -0.11450390713E+01 -0.17325542474E+02  0.18726423090E+02  0.00000000000E+00 0. -1.
         11    1    3    3    0    0 -0.43901244598E+01 -0.18837059808E+02  0.17295187454E+01  0.19419043497E+02  0.51100000000E-03 0. -1.
        -11    1    3    3    0    0 -0.12974888257E+02  0.16883933786E+02 -0.11265048209E+02  0.24089754187E+02  0.51100000000E-03 0.  1.
        -12    1    3    3    0    0  0.10351213085E+02  0.30981650934E+01  0.26861071938E+02  0.28952779226E+02  0.00000000000E+00 0.  1.
</event>
<event>
 7    1  0.1351543E-013  0.7246158E+02  0.7816164E-02  0.1226708E+00
        -11   -1    0    0    0    0  0.00000000000E+00  0.00000000000E+00  0.45593999997E+02  0.45594000000E+02  0.51100000000E-03 0. -1.
         11   -1    0    0    0    0 -0.00000000000E+00 -0.00000000000E+00 -0.45593999997E+02  0.45594000000E+02  0.51100000000E-03 0.  1.
    9900012    2    1    2    0    0 -0.20687229476E+01  0.12026656444E+02 -0.14204183172E+02  0.72461577505E+02  0.70000009394E+02 0.  0.
         12    1    1    2    0    0  0.20687229476E+01 -0.12026656444E+02  0.14204183172E+02  0.18726422495E+02  0.00000000000E+00 0. -1.
         11    1    3    3    0    0  0.13870615888E+02 -0.79818829992E-01  0.20848439945E+02  0.25041122270E+02  0.51100000000E-03 0. -1.
        -11    1    3    3    0    0  0.15854969560E+01 -0.52369360519E+01 -0.13886260352E+02  0.14925398710E+02  0.51100000000E-03 0.  1.
         12    1    3    3    0    0 -0.17524835791E+02  0.17343411326E+02 -0.21166362765E+02  0.32495056526E+02  0.00000000000E+00 0. -1.
</event>
<event>
 7    1  0.1351543E-013  0.7246157E+02  0.7816164E-02  0.1226708E+00
        -11   -1    0    0    0    0  0.00000000000E+00  0.00000000000E+00  0.45593999997E+02  0.45594000000E+02  0.51100000000E-03 0.  1.
         11   -1    0    0    0    0 -0.00000000000E+00 -0.00000000000E+00 -0.45593999997E+02  0.45594000000E+02  0.51100000000E-03 0. -1.
    9900012    2    1    2    0    0  0.55956023696E+00 -0.72261870434E+01  0.17266969055E+02  0.72461571958E+02  0.70000002167E+02 0.  0.
         12    1    1    2    0    0 -0.55956023696E+00  0.72261870434E+01 -0.17266969055E+02  0.18726428042E+02  0.00000000000E+00 0. -1.
         11    1    3    3    0    0 -0.25008895276E+01 -0.18855150350E+01  0.64741254904E+00  0.31982430561E+01  0.51100000000E-03 0. -1.
        -11    1    3    3    0    0  0.31311035030E+02 -0.17986811289E+02  0.11458540515E+02  0.37884092255E+02  0.51100000000E-03 0.  1.
        -12    1    3    3    0    0 -0.28250585265E+02  0.12646139280E+02  0.51610159916E+01  0.31379236648E+02  0.00000000000E+00 0.  1.
</event>
<event>
 7    1  0.1351543E-013  0.7246158E+02  0.7816164E-02  0.1226708E+00
        -11   -1    0    0    0    0  0.00000000000E+00  0.00000000000E+00  0.45593999997E+02  0.45594000000E+02  0.51100000000E-03 0. -1.
         11   -1    0    0    0    0 -0.00000000000E+00 -0.00000000000E+00 -0.45593999997E+02  0.45594000000E+02  0.51100000000E-03 0.  1.
    9900012    2    1    2    0    0 -0.74255411800E+01  0.10658258948E+02 -0.13488575910E+02  0.72461579475E+02  0.70000011959E+02 0.  0.
         12    1    1    2    0    0  0.74255411800E+01 -0.10658258948E+02  0.13488575910E+02  0.18726420525E+02  0.00000000000E+00 0. -1.
         11    1    3    3    0    0 -0.21529009480E+02  0.24631469624E+02  0.42711560889E+01  0.32991670458E+02  0.51100000000E-03 0. -1.
        -11    1    3    3    0    0  0.17798190404E+02  0.28141767695E+01 -0.10030310406E+02  0.20622858668E+02  0.51100000000E-03 0.  1.
        -12    1    3    3    0    0 -0.36947221038E+01 -0.16787387446E+02 -0.77294215921E+01  0.18847050348E+02  0.00000000000E+00 0.  1.
</event>
<event>
 7    1  0.1351543E-013  0.7246154E+02  0.7816164E-02  0.1226708E+00
        -11   -1    0    0    0    0  0.00000000000E+00  0.00000000000E+00  0.45593999997E+02  0.45594000000E+02  0.51100000000E-03 0. -1.
         11   -1    0    0    0    0 -0.00000000000E+00 -0.00000000000E+00 -0.45593999997E+02  0.45594000000E+02  0.51100000000E-03 0.  1.
    9900012    2    1    2    0    0 -0.64220289834E+01  0.82618110305E+01 -0.15529977177E+02  0.72461543611E+02  0.69999965240E+02 0.  0.
         12    1    1    2    0    0  0.64220289834E+01 -0.82618110305E+01  0.15529977177E+02  0.18726456389E+02  0.00000000000E+00 0. -1.
         11    1    3    3    0    0  0.49683975301E+01  0.83143477083E+01 -0.25235362500E+01  0.10009075247E+02  0.51100000000E-03 0. -1.
        -11    1    3    3    0    0 -0.62557417354E+01 -0.20787827289E+02  0.15612822148E+02  0.26740012785E+02  0.51100000000E-03 0.  1.
        -12    1    3    3    0    0 -0.51346847781E+01  0.20735290611E+02 -0.28619263075E+02  0.35712455579E+02  0.00000000000E+00 0.  1.
</event>
<event>
 7    1  0.1351543E-013  0.7246146E+02  0.7816164E-02  0.1226708E+00
        -11   -1    0    0    0    0  0.00000000000E+00  0.00000000000E+00  0.45593999997E+02  0.45594000000E+02  0.51100000000E-03 0. -1.
         11   -1    0    0    0    0 -0.00000000000E+00 -0.00000000000E+00 -0.45593999997E+02  0.45594000000E+02  0.51100000000E-03 0.  1.
    9900012    2    1    2    0    0  0.13772116516E+02 -0.98664056114E+01 -0.79791010343E+01  0.72461462511E+02  0.69999859592E+02 0.  0.
         12    1    1    2    0    0 -0.13772116516E+02  0.98664056114E+01  0.79791010343E+01  0.18726537489E+02  0.00000000000E+00 0. -1.
         11    1    3    3    0    0 -0.54767010405E+01  0.68340713745E+01  0.27148158083E+02  0.28525800136E+02  0.51100000000E-03 0. -1.
        -11    1    3    3    0    0  0.50471309942E+01 -0.36531088723E+01 -0.14035457326E+02  0.15356197391E+02  0.51100000000E-03 0.  1.
         12    1    3    3    0    0  0.14201686562E+02 -0.13047368114E+02 -0.21091801792E+02  0.28579464983E+02  0.00000000000E+00 0. -1.
</event>
<event>
 7    1  0.1351543E-013  0.7246157E+02  0.7816164E-02  0.1226708E+00
        -11   -1    0    0    0    0  0.00000000000E+00  0.00000000000E+00  0.45593999997E+02  0.45594000000E+02  0.51100000000E-03 0. -1.
         11   -1    0    0    0    0 -0.00000000000E+00 -0.00000000000E+00 -0.45593999997E+02  0.45594000000E+02  0.51100000000E-03 0.  1.
    9900012    2    1    2    0    0 -0.97906755850E+01  0.15865416222E+02  0.17636505243E+01  0.72461568853E+02  0.69999998123E+02 0.  0.
         12    1    1    2    0    0  0.97906755850E+01 -0.15865416222E+02 -0.17636505243E+01  0.18726431147E+02  0.00000000000E+00 0. -1.
         11    1    3    3    0    0 -0.30625154487E+02  0.20583117160E+02  0.69241433808E+00  0.36905883504E+02  0.51100000000E-03 0. -1.
        -11    1    3    3    0    0  0.15323940946E+02  0.31699697037E+01  0.12919552087E+02  0.20292528192E+02  0.51100000000E-03 0.  1.
        -12    1    3    3    0    0  0.55105379555E+01 -0.78876706414E+01 -0.11848315901E+02  0.15263157157E+02  0.00000000000E+00 0.  1.
</event>
<event>
 7    1  0.1351543E-013  0.7246157E+02  0.7816164E-02  0.1226708E+00
        -11   -1    0    0    0    0  0.00000000000E+00  0.00000000000E+00  0.45593999997E+02  0.45594000000E+02  0.51100000000E-03 0. -1.
         11   -1    0    0    0    0 -0.00000000000E+00 -0.00000000000E+00 -0.45593999997E+02  0.45594000000E+02  0.51100000000E-03 0.  1.
    9900012    2    1    2    0    0 -0.18093515335E+02 -0.10466688922E+01 -0.47125680547E+01  0.72461571867E+02  0.70000002049E+02 0.  0.
         12    1    1    2    0    0  0.18093515335E+02  0.10466688922E+01  0.47125680547E+01  0.18726428133E+02  0.00000000000E+00 0. -1.
         11    1    3    3    0    0 -0.36028771936E+01 -0.25831669551E+02  0.13413481275E+02  0.29328780337E+02  0.51100000000E-03 0. -1.
        -11    1    3    3    0    0 -0.26608937092E+01  0.10853439734E+02 -0.21793891779E+02  0.24491860455E+02  0.51100000000E-03 0.  1.
         12    1    3    3    0    0 -0.11829744432E+02  0.13931560925E+02  0.36678424493E+01  0.18640931076E+02  0.00000000000E+00 0. -1.
</event>
<event>
 7    1  0.1351543E-013  0.7246159E+02  0.7816164E-02  0.1226708E+00
        -11   -1    0    0    0    0  0.00000000000E+00  0.00000000000E+00  0.45593999997E+02  0.45594000000E+02  0.51100000000E-03 0. -1.
         11   -1    0    0    0    0 -0.00000000000E+00 -0.00000000000E+00 -0.45593999997E+02  0.45594000000E+02  0.51100000000E-03 0.  1.
    9900012    2    1    2    0    0 -0.98492516164E+01  0.67419689873E+00 -0.15912761084E+02  0.72461594467E+02  0.70000031490E+02 0.  0.
         12    1    1    2    0    0  0.98492516164E+01 -0.67419689873E+00  0.15912761084E+02  0.18726405533E+02  0.00000000000E+00 0. -1.
         11    1    3    3    0    0 -0.27547308843E+02  0.11869416950E+02 -0.16250920619E+02  0.34114948402E+02  0.51100000000E-03 0. -1.
        -11    1    3    3    0    0 -0.45096896280E+01 -0.12894213639E+02 -0.63888379008E+01  0.15080294954E+02  0.51100000000E-03 0.  1.
         12    1    3    3    0    0  0.22207746855E+02  0.16989935870E+01  0.67269974359E+01  0.23266351112E+02  0.00000000000E+00 0. -1.
</event>
<event>
 7    1  0.1351543E-013  0.7246155E+02  0.7816164E-02  0.1226708E+00
        -11   -1    0    0    0    0  0.00000000000E+00  0.00000000000E+00  0.45593999997E+02  0.45594000000E+02  0.51100000000E-03 0.  1.
         11   -1    0    0    0    0 -0.00000000000E+00 -0.00000000000E+00 -0.45593999997E+02  0.45594000000E+02  0.51100000000E-03 0. -1.
    9900012    2    1    2    0    0 -0.88246094784E+01 -0.60403290328E+01  0.15372722079E+02  0.72461551020E+02  0.69999974892E+02 0.  0.
         12    1    1    2    0    0  0.88246094784E+01  0.60403290328E+01 -0.15372722079E+02  0.18726448980E+02  0.00000000000E+00 0. -1.
         11    1    3    3    0    0  0.67643224133E+01 -0.76142329212E+01 -0.10109308808E+02  0.14350286601E+02  0.51100000000E-03 0. -1.
        -11    1    3    3    0    0 -0.31767393710E+02  0.10363473282E+02  0.19807911753E+02  0.38844848434E+02  0.51100000000E-03 0.  1.
        -12    1    3    3    0    0  0.16178461819E+02 -0.87895693940E+01  0.56741191348E+01  0.19266415985E+02  0.00000000000E+00 0.  1.
</event>
<event>
 7    1  0.1351543E-013  0.7246160E+02  0.7816164E-02  0.1226708E+00
        -11   -1    0    0    0    0  0.00000000000E+00  0.00000000000E+00  0.45593999997E+02  0.45594000000E+02  0.51100000000E-03 0.  1.
         11   -1    0    0    0    0 -0.00000000000E+00 -0.00000000000E+00 -0.45593999997E+02  0.45594000000E+02  0.51100000000E-03 0. -1.
    9900012    2    1    2    0    0 -0.10260826240E+02  0.14920728270E+02 -0.47713060580E+01  0.72461600219E+02  0.70000038983E+02 0.  0.
         12    1    1    2    0    0  0.10260826240E+02 -0.14920728270E+02  0.47713060580E+01  0.18726399781E+02  0.00000000000E+00 0. -1.
         11    1    3    3    0    0  0.11312857203E+02  0.18137801179E+02 -0.27393718643E+02  0.34747322070E+02  0.51100000000E-03 0. -1.
        -11    1    3    3    0    0 -0.13942066599E+02 -0.72057459280E+01  0.25858475663E+01  0.15905678336E+02  0.51100000000E-03 0.  1.
         12    1    3    3    0    0 -0.76316168440E+01  0.39886730190E+01  0.20036565018E+02  0.21808599814E+02  0.00000000000E+00 0. -1.
</event>
<event>
 7    1  0.1351543E-013  0.7246155E+02  0.7816164E-02  0.1226708E+00
        -11   -1    0    0    0    0  0.00000000000E+00  0.00000000000E+00  0.45593999997E+02  0.45594000000E+02  0.51100000000E-03 0. -1.
         11   -1    0    0    0    0 -0.00000000000E+00 -0.00000000000E+00 -0.45593999997E+02  0.45594000000E+02  0.51100000000E-03 0.  1.
    9900012    2    1    2    0    0 -0.17674297657E+02 -0.81265580433E+00 -0.61350323606E+01  0.72461552681E+02  0.69999977055E+02 0.  0.
         12    1    1    2    0    0  0.17674297657E+02  0.81265580433E+00  0.61350323606E+01  0.18726447319E+02  0.00000000000E+00 0. -1.
         11    1    3    3    0    0 -0.35937344879E+01  0.13892228544E+02 -0.32448584999E+02  0.35479847945E+02  0.51100000000E-03 0.  1.
        -11    1    3    3    0    0 -0.54612080120E+01 -0.16325717421E+02  0.17478127645E+02  0.24532402827E+02  0.51100000000E-03 0. -1.
        -12    1    3    3    0    0 -0.86193551574E+01  0.16208330729E+01  0.88354249943E+01  0.12449301908E+02  0.00000000000E+00 0.  1.
</event>
<event>
 7    1  0.1351543E-013  0.7246164E+02  0.7816164E-02  0.1226708E+00
        -11   -1    0    0    0    0  0.00000000000E+00  0.00000000000E+00  0.45593999997E+02  0.45594000000E+02  0.51100000000E-03 0. -1.
         11   -1    0    0    0    0 -0.00000000000E+00 -0.00000000000E+00 -0.45593999997E+02  0.45594000000E+02  0.51100000000E-03 0.  1.
    9900012    2    1    2    0    0 -0.16575529605E+02  0.71006465822E+01  0.50506598847E+01  0.72461640801E+02  0.70000091848E+02 0.  0.
         12    1    1    2    0    0  0.16575529605E+02 -0.71006465822E+01 -0.50506598847E+01  0.18726359199E+02  0.00000000000E+00 0. -1.
         11    1    3    3    0    0 -0.19923446445E+02 -0.17823117022E+02 -0.42497875554E+01  0.27067839093E+02  0.51100000000E-03 0. -1.
        -11    1    3    3    0    0  0.13581457065E+02  0.13745696188E+02 -0.92635909701E+01  0.21429285047E+02  0.51100000000E-03 0.  1.
         12    1    3    3    0    0 -0.10233540225E+02  0.11178067416E+02  0.18564038410E+02  0.23964516661E+02  0.00000000000E+00 0. -1.
</event>
<event>
 7    1  0.1351543E-013  0.7246162E+02  0.7816164E-02  0.1226708E+00
        -11   -1    0    0    0    0  0.00000000000E+00  0.00000000000E+00  0.45593999997E+02  0.45594000000E+02  0.51100000000E-03 0.  1.
         11   -1    0    0    0    0 -0.00000000000E+00 -0.00000000000E+00 -0.45593999997E+02  0.45594000000E+02  0.51100000000E-03 0. -1.
    9900012    2    1    2    0    0 -0.43473741933E+01 -0.13505387272E+02  0.12222195206E+02  0.72461622790E+02  0.70000068385E+02 0.  0.
         12    1    1    2    0    0  0.43473741933E+01  0.13505387272E+02 -0.12222195206E+02  0.18726377210E+02  0.00000000000E+00 0. -1.
         11    1    3    3    0    0  0.31770426253E+02 -0.11996764748E+01  0.79048639235E+01  0.32761045188E+02  0.51100000000E-03 0. -1.
        -11    1    3    3    0    0 -0.11263545711E+02 -0.55836608252E+01  0.59359341216E+01  0.13902519353E+02  0.51100000000E-03 0.  1.
         12    1    3    3    0    0 -0.24854254735E+02 -0.67220499721E+01 -0.16186028389E+01  0.25798058249E+02  0.00000000000E+00 0. -1.
</event>
<event>
 7    1  0.1351543E-013  0.7246158E+02  0.7816164E-02  0.1226708E+00
        -11   -1    0    0    0    0  0.00000000000E+00  0.00000000000E+00  0.45593999997E+02  0.45594000000E+02  0.51100000000E-03 0.  1.
         11   -1    0    0    0    0 -0.00000000000E+00 -0.00000000000E+00 -0.45593999997E+02  0.45594000000E+02  0.51100000000E-03 0. -1.
    9900012    2    1    2    0    0 -0.10953936062E+02 -0.12312765246E+02  0.88930270766E+01  0.72461579257E+02  0.70000011676E+02 0.  0.
         12    1    1    2    0    0  0.10953936062E+02  0.12312765246E+02 -0.88930270766E+01  0.18726420743E+02  0.00000000000E+00 0. -1.
         11    1    3    3    0    0 -0.13251467928E+02  0.18451052331E+02 -0.12169388258E+02  0.25770850688E+02  0.51100000000E-03 0. -1.
        -11    1    3    3    0    0  0.17623315820E+01 -0.16020011682E+02  0.26459125441E+02  0.30981154050E+02  0.51100000000E-03 0.  1.
        -12    1    3    3    0    0  0.53520028453E+00 -0.14743805895E+02 -0.53967101063E+01  0.15709574520E+02  0.00000000000E+00 0.  1.
</event>
<event>
 7    1  0.1351543E-013  0.7246158E+02  0.7816164E-02  0.1226708E+00
        -11   -1    0    0    0    0  0.00000000000E+00  0.00000000000E+00  0.45593999997E+02  0.45594000000E+02  0.51100000000E-03 0. -1.
         11   -1    0    0    0    0 -0.00000000000E+00 -0.00000000000E+00 -0.45593999997E+02  0.45594000000E+02  0.51100000000E-03 0.  1.
    9900012    2    1    2    0    0  0.25993036382E+01 -0.16443009915E+02 -0.85761285976E+01  0.72461576525E+02  0.70000008116E+02 0.  0.
         12    1    1    2    0    0 -0.25993036382E+01  0.16443009915E+02  0.85761285976E+01  0.18726423475E+02  0.00000000000E+00 0. -1.
         11    1    3    3    0    0  0.19374498159E+02  0.13737162299E+02  0.98473863237E+01  0.25710928117E+02  0.51100000000E-03 0. -1.
        -11    1    3    3    0    0 -0.12271068194E+02 -0.58379360504E+01 -0.17260608200E+02  0.21967913138E+02  0.51100000000E-03 0.  1.
         12    1    3    3    0    0 -0.45041263272E+01 -0.24342236164E+02 -0.11629067215E+01  0.24782735270E+02  0.00000000000E+00 0. -1.
</event>
<event>
 7    1  0.1351543E-013  0.7246158E+02  0.7816164E-02  0.1226708E+00
        -11   -1    0    0    0    0  0.00000000000E+00  0.00000000000E+00  0.45593999997E+02  0.45594000000E+02  0.51100000000E-03 0. -1.
         11   -1    0    0    0    0 -0.00000000000E+00 -0.00000000000E+00 -0.45593999997E+02  0.45594000000E+02  0.51100000000E-03 0.  1.
    9900012    2    1    2    0    0 -0.10594476609E+02  0.13677397641E+02 -0.71669179656E+01  0.72461578719E+02  0.70000010975E+02 0.  0.
         12    1    1    2    0    0  0.10594476609E+02 -0.13677397641E+02  0.71669179656E+01  0.18726421281E+02  0.00000000000E+00 0. -1.
         11    1    3    3    0    0 -0.90901811450E+01  0.11074452550E+02 -0.16790154591E+01  0.14425463102E+02  0.51100000000E-03 0. -1.
        -11    1    3    3    0    0  0.12845436264E+02 -0.23560599327E+02  0.30262065803E+01  0.27004906961E+02  0.51100000000E-03 0.  1.
        -12    1    3    3    0    0 -0.14349731727E+02  0.26163544418E+02 -0.85141090868E+01  0.31031208656E+02  0.00000000000E+00 0.  1.
</event>
<event>
 7    1  0.1351543E-013  0.7246153E+02  0.7816164E-02  0.1226708E+00
        -11   -1    0    0    0    0  0.00000000000E+00  0.00000000000E+00  0.45593999997E+02  0.45594000000E+02  0.51100000000E-03 0.  1.
         11   -1    0    0    0    0 -0.00000000000E+00 -0.00000000000E+00 -0.45593999997E+02  0.45594000000E+02  0.51100000000E-03 0. -1.
    9900012    2    1    2    0    0 -0.18172176489E+02 -0.73144217689E+00 -0.44629311304E+01  0.72461527821E+02  0.69999944670E+02 0.  0.
         12    1    1    2    0    0  0.18172176489E+02  0.73144217689E+00  0.44629311304E+01  0.18726472179E+02  0.00000000000E+00 0. -1.
         11    1    3    3    0    0 -0.67665999295E+01 -0.96053696306E+01 -0.46697295782E+00  0.11758744166E+02  0.51100000000E-03 0. -1.
        -11    1    3    3    0    0 -0.22604457935E+02  0.28812979609E+02 -0.80020903893E+01  0.37485767477E+02  0.51100000000E-03 0.  1.
        -12    1    3    3    0    0  0.11198881375E+02 -0.19939052155E+02  0.40061322167E+01  0.23217016179E+02  0.00000000000E+00 0.  1.
</event>
<event>
 7    1  0.1351543E-013  0.7246163E+02  0.7816164E-02  0.1226708E+00
        -11   -1    0    0    0    0  0.00000000000E+00  0.00000000000E+00  0.45593999997E+02  0.45594000000E+02  0.51100000000E-03 0. -1.
         11   -1    0    0    0    0 -0.00000000000E+00 -0.00000000000E+00 -0.45593999997E+02  0.45594000000E+02  0.51100000000E-03 0.  1.
    9900012    2    1    2    0    0  0.53540303787E+01 -0.32584410550E+01 -0.17646351768E+02  0.72461633291E+02  0.70000082065E+02 0.  0.
         12    1    1    2    0    0 -0.53540303787E+01  0.32584410550E+01  0.17646351768E+02  0.18726366709E+02  0.00000000000E+00 0. -1.
         11    1    3    3    0    0 -0.14646822880E+02 -0.21341333305E+02 -0.32156996174E+01  0.26082995457E+02  0.51100000000E-03 0. -1.
        -11    1    3    3    0    0  0.59923801899E+01  0.20626022737E+02 -0.21579719294E+02  0.30447097060E+02  0.51100000000E-03 0.  1.
         12    1    3    3    0    0  0.14008473069E+02 -0.25431304865E+01  0.71490671438E+01  0.15931540774E+02  0.00000000000E+00 0. -1.
</event>
<event>
 7    1  0.1351543E-013  0.7246155E+02  0.7816164E-02  0.1226708E+00
        -11   -1    0    0    0    0  0.00000000000E+00  0.00000000000E+00  0.45593999997E+02  0.45594000000E+02  0.51100000000E-03 0. -1.
         11   -1    0    0    0    0 -0.00000000000E+00 -0.00000000000E+00 -0.45593999997E+02  0.45594000000E+02  0.51100000000E-03 0.  1.
    9900012    2    1    2    0    0 -0.43442034333E+01  0.16842689369E+02 -0.69376982755E+01  0.72461549562E+02  0.69999972992E+02 0.  0.
         12    1    1    2    0    0  0.43442034333E+01 -0.16842689369E+02  0.69376982755E+01  0.18726450438E+02  0.00000000000E+00 0. -1.
         11    1    3    3    0    0  0.23448562502E+01  0.22321364782E+02 -0.25355577929E+02  0.33862176672E+02  0.51100000000E-03 0.  1.
        -11    1    3    3    0    0  0.24103132311E+01 -0.12232100997E+02 -0.43197780012E+01  0.13194483200E+02  0.51100000000E-03 0. -1.
         12    1    3    3    0    0 -0.90993729146E+01  0.67534255839E+01  0.22737657655E+02  0.25404889690E+02  0.00000000000E+00 0. -1.
</event>
<event>
 7    1  0.1351543E-013  0.7246153E+02  0.7816164E-02  0.1226708E+00
        -11   -1    0    0    0    0  0.00000000000E+00  0.00000000000E+00  0.45593999997E+02  0.45594000000E+02  0.51100000000E-03 0.  1.
         11   -1    0    0    0    0 -0.00000000000E+00 -0.00000000000E+00 -0.45593999997E+02  0.45594000000E+02  0.51100000000E-03 0. -1.
    9900012    2    1    2    0    0  0.81050652564E+01 -0.12357443881E+02  0.11501406630E+02  0.72461525250E+02  0.69999941321E+02 0.  0.
         12    1    1    2    0    0 -0.81050652564E+01  0.12357443881E+02 -0.11501406630E+02  0.18726474750E+02  0.00000000000E+00 0. -1.
         11    1    3    3    0    0  0.14017964656E+02 -0.86393982499E+00 -0.29590485596E+01  0.14352898445E+02  0.51100000000E-03 0. -1.
        -11    1    3    3    0    0 -0.19382606252E+02 -0.22538789284E+02  0.24038274366E+02  0.38229845439E+02  0.51100000000E-03 0.  1.
        -12    1    3    3    0    0  0.13469706852E+02  0.11045285227E+02 -0.95778191770E+01  0.19878781367E+02  0.00000000000E+00 0.  1.
</event>
<event>
 7    1  0.1351543E-013  0.7246157E+02  0.7816164E-02  0.1226708E+00
        -11   -1    0    0    0    0  0.00000000000E+00  0.00000000000E+00  0.45593999997E+02  0.45594000000E+02  0.51100000000E-03 0.  1.
         11   -1    0    0    0    0 -0.00000000000E+00 -0.00000000000E+00 -0.45593999997E+02  0.45594000000E+02  0.51100000000E-03 0. -1.
    9900012    2    1    2    0    0  0.13596356173E+02 -0.63839226749E+01  0.11183195026E+02  0.72461568923E+02  0.69999998213E+02 0.  0.
         12    1    1    2    0    0 -0.13596356173E+02  0.63839226749E+01 -0.11183195026E+02  0.18726431077E+02  0.00000000000E+00 0. -1.
         11    1    3    3    0    0  0.54580454826E+00  0.30726295453E+01  0.37002266382E+02  0.37133632634E+02  0.51100000000E-03 0. -1.
        -11    1    3    3    0    0  0.16473136920E+02 -0.74776767292E+01 -0.14030194775E+02  0.22893803855E+02  0.51100000000E-03 0.  1.
         12    1    3    3    0    0 -0.34225852955E+01 -0.19788754909E+01 -0.11788876582E+02  0.12434132433E+02  0.00000000000E+00 0. -1.
</event>
<event>
 7    1  0.1351543E-013  0.7246156E+02  0.7816164E-02  0.1226708E+00
        -11   -1    0    0    0    0  0.00000000000E+00  0.00000000000E+00  0.45593999997E+02  0.45594000000E+02  0.51100000000E-03 0.  1.
         11   -1    0    0    0    0 -0.00000000000E+00 -0.00000000000E+00 -0.45593999997E+02  0.45594000000E+02  0.51100000000E-03 0. -1.
    9900012    2    1    2    0    0 -0.16041179868E+02  0.81746851904E+01  0.51511769140E+01  0.72461560052E+02  0.69999986658E+02 0.  0.
         12    1    1    2    0    0  0.16041179868E+02 -0.81746851904E+01 -0.51511769140E+01  0.18726439948E+02  0.00000000000E+00 0. -1.
         11    1    3    3    0    0  0.12064125237E+02  0.22369271135E+01  0.97515392155E+01  0.15672889905E+02  0.51100000000E-03 0. -1.
        -11    1    3    3    0    0 -0.23314105697E+02 -0.19441597153E+02 -0.59153532872E+01  0.30927570694E+02  0.51100000000E-03 0.  1.
        -12    1    3    3    0    0 -0.47911994079E+01  0.25379355230E+02  0.13149909857E+01  0.25861099453E+02  0.00000000000E+00 0.  1.
</event>
<event>
 7    1  0.1351543E-013  0.7246154E+02  0.7816164E-02  0.1226708E+00
        -11   -1    0    0    0    0  0.00000000000E+00  0.00000000000E+00  0.45593999997E+02  0.45594000000E+02  0.51100000000E-03 0. -1.
         11   -1    0    0    0    0 -0.00000000000E+00 -0.00000000000E+00 -0.45593999997E+02  0.45594000000E+02  0.51100000000E-03 0.  1.
    9900012    2    1    2    0    0 -0.14243084880E+02 -0.11740861422E+02  0.31570369558E+01  0.72461543417E+02  0.69999964987E+02 0.  0.
         12    1    1    2    0    0  0.14243084880E+02  0.11740861422E+02 -0.31570369558E+01  0.18726456583E+02  0.00000000000E+00 0. -1.
         11    1    3    3    0    0  0.79722023666E+01 -0.30161253041E+01 -0.18067915061E+02  0.19977551835E+02  0.51100000000E-03 0.  1.
        -11    1    3    3    0    0 -0.20701591385E+02 -0.24214551448E+02  0.10346964208E+02  0.33495672202E+02  0.51100000000E-03 0. -1.
        -12    1    3    3    0    0 -0.15136958618E+01  0.15489815329E+02  0.10877987809E+02  0.18988319380E+02  0.00000000000E+00 0.  1.
</event>
<event>
 7    1  0.1351543E-013  0.7246156E+02  0.7816164E-02  0.1226708E+00
        -11   -1    0    0    0    0  0.00000000000E+00  0.00000000000E+00  0.45593999997E+02  0.45594000000E+02  0.51100000000E-03 0. -1.
         11   -1    0    0    0    0 -0.00000000000E+00 -0.00000000000E+00 -0.45593999997E+02  0.45594000000E+02  0.51100000000E-03 0.  1.
    9900012    2    1    2    0    0 -0.40950281666E+01 -0.18249536053E+02 -0.92996598365E+00  0.72461557237E+02  0.69999982990E+02 0.  0.
         12    1    1    2    0    0  0.40950281666E+01  0.18249536053E+02  0.92996598365E+00  0.18726442763E+02  0.00000000000E+00 0. -1.
         11    1    3    3    0    0  0.15466048282E+02 -0.78417307212E+01 -0.16359546758E+02  0.23839592290E+02  0.51100000000E-03 0. -1.
        -11    1    3    3    0    0 -0.23947352690E+02  0.72837073031E+01  0.45867950820E+00  0.25034745457E+02  0.51100000000E-03 0.  1.
         12    1    3    3    0    0  0.43862762411E+01 -0.17691512635E+02  0.14970901266E+02  0.23587219490E+02  0.00000000000E+00 0. -1.
</event>
<event>
 7    1  0.1351543E-013  0.7246187E+02  0.7816164E-02  0.1226707E+00
        -11   -1    0    0    0    0  0.00000000000E+00  0.00000000000E+00  0.45593999997E+02  0.45594000000E+02  0.51100000000E-03 0.  1.
         11   -1    0    0    0    0 -0.00000000000E+00 -0.00000000000E+00 -0.45593999997E+02  0.45594000000E+02  0.51100000000E-03 0. -1.
    9900012    2    1    2    0    0  0.10605777178E+02  0.12100375965E+02  0.95794777679E+01  0.72461868463E+02  0.70000388419E+02 0.  0.
         12    1    1    2    0    0 -0.10605777178E+02 -0.12100375965E+02 -0.95794777679E+01  0.18726131537E+02  0.00000000000E+00 0. -1.
         11    1    3    3    0    0  0.10225489605E+02 -0.15946294819E+02  0.31175881836E+02  0.36479865195E+02  0.51100000000E-03 0. -1.
        -11    1    3    3    0    0  0.34070060556E+01  0.15674440845E+02 -0.11793524799E+02  0.19909369993E+02  0.51100000000E-03 0.  1.
        -12    1    3    3    0    0 -0.30267184826E+01  0.12372229938E+02 -0.98028792698E+01  0.16072633275E+02  0.00000000000E+00 0.  1.
</event>
<event>
 7    1  0.1351543E-013  0.7246154E+02  0.7816164E-02  0.1226708E+00
        -11   -1    0    0    0    0  0.00000000000E+00  0.00000000000E+00  0.45593999997E+02  0.45594000000E+02  0.51100000000E-03 0. -1.
         11   -1    0    0    0    0 -0.00000000000E+00 -0.00000000000E+00 -0.45593999997E+02  0.45594000000E+02  0.51100000000E-03 0.  1.
    9900012    2    1    2    0    0  0.16613267569E+01 -0.11309210101E+02 -0.14833139156E+02  0.72461541260E+02  0.69999962178E+02 0.  0.
         12    1    1    2    0    0 -0.16613267569E+01  0.11309210101E+02  0.14833139156E+02  0.18726458740E+02  0.00000000000E+00 0. -1.
         11    1    3    3    0    0 -0.20975388623E+02 -0.11121144855E+02 -0.42123927815E+01  0.24112051841E+02  0.51100000000E-03 0. -1.
        -11    1    3    3    0    0  0.26309193810E+02  0.72229824123E+01 -0.21462571622E+02  0.34712924606E+02  0.51100000000E-03 0.  1.
         12    1    3    3    0    0 -0.36724784296E+01 -0.74110476588E+01  0.10841825247E+02  0.13636564813E+02  0.00000000000E+00 0. -1.
</event>
<event>
 7    1  0.1351543E-013  0.7246146E+02  0.7816164E-02  0.1226708E+00
        -11   -1    0    0    0    0  0.00000000000E+00  0.00000000000E+00  0.45593999997E+02  0.45594000000E+02  0.51100000000E-03 0. -1.
         11   -1    0    0    0    0 -0.00000000000E+00 -0.00000000000E+00 -0.45593999997E+02  0.45594000000E+02  0.51100000000E-03 0.  1.
    9900012    2    1    2    0    0  0.11151523364E+02  0.14576579054E+02  0.37215713095E+01  0.72461462059E+02  0.69999859003E+02 0.  0.
         12    1    1    2    0    0 -0.11151523364E+02 -0.14576579054E+02 -0.37215713095E+01  0.18726537941E+02  0.00000000000E+00 0. -1.
         11    1    3    3    0    0 -0.18309987865E+02 -0.60838210843E+00 -0.15577840580E+02  0.24047762927E+02  0.51100000000E-03 0. -1.
        -11    1    3    3    0    0  0.19560057029E+02 -0.21855727247E+01  0.20454641151E+02  0.28385998379E+02  0.51100000000E-03 0.  1.
        -12    1    3    3    0    0  0.99014542002E+01  0.17370533887E+02 -0.11552292621E+01  0.20027700753E+02  0.00000000000E+00 0.  1.
</event>
<event>
 7    1  0.1468082E-013  0.7246167E+02  0.7816164E-02  0.1226708E+00
        -11   -1    0    0    0    0  0.00000000000E+00  0.00000000000E+00  0.45593999997E+02  0.45594000000E+02  0.51100000000E-03 0. -1.
         11   -1    0    0    0    0 -0.00000000000E+00 -0.00000000000E+00 -0.45593999997E+02  0.45594000000E+02  0.51100000000E-03 0.  1.
    9900012    2    1    2    0    0  0.11588949363E+02 -0.11398511031E+01 -0.14665345756E+02  0.72461671636E+02  0.70000132016E+02 0.  0.
         12    1    1    2    0    0 -0.11588949363E+02  0.11398511031E+01  0.14665345756E+02  0.18726328364E+02  0.00000000000E+00 0. -1.
         11    1    3    3    0    0 -0.10830160471E+02 -0.71421529376E+01 -0.16521441644E+02  0.21006207622E+02  0.51100000000E-03 0. -1.
        -11    1    3    3    0    0  0.27933446019E+02  0.17205934400E+02 -0.99374962147E+01  0.34279373045E+02  0.51100000000E-03 0.  1.
         12    1    3    3    0    0 -0.55143361856E+01 -0.11203632566E+02  0.11793592103E+02  0.17176090968E+02  0.00000000000E+00 0. -1.
</event>
<event>
 7    1  0.1351543E-013  0.7246155E+02  0.7816164E-02  0.1226708E+00
        -11   -1    0    0    0    0  0.00000000000E+00  0.00000000000E+00  0.45593999997E+02  0.45594000000E+02  0.51100000000E-03 0. -1.
         11   -1    0    0    0    0 -0.00000000000E+00 -0.00000000000E+00 -0.45593999997E+02  0.45594000000E+02  0.51100000000E-03 0.  1.
    9900012    2    1    2    0    0 -0.15379674595E+02 -0.10614152885E+02 -0.12187227449E+01  0.72461550330E+02  0.69999973993E+02 0.  0.
         12    1    1    2    0    0  0.15379674595E+02  0.10614152885E+02  0.12187227449E+01  0.18726449670E+02  0.00000000000E+00 0. -1.
         11    1    3    3    0    0  0.30965239672E+01  0.93066684263E+01  0.20829477582E+02  0.23023242049E+02  0.51100000000E-03 0. -1.
        -11    1    3    3    0    0  0.22760742826E+01 -0.22315436041E+02 -0.16433884122E+02  0.27807044925E+02  0.51100000000E-03 0.  1.
        -12    1    3    3    0    0 -0.20752272845E+02  0.23946147307E+01 -0.56143162041E+01  0.21631263356E+02  0.00000000000E+00 0.  1.
</event>
<event>
 7    1  0.1351543E-013  0.7246151E+02  0.7816164E-02  0.1226708E+00
        -11   -1    0    0    0    0  0.00000000000E+00  0.00000000000E+00  0.45593999997E+02  0.45594000000E+02  0.51100000000E-03 0.  1.
         11   -1    0    0    0    0 -0.00000000000E+00 -0.00000000000E+00 -0.45593999997E+02  0.45594000000E+02  0.51100000000E-03 0. -1.
    9900012    2    1    2    0    0 -0.36692479059E+01  0.16573356271E+01  0.18288559619E+02  0.72461506614E+02  0.69999917045E+02 0.  0.
         12    1    1    2    0    0  0.36692479059E+01 -0.16573356271E+01 -0.18288559619E+02  0.18726493386E+02  0.00000000000E+00 0. -1.
         11    1    3    3    0    0  0.12726423100E+02  0.10678530164E+02 -0.26137703262E+01  0.16817391205E+02  0.51100000000E-03 0. -1.
        -11    1    3    3    0    0 -0.18479881750E+02 -0.15596325953E+02 -0.83553025959E+01  0.25584418978E+02  0.51100000000E-03 0.  1.
        -12    1    3    3    0    0  0.20842107440E+01  0.65751314167E+01  0.29257632541E+02  0.30059696431E+02  0.00000000000E+00 0.  1.
</event>
<event>
 7    1  0.1351543E-013  0.7246156E+02  0.7816164E-02  0.1226708E+00
        -11   -1    0    0    0    0  0.00000000000E+00  0.00000000000E+00  0.45593999997E+02  0.45594000000E+02  0.51100000000E-03 0. -1.
         11   -1    0    0    0    0 -0.00000000000E+00 -0.00000000000E+00 -0.45593999997E+02  0.45594000000E+02  0.51100000000E-03 0.  1.
    9900012    2    1    2    0    0 -0.14721958941E+02  0.38045236840E+01  0.10930186213E+02  0.72461562908E+02  0.69999990377E+02 0.  0.
         12    1    1    2    0    0  0.14721958941E+02 -0.38045236840E+01 -0.10930186213E+02  0.18726437092E+02  0.00000000000E+00 0. -1.
         11    1    3    3    0    0  0.13798990332E+02 -0.11021074530E+02  0.12581378560E+02  0.21683341641E+02  0.51100000000E-03 0. -1.
        -11    1    3    3    0    0 -0.19783977466E+02  0.48527654975E+01  0.17925339919E+02  0.27134349242E+02  0.51100000000E-03 0.  1.
         12    1    3    3    0    0 -0.87369718073E+01  0.99728327165E+01 -0.19576532266E+02  0.23643872025E+02  0.00000000000E+00 0. -1.
</event>
<event>
 7    1  0.1351543E-013  0.7246156E+02  0.7816164E-02  0.1226708E+00
        -11   -1    0    0    0    0  0.00000000000E+00  0.00000000000E+00  0.45593999997E+02  0.45594000000E+02  0.51100000000E-03 0. -1.
         11   -1    0    0    0    0 -0.00000000000E+00 -0.00000000000E+00 -0.45593999997E+02  0.45594000000E+02  0.51100000000E-03 0.  1.
    9900012    2    1    2    0    0 -0.15013741291E+02 -0.71210192824E+01 -0.86347060065E+01  0.72461561711E+02  0.69999988818E+02 0.  0.
         12    1    1    2    0    0  0.15013741291E+02  0.71210192824E+01  0.86347060065E+01  0.18726438289E+02  0.00000000000E+00 0. -1.
         11    1    3    3    0    0 -0.10880600635E+02 -0.14981600640E+02  0.89067043590E+01  0.20546659357E+02  0.51100000000E-03 0.  1.
        -11    1    3    3    0    0  0.19992234248E+02  0.13424426610E+02 -0.78747435059E+01  0.25336066103E+02  0.51100000000E-03 0. -1.
         12    1    3    3    0    0 -0.24125374905E+02 -0.55638452523E+01 -0.96666668595E+01  0.26578836251E+02  0.00000000000E+00 0. -1.
</event>
<event>
 7    1  0.1351543E-013  0.7246160E+02  0.7816164E-02  0.1226708E+00
        -11   -1    0    0    0    0  0.00000000000E+00  0.00000000000E+00  0.45593999997E+02  0.45594000000E+02  0.51100000000E-03 0.  1.
         11   -1    0    0    0    0 -0.00000000000E+00 -0.00000000000E+00 -0.45593999997E+02  0.45594000000E+02  0.51100000000E-03 0. -1.
    9900012    2    1    2    0    0  0.16576190120E+02 -0.61524472163E+01  0.61688892156E+01  0.72461604730E+02  0.70000044859E+02 0.  0.
         12    1    1    2    0    0 -0.16576190120E+02  0.61524472163E+01 -0.61688892156E+01  0.18726395270E+02  0.00000000000E+00 0. -1.
         11    1    3    3    0    0  0.14679997741E+02  0.25220329412E+02 -0.11241288523E+02  0.31271934978E+02  0.51100000000E-03 0. -1.
        -11    1    3    3    0    0 -0.79785527591E+01 -0.12344021088E+02  0.21036681694E+01  0.14847814007E+02  0.51100000000E-03 0.  1.
         12    1    3    3    0    0  0.98747451379E+01 -0.19028755540E+02  0.15306509569E+02  0.26341855746E+02  0.00000000000E+00 0. -1.
</event>
<event>
 7    1  0.1351543E-013  0.7246158E+02  0.7816164E-02  0.1226708E+00
        -11   -1    0    0    0    0  0.00000000000E+00  0.00000000000E+00  0.45593999997E+02  0.45594000000E+02  0.51100000000E-03 0. -1.
         11   -1    0    0    0    0 -0.00000000000E+00 -0.00000000000E+00 -0.45593999997E+02  0.45594000000E+02  0.51100000000E-03 0.  1.
    9900012    2    1    2    0    0 -0.17944986333E+02  0.22810434027E+01  0.48428392171E+01  0.72461580556E+02  0.70000013368E+02 0.  0.
         12    1    1    2    0    0  0.17944986333E+02 -0.22810434027E+01 -0.48428392171E+01  0.18726419444E+02  0.00000000000E+00 0. -1.
         11    1    3    3    0    0 -0.16592085900E+02  0.24158779030E+01  0.34432743615E+02  0.38298141125E+02  0.51100000000E-03 0. -1.
        -11    1    3    3    0    0 -0.56155656384E+01  0.67565031955E+01 -0.17898938865E+02  0.19938829596E+02  0.51100000000E-03 0.  1.
         12    1    3    3    0    0  0.42626652058E+01 -0.68913376958E+01 -0.11690965532E+02  0.14224609835E+02  0.00000000000E+00 0. -1.
</event>
<event>
 7    1  0.1351543E-013  0.7246156E+02  0.7816164E-02  0.1226708E+00
        -11   -1    0    0    0    0  0.00000000000E+00  0.00000000000E+00  0.45593999997E+02  0.45594000000E+02  0.51100000000E-03 0. -1.
         11   -1    0    0    0    0 -0.00000000000E+00 -0.00000000000E+00 -0.45593999997E+02  0.45594000000E+02  0.51100000000E-03 0.  1.
    9900012    2    1    2    0    0  0.35200725901E+01 -0.44880559252E+01 -0.17836649546E+02  0.72461558158E+02  0.69999984190E+02 0.  0.
         12    1    1    2    0    0 -0.35200725901E+01  0.44880559252E+01  0.17836649546E+02  0.18726441842E+02  0.00000000000E+00 0. -1.
         11    1    3    3    0    0 -0.66932021031E+01 -0.34154859916E+01 -0.10588581680E+02  0.12983934735E+02  0.51100000000E-03 0. -1.
        -11    1    3    3    0    0  0.14033199349E+02  0.66751882486E+00  0.24075083077E+02  0.27874466646E+02  0.51100000000E-03 0.  1.
        -12    1    3    3    0    0 -0.38199246555E+01 -0.17400887585E+01 -0.31323150944E+02  0.31603156777E+02  0.00000000000E+00 0.  1.
</event>
<event>
 7    1  0.1351543E-013  0.7246154E+02  0.7816164E-02  0.1226708E+00
        -11   -1    0    0    0    0  0.00000000000E+00  0.00000000000E+00  0.45593999997E+02  0.45594000000E+02  0.51100000000E-03 0.  1.
         11   -1    0    0    0    0 -0.00000000000E+00 -0.00000000000E+00 -0.45593999997E+02  0.45594000000E+02  0.51100000000E-03 0. -1.
    9900012    2    1    2    0    0 -0.15967461113E+02 -0.97654306156E+01 -0.59740018101E+00  0.72461539136E+02  0.69999959411E+02 0.  0.
         12    1    1    2    0    0  0.15967461113E+02  0.97654306156E+01  0.59740018101E+00  0.18726460864E+02  0.00000000000E+00 0. -1.
         11    1    3    3    0    0  0.14124379965E+01 -0.19555949444E+02 -0.23815086871E+02  0.30847828168E+02  0.51100000000E-03 0. -1.
        -11    1    3    3    0    0 -0.65327965528E+01 -0.11513008302E+01  0.25219189977E+02  0.26077010330E+02  0.51100000000E-03 0.  1.
        -12    1    3    3    0    0 -0.10847102557E+02  0.10941819658E+02 -0.20015032870E+01  0.15536700638E+02  0.00000000000E+00 0.  1.
</event>
<event>
 7    1  0.1351543E-013  0.7246156E+02  0.7816164E-02  0.1226708E+00
        -11   -1    0    0    0    0  0.00000000000E+00  0.00000000000E+00  0.45593999997E+02  0.45594000000E+02  0.51100000000E-03 0.  1.
         11   -1    0    0    0    0 -0.00000000000E+00 -0.00000000000E+00 -0.45593999997E+02  0.45594000000E+02  0.51100000000E-03 0. -1.
    9900012    2    1    2    0    0 -0.13013013277E+02  0.12891854566E+02  0.38911738384E+01  0.72461557130E+02  0.69999982852E+02 0.  0.
         12    1    1    2    0    0  0.13013013277E+02 -0.12891854566E+02 -0.38911738384E+01  0.18726442870E+02  0.00000000000E+00 0. -1.
         11    1    3    3    0    0  0.77854046909E+01 -0.16398197990E+02  0.61487881634E+01  0.19165620775E+02  0.51100000000E-03 0. -1.
        -11    1    3    3    0    0 -0.20660251861E+02  0.22518782948E+02  0.15517405779E+02  0.34274355935E+02  0.51100000000E-03 0.  1.
         12    1    3    3    0    0 -0.13816610705E+00  0.67712696089E+01 -0.17775020104E+02  0.19021580421E+02  0.00000000000E+00 0. -1.
</event>
<event>
 7    1  0.1351543E-013  0.7246160E+02  0.7816164E-02  0.1226708E+00
        -11   -1    0    0    0    0  0.00000000000E+00  0.00000000000E+00  0.45593999997E+02  0.45594000000E+02  0.51100000000E-03 0. -1.
         11   -1    0    0    0    0 -0.00000000000E+00 -0.00000000000E+00 -0.45593999997E+02  0.45594000000E+02  0.51100000000E-03 0.  1.
    9900012    2    1    2    0    0 -0.75169567544E+01 -0.43620553897E+01  0.16587516759E+02  0.72461604771E+02  0.70000044912E+02 0.  0.
         12    1    1    2    0    0  0.75169567544E+01  0.43620553897E+01 -0.16587516759E+02  0.18726395229E+02  0.00000000000E+00 0. -1.
         11    1    3    3    0    0  0.27226031053E+02 -0.63174142081E+01 -0.50884728618E+01  0.28408784653E+02  0.51100000000E-03 0. -1.
        -11    1    3    3    0    0 -0.23199204803E+02 -0.13373955727E+01  0.54486127005E+01  0.23867951546E+02  0.51100000000E-03 0.  1.
        -12    1    3    3    0    0 -0.11543783004E+02  0.32927543910E+01  0.16227376920E+02  0.20184868571E+02  0.00000000000E+00 0.  1.
</event>
<event>
 7    1  0.1351543E-013  0.7246162E+02  0.7816164E-02  0.1226708E+00
        -11   -1    0    0    0    0  0.00000000000E+00  0.00000000000E+00  0.45593999997E+02  0.45594000000E+02  0.51100000000E-03 0.  1.
         11   -1    0    0    0    0 -0.00000000000E+00 -0.00000000000E+00 -0.45593999997E+02  0.45594000000E+02  0.51100000000E-03 0. -1.
    9900012    2    1    2    0    0  0.71484898612E+01  0.23181110493E+01  0.17152341744E+02  0.72461618250E+02  0.70000062471E+02 0.  0.
         12    1    1    2    0    0 -0.71484898612E+01 -0.23181110493E+01 -0.17152341744E+02  0.18726381750E+02  0.00000000000E+00 0. -1.
         11    1    3    3    0    0  0.32791528176E+02  0.57479467410E+01  0.12087438807E+02  0.35417924685E+02  0.51100000000E-03 0. -1.
        -11    1    3    3    0    0 -0.27070356951E+02 -0.10789823686E+02  0.48588936477E+01  0.29543753458E+02  0.51100000000E-03 0.  1.
         12    1    3    3    0    0  0.14273186369E+01  0.73599879947E+01  0.20600928943E+00  0.74999401065E+01  0.00000000000E+00 0. -1.
</event>
<event>
 7    1  0.1351543E-013  0.7246184E+02  0.7816164E-02  0.1226707E+00
        -11   -1    0    0    0    0  0.00000000000E+00  0.00000000000E+00  0.45593999997E+02  0.45594000000E+02  0.51100000000E-03 0. -1.
         11   -1    0    0    0    0 -0.00000000000E+00 -0.00000000000E+00 -0.45593999997E+02  0.45594000000E+02  0.51100000000E-03 0.  1.
    9900012    2    1    2    0    0  0.11070050472E+02  0.15076195045E+02 -0.91173073797E+00  0.72461843763E+02  0.70000356243E+02 0.  0.
         12    1    1    2    0    0 -0.11070050472E+02 -0.15076195045E+02  0.91173073797E+00  0.18726156237E+02  0.00000000000E+00 0. -1.
         11    1    3    3    0    0  0.31608855395E+02  0.57183291649E+01  0.12840903680E+02  0.34593465213E+02  0.51100000000E-03 0. -1.
        -11    1    3    3    0    0 -0.19412381905E+00  0.14081935745E+02 -0.80339856580E+01  0.16213683240E+02  0.51100000000E-03 0.  1.
         12    1    3    3    0    0 -0.20344681104E+02 -0.47240698655E+01 -0.57186487599E+01  0.21654695310E+02  0.00000000000E+00 0. -1.
</event>
<event>
 7    1  0.1351543E-013  0.7246123E+02  0.7816164E-02  0.1226709E+00
        -11   -1    0    0    0    0  0.00000000000E+00  0.00000000000E+00  0.45593999997E+02  0.45594000000E+02  0.51100000000E-03 0.  1.
         11   -1    0    0    0    0 -0.00000000000E+00 -0.00000000000E+00 -0.45593999997E+02  0.45594000000E+02  0.51100000000E-03 0. -1.
    9900012    2    1    2    0    0 -0.11460516726E+02 -0.11913532149E+02  0.87986417841E+01  0.72461233351E+02  0.69999561067E+02 0.  0.
         12    1    1    2    0    0  0.11460516726E+02  0.11913532149E+02 -0.87986417841E+01  0.18726766649E+02  0.00000000000E+00 0. -1.
         11    1    3    3    0    0  0.30965355149E+01 -0.23980625141E+02 -0.71788456910E-01  0.24179827712E+02  0.51100000000E-03 0. -1.
        -11    1    3    3    0    0  0.99404607202E+01  0.19321320889E+02  0.19737945152E+01  0.21817929903E+02  0.51100000000E-03 0.  1.
        -12    1    3    3    0    0 -0.24497512961E+02 -0.72542278977E+01  0.68966357258E+01  0.26463475735E+02  0.00000000000E+00 0.  1.
</event>
<event>
 7    1  0.1351543E-013  0.7246152E+02  0.7816164E-02  0.1226708E+00
        -11   -1    0    0    0    0  0.00000000000E+00  0.00000000000E+00  0.45593999997E+02  0.45594000000E+02  0.51100000000E-03 0.  1.
         11   -1    0    0    0    0 -0.00000000000E+00 -0.00000000000E+00 -0.45593999997E+02  0.45594000000E+02  0.51100000000E-03 0. -1.
    9900012    2    1    2    0    0  0.14329397122E+02 -0.25831129157E+01  0.11776113458E+02  0.72461522958E+02  0.69999938336E+02 0.  0.
         12    1    1    2    0    0 -0.14329397122E+02  0.25831129157E+01 -0.11776113458E+02  0.18726477042E+02  0.00000000000E+00 0. -1.
         11    1    3    3    0    0  0.17009095414E+02  0.84264056442E+01 -0.91364152653E+01  0.21066269794E+02  0.51100000000E-03 0. -1.
        -11    1    3    3    0    0  0.28776007714E+01  0.57145395863E+01  0.30615877597E+02  0.31277284252E+02  0.51100000000E-03 0.  1.
        -12    1    3    3    0    0 -0.55572990634E+01 -0.16724058146E+02 -0.97033488744E+01  0.20117968912E+02  0.00000000000E+00 0.  1.
</event>
<event>
 7    1  0.1351543E-013  0.7246161E+02  0.7816164E-02  0.1226708E+00
        -11   -1    0    0    0    0  0.00000000000E+00  0.00000000000E+00  0.45593999997E+02  0.45594000000E+02  0.51100000000E-03 0.  1.
         11   -1    0    0    0    0 -0.00000000000E+00 -0.00000000000E+00 -0.45593999997E+02  0.45594000000E+02  0.51100000000E-03 0. -1.
    9900012    2    1    2    0    0  0.16605452483E+02  0.83093454420E+01  0.24272267518E+01  0.72461609437E+02  0.70000050990E+02 0.  0.
         12    1    1    2    0    0 -0.16605452483E+02 -0.83093454420E+01 -0.24272267518E+01  0.18726390563E+02  0.00000000000E+00 0. -1.
         11    1    3    3    0    0  0.31428349210E+01  0.26715202626E+02 -0.42136958626E+01  0.27227462162E+02  0.51100000000E-03 0. -1.
        -11    1    3    3    0    0 -0.42118282693E+00 -0.27636699370E+02  0.71651401681E+01  0.28553524842E+02  0.51100000000E-03 0.  1.
        -12    1    3    3    0    0  0.13883800389E+02  0.92308421856E+01 -0.52421755372E+00  0.16680622432E+02  0.00000000000E+00 0.  1.
</event>
<event>
 7    1  0.1351543E-013  0.7246158E+02  0.7816164E-02  0.1226708E+00
        -11   -1    0    0    0    0  0.00000000000E+00  0.00000000000E+00  0.45593999997E+02  0.45594000000E+02  0.51100000000E-03 0.  1.
         11   -1    0    0    0    0 -0.00000000000E+00 -0.00000000000E+00 -0.45593999997E+02  0.45594000000E+02  0.51100000000E-03 0. -1.
    9900012    2    1    2    0    0  0.17827853267E+02 -0.46694677981E+01 -0.33230012401E+01  0.72461584997E+02  0.70000019153E+02 0.  0.
         12    1    1    2    0    0 -0.17827853267E+02  0.46694677981E+01  0.33230012401E+01  0.18726415003E+02  0.00000000000E+00 0. -1.
         11    1    3    3    0    0 -0.25601804333E+02 -0.11081328727E+01  0.33377750919E+01  0.25842234547E+02  0.51100000000E-03 0. -1.
        -11    1    3    3    0    0  0.22544779815E+02 -0.89894103687E+01 -0.91226711135E+00  0.24288038769E+02  0.51100000000E-03 0.  1.
        -12    1    3    3    0    0  0.20884877785E+02  0.54280754433E+01 -0.57485092207E+01  0.22331311681E+02  0.00000000000E+00 0.  1.
</event>
<event>
 7    1  0.1351543E-013  0.7246148E+02  0.7816164E-02  0.1226708E+00
        -11   -1    0    0    0    0  0.00000000000E+00  0.00000000000E+00  0.45593999997E+02  0.45594000000E+02  0.51100000000E-03 0. -1.
         11   -1    0    0    0    0 -0.00000000000E+00 -0.00000000000E+00 -0.45593999997E+02  0.45594000000E+02  0.51100000000E-03 0.  1.
    9900012    2    1    2    0    0 -0.70024029490E+01  0.86062319704E+01 -0.15085808851E+02  0.72461481250E+02  0.69999884004E+02 0.  0.
         12    1    1    2    0    0  0.70024029490E+01 -0.86062319704E+01  0.15085808851E+02  0.18726518750E+02  0.00000000000E+00 0. -1.
         11    1    3    3    0    0  0.24352439965E+02  0.44418045309E+01  0.78089339653E+01  0.25956702596E+02  0.51100000000E-03 0. -1.
        -11    1    3    3    0    0 -0.93061505802E+00 -0.72722328178E+01 -0.76785595122E+01  0.10616576237E+02  0.51100000000E-03 0.  1.
         12    1    3    3    0    0 -0.30424227856E+02  0.11436660257E+02 -0.15216183304E+02  0.35888202418E+02  0.00000000000E+00 0. -1.
</event>
<event>
 7    1  0.1351543E-013  0.7246179E+02  0.7816164E-02  0.1226707E+00
        -11   -1    0    0    0    0  0.00000000000E+00  0.00000000000E+00  0.45593999997E+02  0.45594000000E+02  0.51100000000E-03 0. -1.
         11   -1    0    0    0    0 -0.00000000000E+00 -0.00000000000E+00 -0.45593999997E+02  0.45594000000E+02  0.51100000000E-03 0.  1.
    9900012    2    1    2    0    0 -0.94578006227E+01 -0.95063812167E+01 -0.13070943098E+02  0.72461792965E+02  0.70000290069E+02 0.  0.
         12    1    1    2    0    0  0.94578006227E+01  0.95063812167E+01  0.13070943098E+02  0.18726207035E+02  0.00000000000E+00 0. -1.
         11    1    3    3    0    0  0.48083036562E+01 -0.28966914823E+01  0.12346731678E+02  0.13562904887E+02  0.51100000000E-03 0. -1.
        -11    1    3    3    0    0  0.76112039676E+01 -0.20454762553E+02 -0.24752401563E+02  0.33000138187E+02  0.51100000000E-03 0.  1.
        -12    1    3    3    0    0 -0.21877308246E+02  0.13845072819E+02 -0.66527321269E+00  0.25898749891E+02  0.00000000000E+00 0.  1.
</event>
<event>
 7    1  0.1351543E-013  0.7246156E+02  0.7816164E-02  0.1226708E+00
        -11   -1    0    0    0    0  0.00000000000E+00  0.00000000000E+00  0.45593999997E+02  0.45594000000E+02  0.51100000000E-03 0.  1.
         11   -1    0    0    0    0 -0.00000000000E+00 -0.00000000000E+00 -0.45593999997E+02  0.45594000000E+02  0.51100000000E-03 0. -1.
    9900012    2    1    2    0    0 -0.78892140601E+01  0.80702392264E+01  0.14943598561E+02  0.72461558864E+02  0.69999985110E+02 0.  0.
         12    1    1    2    0    0  0.78892140601E+01 -0.80702392264E+01 -0.14943598561E+02  0.18726441136E+02  0.00000000000E+00 0. -1.
         11    1    3    3    0    0 -0.88559650127E+01 -0.10001424197E+02 -0.27446892895E+01  0.13637812208E+02  0.51100000000E-03 0. -1.
        -11    1    3    3    0    0  0.26395242690E+02  0.34574331051E+01  0.10577353726E+02  0.28645123362E+02  0.51100000000E-03 0.  1.
        -12    1    3    3    0    0 -0.25428491737E+02  0.14614230318E+02  0.71109341243E+01  0.30178623294E+02  0.00000000000E+00 0.  1.
</event>
<event>
 7    1  0.1351543E-013  0.7246161E+02  0.7816164E-02  0.1226708E+00
        -11   -1    0    0    0    0  0.00000000000E+00  0.00000000000E+00  0.45593999997E+02  0.45594000000E+02  0.51100000000E-03 0. -1.
         11   -1    0    0    0    0 -0.00000000000E+00 -0.00000000000E+00 -0.45593999997E+02  0.45594000000E+02  0.51100000000E-03 0.  1.
    9900012    2    1    2    0    0  0.30903398264E+01 -0.10482827036E+02 -0.15206511971E+02  0.72461605012E+02  0.70000045227E+02 0.  0.
         12    1    1    2    0    0 -0.30903398264E+01  0.10482827036E+02  0.15206511971E+02  0.18726394988E+02  0.00000000000E+00 0. -1.
         11    1    3    3    0    0  0.45796891524E+01 -0.18646997994E+02  0.10740002527E+02  0.22000721385E+02  0.51100000000E-03 0. -1.
        -11    1    3    3    0    0  0.31748067177E+00  0.25139049355E+02 -0.98618521565E+01  0.27006086808E+02  0.51100000000E-03 0.  1.
         12    1    3    3    0    0 -0.18068299978E+01 -0.16974878396E+02 -0.16084662341E+02  0.23454796819E+02  0.00000000000E+00 0. -1.
</event>
<event>
 7    1  0.1351543E-013  0.7246204E+02  0.7816164E-02  0.1226707E+00
        -11   -1    0    0    0    0  0.00000000000E+00  0.00000000000E+00  0.45593999997E+02  0.45594000000E+02  0.51100000000E-03 0. -1.
         11   -1    0    0    0    0 -0.00000000000E+00 -0.00000000000E+00 -0.45593999997E+02  0.45594000000E+02  0.51100000000E-03 0.  1.
    9900012    2    1    2    0    0  0.15293231733E+02 -0.48308060022E+01 -0.96665286747E+01  0.72462044748E+02  0.70000618062E+02 0.  0.
         12    1    1    2    0    0 -0.15293231733E+02  0.48308060022E+01  0.96665286747E+01  0.18725955252E+02  0.00000000000E+00 0. -1.
         11    1    3    3    0    0  0.12010442170E+02  0.66054937849E+01  0.22551806163E+02  0.26390665599E+02  0.51100000000E-03 0. -1.
        -11    1    3    3    0    0  0.16503246167E+02 -0.78822667715E+01 -0.23743311743E+02  0.29970520788E+02  0.51100000000E-03 0.  1.
        -12    1    3    3    0    0 -0.13220456605E+02 -0.35540330156E+01 -0.84750230948E+01  0.16100858361E+02  0.00000000000E+00 0.  1.
</event>
<event>
 7    1  0.1351543E-013  0.7246150E+02  0.7816164E-02  0.1226708E+00
        -11   -1    0    0    0    0  0.00000000000E+00  0.00000000000E+00  0.45593999997E+02  0.45594000000E+02  0.51100000000E-03 0.  1.
         11   -1    0    0    0    0 -0.00000000000E+00 -0.00000000000E+00 -0.45593999997E+02  0.45594000000E+02  0.51100000000E-03 0. -1.
    9900012    2    1    2    0    0 -0.55284272672E+01  0.36434317552E+01  0.17516952190E+02  0.72461502276E+02  0.69999911393E+02 0.  0.
         12    1    1    2    0    0  0.55284272672E+01 -0.36434317552E+01 -0.17516952190E+02  0.18726497724E+02  0.00000000000E+00 0. -1.
         11    1    3    3    0    0 -0.14038448896E+02  0.33785960631E+02  0.40364764126E+01  0.36808454535E+02  0.51100000000E-03 0. -1.
        -11    1    3    3    0    0  0.73987346281E+00 -0.20157431107E+01  0.47209609624E+01  0.51863383711E+01  0.51100000000E-03 0.  1.
         12    1    3    3    0    0  0.77701481665E+01 -0.28126785765E+02  0.87595148147E+01  0.30466709369E+02  0.00000000000E+00 0. -1.
</event>
<event>
 7    1  0.1351543E-013  0.7246159E+02  0.7816164E-02  0.1226708E+00
        -11   -1    0    0    0    0  0.00000000000E+00  0.00000000000E+00  0.45593999997E+02  0.45594000000E+02  0.51100000000E-03 0.  1.
         11   -1    0    0    0    0 -0.00000000000E+00 -0.00000000000E+00 -0.45593999997E+02  0.45594000000E+02  0.51100000000E-03 0. -1.
    9900012    2    1    2    0    0 -0.22400590235E+01  0.55661756603E+01  0.17739170982E+02  0.72461591828E+02  0.70000028051E+02 0.  0.
         12    1    1    2    0    0  0.22400590235E+01 -0.55661756603E+01 -0.17739170982E+02  0.18726408172E+02  0.00000000000E+00 0. -1.
         11    1    3    3    0    0 -0.22285544868E+02  0.77372254266E+01 -0.14174339797E+02  0.27521302228E+02  0.51100000000E-03 0. -1.
        -11    1    3    3    0    0  0.53360533126E+00  0.81913639672E+01  0.15064115637E+02  0.17155487708E+02  0.51100000000E-03 0.  1.
         12    1    3    3    0    0  0.19511880513E+02 -0.10362413734E+02  0.16849395142E+02  0.27784801892E+02  0.00000000000E+00 0. -1.
</event>
<event>
 7    1  0.1351543E-013  0.7246152E+02  0.7816164E-02  0.1226708E+00
        -11   -1    0    0    0    0  0.00000000000E+00  0.00000000000E+00  0.45593999997E+02  0.45594000000E+02  0.51100000000E-03 0.  1.
         11   -1    0    0    0    0 -0.00000000000E+00 -0.00000000000E+00 -0.45593999997E+02  0.45594000000E+02  0.51100000000E-03 0. -1.
    9900012    2    1    2    0    0  0.93697836229E+01  0.11388010070E+02  0.11541296581E+02  0.72461517541E+02  0.69999931280E+02 0.  0.
         12    1    1    2    0    0 -0.93697836229E+01 -0.11388010070E+02 -0.11541296581E+02  0.18726482459E+02  0.00000000000E+00 0. -1.
         11    1    3    3    0    0 -0.22568263139E+01 -0.59291496627E+01  0.30695832803E+02  0.31344572616E+02  0.51100000000E-03 0. -1.
        -11    1    3    3    0    0  0.12824144973E+02  0.13909584942E+02  0.25711321277E+01  0.19093086922E+02  0.51100000000E-03 0.  1.
         12    1    3    3    0    0 -0.11975350360E+01  0.34075747907E+01 -0.21725668350E+02  0.22023858003E+02  0.00000000000E+00 0. -1.
</event>
<event>
 7    1  0.1351543E-013  0.7246161E+02  0.7816164E-02  0.1226708E+00
        -11   -1    0    0    0    0  0.00000000000E+00  0.00000000000E+00  0.45593999997E+02  0.45594000000E+02  0.51100000000E-03 0.  1.
         11   -1    0    0    0    0 -0.00000000000E+00 -0.00000000000E+00 -0.45593999997E+02  0.45594000000E+02  0.51100000000E-03 0. -1.
    9900012    2    1    2    0    0 -0.51887613473E+01  0.17953172781E+02  0.11992488274E+01  0.72461605393E+02  0.70000045723E+02 0.  0.
         12    1    1    2    0    0  0.51887613473E+01 -0.17953172781E+02 -0.11992488274E+01  0.18726394607E+02  0.00000000000E+00 0. -1.
         11    1    3    3    0    0  0.23476115926E+02  0.11167542798E+02 -0.91601006727E+01  0.27563553394E+02  0.51100000000E-03 0. -1.
        -11    1    3    3    0    0 -0.14471245539E+02  0.85166015224E+01  0.21135210423E+02  0.26993454185E+02  0.51100000000E-03 0.  1.
         12    1    3    3    0    0 -0.14193631734E+02 -0.17309715392E+01 -0.10775860923E+02  0.17904597815E+02  0.00000000000E+00 0. -1.
</event>
<event>
 7    1  0.1351543E-013  0.7246153E+02  0.7816164E-02  0.1226708E+00
        -11   -1    0    0    0    0  0.00000000000E+00  0.00000000000E+00  0.45593999997E+02  0.45594000000E+02  0.51100000000E-03 0.  1.
         11   -1    0    0    0    0 -0.00000000000E+00 -0.00000000000E+00 -0.45593999997E+02  0.45594000000E+02  0.51100000000E-03 0. -1.
    9900012    2    1    2    0    0 -0.46635365187E+01 -0.36173338720E+01  0.17772088481E+02  0.72461526595E+02  0.69999943073E+02 0.  0.
         12    1    1    2    0    0  0.46635365187E+01  0.36173338720E+01 -0.17772088481E+02  0.18726473405E+02  0.00000000000E+00 0. -1.
         11    1    3    3    0    0  0.11839117558E+02  0.20956521475E+02 -0.19948864862E+01  0.24152019982E+02  0.51100000000E-03 0. -1.
        -11    1    3    3    0    0 -0.23744123908E+01 -0.12347865044E+02  0.25779158710E+02  0.28682270298E+02  0.51100000000E-03 0.  1.
         12    1    3    3    0    0 -0.14128241686E+02 -0.12225990302E+02 -0.60121837427E+01  0.19627236315E+02  0.00000000000E+00 0. -1.
</event>
<event>
 7    1  0.1740261E-013  0.7246152E+02  0.7816164E-02  0.1226708E+00
        -11   -1    0    0    0    0  0.00000000000E+00  0.00000000000E+00  0.45593999997E+02  0.45594000000E+02  0.51100000000E-03 0. -1.
         11   -1    0    0    0    0 -0.00000000000E+00 -0.00000000000E+00 -0.45593999997E+02  0.45594000000E+02  0.51100000000E-03 0.  1.
    9900012    2    1    2    0    0 -0.15786619906E+02  0.52826775251E+01 -0.85765274515E+01  0.72461524810E+02  0.69999940748E+02 0.  0.
         12    1    1    2    0    0  0.15786619906E+02 -0.52826775251E+01  0.85765274515E+01  0.18726475190E+02  0.00000000000E+00 0. -1.
         11    1    3    3    0    0 -0.20593064279E+02 -0.14488840318E+02  0.14724944478E+02  0.29168900910E+02  0.51100000000E-03 0. -1.
        -11    1    3    3    0    0 -0.20960592774E+01  0.21792334974E+01 -0.24185710941E+02  0.24373984843E+02  0.51100000000E-03 0.  1.
         12    1    3    3    0    0  0.69025036502E+01  0.17592284346E+02  0.88423901188E+00  0.18918639057E+02  0.00000000000E+00 0. -1.
</event>
<event>
 7    1  0.1351543E-013  0.7246151E+02  0.7816164E-02  0.1226708E+00
        -11   -1    0    0    0    0  0.00000000000E+00  0.00000000000E+00  0.45593999997E+02  0.45594000000E+02  0.51100000000E-03 0. -1.
         11   -1    0    0    0    0 -0.00000000000E+00 -0.00000000000E+00 -0.45593999997E+02  0.45594000000E+02  0.51100000000E-03 0.  1.
    9900012    2    1    2    0    0 -0.67476589596E+01  0.13687541729E+02 -0.10853647761E+02  0.72461511548E+02  0.69999923472E+02 0.  0.
         12    1    1    2    0    0  0.67476589596E+01 -0.13687541729E+02  0.10853647761E+02  0.18726488452E+02  0.00000000000E+00 0. -1.
         11    1    3    3    0    0 -0.88235113257E+01  0.32066683033E+02  0.14290170701E+02  0.36198556488E+02  0.51100000000E-03 0. -1.
        -11    1    3    3    0    0  0.13244717802E+01 -0.12083644186E+01 -0.17261680083E+02  0.17354537436E+02  0.51100000000E-03 0.  1.
         12    1    3    3    0    0  0.75138058583E+00 -0.17170776885E+02 -0.78821383790E+01  0.18908417624E+02  0.00000000000E+00 0. -1.
</event>
<event>
 7    1  0.1351543E-013  0.7246158E+02  0.7816164E-02  0.1226708E+00
        -11   -1    0    0    0    0  0.00000000000E+00  0.00000000000E+00  0.45593999997E+02  0.45594000000E+02  0.51100000000E-03 0. -1.
         11   -1    0    0    0    0 -0.00000000000E+00 -0.00000000000E+00 -0.45593999997E+02  0.45594000000E+02  0.51100000000E-03 0.  1.
    9900012    2    1    2    0    0 -0.15602518715E+02 -0.10037309870E+02 -0.25480805007E+01  0.72461577653E+02  0.70000009586E+02 0.  0.
         12    1    1    2    0    0  0.15602518715E+02  0.10037309870E+02  0.25480805007E+01  0.18726422347E+02  0.00000000000E+00 0. -1.
         11    1    3    3    0    0  0.14679423438E+02 -0.17481989823E+02  0.33551823058E+01  0.23072986136E+02  0.51100000000E-03 0. -1.
        -11    1    3    3    0    0 -0.60792169576E+01  0.20089965099E+02 -0.68093526741E+01  0.22066509932E+02  0.51100000000E-03 0.  1.
         12    1    3    3    0    0 -0.24202725195E+02 -0.12645285146E+02  0.90608986758E+00  0.27322081585E+02  0.00000000000E+00 0. -1.
</event>
<event>
 7    1  0.1351543E-013  0.7246156E+02  0.7816164E-02  0.1226708E+00
        -11   -1    0    0    0    0  0.00000000000E+00  0.00000000000E+00  0.45593999997E+02  0.45594000000E+02  0.51100000000E-03 0. -1.
         11   -1    0    0    0    0 -0.00000000000E+00 -0.00000000000E+00 -0.45593999997E+02  0.45594000000E+02  0.51100000000E-03 0.  1.
    9900012    2    1    2    0    0  0.71585638773E+01  0.43215773237E+01 -0.16755853837E+02  0.72461555992E+02  0.69999981369E+02 0.  0.
         12    1    1    2    0    0 -0.71585638773E+01 -0.43215773237E+01  0.16755853837E+02  0.18726444008E+02  0.00000000000E+00 0. -1.
         11    1    3    3    0    0  0.19030974036E+02 -0.73575437033E+01 -0.32631484904E+02  0.38485389818E+02  0.51100000000E-03 0. -1.
        -11    1    3    3    0    0 -0.18546497681E+02  0.91460316135E+01  0.55282451765E+01  0.21405232200E+02  0.51100000000E-03 0.  1.
         12    1    3    3    0    0  0.66740875227E+01  0.25330894134E+01  0.10347385891E+02  0.12570933975E+02  0.00000000000E+00 0. -1.
</event>
<event>
 7    1  0.1351543E-013  0.7246150E+02  0.7816164E-02  0.1226708E+00
        -11   -1    0    0    0    0  0.00000000000E+00  0.00000000000E+00  0.45593999997E+02  0.45594000000E+02  0.51100000000E-03 0. -1.
         11   -1    0    0    0    0 -0.00000000000E+00 -0.00000000000E+00 -0.45593999997E+02  0.45594000000E+02  0.51100000000E-03 0.  1.
    9900012    2    1    2    0    0  0.14901977436E+01  0.14433163449E+02 -0.11838284005E+02  0.72461498334E+02  0.69999906258E+02 0.  0.
         12    1    1    2    0    0 -0.14901977436E+01 -0.14433163449E+02  0.11838284005E+02  0.18726501666E+02  0.00000000000E+00 0. -1.
         11    1    3    3    0    0  0.22356093705E+02  0.90870283706E+01  0.47375355915E+00  0.24136972740E+02  0.51100000000E-03 0. -1.
        -11    1    3    3    0    0 -0.17610064190E+02 -0.16640493697E+02 -0.38036162895E+01  0.24525250017E+02  0.51100000000E-03 0.  1.
        -12    1    3    3    0    0 -0.32558317719E+01  0.21986628775E+02 -0.85084212745E+01  0.23799275577E+02  0.00000000000E+00 0.  1.
</event>
<event>
 7    1  0.1351543E-013  0.7246165E+02  0.7816164E-02  0.1226708E+00
        -11   -1    0    0    0    0  0.00000000000E+00  0.00000000000E+00  0.45593999997E+02  0.45594000000E+02  0.51100000000E-03 0.  1.
         11   -1    0    0    0    0 -0.00000000000E+00 -0.00000000000E+00 -0.45593999997E+02  0.45594000000E+02  0.51100000000E-03 0. -1.
    9900012    2    1    2    0    0 -0.74101255459E+01  0.15701605018E+01  0.17126022914E+02  0.72461654242E+02  0.70000109357E+02 0.  0.
         12    1    1    2    0    0  0.74101255459E+01 -0.15701605018E+01 -0.17126022914E+02  0.18726345758E+02  0.00000000000E+00 0. -1.
         11    1    3    3    0    0 -0.28936671715E+02  0.45115490546E+01 -0.42457890391E+01  0.29592427573E+02  0.51100000000E-03 0. -1.
        -11    1    3    3    0    0  0.34583735962E+01  0.90128872300E+01  0.18694157055E+02  0.21039581565E+02  0.51100000000E-03 0.  1.
         12    1    3    3    0    0  0.18068172573E+02 -0.11954275783E+02  0.26776548976E+01  0.21829645104E+02  0.00000000000E+00 0. -1.
</event>
<event>
 7    1  0.1351543E-013  0.7246155E+02  0.7816164E-02  0.1226708E+00
        -11   -1    0    0    0    0  0.00000000000E+00  0.00000000000E+00  0.45593999997E+02  0.45594000000E+02  0.51100000000E-03 0. -1.
         11   -1    0    0    0    0 -0.00000000000E+00 -0.00000000000E+00 -0.45593999997E+02  0.45594000000E+02  0.51100000000E-03 0.  1.
    9900012    2    1    2    0    0 -0.17150821289E+02  0.36718827478E+01  0.65609893701E+01  0.72461548780E+02  0.69999971973E+02 0.  0.
         12    1    1    2    0    0  0.17150821289E+02 -0.36718827478E+01 -0.65609893701E+01  0.18726451220E+02  0.00000000000E+00 0. -1.
         11    1    3    3    0    0  0.46981885215E+01 -0.11388352931E+02  0.26191292958E+01  0.12594736853E+02  0.51100000000E-03 0. -1.
        -11    1    3    3    0    0 -0.17529748486E+02  0.22312816472E+02  0.24597737389E+02  0.37552663631E+02  0.51100000000E-03 0.  1.
        -12    1    3    3    0    0 -0.43192613240E+01 -0.72525807922E+01 -0.20655877314E+02  0.22314148296E+02  0.00000000000E+00 0.  1.
</event>
<event>
 7    1  0.1351543E-013  0.7246164E+02  0.7816164E-02  0.1226708E+00
        -11   -1    0    0    0    0  0.00000000000E+00  0.00000000000E+00  0.45593999997E+02  0.45594000000E+02  0.51100000000E-03 0.  1.
         11   -1    0    0    0    0 -0.00000000000E+00 -0.00000000000E+00 -0.45593999997E+02  0.45594000000E+02  0.51100000000E-03 0. -1.
    9900012    2    1    2    0    0 -0.16218835954E+02 -0.93607234203E+01 -0.52411726676E-01  0.72461640779E+02  0.70000091820E+02 0.  0.
         12    1    1    2    0    0  0.16218835954E+02  0.93607234203E+01  0.52411726676E-01  0.18726359221E+02  0.00000000000E+00 0. -1.
         11    1    3    3    0    0 -0.37509002144E+02 -0.17047943722E+02 -0.13049444587E+02  0.43218579700E+02  0.51100000000E-03 0. -1.
        -11    1    3    3    0    0  0.98657466552E+01 -0.16612690119E+01  0.69781860766E+00  0.10028944255E+02  0.51100000000E-03 0.  1.
         12    1    3    3    0    0  0.11424419534E+02  0.93484893137E+01  0.12299214253E+02  0.19214116825E+02  0.00000000000E+00 0. -1.
</event>
<event>
 7    1  0.1351543E-013  0.7246157E+02  0.7816164E-02  0.1226708E+00
        -11   -1    0    0    0    0  0.00000000000E+00  0.00000000000E+00  0.45593999997E+02  0.45594000000E+02  0.51100000000E-03 0.  1.
         11   -1    0    0    0    0 -0.00000000000E+00 -0.00000000000E+00 -0.45593999997E+02  0.45594000000E+02  0.51100000000E-03 0. -1.
    9900012    2    1    2    0    0  0.69437968073E+01 -0.16706191452E+02 -0.48338497770E+01  0.72461568129E+02  0.69999997180E+02 0.  0.
         12    1    1    2    0    0 -0.69437968073E+01  0.16706191452E+02  0.48338497770E+01  0.18726431871E+02  0.00000000000E+00 0. -1.
         11    1    3    3    0    0  0.12995038267E+02 -0.22576356462E+02  0.18225946766E+01  0.26112922898E+02  0.51100000000E-03 0. -1.
        -11    1    3    3    0    0 -0.33736380459E+01  0.17028722232E+02  0.14276845749E+02  0.22476368464E+02  0.51100000000E-03 0.  1.
        -12    1    3    3    0    0 -0.26776034134E+01 -0.11158557223E+02 -0.20933290203E+02  0.23872276767E+02  0.00000000000E+00 0.  1.
</event>
<event>
 7    1  0.1351543E-013  0.7246163E+02  0.7816164E-02  0.1226708E+00
        -11   -1    0    0    0    0  0.00000000000E+00  0.00000000000E+00  0.45593999997E+02  0.45594000000E+02  0.51100000000E-03 0. -1.
         11   -1    0    0    0    0 -0.00000000000E+00 -0.00000000000E+00 -0.45593999997E+02  0.45594000000E+02  0.51100000000E-03 0.  1.
    9900012    2    1    2    0    0  0.51866343027E+01 -0.24529402081E+01 -0.17825791606E+02  0.72461629891E+02  0.70000077636E+02 0.  0.
         12    1    1    2    0    0 -0.51866343027E+01  0.24529402081E+01  0.17825791606E+02  0.18726370109E+02  0.00000000000E+00 0. -1.
         11    1    3    3    0    0  0.18225771611E+02  0.62795486244E+01 -0.30112724130E+02  0.35754547075E+02  0.51100000000E-03 0. -1.
        -11    1    3    3    0    0 -0.91612858668E+01 -0.18677344527E+02  0.50555459662E+00  0.20809323464E+02  0.51100000000E-03 0.  1.
        -12    1    3    3    0    0 -0.38778514413E+01  0.99448556947E+01  0.11781377927E+02  0.15897759353E+02  0.00000000000E+00 0.  1.
</event>
<event>
 7    1  0.1365783E-013  0.7246160E+02  0.7816164E-02  0.1226708E+00
        -11   -1    0    0    0    0  0.00000000000E+00  0.00000000000E+00  0.45593999997E+02  0.45594000000E+02  0.51100000000E-03 0. -1.
         11   -1    0    0    0    0 -0.00000000000E+00 -0.00000000000E+00 -0.45593999997E+02  0.45594000000E+02  0.51100000000E-03 0.  1.
    9900012    2    1    2    0    0  0.11611666774E+02 -0.22602276297E+01 -0.14516839123E+02  0.72461600123E+02  0.70000038858E+02 0.  0.
         12    1    1    2    0    0 -0.11611666774E+02  0.22602276297E+01  0.14516839123E+02  0.18726399877E+02  0.00000000000E+00 0. -1.
         11    1    3    3    0    0 -0.11213700673E+02  0.20283288305E+02 -0.29503594054E+01  0.23363721624E+02  0.51100000000E-03 0. -1.
        -11    1    3    3    0    0  0.25422192995E+02 -0.81186356216E+00 -0.30679041057E+01  0.25619505361E+02  0.51100000000E-03 0.  1.
         12    1    3    3    0    0 -0.25968255479E+01 -0.21731652373E+02 -0.84985756122E+01  0.23478373138E+02  0.00000000000E+00 0. -1.
</event>
<event>
 7    1  0.1351543E-013  0.7246147E+02  0.7816164E-02  0.1226708E+00
        -11   -1    0    0    0    0  0.00000000000E+00  0.00000000000E+00  0.45593999997E+02  0.45594000000E+02  0.51100000000E-03 0.  1.
         11   -1    0    0    0    0 -0.00000000000E+00 -0.00000000000E+00 -0.45593999997E+02  0.45594000000E+02  0.51100000000E-03 0. -1.
    9900012    2    1    2    0    0 -0.11885638723E+02 -0.27216368986E+01  0.14212929488E+02  0.72461465887E+02  0.69999863990E+02 0.  0.
         12    1    1    2    0    0  0.11885638723E+02  0.27216368986E+01 -0.14212929488E+02  0.18726534113E+02  0.00000000000E+00 0. -1.
         11    1    3    3    0    0 -0.30235458872E+02 -0.12437347727E+02 -0.66649826507E+01  0.33366039406E+02  0.51100000000E-03 0. -1.
        -11    1    3    3    0    0  0.12773359396E+02  0.12235312131E+02  0.36758135338E+00  0.17691712453E+02  0.51100000000E-03 0.  1.
        -12    1    3    3    0    0  0.55764607530E+01 -0.25196013021E+01  0.20510330786E+02  0.21403714028E+02  0.00000000000E+00 0.  1.
</event>
<event>
 7    1  0.1351543E-013  0.7246150E+02  0.7816164E-02  0.1226708E+00
        -11   -1    0    0    0    0  0.00000000000E+00  0.00000000000E+00  0.45593999997E+02  0.45594000000E+02  0.51100000000E-03 0.  1.
         11   -1    0    0    0    0 -0.00000000000E+00 -0.00000000000E+00 -0.45593999997E+02  0.45594000000E+02  0.51100000000E-03 0. -1.
    9900012    2    1    2    0    0  0.14043695883E+02 -0.89142753795E+01  0.86018687920E+01  0.72461498823E+02  0.69999906896E+02 0.  0.
         12    1    1    2    0    0 -0.14043695883E+02  0.89142753795E+01 -0.86018687920E+01  0.18726501177E+02  0.00000000000E+00 0. -1.
         11    1    3    3    0    0  0.55162856852E+01 -0.24259630461E+02 -0.13554102248E+02  0.28331480121E+02  0.51100000000E-03 0. -1.
        -11    1    3    3    0    0  0.19214457447E+02  0.28018861977E+01  0.44086396814E+01  0.19911856904E+02  0.51100000000E-03 0.  1.
         12    1    3    3    0    0 -0.10687047249E+02  0.12543468883E+02  0.17747331359E+02  0.24218161798E+02  0.00000000000E+00 0. -1.
</event>
<event>
 7    1  0.1351543E-013  0.7246166E+02  0.7816164E-02  0.1226708E+00
        -11   -1    0    0    0    0  0.00000000000E+00  0.00000000000E+00  0.45593999997E+02  0.45594000000E+02  0.51100000000E-03 0. -1.
         11   -1    0    0    0    0 -0.00000000000E+00 -0.00000000000E+00 -0.45593999997E+02  0.45594000000E+02  0.51100000000E-03 0.  1.
    9900012    2    1    2    0    0 -0.97299809700E+01 -0.11510053998E+02 -0.11114038471E+02  0.72461662295E+02  0.70000119848E+02 0.  0.
         12    1    1    2    0    0  0.97299809700E+01  0.11510053998E+02  0.11114038471E+02  0.18726337705E+02  0.00000000000E+00 0. -1.
         11    1    3    3    0    0 -0.15225591025E+02  0.15948458882E+01  0.13860073365E+02  0.20650999719E+02  0.51100000000E-03 0. -1.
        -11    1    3    3    0    0 -0.14143495553E+02 -0.18118087865E+02 -0.21045986961E+02  0.31164677790E+02  0.51100000000E-03 0.  1.
        -12    1    3    3    0    0  0.19639105607E+02  0.50131879786E+01 -0.39281248745E+01  0.20645984786E+02  0.00000000000E+00 0.  1.
</event>
<event>
 7    1  0.1351543E-013  0.7246148E+02  0.7816164E-02  0.1226708E+00
        -11   -1    0    0    0    0  0.00000000000E+00  0.00000000000E+00  0.45593999997E+02  0.45594000000E+02  0.51100000000E-03 0. -1.
         11   -1    0    0    0    0 -0.00000000000E+00 -0.00000000000E+00 -0.45593999997E+02  0.45594000000E+02  0.51100000000E-03 0.  1.
    9900012    2    1    2    0    0 -0.94243328630E+01 -0.86057918115E+01 -0.13704192263E+02  0.72461479015E+02  0.69999881092E+02 0.  0.
         12    1    1    2    0    0  0.94243328630E+01  0.86057918115E+01  0.13704192263E+02  0.18726520985E+02  0.00000000000E+00 0. -1.
         11    1    3    3    0    0 -0.18041498952E+02 -0.66590472982E+01 -0.19537742752E+02  0.27414630901E+02  0.51100000000E-03 0.  1.
        -11    1    3    3    0    0  0.13015548262E+02  0.16529860512E+02  0.13017636139E+02  0.24740647445E+02  0.51100000000E-03 0. -1.
        -12    1    3    3    0    0 -0.43983821724E+01 -0.18476605025E+02 -0.71840856498E+01  0.20306200669E+02  0.00000000000E+00 0.  1.
</event>
<event>
 7    1  0.1351543E-013  0.7246157E+02  0.7816164E-02  0.1226708E+00
        -11   -1    0    0    0    0  0.00000000000E+00  0.00000000000E+00  0.45593999997E+02  0.45594000000E+02  0.51100000000E-03 0. -1.
         11   -1    0    0    0    0 -0.00000000000E+00 -0.00000000000E+00 -0.45593999997E+02  0.45594000000E+02  0.51100000000E-03 0.  1.
    9900012    2    1    2    0    0  0.15676454555E+02 -0.30361355574E+01 -0.97831483428E+01  0.72461565795E+02  0.69999994139E+02 0.  0.
         12    1    1    2    0    0 -0.15676454555E+02  0.30361355574E+01  0.97831483428E+01  0.18726434205E+02  0.00000000000E+00 0. -1.
         11    1    3    3    0    0 -0.61072112235E+01  0.13447476588E+02 -0.25165814991E+02  0.29179631594E+02  0.51100000000E-03 0. -1.
        -11    1    3    3    0    0  0.20837752074E+02 -0.13527376310E+02 -0.26496400565E+01  0.24984443440E+02  0.51100000000E-03 0.  1.
        -12    1    3    3    0    0  0.94591370444E+00 -0.29562358354E+01  0.18032306705E+02  0.18297490761E+02  0.00000000000E+00 0.  1.
</event>
<event>
 7    1  0.1351543E-013  0.7246155E+02  0.7816164E-02  0.1226708E+00
        -11   -1    0    0    0    0  0.00000000000E+00  0.00000000000E+00  0.45593999997E+02  0.45594000000E+02  0.51100000000E-03 0. -1.
         11   -1    0    0    0    0 -0.00000000000E+00 -0.00000000000E+00 -0.45593999997E+02  0.45594000000E+02  0.51100000000E-03 0.  1.
    9900012    2    1    2    0    0  0.56188971623E+00 -0.13873506782E+02 -0.12565429322E+02  0.72461550135E+02  0.69999973739E+02 0.  0.
         12    1    1    2    0    0 -0.56188971623E+00  0.13873506782E+02  0.12565429322E+02  0.18726449865E+02  0.00000000000E+00 0. -1.
         11    1    3    3    0    0 -0.10754032165E+02  0.32904414859E+01  0.15918110581E+02  0.19490060485E+02  0.51100000000E-03 0. -1.
        -11    1    3    3    0    0  0.26225719628E+02 -0.10987986250E+02 -0.19760184582E+02  0.34626422091E+02  0.51100000000E-03 0.  1.
        -12    1    3    3    0    0 -0.14909797747E+02 -0.61759620185E+01 -0.87233553209E+01  0.18345067559E+02  0.00000000000E+00 0.  1.
</event>
<event>
 7    1  0.1351543E-013  0.7246149E+02  0.7816164E-02  0.1226708E+00
        -11   -1    0    0    0    0  0.00000000000E+00  0.00000000000E+00  0.45593999997E+02  0.45594000000E+02  0.51100000000E-03 0.  1.
         11   -1    0    0    0    0 -0.00000000000E+00 -0.00000000000E+00 -0.45593999997E+02  0.45594000000E+02  0.51100000000E-03 0. -1.
    9900012    2    1    2    0    0 -0.11658544653E+02 -0.36983017846E+01  0.14180375489E+02  0.72461490755E+02  0.69999896385E+02 0.  0.
         12    1    1    2    0    0  0.11658544653E+02  0.36983017846E+01 -0.14180375489E+02  0.18726509245E+02  0.00000000000E+00 0. -1.
         11    1    3    3    0    0 -0.20885632306E+02 -0.14977919223E+02 -0.38581309635E+01  0.25989091478E+02  0.51100000000E-03 0. -1.
        -11    1    3    3    0    0 -0.50419257050E+01  0.17614128629E+02  0.23619929180E+02  0.29892801757E+02  0.51100000000E-03 0.  1.
         12    1    3    3    0    0  0.14269013358E+02 -0.63345111912E+01 -0.55814227275E+01  0.16579597519E+02  0.00000000000E+00 0. -1.
</event>
<event>
 7    1  0.1351543E-013  0.7246153E+02  0.7816164E-02  0.1226708E+00
        -11   -1    0    0    0    0  0.00000000000E+00  0.00000000000E+00  0.45593999997E+02  0.45594000000E+02  0.51100000000E-03 0.  1.
         11   -1    0    0    0    0 -0.00000000000E+00 -0.00000000000E+00 -0.45593999997E+02  0.45594000000E+02  0.51100000000E-03 0. -1.
    9900012    2    1    2    0    0  0.91635248390E+01  0.11536466042E+02  0.11559436191E+02  0.72461526727E+02  0.69999943245E+02 0.  0.
         12    1    1    2    0    0 -0.91635248390E+01 -0.11536466042E+02 -0.11559436191E+02  0.18726473273E+02  0.00000000000E+00 0. -1.
         11    1    3    3    0    0  0.28662361833E+02  0.35564726036E+01  0.24969211483E+02  0.38179065017E+02  0.51100000000E-03 0. -1.
        -11    1    3    3    0    0 -0.14851665000E+02 -0.62987963221E+01 -0.42103907341E+01  0.16672557655E+02  0.51100000000E-03 0.  1.
         12    1    3    3    0    0 -0.46471719945E+01  0.14278789760E+02 -0.91993845581E+01  0.17609904054E+02  0.00000000000E+00 0. -1.
</event>
<event>
 7    1  0.1351543E-013  0.7246157E+02  0.7816164E-02  0.1226708E+00
        -11   -1    0    0    0    0  0.00000000000E+00  0.00000000000E+00  0.45593999997E+02  0.45594000000E+02  0.51100000000E-03 0. -1.
         11   -1    0    0    0    0 -0.00000000000E+00 -0.00000000000E+00 -0.45593999997E+02  0.45594000000E+02  0.51100000000E-03 0.  1.
    9900012    2    1    2    0    0  0.77779807308E+00  0.17979622511E+02 -0.51775840201E+01  0.72461570235E+02  0.69999999922E+02 0.  0.
         12    1    1    2    0    0 -0.77779807308E+00 -0.17979622511E+02  0.51775840201E+01  0.18726429765E+02  0.00000000000E+00 0. -1.
         11    1    3    3    0    0 -0.21570618910E+02 -0.90727093293E+01  0.16875854533E+02  0.28851345224E+02  0.51100000000E-03 0. -1.
        -11    1    3    3    0    0  0.97841201646E+01  0.17141212934E+02 -0.52877401731E+01  0.20433070857E+02  0.51100000000E-03 0.  1.
         12    1    3    3    0    0  0.12564296819E+02  0.99111189061E+01 -0.16765698380E+02  0.23177154154E+02  0.00000000000E+00 0. -1.
</event>
<event>
 7    1  0.1351543E-013  0.7246158E+02  0.7816164E-02  0.1226708E+00
        -11   -1    0    0    0    0  0.00000000000E+00  0.00000000000E+00  0.45593999997E+02  0.45594000000E+02  0.51100000000E-03 0.  1.
         11   -1    0    0    0    0 -0.00000000000E+00 -0.00000000000E+00 -0.45593999997E+02  0.45594000000E+02  0.51100000000E-03 0. -1.
    9900012    2    1    2    0    0  0.60184808516E+01  0.15985276794E+02 -0.76764267240E+01  0.72461582479E+02  0.70000015872E+02 0.  0.
         12    1    1    2    0    0 -0.60184808516E+01 -0.15985276794E+02  0.76764267240E+01  0.18726417521E+02  0.00000000000E+00 0. -1.
         11    1    3    3    0    0 -0.19325989380E+02  0.21309884003E+02 -0.83664257084E+01  0.29960008364E+02  0.51100000000E-03 0. -1.
        -11    1    3    3    0    0  0.31883563453E+02  0.26149163052E+01  0.23754609770E+01  0.32078687954E+02  0.51100000000E-03 0.  1.
         12    1    3    3    0    0 -0.65390932212E+01 -0.79395235143E+01 -0.16854619925E+01  0.10422886161E+02  0.00000000000E+00 0. -1.
</event>
<event>
 7    1  0.1351543E-013  0.7246162E+02  0.7816164E-02  0.1226708E+00
        -11   -1    0    0    0    0  0.00000000000E+00  0.00000000000E+00  0.45593999997E+02  0.45594000000E+02  0.51100000000E-03 0.  1.
         11   -1    0    0    0    0 -0.00000000000E+00 -0.00000000000E+00 -0.45593999997E+02  0.45594000000E+02  0.51100000000E-03 0. -1.
    9900012    2    1    2    0    0 -0.43986389903E+01  0.16613896646E+02  0.74369132831E+01  0.72461621121E+02  0.70000066211E+02 0.  0.
         12    1    1    2    0    0  0.43986389903E+01 -0.16613896646E+02 -0.74369132831E+01  0.18726378879E+02  0.00000000000E+00 0. -1.
         11    1    3    3    0    0  0.57735447223E+01 -0.71724401760E+00  0.33155800734E+02  0.33662373360E+02  0.51100000000E-03 0. -1.
        -11    1    3    3    0    0 -0.91411591304E+01  0.15957015101E+02 -0.65016051798E+01  0.19505332383E+02  0.51100000000E-03 0.  1.
         12    1    3    3    0    0 -0.10310245822E+01  0.13741255628E+01 -0.19217282271E+02  0.19293915379E+02  0.00000000000E+00 0. -1.
</event>
<event>
 7    1  0.1701023E-013  0.7246129E+02  0.7816164E-02  0.1226709E+00
        -11   -1    0    0    0    0  0.00000000000E+00  0.00000000000E+00  0.45593999997E+02  0.45594000000E+02  0.51100000000E-03 0. -1.
         11   -1    0    0    0    0 -0.00000000000E+00 -0.00000000000E+00 -0.45593999997E+02  0.45594000000E+02  0.51100000000E-03 0.  1.
    9900012    2    1    2    0    0  0.11258977197E+02  0.19344030836E+01 -0.14838568716E+02  0.72461291684E+02  0.69999637057E+02 0.  0.
         12    1    1    2    0    0 -0.11258977197E+02 -0.19344030836E+01  0.14838568716E+02  0.18726708316E+02  0.00000000000E+00 0. -1.
         11    1    3    3    0    0 -0.15202889031E+00 -0.26217959246E+02 -0.15371532896E+02  0.30392244466E+02  0.51100000000E-03 0. -1.
        -11    1    3    3    0    0  0.13613534330E+02  0.15981910750E+02 -0.12229933827E+02  0.24296523823E+02  0.51100000000E-03 0.  1.
         12    1    3    3    0    0 -0.22025282430E+01  0.12170451579E+02  0.12762898007E+02  0.17772523396E+02  0.00000000000E+00 0. -1.
</event>
<event>
 7    1  0.1436216E-013  0.7246158E+02  0.7816164E-02  0.1226708E+00
        -11   -1    0    0    0    0  0.00000000000E+00  0.00000000000E+00  0.45593999997E+02  0.45594000000E+02  0.51100000000E-03 0. -1.
         11   -1    0    0    0    0 -0.00000000000E+00 -0.00000000000E+00 -0.45593999997E+02  0.45594000000E+02  0.51100000000E-03 0.  1.
    9900012    2    1    2    0    0 -0.65473777168E-01 -0.92770814602E+01 -0.16266842905E+02  0.72461582688E+02  0.70000016145E+02 0.  0.
         12    1    1    2    0    0  0.65473777168E-01  0.92770814602E+01  0.16266842905E+02  0.18726417312E+02  0.00000000000E+00 0. -1.
         11    1    3    3    0    0  0.98995405325E+01 -0.70099219085E+01  0.15714141426E+02  0.19851300938E+02  0.51100000000E-03 0. -1.
        -11    1    3    3    0    0 -0.20234578764E+02 -0.15137627242E+02 -0.18259306456E+02  0.31176725434E+02  0.51100000000E-03 0.  1.
        -12    1    3    3    0    0  0.10269564454E+02  0.12870467690E+02 -0.13721677875E+02  0.21433556316E+02  0.00000000000E+00 0.  1.
</event>
<event>
 7    1  0.1351543E-013  0.7246150E+02  0.7816164E-02  0.1226708E+00
        -11   -1    0    0    0    0  0.00000000000E+00  0.00000000000E+00  0.45593999997E+02  0.45594000000E+02  0.51100000000E-03 0. -1.
         11   -1    0    0    0    0 -0.00000000000E+00 -0.00000000000E+00 -0.45593999997E+02  0.45594000000E+02  0.51100000000E-03 0.  1.
    9900012    2    1    2    0    0  0.15934906562E+02 -0.55199278953E+01 -0.81419367877E+01  0.72461495101E+02  0.69999902046E+02 0.  0.
         12    1    1    2    0    0 -0.15934906562E+02  0.55199278953E+01  0.81419367877E+01  0.18726504899E+02  0.00000000000E+00 0. -1.
         11    1    3    3    0    0 -0.12901816232E+02 -0.26764551828E+02  0.86060621967E+01  0.30933192584E+02  0.51100000000E-03 0. -1.
        -11    1    3    3    0    0  0.10348897980E+02  0.15495309121E+02 -0.78209032279E+01  0.20208186998E+02  0.51100000000E-03 0.  1.
         12    1    3    3    0    0  0.18487824813E+02  0.57493148114E+01 -0.89270957564E+01  0.21320115519E+02  0.00000000000E+00 0. -1.
</event>
<event>
 7    1  0.1351543E-013  0.7246154E+02  0.7816164E-02  0.1226708E+00
        -11   -1    0    0    0    0  0.00000000000E+00  0.00000000000E+00  0.45593999997E+02  0.45594000000E+02  0.51100000000E-03 0. -1.
         11   -1    0    0    0    0 -0.00000000000E+00 -0.00000000000E+00 -0.45593999997E+02  0.45594000000E+02  0.51100000000E-03 0.  1.
    9900012    2    1    2    0    0 -0.19162098934E+01  0.10004216858E+02 -0.15713815256E+02  0.72461542642E+02  0.69999963977E+02 0.  0.
         12    1    1    2    0    0  0.19162098934E+01 -0.10004216858E+02  0.15713815256E+02  0.18726457358E+02  0.00000000000E+00 0. -1.
         11    1    3    3    0    0  0.26282398165E+02  0.18017325740E+02  0.58566928090E+01  0.32398909411E+02  0.51100000000E-03 0. -1.
        -11    1    3    3    0    0 -0.56896371992E+01  0.49177649828E+01 -0.71027041186E+01  0.10344311961E+02  0.51100000000E-03 0.  1.
         12    1    3    3    0    0 -0.22508970859E+02 -0.12930873865E+02 -0.14467803946E+02  0.29718321270E+02  0.00000000000E+00 0. -1.
</event>
<event>
 7    1  0.1351543E-013  0.7246159E+02  0.7816164E-02  0.1226708E+00
        -11   -1    0    0    0    0  0.00000000000E+00  0.00000000000E+00  0.45593999997E+02  0.45594000000E+02  0.51100000000E-03 0.  1.
         11   -1    0    0    0    0 -0.00000000000E+00 -0.00000000000E+00 -0.45593999997E+02  0.45594000000E+02  0.51100000000E-03 0. -1.
    9900012    2    1    2    0    0 -0.22081870449E+01 -0.89080826200E+01  0.16323245879E+02  0.72461591321E+02  0.70000027391E+02 0.  0.
         12    1    1    2    0    0  0.22081870449E+01  0.89080826200E+01 -0.16323245879E+02  0.18726408679E+02  0.00000000000E+00 0. -1.
         11    1    3    3    0    0 -0.96552710505E+01  0.15010636535E+02 -0.15221659299E+02  0.23457245796E+02  0.51100000000E-03 0. -1.
        -11    1    3    3    0    0  0.13626821268E+02 -0.13857920956E+02  0.51761159872E+01  0.20112792150E+02  0.51100000000E-03 0.  1.
         12    1    3    3    0    0 -0.61797372625E+01 -0.10060798199E+02  0.26368789191E+02  0.28891553375E+02  0.00000000000E+00 0. -1.
</event>
<event>
 7    1  0.1351543E-013  0.7246173E+02  0.7816164E-02  0.1226708E+00
        -11   -1    0    0    0    0  0.00000000000E+00  0.00000000000E+00  0.45593999997E+02  0.45594000000E+02  0.51100000000E-03 0.  1.
         11   -1    0    0    0    0 -0.00000000000E+00 -0.00000000000E+00 -0.45593999997E+02  0.45594000000E+02  0.51100000000E-03 0. -1.
    9900012    2    1    2    0    0 -0.16925854205E+02 -0.41781710730E+01  0.68360361297E+01  0.72461733846E+02  0.70000213057E+02 0.  0.
         12    1    1    2    0    0  0.16925854205E+02  0.41781710730E+01 -0.68360361297E+01  0.18726266154E+02  0.00000000000E+00 0. -1.
         11    1    3    3    0    0  0.17985666192E+02 -0.52582817938E+01  0.28560294105E+01  0.18954962940E+02  0.51100000000E-03 0. -1.
        -11    1    3    3    0    0 -0.29514647339E+02  0.17967398793E+02  0.76786286354E+01  0.35396372200E+02  0.51100000000E-03 0.  1.
        -12    1    3    3    0    0 -0.53968730577E+01 -0.16887288072E+02 -0.36986219161E+01  0.18110398707E+02  0.00000000000E+00 0.  1.
</event>
<event>
 7    1  0.1351543E-013  0.7246165E+02  0.7816164E-02  0.1226708E+00
        -11   -1    0    0    0    0  0.00000000000E+00  0.00000000000E+00  0.45593999997E+02  0.45594000000E+02  0.51100000000E-03 0.  1.
         11   -1    0    0    0    0 -0.00000000000E+00 -0.00000000000E+00 -0.45593999997E+02  0.45594000000E+02  0.51100000000E-03 0. -1.
    9900012    2    1    2    0    0 -0.16996340143E+02 -0.59824355592E+00  0.78385292521E+01  0.72461654536E+02  0.70000109740E+02 0.  0.
         12    1    1    2    0    0  0.16996340143E+02  0.59824355592E+00 -0.78385292521E+01  0.18726345464E+02  0.00000000000E+00 0. -1.
         11    1    3    3    0    0  0.12012970284E+02  0.59444707070E+01 -0.12068966322E+02  0.18036300490E+02  0.51100000000E-03 0. -1.
        -11    1    3    3    0    0 -0.20051379584E+02 -0.17302113341E+02 -0.39361393427E+01  0.26775252426E+02  0.51100000000E-03 0.  1.
        -12    1    3    3    0    0 -0.89579308432E+01  0.10759399078E+02  0.23843634917E+02  0.27650101619E+02  0.00000000000E+00 0.  1.
</event>
<event>
 7    1  0.1351543E-013  0.7246154E+02  0.7816164E-02  0.1226708E+00
        -11   -1    0    0    0    0  0.00000000000E+00  0.00000000000E+00  0.45593999997E+02  0.45594000000E+02  0.51100000000E-03 0.  1.
         11   -1    0    0    0    0 -0.00000000000E+00 -0.00000000000E+00 -0.45593999997E+02  0.45594000000E+02  0.51100000000E-03 0. -1.
    9900012    2    1    2    0    0  0.65288747884E+01  0.75777121938E+01 -0.15831369175E+02  0.72461543366E+02  0.69999964921E+02 0.  0.
         12    1    1    2    0    0 -0.65288747884E+01 -0.75777121938E+01  0.15831369175E+02  0.18726456634E+02  0.00000000000E+00 0. -1.
         11    1    3    3    0    0  0.94796733859E+01 -0.67903802972E+01 -0.27792830443E+02  0.30139921971E+02  0.51100000000E-03 0. -1.
        -11    1    3    3    0    0  0.57645804008E+01 -0.89491681056E+01  0.13721608484E+02  0.17366650127E+02  0.51100000000E-03 0.  1.
        -12    1    3    3    0    0 -0.87153789983E+01  0.23317260597E+02 -0.17601472157E+01  0.24954971269E+02  0.00000000000E+00 0.  1.
</event>
<event>
 7    1  0.1351543E-013  0.7246153E+02  0.7816164E-02  0.1226708E+00
        -11   -1    0    0    0    0  0.00000000000E+00  0.00000000000E+00  0.45593999997E+02  0.45594000000E+02  0.51100000000E-03 0.  1.
         11   -1    0    0    0    0 -0.00000000000E+00 -0.00000000000E+00 -0.45593999997E+02  0.45594000000E+02  0.51100000000E-03 0. -1.
    9900012    2    1    2    0    0 -0.10584511729E+02  0.14799576331E+02  0.44295804362E+01  0.72461533943E+02  0.69999952646E+02 0.  0.
         12    1    1    2    0    0  0.10584511729E+02 -0.14799576331E+02 -0.44295804362E+01  0.18726466057E+02  0.00000000000E+00 0. -1.
         11    1    3    3    0    0 -0.29922090512E+02  0.37773518457E+01  0.16037373807E+02  0.34158413992E+02  0.51100000000E-03 0. -1.
        -11    1    3    3    0    0  0.52002365731E+01 -0.97340877396E+01 -0.11380986454E+01  0.11094601990E+02  0.51100000000E-03 0.  1.
         12    1    3    3    0    0  0.14137342210E+02  0.20756312225E+02 -0.10469694725E+02  0.27208517961E+02  0.00000000000E+00 0. -1.
</event>
<event>
 7    1  0.1351543E-013  0.7246155E+02  0.7816164E-02  0.1226708E+00
        -11   -1    0    0    0    0  0.00000000000E+00  0.00000000000E+00  0.45593999997E+02  0.45594000000E+02  0.51100000000E-03 0.  1.
         11   -1    0    0    0    0 -0.00000000000E+00 -0.00000000000E+00 -0.45593999997E+02  0.45594000000E+02  0.51100000000E-03 0. -1.
    9900012    2    1    2    0    0 -0.99325664658E+01 -0.17798594965E+01  0.15775174684E+02  0.72461550450E+02  0.69999974149E+02 0.  0.
         12    1    1    2    0    0  0.99325664658E+01  0.17798594965E+01 -0.15775174684E+02  0.18726449550E+02  0.00000000000E+00 0. -1.
         11    1    3    3    0    0  0.14229958739E+02 -0.15446619244E+02  0.15043314276E+02  0.25833913301E+02  0.51100000000E-03 0. -1.
        -11    1    3    3    0    0  0.78552648100E-01  0.14257495395E+02 -0.12537514362E+02  0.18986089963E+02  0.51100000000E-03 0.  1.
         12    1    3    3    0    0 -0.24241077853E+02 -0.59073564734E+00  0.13269374770E+02  0.27641547186E+02  0.00000000000E+00 0. -1.
</event>
<event>
 7    1  0.1351543E-013  0.7246164E+02  0.7816164E-02  0.1226708E+00
        -11   -1    0    0    0    0  0.00000000000E+00  0.00000000000E+00  0.45593999997E+02  0.45594000000E+02  0.51100000000E-03 0.  1.
         11   -1    0    0    0    0 -0.00000000000E+00 -0.00000000000E+00 -0.45593999997E+02  0.45594000000E+02  0.51100000000E-03 0. -1.
    9900012    2    1    2    0    0  0.17769432687E+02 -0.49287244099E+01  0.32605974177E+01  0.72461640027E+02  0.70000090840E+02 0.  0.
         12    1    1    2    0    0 -0.17769432687E+02  0.49287244099E+01 -0.32605974177E+01  0.18726359973E+02  0.00000000000E+00 0. -1.
         11    1    3    3    0    0 -0.20849121180E+01 -0.85714095625E+01 -0.27403771649E+02  0.28788584913E+02  0.51100000000E-03 0. -1.
        -11    1    3    3    0    0  0.24478143965E+02  0.30615298561E+01  0.19080159018E+02  0.31186615165E+02  0.51100000000E-03 0.  1.
        -12    1    3    3    0    0 -0.46237991608E+01  0.58115529657E+00  0.11584210048E+02  0.12486439949E+02  0.00000000000E+00 0.  1.
</event>
<event>
 7    1  0.1351543E-013  0.7246143E+02  0.7816164E-02  0.1226708E+00
        -11   -1    0    0    0    0  0.00000000000E+00  0.00000000000E+00  0.45593999997E+02  0.45594000000E+02  0.51100000000E-03 0.  1.
         11   -1    0    0    0    0 -0.00000000000E+00 -0.00000000000E+00 -0.45593999997E+02  0.45594000000E+02  0.51100000000E-03 0. -1.
    9900012    2    1    2    0    0 -0.92942152094E+01 -0.12192500559E+02  0.10753831708E+02  0.72461430569E+02  0.69999817982E+02 0.  0.
         12    1    1    2    0    0  0.92942152094E+01  0.12192500559E+02 -0.10753831708E+02  0.18726569431E+02  0.00000000000E+00 0. -1.
         11    1    3    3    0    0 -0.34466945181E+02  0.17647301887E+01  0.60089456780E+01  0.35031300450E+02  0.51100000000E-03 0. -1.
        -11    1    3    3    0    0  0.26692975493E+02 -0.61623493114E+01  0.84471514816E+01  0.28667819207E+02  0.51100000000E-03 0.  1.
        -12    1    3    3    0    0 -0.15202455207E+01 -0.77948814362E+01 -0.37022654513E+01  0.87623109121E+01  0.00000000000E+00 0.  1.
</event>
<event>
 7    1  0.1351543E-013  0.7246158E+02  0.7816164E-02  0.1226708E+00
        -11   -1    0    0    0    0  0.00000000000E+00  0.00000000000E+00  0.45593999997E+02  0.45594000000E+02  0.51100000000E-03 0. -1.
         11   -1    0    0    0    0 -0.00000000000E+00 -0.00000000000E+00 -0.45593999997E+02  0.45594000000E+02  0.51100000000E-03 0.  1.
    9900012    2    1    2    0    0  0.12873464028E+01  0.14998521506E+02 -0.11138492004E+02  0.72461577163E+02  0.70000008948E+02 0.  0.
         12    1    1    2    0    0 -0.12873464028E+01 -0.14998521506E+02  0.11138492004E+02  0.18726422837E+02  0.00000000000E+00 0. -1.
         11    1    3    3    0    0 -0.82537623090E+00 -0.88736838501E+01  0.69160765490E+01  0.11280763542E+02  0.51100000000E-03 0. -1.
        -11    1    3    3    0    0 -0.68766144870E+01  0.31501390525E+02 -0.30254293508E+02  0.44214790600E+02  0.51100000000E-03 0.  1.
        -12    1    3    3    0    0  0.89893371206E+01 -0.76291851693E+01  0.12199724955E+02  0.16966023022E+02  0.00000000000E+00 0.  1.
</event>
<event>
 7    1  0.1351543E-013  0.7246157E+02  0.7816164E-02  0.1226708E+00
        -11   -1    0    0    0    0  0.00000000000E+00  0.00000000000E+00  0.45593999997E+02  0.45594000000E+02  0.51100000000E-03 0. -1.
         11   -1    0    0    0    0 -0.00000000000E+00 -0.00000000000E+00 -0.45593999997E+02  0.45594000000E+02  0.51100000000E-03 0.  1.
    9900012    2    1    2    0    0 -0.54874262728E+01 -0.15724352671E+02 -0.85622379050E+01  0.72461573967E+02  0.70000004784E+02 0.  0.
         12    1    1    2    0    0  0.54874262728E+01  0.15724352671E+02  0.85622379050E+01  0.18726426033E+02  0.00000000000E+00 0. -1.
         11    1    3    3    0    0  0.77166990440E+01  0.12905426689E+02  0.17100311945E+02  0.22770993633E+02  0.51100000000E-03 0. -1.
        -11    1    3    3    0    0 -0.11312879109E+02 -0.34166027652E+02 -0.24959490915E+02  0.43798114871E+02  0.51100000000E-03 0.  1.
        -12    1    3    3    0    0 -0.18912462082E+01  0.55362482919E+01 -0.70305893475E+00  0.58924654632E+01  0.00000000000E+00 0.  1.
</event>
<event>
 7    1  0.1351543E-013  0.7246130E+02  0.7816164E-02  0.1226709E+00
        -11   -1    0    0    0    0  0.00000000000E+00  0.00000000000E+00  0.45593999997E+02  0.45594000000E+02  0.51100000000E-03 0. -1.
         11   -1    0    0    0    0 -0.00000000000E+00 -0.00000000000E+00 -0.45593999997E+02  0.45594000000E+02  0.51100000000E-03 0.  1.
    9900012    2    1    2    0    0 -0.76404684016E+01 -0.15640826598E+02 -0.69048632965E+01  0.72461298443E+02  0.69999645862E+02 0.  0.
         12    1    1    2    0    0  0.76404684016E+01  0.15640826598E+02  0.69048632965E+01  0.18726701557E+02  0.00000000000E+00 0. -1.
         11    1    3    3    0    0  0.22179171598E+02  0.46721224777E+01  0.13102651793E+02  0.26180600938E+02  0.51100000000E-03 0. -1.
        -11    1    3    3    0    0 -0.63087552539E+01 -0.14459619903E+02 -0.16082145767E+01  0.15857722251E+02  0.51100000000E-03 0.  1.
         12    1    3    3    0    0 -0.23510884746E+02 -0.58533291731E+01 -0.18399300513E+02  0.30422975254E+02  0.00000000000E+00 0. -1.
</event>
<event>
 7    1  0.1351543E-013  0.7246156E+02  0.7816164E-02  0.1226708E+00
        -11   -1    0    0    0    0  0.00000000000E+00  0.00000000000E+00  0.45593999997E+02  0.45594000000E+02  0.51100000000E-03 0.  1.
         11   -1    0    0    0    0 -0.00000000000E+00 -0.00000000000E+00 -0.45593999997E+02  0.45594000000E+02  0.51100000000E-03 0. -1.
    9900012    2    1    2    0    0  0.99238571822E+01  0.15307898570E+01  0.15806753591E+02  0.72461555649E+02  0.69999980921E+02 0.  0.
         12    1    1    2    0    0 -0.99238571822E+01 -0.15307898570E+01 -0.15806753591E+02  0.18726444351E+02  0.00000000000E+00 0. -1.
         11    1    3    3    0    0  0.16635830766E+02 -0.18690437074E+02 -0.52902604235E+01  0.25574795383E+02  0.51100000000E-03 0. -1.
        -11    1    3    3    0    0 -0.18414020198E+02  0.17036916120E+02  0.32314162780E+01  0.25293768050E+02  0.51100000000E-03 0.  1.
        -12    1    3    3    0    0  0.11702046615E+02  0.31843108111E+01  0.17865597737E+02  0.21592992215E+02  0.00000000000E+00 0.  1.
</event>
<event>
 7    1  0.1351543E-013  0.7246157E+02  0.7816164E-02  0.1226708E+00
        -11   -1    0    0    0    0  0.00000000000E+00  0.00000000000E+00  0.45593999997E+02  0.45594000000E+02  0.51100000000E-03 0. -1.
         11   -1    0    0    0    0 -0.00000000000E+00 -0.00000000000E+00 -0.45593999997E+02  0.45594000000E+02  0.51100000000E-03 0.  1.
    9900012    2    1    2    0    0  0.64350052718E+01  0.12466735575E+02 -0.12403643119E+02  0.72461570779E+02  0.70000000632E+02 0.  0.
         12    1    1    2    0    0 -0.64350052718E+01 -0.12466735575E+02  0.12403643119E+02  0.18726429221E+02  0.00000000000E+00 0. -1.
         11    1    3    3    0    0 -0.60473025553E+01  0.15446290372E+02  0.10334834794E+02  0.19543964924E+02  0.51100000000E-03 0. -1.
        -11    1    3    3    0    0  0.99532364751E+01 -0.55411412433E+01 -0.36737505598E+02  0.38463170441E+02  0.51100000000E-03 0.  1.
        -12    1    3    3    0    0  0.25290713520E+01  0.25615864462E+01  0.13999027685E+02  0.14454435414E+02  0.00000000000E+00 0.  1.
</event>
<event>
 7    1  0.1351543E-013  0.7246160E+02  0.7816164E-02  0.1226708E+00
        -11   -1    0    0    0    0  0.00000000000E+00  0.00000000000E+00  0.45593999997E+02  0.45594000000E+02  0.51100000000E-03 0.  1.
         11   -1    0    0    0    0 -0.00000000000E+00 -0.00000000000E+00 -0.45593999997E+02  0.45594000000E+02  0.51100000000E-03 0. -1.
    9900012    2    1    2    0    0 -0.47173706094E+01  0.76617383930E+01  0.16423225682E+02  0.72461597182E+02  0.70000035027E+02 0.  0.
         12    1    1    2    0    0  0.47173706094E+01 -0.76617383930E+01 -0.16423225682E+02  0.18726402818E+02  0.00000000000E+00 0. -1.
         11    1    3    3    0    0 -0.14134732335E+02  0.81818847965E+01  0.36406819554E+02  0.39902260679E+02  0.51100000000E-03 0. -1.
        -11    1    3    3    0    0 -0.41557542528E+01 -0.26746204929E+01 -0.18009448315E+02  0.18675227363E+02  0.51100000000E-03 0.  1.
         12    1    3    3    0    0  0.13573115978E+02  0.21544740895E+01 -0.19741455562E+01  0.13884109141E+02  0.00000000000E+00 0. -1.
</event>
<event>
 7    1  0.1351543E-013  0.7246162E+02  0.7816164E-02  0.1226708E+00
        -11   -1    0    0    0    0  0.00000000000E+00  0.00000000000E+00  0.45593999997E+02  0.45594000000E+02  0.51100000000E-03 0. -1.
         11   -1    0    0    0    0 -0.00000000000E+00 -0.00000000000E+00 -0.45593999997E+02  0.45594000000E+02  0.51100000000E-03 0.  1.
    9900012    2    1    2    0    0 -0.13868058755E+02  0.12493565085E+02 -0.15050345236E+01  0.72461618847E+02  0.70000063249E+02 0.  0.
         12    1    1    2    0    0  0.13868058755E+02 -0.12493565085E+02  0.15050345236E+01  0.18726381153E+02  0.00000000000E+00 0. -1.
         11    1    3    3    0    0 -0.19125811165E+02  0.34492944409E+02 -0.11817810397E+02  0.41173055626E+02  0.51100000000E-03 0. -1.
        -11    1    3    3    0    0 -0.13568631431E+01 -0.17976023216E+02 -0.44720646779E+00  0.18032705902E+02  0.51100000000E-03 0.  1.
         12    1    3    3    0    0  0.66146155534E+01 -0.40233561078E+01  0.10759982341E+02  0.13255857320E+02  0.00000000000E+00 0. -1.
</event>
<event>
 7    1  0.1351543E-013  0.7246156E+02  0.7816164E-02  0.1226708E+00
        -11   -1    0    0    0    0  0.00000000000E+00  0.00000000000E+00  0.45593999997E+02  0.45594000000E+02  0.51100000000E-03 0.  1.
         11   -1    0    0    0    0 -0.00000000000E+00 -0.00000000000E+00 -0.45593999997E+02  0.45594000000E+02  0.51100000000E-03 0. -1.
    9900012    2    1    2    0    0 -0.17673485442E+02 -0.13305699663E+01  0.60462464930E+01  0.72461558780E+02  0.69999985001E+02 0.  0.
         12    1    1    2    0    0  0.17673485442E+02  0.13305699663E+01 -0.60462464930E+01  0.18726441220E+02  0.00000000000E+00 0. -1.
         11    1    3    3    0    0  0.32242992659E+01  0.13467940452E+02  0.12235677710E+02  0.18479538280E+02  0.51100000000E-03 0.  1.
        -11    1    3    3    0    0 -0.15250289383E+02 -0.17320636902E+02 -0.25093450084E+02  0.34091890918E+02  0.51100000000E-03 0. -1.
        -12    1    3    3    0    0 -0.56474953248E+01  0.25221264844E+01  0.18904018868E+02  0.19890129582E+02  0.00000000000E+00 0.  1.
</event>
<event>
 7    1  0.1351543E-013  0.7246154E+02  0.7816164E-02  0.1226708E+00
        -11   -1    0    0    0    0  0.00000000000E+00  0.00000000000E+00  0.45593999997E+02  0.45594000000E+02  0.51100000000E-03 0. -1.
         11   -1    0    0    0    0 -0.00000000000E+00 -0.00000000000E+00 -0.45593999997E+02  0.45594000000E+02  0.51100000000E-03 0.  1.
    9900012    2    1    2    0    0  0.98870689066E+01  0.15025271362E+02 -0.52122509718E+01  0.72461535537E+02  0.69999954722E+02 0.  0.
         12    1    1    2    0    0 -0.98870689066E+01 -0.15025271362E+02  0.52122509718E+01  0.18726464463E+02  0.00000000000E+00 0. -1.
         11    1    3    3    0    0 -0.19514557664E+01  0.88613227699E+01  0.54038312379E+01  0.10560900205E+02  0.51100000000E-03 0. -1.
        -11    1    3    3    0    0 -0.17148868838E+02  0.38027142657E+01 -0.24117449995E+02  0.29836148088E+02  0.51100000000E-03 0.  1.
        -12    1    3    3    0    0  0.28987393511E+02  0.23612343268E+01  0.13501367785E+02  0.32064487244E+02  0.00000000000E+00 0.  1.
</event>
<event>
 7    1  0.1351543E-013  0.7246161E+02  0.7816164E-02  0.1226708E+00
        -11   -1    0    0    0    0  0.00000000000E+00  0.00000000000E+00  0.45593999997E+02  0.45594000000E+02  0.51100000000E-03 0.  1.
         11   -1    0    0    0    0 -0.00000000000E+00 -0.00000000000E+00 -0.45593999997E+02  0.45594000000E+02  0.51100000000E-03 0. -1.
    9900012    2    1    2    0    0 -0.16206452219E+02 -0.90164620779E+01  0.25946019149E+01  0.72461611106E+02  0.70000053165E+02 0.  0.
         12    1    1    2    0    0  0.16206452219E+02  0.90164620779E+01 -0.25946019149E+01  0.18726388894E+02  0.00000000000E+00 0. -1.
         11    1    3    3    0    0 -0.29438718960E+01 -0.13756671956E+01 -0.10941506305E+02  0.11413825058E+02  0.51100000000E-03 0. -1.
        -11    1    3    3    0    0 -0.20612411825E+02  0.16388349172E+02  0.22226244497E+02  0.34459475541E+02  0.51100000000E-03 0.  1.
        -12    1    3    3    0    0  0.73498315027E+01 -0.24029144054E+02 -0.86901362775E+01  0.26588310507E+02  0.00000000000E+00 0.  1.
</event>
<event>
 7    1  0.1351543E-013  0.7246162E+02  0.7816164E-02  0.1226708E+00
        -11   -1    0    0    0    0  0.00000000000E+00  0.00000000000E+00  0.45593999997E+02  0.45594000000E+02  0.51100000000E-03 0.  1.
         11   -1    0    0    0    0 -0.00000000000E+00 -0.00000000000E+00 -0.45593999997E+02  0.45594000000E+02  0.51100000000E-03 0. -1.
    9900012    2    1    2    0    0  0.57536696825E+01  0.69897377256E+01  0.16392561898E+02  0.72461621977E+02  0.70000067326E+02 0.  0.
         12    1    1    2    0    0 -0.57536696825E+01 -0.69897377256E+01 -0.16392561898E+02  0.18726378023E+02  0.00000000000E+00 0. -1.
         11    1    3    3    0    0 -0.26950799371E+01  0.32049374908E+01 -0.95788134001E+01  0.10454125817E+02  0.51100000000E-03 0. -1.
        -11    1    3    3    0    0 -0.24548394640E+01 -0.53256894051E+01  0.40946472253E+02  0.41364269541E+02  0.51100000000E-03 0.  1.
        -12    1    3    3    0    0  0.10903589084E+02  0.91104896399E+01 -0.14975096955E+02  0.20643226618E+02  0.00000000000E+00 0.  1.
</event>
<event>
 7    1  0.1351543E-013  0.7246157E+02  0.7816164E-02  0.1226708E+00
        -11   -1    0    0    0    0  0.00000000000E+00  0.00000000000E+00  0.45593999997E+02  0.45594000000E+02  0.51100000000E-03 0. -1.
         11   -1    0    0    0    0 -0.00000000000E+00 -0.00000000000E+00 -0.45593999997E+02  0.45594000000E+02  0.51100000000E-03 0.  1.
    9900012    2    1    2    0    0 -0.11788216057E+02 -0.14148927382E+02  0.33948545365E+01  0.72461568915E+02  0.69999998203E+02 0.  0.
         12    1    1    2    0    0  0.11788216057E+02  0.14148927382E+02 -0.33948545365E+01  0.18726431085E+02  0.00000000000E+00 0. -1.
         11    1    3    3    0    0 -0.40514596703E+01 -0.31068502968E+02 -0.98437396888E+01  0.32841519658E+02  0.51100000000E-03 0.  1.
        -11    1    3    3    0    0  0.20749562833E+01  0.21359188609E+02 -0.13325259533E+01  0.21501069910E+02  0.51100000000E-03 0. -1.
         12    1    3    3    0    0 -0.98117126697E+01 -0.44396130228E+01  0.14571120179E+02  0.18118979347E+02  0.00000000000E+00 0. -1.
</event>
<event>
 7    1  0.1351543E-013  0.7246149E+02  0.7816164E-02  0.1226708E+00
        -11   -1    0    0    0    0  0.00000000000E+00  0.00000000000E+00  0.45593999997E+02  0.45594000000E+02  0.51100000000E-03 0. -1.
         11   -1    0    0    0    0 -0.00000000000E+00 -0.00000000000E+00 -0.45593999997E+02  0.45594000000E+02  0.51100000000E-03 0.  1.
    9900012    2    1    2    0    0  0.93483635791E+01 -0.69645910488E+01  0.14655535125E+02  0.72461490985E+02  0.69999896685E+02 0.  0.
         12    1    1    2    0    0 -0.93483635791E+01  0.69645910488E+01 -0.14655535125E+02  0.18726509015E+02  0.00000000000E+00 0. -1.
         11    1    3    3    0    0  0.29285363100E+02 -0.24193214408E+02  0.12298070812E+02  0.39927267140E+02  0.51100000000E-03 0. -1.
        -11    1    3    3    0    0 -0.15310699899E+02  0.89652740711E+01  0.99985293587E+01  0.20365761959E+02  0.51100000000E-03 0.  1.
         12    1    3    3    0    0 -0.46262996221E+01  0.82633492882E+01 -0.76410650464E+01  0.12168461887E+02  0.00000000000E+00 0. -1.
</event>
<event>
 7    1  0.1351543E-013  0.7246156E+02  0.7816164E-02  0.1226708E+00
        -11   -1    0    0    0    0  0.00000000000E+00  0.00000000000E+00  0.45593999997E+02  0.45594000000E+02  0.51100000000E-03 0.  1.
         11   -1    0    0    0    0 -0.00000000000E+00 -0.00000000000E+00 -0.45593999997E+02  0.45594000000E+02  0.51100000000E-03 0. -1.
    9900012    2    1    2    0    0 -0.84219841191E+01 -0.10574551099E+02  0.12958729664E+02  0.72461558214E+02  0.69999984264E+02 0.  0.
         12    1    1    2    0    0  0.84219841191E+01  0.10574551099E+02 -0.12958729664E+02  0.18726441786E+02  0.00000000000E+00 0. -1.
         11    1    3    3    0    0 -0.55814133484E+01 -0.39609596150E+01 -0.18842183193E+02  0.20046676627E+02  0.51100000000E-03 0. -1.
        -11    1    3    3    0    0  0.92901054271E+01 -0.20877969879E+02  0.19175399391E+02  0.29831051392E+02  0.51100000000E-03 0.  1.
        -12    1    3    3    0    0 -0.12130676198E+02  0.14264378395E+02  0.12625513467E+02  0.22583830196E+02  0.00000000000E+00 0.  1.
</event>
<event>
 7    1  0.1351543E-013  0.7246160E+02  0.7816164E-02  0.1226708E+00
        -11   -1    0    0    0    0  0.00000000000E+00  0.00000000000E+00  0.45593999997E+02  0.45594000000E+02  0.51100000000E-03 0.  1.
         11   -1    0    0    0    0 -0.00000000000E+00 -0.00000000000E+00 -0.45593999997E+02  0.45594000000E+02  0.51100000000E-03 0. -1.
    9900012    2    1    2    0    0  0.88549635283E+01  0.13107305619E+01  0.16448396607E+02  0.72461597659E+02  0.70000035648E+02 0.  0.
         12    1    1    2    0    0 -0.88549635283E+01 -0.13107305619E+01 -0.16448396607E+02  0.18726402341E+02  0.00000000000E+00 0. -1.
         11    1    3    3    0    0  0.17563034601E+02  0.14982341657E+02  0.69959765772E+00  0.23095891042E+02  0.51100000000E-03 0. -1.
        -11    1    3    3    0    0  0.35528557210E+01 -0.22458441437E+02  0.23249042341E+02  0.32519568656E+02  0.51100000000E-03 0.  1.
         12    1    3    3    0    0 -0.12260926793E+02  0.87868303416E+01 -0.75002433917E+01  0.16846137961E+02  0.00000000000E+00 0. -1.
</event>
<event>
 7    1  0.1351543E-013  0.7246112E+02  0.7816164E-02  0.1226709E+00
        -11   -1    0    0    0    0  0.00000000000E+00  0.00000000000E+00  0.45593999997E+02  0.45594000000E+02  0.51100000000E-03 0.  1.
         11   -1    0    0    0    0 -0.00000000000E+00 -0.00000000000E+00 -0.45593999997E+02  0.45594000000E+02  0.51100000000E-03 0. -1.
    9900012    2    1    2    0    0 -0.10909821158E+02 -0.94891645793E+01  0.11900746193E+02  0.72461115527E+02  0.69999407578E+02 0.  0.
         12    1    1    2    0    0  0.10909821158E+02  0.94891645793E+01 -0.11900746193E+02  0.18726884473E+02  0.00000000000E+00 0. -1.
         11    1    3    3    0    0  0.18673216824E+02 -0.46971439782E+01 -0.13445764368E+02  0.23484905106E+02  0.51100000000E-03 0. -1.
        -11    1    3    3    0    0 -0.64624525296E+01 -0.24824300101E+01  0.24785103682E+02  0.25733773843E+02  0.51100000000E-03 0.  1.
         12    1    3    3    0    0 -0.23120585453E+02 -0.23095905910E+01  0.56140687932E+00  0.23242436578E+02  0.00000000000E+00 0. -1.
</event>
<event>
 7    1  0.1351543E-013  0.7246157E+02  0.7816164E-02  0.1226708E+00
        -11   -1    0    0    0    0  0.00000000000E+00  0.00000000000E+00  0.45593999997E+02  0.45594000000E+02  0.51100000000E-03 0. -1.
         11   -1    0    0    0    0 -0.00000000000E+00 -0.00000000000E+00 -0.45593999997E+02  0.45594000000E+02  0.51100000000E-03 0.  1.
    9900012    2    1    2    0    0  0.53971745984E+01  0.17153509775E+02  0.52255956330E+01  0.72461568386E+02  0.69999997515E+02 0.  0.
         12    1    1    2    0    0 -0.53971745984E+01 -0.17153509775E+02 -0.52255956330E+01  0.18726431614E+02  0.00000000000E+00 0. -1.
         11    1    3    3    0    0 -0.17007760504E+02  0.83000469305E+00  0.69444546239E+01  0.18389624125E+02  0.51100000000E-03 0. -1.
        -11    1    3    3    0    0  0.30783332369E+02  0.25831867828E+02  0.35604610839E+01  0.40343225337E+02  0.51100000000E-03 0.  1.
        -12    1    3    3    0    0 -0.83783972662E+01 -0.95083627455E+01 -0.52793200747E+01  0.13728718924E+02  0.00000000000E+00 0.  1.
</event>
<event>
 7    1  0.1351543E-013  0.7246160E+02  0.7816164E-02  0.1226708E+00
        -11   -1    0    0    0    0  0.00000000000E+00  0.00000000000E+00  0.45593999997E+02  0.45594000000E+02  0.51100000000E-03 0.  1.
         11   -1    0    0    0    0 -0.00000000000E+00 -0.00000000000E+00 -0.45593999997E+02  0.45594000000E+02  0.51100000000E-03 0. -1.
    9900012    2    1    2    0    0  0.35328783159E+01  0.15256987566E+02  0.10267481532E+02  0.72461599498E+02  0.70000038043E+02 0.  0.
         12    1    1    2    0    0 -0.35328783159E+01 -0.15256987566E+02 -0.10267481532E+02  0.18726400502E+02  0.00000000000E+00 0. -1.
         11    1    3    3    0    0 -0.83773321688E+01  0.43011108058E+01 -0.17236228965E+02  0.19640947982E+02  0.51100000000E-03 0. -1.
        -11    1    3    3    0    0 -0.23832415718E+01 -0.87676313274E+01  0.26967134776E+02  0.28456590761E+02  0.51100000000E-03 0.  1.
        -12    1    3    3    0    0  0.14293452057E+02  0.19723508087E+02  0.53657572099E+00  0.24364060755E+02  0.00000000000E+00 0.  1.
</event>
<event>
 7    1  0.1351543E-013  0.7246164E+02  0.7816164E-02  0.1226708E+00
        -11   -1    0    0    0    0  0.00000000000E+00  0.00000000000E+00  0.45593999997E+02  0.45594000000E+02  0.51100000000E-03 0. -1.
         11   -1    0    0    0    0 -0.00000000000E+00 -0.00000000000E+00 -0.45593999997E+02  0.45594000000E+02  0.51100000000E-03 0.  1.
    9900012    2    1    2    0    0 -0.12305678162E+02  0.13547734668E+02  0.39630628451E+01  0.72461636317E+02  0.70000086007E+02 0.  0.
         12    1    1    2    0    0  0.12305678162E+02 -0.13547734668E+02 -0.39630628451E+01  0.18726363683E+02  0.00000000000E+00 0. -1.
         11    1    3    3    0    0 -0.34461586849E+02  0.75332780502E+01  0.21130622048E+02  0.41120000423E+02  0.51100000000E-03 0. -1.
        -11    1    3    3    0    0  0.83661379220E+00 -0.19905581911E+01 -0.51680716192E+01  0.56010007206E+01  0.51100000000E-03 0.  1.
         12    1    3    3    0    0  0.21319294895E+02  0.80050148087E+01 -0.11999487584E+02  0.25740635174E+02  0.00000000000E+00 0. -1.
</event>
<event>
 7    1  0.1351543E-013  0.7246159E+02  0.7816164E-02  0.1226708E+00
        -11   -1    0    0    0    0  0.00000000000E+00  0.00000000000E+00  0.45593999997E+02  0.45594000000E+02  0.51100000000E-03 0. -1.
         11   -1    0    0    0    0 -0.00000000000E+00 -0.00000000000E+00 -0.45593999997E+02  0.45594000000E+02  0.51100000000E-03 0.  1.
    9900012    2    1    2    0    0  0.56304580602E+01 -0.13666259003E+01  0.17807543474E+02  0.72461592739E+02  0.70000029239E+02 0.  0.
         12    1    1    2    0    0 -0.56304580602E+01  0.13666259003E+01 -0.17807543474E+02  0.18726407261E+02  0.00000000000E+00 0. -1.
         11    1    3    3    0    0  0.12630028828E+02 -0.15049271207E+02 -0.76811592135E+01  0.21094985167E+02  0.51100000000E-03 0.  1.
        -11    1    3    3    0    0 -0.78824659286E+01  0.12578795249E+02  0.36949014199E+02  0.39819455164E+02  0.51100000000E-03 0. -1.
         12    1    3    3    0    0  0.88289516102E+00  0.11038500577E+01 -0.11460311511E+02  0.11547152409E+02  0.00000000000E+00 0. -1.
</event>
<event>
 7    1  0.1351543E-013  0.7246157E+02  0.7816164E-02  0.1226708E+00
        -11   -1    0    0    0    0  0.00000000000E+00  0.00000000000E+00  0.45593999997E+02  0.45594000000E+02  0.51100000000E-03 0. -1.
         11   -1    0    0    0    0 -0.00000000000E+00 -0.00000000000E+00 -0.45593999997E+02  0.45594000000E+02  0.51100000000E-03 0.  1.
    9900012    2    1    2    0    0  0.18275583008E+02  0.35057388417E+01  0.20957127133E+01  0.72461570792E+02  0.70000000648E+02 0.  0.
         12    1    1    2    0    0 -0.18275583008E+02 -0.35057388417E+01 -0.20957127133E+01  0.18726429208E+02  0.00000000000E+00 0. -1.
         11    1    3    3    0    0  0.11887476382E+02  0.31527800909E+02  0.16637061650E+02  0.37578000818E+02  0.51100000000E-03 0. -1.
        -11    1    3    3    0    0  0.19241135787E+00 -0.70574209516E+01  0.21486598728E+01  0.73797664007E+01  0.51100000000E-03 0.  1.
         12    1    3    3    0    0  0.61956952679E+01 -0.20964641115E+02 -0.16690008809E+02  0.27503803573E+02  0.00000000000E+00 0. -1.
</event>
<event>
 7    1  0.1351543E-013  0.7246188E+02  0.7816164E-02  0.1226707E+00
        -11   -1    0    0    0    0  0.00000000000E+00  0.00000000000E+00  0.45593999997E+02  0.45594000000E+02  0.51100000000E-03 0. -1.
         11   -1    0    0    0    0 -0.00000000000E+00 -0.00000000000E+00 -0.45593999997E+02  0.45594000000E+02  0.51100000000E-03 0.  1.
    9900012    2    1    2    0    0  0.12370648174E+01  0.12669290263E+02  0.13734131458E+02  0.72461878884E+02  0.70000401994E+02 0.  0.
         12    1    1    2    0    0 -0.12370648174E+01 -0.12669290263E+02 -0.13734131458E+02  0.18726121116E+02  0.00000000000E+00 0. -1.
         11    1    3    3    0    0 -0.11397504132E+02 -0.12720431403E+02 -0.15107932760E+02  0.22802677651E+02  0.51100000000E-03 0.  1.
        -11    1    3    3    0    0 -0.84146185716E+01  0.41630999946E+01  0.12365080103E+02  0.15525218630E+02  0.51100000000E-03 0. -1.
         12    1    3    3    0    0  0.21049187521E+02  0.21226621671E+02  0.16476984115E+02  0.34133982604E+02  0.00000000000E+00 0. -1.
</event>
<event>
 7    1  0.1351543E-013  0.7246155E+02  0.7816164E-02  0.1226708E+00
        -11   -1    0    0    0    0  0.00000000000E+00  0.00000000000E+00  0.45593999997E+02  0.45594000000E+02  0.51100000000E-03 0. -1.
         11   -1    0    0    0    0 -0.00000000000E+00 -0.00000000000E+00 -0.45593999997E+02  0.45594000000E+02  0.51100000000E-03 0.  1.
    9900012    2    1    2    0    0 -0.18011912050E+02  0.24109538283E+01 -0.45208823239E+01  0.72461546758E+02  0.69999969339E+02 0.  0.
         12    1    1    2    0    0  0.18011912050E+02 -0.24109538283E+01  0.45208823239E+01  0.18726453242E+02  0.00000000000E+00 0. -1.
         11    1    3    3    0    0 -0.21422163020E+02  0.14329654375E+02  0.26928870061E+02  0.37274818658E+02  0.51100000000E-03 0. -1.
        -11    1    3    3    0    0  0.20890933235E-01 -0.10834756266E+02 -0.15938093191E+02  0.19272135185E+02  0.51100000000E-03 0.  1.
         12    1    3    3    0    0  0.33893600368E+01 -0.10839442803E+01 -0.15511659195E+02  0.15914592914E+02  0.00000000000E+00 0. -1.
</event>
<event>
 7    1  0.1351543E-013  0.7246155E+02  0.7816164E-02  0.1226708E+00
        -11   -1    0    0    0    0  0.00000000000E+00  0.00000000000E+00  0.45593999997E+02  0.45594000000E+02  0.51100000000E-03 0.  1.
         11   -1    0    0    0    0 -0.00000000000E+00 -0.00000000000E+00 -0.45593999997E+02  0.45594000000E+02  0.51100000000E-03 0. -1.
    9900012    2    1    2    0    0  0.13270079485E+02  0.11102143809E+02 -0.71643033001E+01  0.72461552166E+02  0.69999976385E+02 0.  0.
         12    1    1    2    0    0 -0.13270079485E+02 -0.11102143809E+02  0.71643033001E+01  0.18726447834E+02  0.00000000000E+00 0. -1.
         11    1    3    3    0    0 -0.11933707373E+02  0.16197170417E+00  0.19617053511E+02  0.22962325562E+02  0.51100000000E-03 0.  1.
        -11    1    3    3    0    0  0.12961440550E+02  0.17865308683E+02 -0.27683027035E+02  0.35405058699E+02  0.51100000000E-03 0. -1.
        -12    1    3    3    0    0  0.12242346308E+02 -0.69251365773E+01  0.90167022395E+00  0.14094167905E+02  0.00000000000E+00 0.  1.
</event>
<event>
 7    1  0.1351543E-013  0.7246156E+02  0.7816164E-02  0.1226708E+00
        -11   -1    0    0    0    0  0.00000000000E+00  0.00000000000E+00  0.45593999997E+02  0.45594000000E+02  0.51100000000E-03 0.  1.
         11   -1    0    0    0    0 -0.00000000000E+00 -0.00000000000E+00 -0.45593999997E+02  0.45594000000E+02  0.51100000000E-03 0. -1.
    9900012    2    1    2    0    0 -0.34331471911E+00  0.84995812313E+01  0.16682887250E+02  0.72461562189E+02  0.69999989441E+02 0.  0.
         12    1    1    2    0    0  0.34331471911E+00 -0.84995812313E+01 -0.16682887250E+02  0.18726437811E+02  0.00000000000E+00 0. -1.
         11    1    3    3    0    0  0.21486962529E+02  0.22650557902E+02 -0.94598371908E+01  0.32622474645E+02  0.51100000000E-03 0.  1.
        -11    1    3    3    0    0 -0.23822830830E+02 -0.14359819000E+02  0.25498288728E+02  0.37734525289E+02  0.51100000000E-03 0. -1.
         12    1    3    3    0    0  0.19925535820E+01  0.20884232958E+00  0.64443571277E+00  0.21045622546E+01  0.00000000000E+00 0. -1.
</event>
<event>
 7    1  0.1351543E-013  0.7246163E+02  0.7816164E-02  0.1226708E+00
        -11   -1    0    0    0    0  0.00000000000E+00  0.00000000000E+00  0.45593999997E+02  0.45594000000E+02  0.51100000000E-03 0. -1.
         11   -1    0    0    0    0 -0.00000000000E+00 -0.00000000000E+00 -0.45593999997E+02  0.45594000000E+02  0.51100000000E-03 0.  1.
    9900012    2    1    2    0    0  0.17287014848E+02 -0.51678154591E+01 -0.50129724767E+01  0.72461625764E+02  0.70000072259E+02 0.  0.
         12    1    1    2    0    0 -0.17287014848E+02  0.51678154591E+01  0.50129724767E+01  0.18726374236E+02  0.00000000000E+00 0. -1.
         11    1    3    3    0    0 -0.60182671387E+01  0.18270666780E+02 -0.23693278622E+01  0.19381705774E+02  0.51100000000E-03 0. -1.
        -11    1    3    3    0    0  0.30428250571E+02 -0.17257932143E+02 -0.14553682855E+02  0.37888314024E+02  0.51100000000E-03 0.  1.
        -12    1    3    3    0    0 -0.71229685843E+01 -0.61805500962E+01  0.11910038240E+02  0.15191605966E+02  0.00000000000E+00 0.  1.
</event>
<event>
 7    1  0.1351543E-013  0.7246158E+02  0.7816164E-02  0.1226708E+00
        -11   -1    0    0    0    0  0.00000000000E+00  0.00000000000E+00  0.45593999997E+02  0.45594000000E+02  0.51100000000E-03 0. -1.
         11   -1    0    0    0    0 -0.00000000000E+00 -0.00000000000E+00 -0.45593999997E+02  0.45594000000E+02  0.51100000000E-03 0.  1.
    9900012    2    1    2    0    0  0.12785947168E+02  0.13513989600E+02  0.21378362821E+01  0.72461582727E+02  0.70000016196E+02 0.  0.
         12    1    1    2    0    0 -0.12785947168E+02 -0.13513989600E+02 -0.21378362821E+01  0.18726417273E+02  0.00000000000E+00 0. -1.
         11    1    3    3    0    0  0.83769641652E+01  0.27507931523E+02  0.21865919641E+02  0.36124482935E+02  0.51100000000E-03 0. -1.
        -11    1    3    3    0    0  0.69859195114E+01 -0.20665653159E+02 -0.93513482194E+01  0.23734363393E+02  0.51100000000E-03 0.  1.
         12    1    3    3    0    0 -0.25769365081E+01  0.66717112358E+01 -0.10376735140E+02  0.12602736399E+02  0.00000000000E+00 0. -1.
</event>
<event>
 7    1  0.1351543E-013  0.7246189E+02  0.7816164E-02  0.1226707E+00
        -11   -1    0    0    0    0  0.00000000000E+00  0.00000000000E+00  0.45593999997E+02  0.45594000000E+02  0.51100000000E-03 0. -1.
         11   -1    0    0    0    0 -0.00000000000E+00 -0.00000000000E+00 -0.45593999997E+02  0.45594000000E+02  0.51100000000E-03 0.  1.
    9900012    2    1    2    0    0 -0.31973180073E+00  0.17467975096E+02 -0.67405334622E+01  0.72461890587E+02  0.70000417239E+02 0.  0.
         12    1    1    2    0    0  0.31973180073E+00 -0.17467975096E+02  0.67405334622E+01  0.18726109413E+02  0.00000000000E+00 0. -1.
         11    1    3    3    0    0 -0.10639192273E+01  0.95034763731E+01  0.23722582867E+02  0.25577508194E+02  0.51100000000E-03 0. -1.
        -11    1    3    3    0    0  0.94868478181E+01 -0.11126881851E+02 -0.13259838241E+02  0.19739075249E+02  0.51100000000E-03 0.  1.
        -12    1    3    3    0    0 -0.87426603916E+01  0.19091380574E+02 -0.17203278088E+02  0.27145307143E+02  0.00000000000E+00 0.  1.
</event>
<event>
 7    1  0.1351543E-013  0.7246173E+02  0.7816164E-02  0.1226708E+00
        -11   -1    0    0    0    0  0.00000000000E+00  0.00000000000E+00  0.45593999997E+02  0.45594000000E+02  0.51100000000E-03 0. -1.
         11   -1    0    0    0    0 -0.00000000000E+00 -0.00000000000E+00 -0.45593999997E+02  0.45594000000E+02  0.51100000000E-03 0.  1.
    9900012    2    1    2    0    0  0.86028135796E+01 -0.97073364122E+01 -0.13506761007E+02  0.72461725020E+02  0.70000201559E+02 0.  0.
         12    1    1    2    0    0 -0.86028135796E+01  0.97073364122E+01  0.13506761007E+02  0.18726274980E+02  0.00000000000E+00 0. -1.
         11    1    3    3    0    0 -0.15995771719E+02 -0.12670574284E+02  0.19637150705E+02  0.28320060975E+02  0.51100000000E-03 0. -1.
        -11    1    3    3    0    0  0.17997659244E+02  0.89435982457E+01 -0.24962887763E+02  0.32047612292E+02  0.51100000000E-03 0.  1.
         12    1    3    3    0    0  0.66009260540E+01 -0.59803603742E+01 -0.81810239486E+01  0.12094051754E+02  0.00000000000E+00 0. -1.
</event>
<event>
 7    1  0.1351543E-013  0.7246158E+02  0.7816164E-02  0.1226708E+00
        -11   -1    0    0    0    0  0.00000000000E+00  0.00000000000E+00  0.45593999997E+02  0.45594000000E+02  0.51100000000E-03 0.  1.
         11   -1    0    0    0    0 -0.00000000000E+00 -0.00000000000E+00 -0.45593999997E+02  0.45594000000E+02  0.51100000000E-03 0. -1.
    9900012    2    1    2    0    0  0.13315874931E+02 -0.11891855122E+02 -0.56524395899E+01  0.72461579714E+02  0.70000012270E+02 0.  0.
         12    1    1    2    0    0 -0.13315874931E+02  0.11891855122E+02  0.56524395899E+01  0.18726420286E+02  0.00000000000E+00 0. -1.
         11    1    3    3    0    0  0.11176737100E+02 -0.32721853362E+01 -0.34771012487E+02  0.36669469026E+02  0.51100000000E-03 0. -1.
        -11    1    3    3    0    0  0.96439435915E+00 -0.10720472891E+02  0.55675756666E+01  0.12118436143E+02  0.51100000000E-03 0.  1.
         12    1    3    3    0    0  0.11747434715E+01  0.21008031045E+01  0.23550997230E+02  0.23673674545E+02  0.00000000000E+00 0. -1.
</event>
<event>
 7    1  0.1351543E-013  0.7246156E+02  0.7816164E-02  0.1226708E+00
        -11   -1    0    0    0    0  0.00000000000E+00  0.00000000000E+00  0.45593999997E+02  0.45594000000E+02  0.51100000000E-03 0. -1.
         11   -1    0    0    0    0 -0.00000000000E+00 -0.00000000000E+00 -0.45593999997E+02  0.45594000000E+02  0.51100000000E-03 0.  1.
    9900012    2    1    2    0    0 -0.95602457151E+00  0.36520733702E+01 -0.18341974669E+02  0.72461557261E+02  0.69999983022E+02 0.  0.
         12    1    1    2    0    0  0.95602457151E+00 -0.36520733702E+01  0.18341974669E+02  0.18726442739E+02  0.00000000000E+00 0. -1.
         11    1    3    3    0    0 -0.49469465228E+01 -0.22356423273E+01 -0.33443083325E+01  0.63761097073E+01  0.51100000000E-03 0. -1.
        -11    1    3    3    0    0  0.26498095813E+02 -0.15033149584E+02 -0.17706970546E+02  0.35237500966E+02  0.51100000000E-03 0.  1.
        -12    1    3    3    0    0 -0.22507173862E+02  0.20920865281E+02  0.27093042092E+01  0.30847946588E+02  0.00000000000E+00 0.  1.
</event>
<event>
 7    1  0.1351543E-013  0.7246151E+02  0.7816164E-02  0.1226708E+00
        -11   -1    0    0    0    0  0.00000000000E+00  0.00000000000E+00  0.45593999997E+02  0.45594000000E+02  0.51100000000E-03 0.  1.
         11   -1    0    0    0    0 -0.00000000000E+00 -0.00000000000E+00 -0.45593999997E+02  0.45594000000E+02  0.51100000000E-03 0. -1.
    9900012    2    1    2    0    0 -0.99792343797E+01 -0.62187133818E+01  0.14574767238E+02  0.72461511942E+02  0.69999923986E+02 0.  0.
         12    1    1    2    0    0  0.99792343797E+01  0.62187133818E+01 -0.14574767238E+02  0.18726488058E+02  0.00000000000E+00 0. -1.
         11    1    3    3    0    0 -0.13576876897E+02 -0.20232453575E+02  0.27503265771E+02  0.36743889183E+02  0.51100000000E-03 0. -1.
        -11    1    3    3    0    0  0.15513528807E+02  0.27334283870E+01 -0.17193210745E+01  0.15846049098E+02  0.51100000000E-03 0.  1.
         12    1    3    3    0    0 -0.11915886290E+02  0.11280311806E+02 -0.11209177459E+02  0.19871573662E+02  0.00000000000E+00 0. -1.
</event>
<event>
 7    1  0.1351543E-013  0.7246159E+02  0.7816164E-02  0.1226708E+00
        -11   -1    0    0    0    0  0.00000000000E+00  0.00000000000E+00  0.45593999997E+02  0.45594000000E+02  0.51100000000E-03 0. -1.
         11   -1    0    0    0    0 -0.00000000000E+00 -0.00000000000E+00 -0.45593999997E+02  0.45594000000E+02  0.51100000000E-03 0.  1.
    9900012    2    1    2    0    0 -0.14703006818E+00  0.23101865260E+01 -0.18582785781E+02  0.72461587984E+02  0.70000023044E+02 0.  0.
         12    1    1    2    0    0  0.14703006818E+00 -0.23101865260E+01  0.18582785781E+02  0.18726412016E+02  0.00000000000E+00 0. -1.
         11    1    3    3    0    0 -0.17110603320E+02  0.19142420848E+02  0.68952451142E+01  0.26584759306E+02  0.51100000000E-03 0. -1.
        -11    1    3    3    0    0  0.14688737714E+02 -0.13393518014E+01 -0.26346008004E+02  0.30193791032E+02  0.51100000000E-03 0.  1.
         12    1    3    3    0    0  0.22748355382E+01 -0.15492882521E+02  0.86797710878E+00  0.15683037646E+02  0.00000000000E+00 0. -1.
</event>
<event>
 7    1  0.1351543E-013  0.7246161E+02  0.7816164E-02  0.1226708E+00
        -11   -1    0    0    0    0  0.00000000000E+00  0.00000000000E+00  0.45593999997E+02  0.45594000000E+02  0.51100000000E-03 0.  1.
         11   -1    0    0    0    0 -0.00000000000E+00 -0.00000000000E+00 -0.45593999997E+02  0.45594000000E+02  0.51100000000E-03 0. -1.
    9900012    2    1    2    0    0 -0.16994758303E+02  0.50064407257E+01 -0.60655958939E+01  0.72461609209E+02  0.70000050693E+02 0.  0.
         12    1    1    2    0    0  0.16994758303E+02 -0.50064407257E+01  0.60655958939E+01  0.18726390791E+02  0.00000000000E+00 0. -1.
         11    1    3    3    0    0 -0.37178550249E+00  0.87223438337E+01  0.16684734111E+01  0.88882681214E+01  0.51100000000E-03 0. -1.
        -11    1    3    3    0    0  0.15330515976E+02 -0.99882364499E+01 -0.21489548173E+02  0.28223930775E+02  0.51100000000E-03 0.  1.
        -12    1    3    3    0    0 -0.31953488776E+02  0.62723333418E+01  0.13755478868E+02  0.35349410312E+02  0.00000000000E+00 0.  1.
</event>
<event>
 7    1  0.1351543E-013  0.7246182E+02  0.7816164E-02  0.1226707E+00
        -11   -1    0    0    0    0  0.00000000000E+00  0.00000000000E+00  0.45593999997E+02  0.45594000000E+02  0.51100000000E-03 0.  1.
         11   -1    0    0    0    0 -0.00000000000E+00 -0.00000000000E+00 -0.45593999997E+02  0.45594000000E+02  0.51100000000E-03 0. -1.
    9900012    2    1    2    0    0  0.38349711384E+01  0.64912438349E+01  0.17141370156E+02  0.72461819904E+02  0.70000325163E+02 0.  0.
         12    1    1    2    0    0 -0.38349711384E+01 -0.64912438349E+01 -0.17141370156E+02  0.18726180096E+02  0.00000000000E+00 0. -1.
         11    1    3    3    0    0 -0.90249334397E+01  0.69791741019E+01 -0.19553336476E+02  0.22638269862E+02  0.51100000000E-03 0. -1.
        -11    1    3    3    0    0 -0.24754331594E+00  0.54928976202E+01  0.34870149036E+02  0.35300998513E+02  0.51100000000E-03 0.  1.
        -12    1    3    3    0    0  0.13107447894E+02 -0.59808278872E+01  0.18245575956E+01  0.14522551530E+02  0.00000000000E+00 0.  1.
</event>
<event>
 7    1  0.1351543E-013  0.7246151E+02  0.7816164E-02  0.1226708E+00
        -11   -1    0    0    0    0  0.00000000000E+00  0.00000000000E+00  0.45593999997E+02  0.45594000000E+02  0.51100000000E-03 0.  1.
         11   -1    0    0    0    0 -0.00000000000E+00 -0.00000000000E+00 -0.45593999997E+02  0.45594000000E+02  0.51100000000E-03 0. -1.
    9900012    2    1    2    0    0  0.36454452420E+01  0.18346253587E+02 -0.89842744676E+00  0.72461509043E+02  0.69999920209E+02 0.  0.
         12    1    1    2    0    0 -0.36454452420E+01 -0.18346253587E+02  0.89842744676E+00  0.18726490957E+02  0.00000000000E+00 0. -1.
         11    1    3    3    0    0  0.13379076550E+01 -0.85855715928E+01 -0.24851213670E+02  0.26326504850E+02  0.51100000000E-03 0. -1.
        -11    1    3    3    0    0  0.22442909363E+01  0.24859752985E+02  0.30416340338E+02  0.39347146276E+02  0.51100000000E-03 0.  1.
         12    1    3    3    0    0  0.63246650621E-01  0.20720721950E+01 -0.64635541138E+01  0.67878579171E+01  0.00000000000E+00 0. -1.
</event>
<event>
 7    1  0.1351543E-013  0.7246151E+02  0.7816164E-02  0.1226708E+00
        -11   -1    0    0    0    0  0.00000000000E+00  0.00000000000E+00  0.45593999997E+02  0.45594000000E+02  0.51100000000E-03 0.  1.
         11   -1    0    0    0    0 -0.00000000000E+00 -0.00000000000E+00 -0.45593999997E+02  0.45594000000E+02  0.51100000000E-03 0. -1.
    9900012    2    1    2    0    0  0.12279052289E+02 -0.14123013545E+02  0.66848090094E+00  0.72461507978E+02  0.69999918822E+02 0.  0.
         12    1    1    2    0    0 -0.12279052289E+02  0.14123013545E+02 -0.66848090094E+00  0.18726492022E+02  0.00000000000E+00 0. -1.
         11    1    3    3    0    0  0.25328402628E+02  0.38099505312E+01 -0.12153531369E+01  0.25642168127E+02  0.51100000000E-03 0. -1.
        -11    1    3    3    0    0 -0.18841488643E+02 -0.81901770961E+00 -0.13415717106E+02  0.23144199058E+02  0.51100000000E-03 0.  1.
        -12    1    3    3    0    0  0.57921383040E+01 -0.17113946367E+02  0.15299551144E+02  0.23675140794E+02  0.00000000000E+00 0.  1.
</event>
<event>
 7    1  0.1351543E-013  0.7246169E+02  0.7816164E-02  0.1226708E+00
        -11   -1    0    0    0    0  0.00000000000E+00  0.00000000000E+00  0.45593999997E+02  0.45594000000E+02  0.51100000000E-03 0. -1.
         11   -1    0    0    0    0 -0.00000000000E+00 -0.00000000000E+00 -0.45593999997E+02  0.45594000000E+02  0.51100000000E-03 0.  1.
    9900012    2    1    2    0    0  0.24703738217E+01 -0.12341110481E+02 -0.13866112828E+02  0.72461685902E+02  0.70000150601E+02 0.  0.
         12    1    1    2    0    0 -0.24703738217E+01  0.12341110481E+02  0.13866112828E+02  0.18726314098E+02  0.00000000000E+00 0. -1.
         11    1    3    3    0    0  0.20115617725E+02  0.89951869607E+01 -0.28775163013E+02  0.36243088604E+02  0.51100000000E-03 0.  1.
        -11    1    3    3    0    0 -0.13762937147E+02 -0.75155768379E+01  0.15229251845E+02  0.21859378905E+02  0.51100000000E-03 0. -1.
        -12    1    3    3    0    0 -0.38823067561E+01 -0.13820720604E+02 -0.32020166000E+00  0.14359218393E+02  0.00000000000E+00 0.  1.
</event>
<event>
 7    1  0.1351543E-013  0.7246162E+02  0.7816164E-02  0.1226708E+00
        -11   -1    0    0    0    0  0.00000000000E+00  0.00000000000E+00  0.45593999997E+02  0.45594000000E+02  0.51100000000E-03 0.  1.
         11   -1    0    0    0    0 -0.00000000000E+00 -0.00000000000E+00 -0.45593999997E+02  0.45594000000E+02  0.51100000000E-03 0. -1.
    9900012    2    1    2    0    0  0.16850562950E+02 -0.46939682869E+01  0.66859969912E+01  0.72461618454E+02  0.70000062737E+02 0.  0.
         12    1    1    2    0    0 -0.16850562950E+02  0.46939682869E+01 -0.66859969912E+01  0.18726381546E+02  0.00000000000E+00 0. -1.
         11    1    3    3    0    0  0.11035417069E+02  0.21201374315E+02 -0.19915979918E+02  0.31111492396E+02  0.51100000000E-03 0.  1.
        -11    1    3    3    0    0  0.27298626431E+01 -0.27593779307E+02  0.21212173407E+02  0.34911675803E+02  0.51100000000E-03 0. -1.
        -12    1    3    3    0    0  0.30852832385E+01  0.16984367042E+01  0.53898035022E+01  0.64384502555E+01  0.00000000000E+00 0.  1.
</event>
<event>
 7    1  0.1351543E-013  0.7246156E+02  0.7816164E-02  0.1226708E+00
        -11   -1    0    0    0    0  0.00000000000E+00  0.00000000000E+00  0.45593999997E+02  0.45594000000E+02  0.51100000000E-03 0. -1.
         11   -1    0    0    0    0 -0.00000000000E+00 -0.00000000000E+00 -0.45593999997E+02  0.45594000000E+02  0.51100000000E-03 0.  1.
    9900012    2    1    2    0    0 -0.17846742437E+01 -0.31028779754E+01 -0.18381148797E+02  0.72461560269E+02  0.69999986940E+02 0.  0.
         12    1    1    2    0    0  0.17846742437E+01  0.31028779754E+01  0.18381148797E+02  0.18726439731E+02  0.00000000000E+00 0. -1.
         11    1    3    3    0    0  0.39996748402E+01 -0.32261510401E+02 -0.19451111375E+01  0.32566637987E+02  0.51100000000E-03 0. -1.
        -11    1    3    3    0    0 -0.26211048078E+01  0.20732771903E+02 -0.21151911694E+02  0.29734178814E+02  0.51100000000E-03 0.  1.
         12    1    3    3    0    0 -0.31632442761E+01  0.84258605232E+01  0.47158740342E+01  0.10160743468E+02  0.00000000000E+00 0. -1.
</event>
<event>
 7    1  0.1351543E-013  0.7246159E+02  0.7816164E-02  0.1226708E+00
        -11   -1    0    0    0    0  0.00000000000E+00  0.00000000000E+00  0.45593999997E+02  0.45594000000E+02  0.51100000000E-03 0.  1.
         11   -1    0    0    0    0 -0.00000000000E+00 -0.00000000000E+00 -0.45593999997E+02  0.45594000000E+02  0.51100000000E-03 0. -1.
    9900012    2    1    2    0    0 -0.34356246968E+01 -0.35456380562E+01  0.18063871419E+02  0.72461587719E+02  0.70000022698E+02 0.  0.
         12    1    1    2    0    0  0.34356246968E+01  0.35456380562E+01 -0.18063871419E+02  0.18726412281E+02  0.00000000000E+00 0. -1.
         11    1    3    3    0    0 -0.84840108324E+01 -0.32355912795E+02 -0.55866958380E+01  0.33913046210E+02  0.51100000000E-03 0. -1.
        -11    1    3    3    0    0  0.21269680374E+01  0.23930901017E+02  0.22124027797E+02  0.32660138131E+02  0.51100000000E-03 0.  1.
         12    1    3    3    0    0  0.29214180982E+01  0.48793737209E+01  0.15265394604E+01  0.58884033776E+01  0.00000000000E+00 0. -1.
</event>
<event>
 7    1  0.1351543E-013  0.7246155E+02  0.7816164E-02  0.1226708E+00
        -11   -1    0    0    0    0  0.00000000000E+00  0.00000000000E+00  0.45593999997E+02  0.45594000000E+02  0.51100000000E-03 0. -1.
         11   -1    0    0    0    0 -0.00000000000E+00 -0.00000000000E+00 -0.45593999997E+02  0.45594000000E+02  0.51100000000E-03 0.  1.
    9900012    2    1    2    0    0 -0.10916315253E+02  0.13392454568E+02 -0.72219294880E+01  0.72461546956E+02  0.69999969598E+02 0.  0.
         12    1    1    2    0    0  0.10916315253E+02 -0.13392454568E+02  0.72219294880E+01  0.18726453044E+02  0.00000000000E+00 0. -1.
         11    1    3    3    0    0 -0.10832368401E+02 -0.17683679759E+02  0.13871660277E+01  0.20784055544E+02  0.51100000000E-03 0. -1.
        -11    1    3    3    0    0 -0.47458215929E+01  0.37522499055E+02  0.26243300005E+01  0.37912370885E+02  0.51100000000E-03 0.  1.
        -12    1    3    3    0    0  0.46618747408E+01 -0.64463647279E+01 -0.11233425516E+02  0.13765120527E+02  0.00000000000E+00 0.  1.
</event>
<event>
 7    1  0.1351543E-013  0.7246162E+02  0.7816164E-02  0.1226708E+00
        -11   -1    0    0    0    0  0.00000000000E+00  0.00000000000E+00  0.45593999997E+02  0.45594000000E+02  0.51100000000E-03 0.  1.
         11   -1    0    0    0    0 -0.00000000000E+00 -0.00000000000E+00 -0.45593999997E+02  0.45594000000E+02  0.51100000000E-03 0. -1.
    9900012    2    1    2    0    0  0.93274537300E+01  0.12935945777E+02  0.98151553510E+01  0.72461618588E+02  0.70000062912E+02 0.  0.
         12    1    1    2    0    0 -0.93274537300E+01 -0.12935945777E+02 -0.98151553510E+01  0.18726381412E+02  0.00000000000E+00 0. -1.
         11    1    3    3    0    0  0.54891113492E+01 -0.40504325281E+01 -0.78238424524E+01  0.10380214740E+02  0.51100000000E-03 0. -1.
        -11    1    3    3    0    0 -0.24555767914E+02 -0.48812315183E+00  0.14671841461E+02  0.28609210652E+02  0.51100000000E-03 0.  1.
        -12    1    3    3    0    0  0.28394110295E+02  0.17474501456E+02  0.29671563427E+01  0.33472193196E+02  0.00000000000E+00 0.  1.
</event>
<event>
 7    1  0.1351543E-013  0.7246154E+02  0.7816164E-02  0.1226708E+00
        -11   -1    0    0    0    0  0.00000000000E+00  0.00000000000E+00  0.45593999997E+02  0.45594000000E+02  0.51100000000E-03 0. -1.
         11   -1    0    0    0    0 -0.00000000000E+00 -0.00000000000E+00 -0.45593999997E+02  0.45594000000E+02  0.51100000000E-03 0.  1.
    9900012    2    1    2    0    0 -0.58114156409E+01 -0.12093914285E+02 -0.13063114447E+02  0.72461540817E+02  0.69999961600E+02 0.  0.
         12    1    1    2    0    0  0.58114156409E+01  0.12093914285E+02  0.13063114447E+02  0.18726459183E+02  0.00000000000E+00 0. -1.
         11    1    3    3    0    0  0.29576569410E+01  0.17642566529E+02 -0.21684664274E+02  0.28111075278E+02  0.51100000000E-03 0. -1.
        -11    1    3    3    0    0  0.23004771525E+01 -0.14610881553E+02 -0.10059304082E+02  0.17887416073E+02  0.51100000000E-03 0.  1.
         12    1    3    3    0    0 -0.11069549734E+02 -0.15125599260E+02  0.18680853909E+02  0.26463049466E+02  0.00000000000E+00 0. -1.
</event>
<event>
 7    1  0.1351543E-013  0.7246164E+02  0.7816164E-02  0.1226708E+00
        -11   -1    0    0    0    0  0.00000000000E+00  0.00000000000E+00  0.45593999997E+02  0.45594000000E+02  0.51100000000E-03 0.  1.
         11   -1    0    0    0    0 -0.00000000000E+00 -0.00000000000E+00 -0.45593999997E+02  0.45594000000E+02  0.51100000000E-03 0. -1.
    9900012    2    1    2    0    0  0.13519757401E+02  0.98518742707E+01  0.84162595792E+01  0.72461636441E+02  0.70000086168E+02 0.  0.
         12    1    1    2    0    0 -0.13519757401E+02 -0.98518742707E+01 -0.84162595792E+01  0.18726363559E+02  0.00000000000E+00 0. -1.
         11    1    3    3    0    0  0.66467611968E+01 -0.20929392590E+02  0.49262782479E+01  0.22505268855E+02  0.51100000000E-03 0. -1.
        -11    1    3    3    0    0  0.18487388489E+01  0.14675321808E+02  0.20970459173E+02  0.25662093908E+02  0.51100000000E-03 0.  1.
         12    1    3    3    0    0  0.50242573556E+01  0.16105945052E+02 -0.17480477842E+02  0.24294273679E+02  0.00000000000E+00 0. -1.
</event>
<event>
 7    1  0.1351543E-013  0.7246172E+02  0.7816164E-02  0.1226708E+00
        -11   -1    0    0    0    0  0.00000000000E+00  0.00000000000E+00  0.45593999997E+02  0.45594000000E+02  0.51100000000E-03 0. -1.
         11   -1    0    0    0    0 -0.00000000000E+00 -0.00000000000E+00 -0.45593999997E+02  0.45594000000E+02  0.51100000000E-03 0.  1.
    9900012    2    1    2    0    0  0.53194359740E+01 -0.15298359913E+02 -0.93988030465E+01  0.72461715964E+02  0.70000189761E+02 0.  0.
         12    1    1    2    0    0 -0.53194359740E+01  0.15298359913E+02  0.93988030465E+01  0.18726284036E+02  0.00000000000E+00 0. -1.
         11    1    3    3    0    0  0.33026129952E+00  0.21603234772E+02 -0.10057975221E+02  0.23832156657E+02  0.51100000000E-03 0. -1.
        -11    1    3    3    0    0  0.23945809906E+01 -0.32189603558E+02  0.13285077190E+02  0.34905556456E+02  0.51100000000E-03 0.  1.
         12    1    3    3    0    0  0.25945936839E+01 -0.47119911267E+01 -0.12625905016E+02  0.13724002850E+02  0.00000000000E+00 0. -1.
</event>
<event>
 7    1  0.1351543E-013  0.7246174E+02  0.7816164E-02  0.1226708E+00
        -11   -1    0    0    0    0  0.00000000000E+00  0.00000000000E+00  0.45593999997E+02  0.45594000000E+02  0.51100000000E-03 0.  1.
         11   -1    0    0    0    0 -0.00000000000E+00 -0.00000000000E+00 -0.45593999997E+02  0.45594000000E+02  0.51100000000E-03 0. -1.
    9900012    2    1    2    0    0 -0.46114304847E+01  0.16498816438E+02  0.75628445699E+01  0.72461738949E+02  0.70000219704E+02 0.  0.
         12    1    1    2    0    0  0.46114304847E+01 -0.16498816438E+02 -0.75628445699E+01  0.18726261051E+02  0.00000000000E+00 0. -1.
         11    1    3    3    0    0  0.39551936505E+01 -0.17272285901E+02  0.64506321170E+01  0.18856990005E+02  0.51100000000E-03 0. -1.
        -11    1    3    3    0    0 -0.22655112011E+02  0.18128611405E+02 -0.88217284013E+01  0.30326944190E+02  0.51100000000E-03 0.  1.
        -12    1    3    3    0    0  0.14088487876E+02  0.15642490935E+02  0.99339408543E+01  0.23277804754E+02  0.00000000000E+00 0.  1.
</event>
<event>
 7    1  0.1351543E-013  0.7246156E+02  0.7816164E-02  0.1226708E+00
        -11   -1    0    0    0    0  0.00000000000E+00  0.00000000000E+00  0.45593999997E+02  0.45594000000E+02  0.51100000000E-03 0.  1.
         11   -1    0    0    0    0 -0.00000000000E+00 -0.00000000000E+00 -0.45593999997E+02  0.45594000000E+02  0.51100000000E-03 0. -1.
    9900012    2    1    2    0    0  0.11212262956E+02 -0.11615075071E+02  0.94897129671E+01  0.72461562493E+02  0.69999989837E+02 0.  0.
         12    1    1    2    0    0 -0.11212262956E+02  0.11615075071E+02 -0.94897129671E+01  0.18726437507E+02  0.00000000000E+00 0. -1.
         11    1    3    3    0    0 -0.10578626562E+02 -0.16031116017E+02 -0.14541938349E+01  0.19261845723E+02  0.51100000000E-03 0. -1.
        -11    1    3    3    0    0 -0.91842282806E+00  0.16266994037E+02  0.20210058520E+02  0.25959681453E+02  0.51100000000E-03 0.  1.
         12    1    3    3    0    0  0.22709312346E+02 -0.11850953091E+02 -0.92661517184E+01  0.27240035317E+02  0.00000000000E+00 0. -1.
</event>
<event>
 7    1  0.1351543E-013  0.7246135E+02  0.7816164E-02  0.1226709E+00
        -11   -1    0    0    0    0  0.00000000000E+00  0.00000000000E+00  0.45593999997E+02  0.45594000000E+02  0.51100000000E-03 0. -1.
         11   -1    0    0    0    0 -0.00000000000E+00 -0.00000000000E+00 -0.45593999997E+02  0.45594000000E+02  0.51100000000E-03 0.  1.
    9900012    2    1    2    0    0 -0.13127530280E+02 -0.31328131202E+01  0.12982329932E+02  0.72461348944E+02  0.69999711649E+02 0.  0.
         12    1    1    2    0    0  0.13127530280E+02  0.31328131202E+01 -0.12982329932E+02  0.18726651056E+02  0.00000000000E+00 0. -1.
         11    1    3    3    0    0 -0.19483890256E+02  0.25502039417E+02  0.22087697624E+02  0.38959496667E+02  0.51100000000E-03 0. -1.
        -11    1    3    3    0    0  0.55835093082E+01 -0.27388532929E+02 -0.40569563702E+01  0.28244755398E+02  0.51100000000E-03 0.  1.
         12    1    3    3    0    0  0.77285066778E+00 -0.12463196083E+01 -0.50484113220E+01  0.52570968791E+01  0.00000000000E+00 0. -1.
</event>
<event>
 8    1  0.1351543E-013  0.7246163E+02  0.7816164E-02  0.1226708E+00
        -11   -1    0    0    0    0  0.00000000000E+00  0.00000000000E+00  0.45593999997E+02  0.45594000000E+02  0.51100000000E-03 0.  1.
         11   -1    0    0    0    0 -0.00000000000E+00 -0.00000000000E+00 -0.45593999997E+02  0.45594000000E+02  0.51100000000E-03 0. -1.
    9900012    2    1    2    0    0  0.13751756822E+02 -0.87394231772E+01  0.92297650108E+01  0.72461631016E+02  0.70000079101E+02 0.  0.
        -24    2    3    3    0    0 -0.32040199569E+01 -0.15270165643E+02  0.47452556945E+00  0.52292268575E+02  0.49908040189E+02 0.  0.
         12    1    1    2    0    0 -0.13751756822E+02  0.87394231772E+01 -0.92297650108E+01  0.18726368984E+02  0.00000000000E+00 0. -1.
         11    1    4    4    0    0 -0.93730265466E+01 -0.21641983868E+02 -0.19393777670E+02  0.30534369241E+02  0.51100000000E-03 0. -1.
        -11    1    3    3    0    0  0.16955776779E+02  0.65307424661E+01  0.87552394413E+01  0.20169362441E+02  0.51100000000E-03 0.  1.
        -12    1    4    4    0    0  0.61690065897E+01  0.63718182248E+01  0.19868303239E+02  0.21757899334E+02  0.00000000000E+00 0.  1.
</event>
<event>
 7    1  0.1351543E-013  0.7246150E+02  0.7816164E-02  0.1226708E+00
        -11   -1    0    0    0    0  0.00000000000E+00  0.00000000000E+00  0.45593999997E+02  0.45594000000E+02  0.51100000000E-03 0.  1.
         11   -1    0    0    0    0 -0.00000000000E+00 -0.00000000000E+00 -0.45593999997E+02  0.45594000000E+02  0.51100000000E-03 0. -1.
    9900012    2    1    2    0    0  0.16986294589E+02 -0.63671318481E+01  0.46483701672E+01  0.72461496935E+02  0.69999904436E+02 0.  0.
         12    1    1    2    0    0 -0.16986294589E+02  0.63671318481E+01 -0.46483701672E+01  0.18726503065E+02  0.00000000000E+00 0. -1.
         11    1    3    3    0    0  0.11588236750E+02 -0.10399872678E+02 -0.20169649053E+02  0.25480567613E+02  0.51100000000E-03 0. -1.
        -11    1    3    3    0    0  0.22479303242E+02  0.25061492849E+01  0.15930014002E+02  0.27665234589E+02  0.51100000000E-03 0.  1.
        -12    1    3    3    0    0 -0.17081245403E+02  0.15265915453E+01  0.88880052186E+01  0.19315694733E+02  0.00000000000E+00 0.  1.
</event>
<event>
 7    1  0.1351543E-013  0.7246160E+02  0.7816164E-02  0.1226708E+00
        -11   -1    0    0    0    0  0.00000000000E+00  0.00000000000E+00  0.45593999997E+02  0.45594000000E+02  0.51100000000E-03 0.  1.
         11   -1    0    0    0    0 -0.00000000000E+00 -0.00000000000E+00 -0.45593999997E+02  0.45594000000E+02  0.51100000000E-03 0. -1.
    9900012    2    1    2    0    0  0.41563893147E+01  0.37682870179E+01  0.17866240142E+02  0.72461598958E+02  0.70000037340E+02 0.  0.
         12    1    1    2    0    0 -0.41563893147E+01 -0.37682870179E+01 -0.17866240142E+02  0.18726401042E+02  0.00000000000E+00 0. -1.
         11    1    3    3    0    0 -0.68298583426E+01  0.15760542213E+02  0.58893103192E+01  0.18158348827E+02  0.51100000000E-03 0. -1.
        -11    1    3    3    0    0  0.17277116298E+02 -0.28537024344E+02  0.14590814868E+02  0.36410882779E+02  0.51100000000E-03 0.  1.
        -12    1    3    3    0    0 -0.62908686407E+01  0.16544769149E+02 -0.26138850454E+01  0.17892367352E+02  0.00000000000E+00 0.  1.
</event>
<event>
 7    1  0.1351543E-013  0.7246157E+02  0.7816164E-02  0.1226708E+00
        -11   -1    0    0    0    0  0.00000000000E+00  0.00000000000E+00  0.45593999997E+02  0.45594000000E+02  0.51100000000E-03 0.  1.
         11   -1    0    0    0    0 -0.00000000000E+00 -0.00000000000E+00 -0.45593999997E+02  0.45594000000E+02  0.51100000000E-03 0. -1.
    9900012    2    1    2    0    0 -0.10131629867E+02  0.99105885679E+01  0.12239664284E+02  0.72461572917E+02  0.70000003417E+02 0.  0.
         12    1    1    2    0    0  0.10131629867E+02 -0.99105885679E+01 -0.12239664284E+02  0.18726427083E+02  0.00000000000E+00 0. -1.
         11    1    3    3    0    0  0.87329765590E+01  0.30335719881E+01 -0.61110906873E+01  0.11082096744E+02  0.51100000000E-03 0. -1.
        -11    1    3    3    0    0 -0.19342696607E+02  0.13569910315E+02  0.35681307360E+02  0.42795304336E+02  0.51100000000E-03 0.  1.
        -12    1    3    3    0    0  0.47809018086E+00 -0.66928937352E+01 -0.17330552389E+02  0.18584171838E+02  0.00000000000E+00 0.  1.
</event>
<event>
 7    1  0.1351543E-013  0.7246158E+02  0.7816164E-02  0.1226708E+00
        -11   -1    0    0    0    0  0.00000000000E+00  0.00000000000E+00  0.45593999997E+02  0.45594000000E+02  0.51100000000E-03 0.  1.
         11   -1    0    0    0    0 -0.00000000000E+00 -0.00000000000E+00 -0.45593999997E+02  0.45594000000E+02  0.51100000000E-03 0. -1.
    9900012    2    1    2    0    0  0.50291427681E+01 -0.14363156455E+02  0.10912672926E+02  0.72461575602E+02  0.70000006915E+02 0.  0.
         12    1    1    2    0    0 -0.50291427681E+01  0.14363156455E+02 -0.10912672926E+02  0.18726424398E+02  0.00000000000E+00 0. -1.
         11    1    3    3    0    0  0.97862486376E+01 -0.14838637951E+02 -0.55541960459E+01  0.18622699392E+02  0.51100000000E-03 0. -1.
        -11    1    3    3    0    0 -0.75436493165E+01  0.47274883534E+01  0.34226804565E+02  0.35365660493E+02  0.51100000000E-03 0.  1.
        -12    1    3    3    0    0  0.27865434470E+01 -0.42520068571E+01 -0.17759935593E+02  0.18473215718E+02  0.00000000000E+00 0.  1.
</event>
<event>
 7    1  0.1351543E-013  0.7246168E+02  0.7816164E-02  0.1226708E+00
        -11   -1    0    0    0    0  0.00000000000E+00  0.00000000000E+00  0.45593999997E+02  0.45594000000E+02  0.51100000000E-03 0. -1.
         11   -1    0    0    0    0 -0.00000000000E+00 -0.00000000000E+00 -0.45593999997E+02  0.45594000000E+02  0.51100000000E-03 0.  1.
    9900012    2    1    2    0    0 -0.10195406752E+02  0.54896992766E+00  0.15698010673E+02  0.72461675590E+02  0.70000137168E+02 0.  0.
         12    1    1    2    0    0  0.10195406752E+02 -0.54896992766E+00 -0.15698010673E+02  0.18726324410E+02  0.00000000000E+00 0. -1.
         11    1    3    3    0    0  0.22551806855E+01 -0.58659153835E+01  0.27614556935E+02  0.28320638379E+02  0.51100000000E-03 0. -1.
        -11    1    3    3    0    0 -0.24548312175E+02  0.54998834101E+01 -0.17641287707E+02  0.30725939862E+02  0.51100000000E-03 0.  1.
         12    1    3    3    0    0  0.12097724737E+02  0.91500190108E+00  0.57247414454E+01  0.13415097350E+02  0.00000000000E+00 0. -1.
</event>
<event>
 7    1  0.1351543E-013  0.7246156E+02  0.7816164E-02  0.1226708E+00
        -11   -1    0    0    0    0  0.00000000000E+00  0.00000000000E+00  0.45593999997E+02  0.45594000000E+02  0.51100000000E-03 0.  1.
         11   -1    0    0    0    0 -0.00000000000E+00 -0.00000000000E+00 -0.45593999997E+02  0.45594000000E+02  0.51100000000E-03 0. -1.
    9900012    2    1    2    0    0 -0.50142296710E+01  0.55499914329E+01  0.17167832315E+02  0.72461564928E+02  0.69999993010E+02 0.  0.
         12    1    1    2    0    0  0.50142296710E+01 -0.55499914329E+01 -0.17167832315E+02  0.18726435072E+02  0.00000000000E+00 0. -1.
         11    1    3    3    0    0 -0.19875471472E+01 -0.28641979213E+01  0.11622719900E+00  0.34881918550E+01  0.51100000000E-03 0. -1.
        -11    1    3    3    0    0  0.15406781026E+02  0.16474453515E+02 -0.17798737596E+02  0.28732761449E+02  0.51100000000E-03 0.  1.
        -12    1    3    3    0    0 -0.18433463550E+02 -0.80602641608E+01  0.34850342712E+02  0.40240611625E+02  0.00000000000E+00 0.  1.
</event>
<event>
 7    1  0.1351543E-013  0.7246155E+02  0.7816164E-02  0.1226708E+00
        -11   -1    0    0    0    0  0.00000000000E+00  0.00000000000E+00  0.45593999997E+02  0.45594000000E+02  0.51100000000E-03 0.  1.
         11   -1    0    0    0    0 -0.00000000000E+00 -0.00000000000E+00 -0.45593999997E+02  0.45594000000E+02  0.51100000000E-03 0. -1.
    9900012    2    1    2    0    0  0.26108892864E+00  0.18556030830E+02 -0.25070809886E+01  0.72461550719E+02  0.69999974499E+02 0.  0.
         12    1    1    2    0    0 -0.26108892864E+00 -0.18556030830E+02  0.25070809886E+01  0.18726449281E+02  0.00000000000E+00 0. -1.
         11    1    3    3    0    0  0.18475425875E+02  0.13464941100E+02  0.23687945305E+02  0.32920582515E+02  0.51100000000E-03 0.  1.
        -11    1    3    3    0    0 -0.12362584202E+02 -0.83296414160E+01 -0.14587344148E+02  0.20856821997E+02  0.51100000000E-03 0. -1.
        -12    1    3    3    0    0 -0.58517527442E+01  0.13420731146E+02 -0.11607682146E+02  0.18684146207E+02  0.00000000000E+00 0.  1.
</event>
<event>
 7    1  0.1351543E-013  0.7246154E+02  0.7816164E-02  0.1226708E+00
        -11   -1    0    0    0    0  0.00000000000E+00  0.00000000000E+00  0.45593999997E+02  0.45594000000E+02  0.51100000000E-03 0. -1.
         11   -1    0    0    0    0 -0.00000000000E+00 -0.00000000000E+00 -0.45593999997E+02  0.45594000000E+02  0.51100000000E-03 0.  1.
    9900012    2    1    2    0    0  0.79654251870E+01 -0.41610519842E+01 -0.16429185441E+02  0.72461535136E+02  0.69999954200E+02 0.  0.
         12    1    1    2    0    0 -0.79654251870E+01  0.41610519842E+01  0.16429185441E+02  0.18726464864E+02  0.00000000000E+00 0. -1.
         11    1    3    3    0    0  0.17340260528E+02  0.15713490753E+02  0.12783426800E+02  0.26664853793E+02  0.51100000000E-03 0. -1.
        -11    1    3    3    0    0 -0.95216473348E+01 -0.21622987193E+02 -0.86513759496E+01  0.25160716389E+02  0.51100000000E-03 0.  1.
         12    1    3    3    0    0  0.14681199371E+00  0.17484444559E+01 -0.20561236291E+02  0.20635964954E+02  0.00000000000E+00 0. -1.
</event>
<event>
 7    1  0.1351543E-013  0.7246157E+02  0.7816164E-02  0.1226708E+00
        -11   -1    0    0    0    0  0.00000000000E+00  0.00000000000E+00  0.45593999997E+02  0.45594000000E+02  0.51100000000E-03 0. -1.
         11   -1    0    0    0    0 -0.00000000000E+00 -0.00000000000E+00 -0.45593999997E+02  0.45594000000E+02  0.51100000000E-03 0.  1.
    9900012    2    1    2    0    0  0.15727494134E+02 -0.43770066503E+01 -0.91742455828E+01  0.72461573727E+02  0.70000004472E+02 0.  0.
         12    1    1    2    0    0 -0.15727494134E+02  0.43770066503E+01  0.91742455828E+01  0.18726426273E+02  0.00000000000E+00 0. -1.
         11    1    3    3    0    0 -0.10477117819E+01 -0.20317194444E+02 -0.20549050026E+02  0.28916250575E+02  0.51100000000E-03 0. -1.
        -11    1    3    3    0    0  0.27034028522E+02  0.15564002282E+02  0.11589067165E+02  0.33277369835E+02  0.51100000000E-03 0.  1.
         12    1    3    3    0    0 -0.10258822606E+02  0.37618551160E+00 -0.21426272090E+00  0.10267953317E+02  0.00000000000E+00 0. -1.
</event>
<event>
 7    1  0.1351543E-013  0.7246159E+02  0.7816164E-02  0.1226708E+00
        -11   -1    0    0    0    0  0.00000000000E+00  0.00000000000E+00  0.45593999997E+02  0.45594000000E+02  0.51100000000E-03 0. -1.
         11   -1    0    0    0    0 -0.00000000000E+00 -0.00000000000E+00 -0.45593999997E+02  0.45594000000E+02  0.51100000000E-03 0.  1.
    9900012    2    1    2    0    0  0.15533878651E+02  0.10211239491E+02  0.22599856165E+01  0.72461592633E+02  0.70000029100E+02 0.  0.
         12    1    1    2    0    0 -0.15533878651E+02 -0.10211239491E+02 -0.22599856165E+01  0.18726407367E+02  0.00000000000E+00 0. -1.
         11    1    3    3    0    0 -0.21910167582E+02  0.74651606717E+01 -0.11651923696E+02  0.25914308661E+02  0.51100000000E-03 0. -1.
        -11    1    3    3    0    0  0.92398819911E+01  0.11609685320E+02  0.52714244023E+01  0.15746368722E+02  0.51100000000E-03 0.  1.
         12    1    3    3    0    0  0.28204164242E+02 -0.88636065006E+01  0.86404849099E+01  0.30800915250E+02  0.00000000000E+00 0. -1.
</event>
<event>
 7    1  0.1351543E-013  0.7246160E+02  0.7816164E-02  0.1226708E+00
        -11   -1    0    0    0    0  0.00000000000E+00  0.00000000000E+00  0.45593999997E+02  0.45594000000E+02  0.51100000000E-03 0.  1.
         11   -1    0    0    0    0 -0.00000000000E+00 -0.00000000000E+00 -0.45593999997E+02  0.45594000000E+02  0.51100000000E-03 0. -1.
    9900012    2    1    2    0    0  0.11579878456E+02  0.96941340521E+01  0.11072868570E+02  0.72461595154E+02  0.70000032385E+02 0.  0.
         12    1    1    2    0    0 -0.11579878456E+02 -0.96941340521E+01 -0.11072868570E+02  0.18726404846E+02  0.00000000000E+00 0. -1.
         11    1    3    3    0    0 -0.11916405973E+02 -0.11098661665E+02 -0.14419524261E+02  0.21750947157E+02  0.51100000000E-03 0. -1.
        -11    1    3    3    0    0  0.28388362736E+02  0.70523755641E+01  0.16873018381E+02  0.33768830147E+02  0.51100000000E-03 0.  1.
        -12    1    3    3    0    0 -0.48920783072E+01  0.13740420153E+02  0.86193744498E+01  0.16941817850E+02  0.00000000000E+00 0.  1.
</event>
<event>
 7    1  0.1662535E-013  0.7246163E+02  0.7816164E-02  0.1226708E+00
        -11   -1    0    0    0    0  0.00000000000E+00  0.00000000000E+00  0.45593999997E+02  0.45594000000E+02  0.51100000000E-03 0. -1.
         11   -1    0    0    0    0 -0.00000000000E+00 -0.00000000000E+00 -0.45593999997E+02  0.45594000000E+02  0.51100000000E-03 0.  1.
    9900012    2    1    2    0    0  0.25882439356E+01 -0.18074918105E+02 -0.41563698186E+01  0.72461626052E+02  0.70000072634E+02 0.  0.
         12    1    1    2    0    0 -0.25882439356E+01  0.18074918105E+02  0.41563698186E+01  0.18726373948E+02  0.00000000000E+00 0. -1.
         11    1    3    3    0    0  0.26548111915E+02  0.94500566246E+00  0.73543893390E+01  0.27564149266E+02  0.51100000000E-03 0. -1.
        -11    1    3    3    0    0 -0.60384427588E+01 -0.23929527500E+02 -0.83161565658E+01  0.26043109216E+02  0.51100000000E-03 0.  1.
         12    1    3    3    0    0 -0.17921425221E+02  0.49096037323E+01 -0.31946025918E+01  0.18854367570E+02  0.00000000000E+00 0. -1.
</event>
<event>
 7    1  0.1351543E-013  0.7246157E+02  0.7816164E-02  0.1226708E+00
        -11   -1    0    0    0    0  0.00000000000E+00  0.00000000000E+00  0.45593999997E+02  0.45594000000E+02  0.51100000000E-03 0. -1.
         11   -1    0    0    0    0 -0.00000000000E+00 -0.00000000000E+00 -0.45593999997E+02  0.45594000000E+02  0.51100000000E-03 0.  1.
    9900012    2    1    2    0    0 -0.27136734053E+01 -0.18633510319E+01 -0.18434837974E+02  0.72461565434E+02  0.69999993668E+02 0.  0.
         12    1    1    2    0    0  0.27136734053E+01  0.18633510319E+01  0.18434837974E+02  0.18726434566E+02  0.00000000000E+00 0. -1.
         11    1    3    3    0    0  0.17222331332E+02  0.10844569792E+02  0.82466426281E-01  0.20352400140E+02  0.51100000000E-03 0. -1.
        -11    1    3    3    0    0 -0.12833111784E+02 -0.19236942640E+02 -0.29504817819E+02  0.37487104382E+02  0.51100000000E-03 0.  1.
         12    1    3    3    0    0 -0.71028929539E+01  0.65290218156E+01  0.10987513418E+02  0.14622060912E+02  0.00000000000E+00 0. -1.
</event>
<event>
 7    1  0.1351543E-013  0.7246156E+02  0.7816164E-02  0.1226708E+00
        -11   -1    0    0    0    0  0.00000000000E+00  0.00000000000E+00  0.45593999997E+02  0.45594000000E+02  0.51100000000E-03 0.  1.
         11   -1    0    0    0    0 -0.00000000000E+00 -0.00000000000E+00 -0.45593999997E+02  0.45594000000E+02  0.51100000000E-03 0. -1.
    9900012    2    1    2    0    0  0.80498519147E+01 -0.30979238784E+01 -0.16621741926E+02  0.72461560059E+02  0.69999986666E+02 0.  0.
         12    1    1    2    0    0 -0.80498519147E+01  0.30979238784E+01  0.16621741926E+02  0.18726439941E+02  0.00000000000E+00 0. -1.
         11    1    3    3    0    0 -0.11755838906E+02  0.12462330725E+02  0.16765076813E+02  0.23970340763E+02  0.51100000000E-03 0. -1.
        -11    1    3    3    0    0  0.12140989511E+02  0.21837697612E+01 -0.33670316681E+01  0.12787078603E+02  0.51100000000E-03 0.  1.
         12    1    3    3    0    0  0.76647013102E+01 -0.17744024365E+02 -0.30019787071E+02  0.35704140693E+02  0.00000000000E+00 0. -1.
</event>
<event>
 7    1  0.1351543E-013  0.7246157E+02  0.7816164E-02  0.1226708E+00
        -11   -1    0    0    0    0  0.00000000000E+00  0.00000000000E+00  0.45593999997E+02  0.45594000000E+02  0.51100000000E-03 0.  1.
         11   -1    0    0    0    0 -0.00000000000E+00 -0.00000000000E+00 -0.45593999997E+02  0.45594000000E+02  0.51100000000E-03 0. -1.
    9900012    2    1    2    0    0  0.16940190156E+02  0.50706186076E+01 -0.61642381201E+01  0.72461573560E+02  0.70000004255E+02 0.  0.
         12    1    1    2    0    0 -0.16940190156E+02 -0.50706186076E+01  0.61642381201E+01  0.18726426440E+02  0.00000000000E+00 0. -1.
         11    1    3    3    0    0 -0.69705135274E+01  0.15511733029E+01  0.30977545470E+01  0.77839759087E+01  0.51100000000E-03 0. -1.
        -11    1    3    3    0    0  0.19161243430E+02  0.21777155896E+02 -0.26376353343E+02  0.39205991693E+02  0.51100000000E-03 0.  1.
        -12    1    3    3    0    0  0.47494602535E+01 -0.18257710592E+02  0.17114360676E+02  0.25471605958E+02  0.00000000000E+00 0.  1.
</event>
<event>
 7    1  0.1351543E-013  0.7246155E+02  0.7816164E-02  0.1226708E+00
        -11   -1    0    0    0    0  0.00000000000E+00  0.00000000000E+00  0.45593999997E+02  0.45594000000E+02  0.51100000000E-03 0. -1.
         11   -1    0    0    0    0 -0.00000000000E+00 -0.00000000000E+00 -0.45593999997E+02  0.45594000000E+02  0.51100000000E-03 0.  1.
    9900012    2    1    2    0    0 -0.17290899005E+02  0.71289808899E+01 -0.93937107774E+00  0.72461548789E+02  0.69999971985E+02 0.  0.
         12    1    1    2    0    0  0.17290899005E+02 -0.71289808899E+01  0.93937107774E+00  0.18726451211E+02  0.00000000000E+00 0. -1.
         11    1    3    3    0    0  0.72848699711E+01 -0.82970264470E+01 -0.23360983732E+01  0.11285713723E+02  0.51100000000E-03 0. -1.
        -11    1    3    3    0    0 -0.13702867398E+02  0.26390193397E+02  0.20866191506E+02  0.36326420559E+02  0.51100000000E-03 0.  1.
        -12    1    3    3    0    0 -0.10872901579E+02 -0.10964186060E+02 -0.19469464210E+02  0.24849414507E+02  0.00000000000E+00 0.  1.
</event>
<event>
 7    1  0.1351543E-013  0.7246152E+02  0.7816164E-02  0.1226708E+00
        -11   -1    0    0    0    0  0.00000000000E+00  0.00000000000E+00  0.45593999997E+02  0.45594000000E+02  0.51100000000E-03 0. -1.
         11   -1    0    0    0    0 -0.00000000000E+00 -0.00000000000E+00 -0.45593999997E+02  0.45594000000E+02  0.51100000000E-03 0.  1.
    9900012    2    1    2    0    0 -0.42164688559E+01 -0.16606676259E+02 -0.75578318759E+01  0.72461517985E+02  0.69999931857E+02 0.  0.
         12    1    1    2    0    0  0.42164688559E+01  0.16606676259E+02  0.75578318759E+01  0.18726482015E+02  0.00000000000E+00 0. -1.
         11    1    3    3    0    0 -0.19781001031E+02 -0.26143771661E+02  0.14310400574E+02  0.35771110736E+02  0.51100000000E-03 0. -1.
        -11    1    3    3    0    0 -0.27543308791E+01 -0.37917437768E+01 -0.10160460105E+02  0.11189218438E+02  0.51100000000E-03 0.  1.
         12    1    3    3    0    0  0.18318863055E+02  0.13328839178E+02 -0.11707772346E+02  0.25501188810E+02  0.00000000000E+00 0. -1.
</event>
<event>
 7    1  0.1662660E-013  0.7246157E+02  0.7816164E-02  0.1226708E+00
        -11   -1    0    0    0    0  0.00000000000E+00  0.00000000000E+00  0.45593999997E+02  0.45594000000E+02  0.51100000000E-03 0. -1.
         11   -1    0    0    0    0 -0.00000000000E+00 -0.00000000000E+00 -0.45593999997E+02  0.45594000000E+02  0.51100000000E-03 0.  1.
    9900012    2    1    2    0    0  0.59585249592E+01  0.22074303188E+01 -0.17615401152E+02  0.72461571455E+02  0.70000001512E+02 0.  0.
         12    1    1    2    0    0 -0.59585249592E+01 -0.22074303188E+01  0.17615401152E+02  0.18726428545E+02  0.00000000000E+00 0. -1.
         11    1    3    3    0    0 -0.23072304946E+01  0.38743283191E+01  0.13956124165E+02  0.14666531098E+02  0.51100000000E-03 0. -1.
        -11    1    3    3    0    0 -0.91440481337E+01  0.11868448775E+02 -0.32432459320E+02  0.35725874522E+02  0.51100000000E-03 0.  1.
        -12    1    3    3    0    0  0.17409803587E+02 -0.13535346775E+02  0.86093400295E+00  0.22069165835E+02  0.00000000000E+00 0.  1.
</event>
<event>
 7    1  0.1351543E-013  0.7246169E+02  0.7816164E-02  0.1226708E+00
        -11   -1    0    0    0    0  0.00000000000E+00  0.00000000000E+00  0.45593999997E+02  0.45594000000E+02  0.51100000000E-03 0.  1.
         11   -1    0    0    0    0 -0.00000000000E+00 -0.00000000000E+00 -0.45593999997E+02  0.45594000000E+02  0.51100000000E-03 0. -1.
    9900012    2    1    2    0    0  0.11928367182E+02 -0.13155456827E+02  0.59433059253E+01  0.72461685006E+02  0.70000149433E+02 0.  0.
         12    1    1    2    0    0 -0.11928367182E+02  0.13155456827E+02 -0.59433059253E+01  0.18726314994E+02  0.00000000000E+00 0. -1.
         11    1    3    3    0    0 -0.20247765010E+01 -0.31041977022E+02  0.11027228591E+01  0.31127480709E+02  0.51100000000E-03 0. -1.
        -11    1    3    3    0    0  0.16276978673E+01  0.21872745411E+02  0.13497672893E+02  0.25753709751E+02  0.51100000000E-03 0.  1.
        -12    1    3    3    0    0  0.12325445815E+02 -0.39862252157E+01 -0.86570898269E+01  0.15580494546E+02  0.00000000000E+00 0.  1.
</event>
<event>
 7    1  0.1351543E-013  0.7246164E+02  0.7816164E-02  0.1226708E+00
        -11   -1    0    0    0    0  0.00000000000E+00  0.00000000000E+00  0.45593999997E+02  0.45594000000E+02  0.51100000000E-03 0. -1.
         11   -1    0    0    0    0 -0.00000000000E+00 -0.00000000000E+00 -0.45593999997E+02  0.45594000000E+02  0.51100000000E-03 0.  1.
    9900012    2    1    2    0    0 -0.92668788213E+01  0.89203635787E+01 -0.13609877605E+02  0.72461636287E+02  0.70000085968E+02 0.  0.
         12    1    1    2    0    0  0.92668788213E+01 -0.89203635787E+01  0.13609877605E+02  0.18726363713E+02  0.00000000000E+00 0. -1.
         11    1    3    3    0    0 -0.17241231060E+02  0.27737662835E+01  0.10552179817E+02  0.20403488109E+02  0.51100000000E-03 0. -1.
        -11    1    3    3    0    0  0.23735339480E+02 -0.28941831829E+01 -0.24013140712E+02  0.33887660935E+02  0.51100000000E-03 0.  1.
        -12    1    3    3    0    0 -0.15760987241E+02  0.90407804781E+01 -0.14891671009E+00  0.18170487243E+02  0.00000000000E+00 0.  1.
</event>
<event>
 7    1  0.1351543E-013  0.7246168E+02  0.7816164E-02  0.1226708E+00
        -11   -1    0    0    0    0  0.00000000000E+00  0.00000000000E+00  0.45593999997E+02  0.45594000000E+02  0.51100000000E-03 0. -1.
         11   -1    0    0    0    0 -0.00000000000E+00 -0.00000000000E+00 -0.45593999997E+02  0.45594000000E+02  0.51100000000E-03 0.  1.
    9900012    2    1    2    0    0  0.12922364736E+02  0.59636119932E+01 -0.12170580142E+02  0.72461676298E+02  0.70000138090E+02 0.  0.
         12    1    1    2    0    0 -0.12922364736E+02 -0.59636119932E+01  0.12170580142E+02  0.18726323702E+02  0.00000000000E+00 0. -1.
         11    1    3    3    0    0 -0.19425049551E+02  0.21218170122E+02 -0.17215392138E+02  0.33524812007E+02  0.51100000000E-03 0. -1.
        -11    1    3    3    0    0  0.20159495037E+02 -0.16054979956E+02  0.66554287529E+01  0.26616956130E+02  0.51100000000E-03 0.  1.
        -12    1    3    3    0    0  0.12187919250E+02  0.80042182684E+00 -0.16106167570E+01  0.12319908161E+02  0.00000000000E+00 0.  1.
</event>
<event>
 7    1  0.1351543E-013  0.7246157E+02  0.7816164E-02  0.1226708E+00
        -11   -1    0    0    0    0  0.00000000000E+00  0.00000000000E+00  0.45593999997E+02  0.45594000000E+02  0.51100000000E-03 0.  1.
         11   -1    0    0    0    0 -0.00000000000E+00 -0.00000000000E+00 -0.45593999997E+02  0.45594000000E+02  0.51100000000E-03 0. -1.
    9900012    2    1    2    0    0  0.29834123581E+00 -0.79160997003E+01  0.16968370546E+02  0.72461568388E+02  0.69999997516E+02 0.  0.
         12    1    1    2    0    0 -0.29834123581E+00  0.79160997003E+01 -0.16968370546E+02  0.18726431612E+02  0.00000000000E+00 0. -1.
         11    1    3    3    0    0 -0.16977977038E+02 -0.12473890622E+02 -0.23939430136E+01  0.21203316132E+02  0.51100000000E-03 0. -1.
        -11    1    3    3    0    0  0.25674097580E+02 -0.12135336195E+02  0.14800133246E+02  0.32022954509E+02  0.51100000000E-03 0.  1.
        -12    1    3    3    0    0 -0.83977793064E+01  0.16693127117E+02  0.45621803138E+01  0.19235297747E+02  0.00000000000E+00 0.  1.
</event>
<event>
 7    1  0.1351543E-013  0.7246167E+02  0.7816164E-02  0.1226708E+00
        -11   -1    0    0    0    0  0.00000000000E+00  0.00000000000E+00  0.45593999997E+02  0.45594000000E+02  0.51100000000E-03 0. -1.
         11   -1    0    0    0    0 -0.00000000000E+00 -0.00000000000E+00 -0.45593999997E+02  0.45594000000E+02  0.51100000000E-03 0.  1.
    9900012    2    1    2    0    0 -0.11471989409E+02 -0.11951517794E+02 -0.87309912158E+01  0.72461667572E+02  0.70000126722E+02 0.  0.
         12    1    1    2    0    0  0.11471989409E+02  0.11951517794E+02  0.87309912158E+01  0.18726332428E+02  0.00000000000E+00 0. -1.
         11    1    3    3    0    0 -0.53392206546E+01 -0.53368443399E+01  0.19658945291E+02  0.21058568682E+02  0.51100000000E-03 0. -1.
        -11    1    3    3    0    0 -0.10839889516E+01  0.16034134091E+02 -0.22164854588E+02  0.27377897422E+02  0.51100000000E-03 0.  1.
        -12    1    3    3    0    0 -0.50487798028E+01 -0.22648807545E+02 -0.62250819191E+01  0.24025201469E+02  0.00000000000E+00 0.  1.
</event>
<event>
 7    1  0.1351543E-013  0.7246154E+02  0.7816164E-02  0.1226708E+00
        -11   -1    0    0    0    0  0.00000000000E+00  0.00000000000E+00  0.45593999997E+02  0.45594000000E+02  0.51100000000E-03 0.  1.
         11   -1    0    0    0    0 -0.00000000000E+00 -0.00000000000E+00 -0.45593999997E+02  0.45594000000E+02  0.51100000000E-03 0. -1.
    9900012    2    1    2    0    0 -0.91580125351E+01 -0.11377696266E+02  0.11720030273E+02  0.72461540764E+02  0.69999961531E+02 0.  0.
         12    1    1    2    0    0  0.91580125351E+01  0.11377696266E+02 -0.11720030273E+02  0.18726459236E+02  0.00000000000E+00 0. -1.
         11    1    3    3    0    0  0.44012189937E+01 -0.13984125584E+02 -0.13187802912E+02  0.19719144070E+02  0.51100000000E-03 0. -1.
        -11    1    3    3    0    0 -0.16962624986E+01  0.21810507285E+02  0.45478030313E+01  0.22344083046E+02  0.51100000000E-03 0.  1.
        -12    1    3    3    0    0 -0.11862969030E+02 -0.19204077967E+02  0.20360030153E+02  0.30398313648E+02  0.00000000000E+00 0.  1.
</event>
<event>
 7    1  0.1351543E-013  0.7246158E+02  0.7816164E-02  0.1226708E+00
        -11   -1    0    0    0    0  0.00000000000E+00  0.00000000000E+00  0.45593999997E+02  0.45594000000E+02  0.51100000000E-03 0. -1.
         11   -1    0    0    0    0 -0.00000000000E+00 -0.00000000000E+00 -0.45593999997E+02  0.45594000000E+02  0.51100000000E-03 0.  1.
    9900012    2    1    2    0    0  0.15684726388E+02 -0.84507567082E+01 -0.57665357015E+01  0.72461578430E+02  0.70000010598E+02 0.  0.
         12    1    1    2    0    0 -0.15684726388E+02  0.84507567082E+01  0.57665357015E+01  0.18726421570E+02  0.00000000000E+00 0. -1.
         11    1    3    3    0    0  0.59886292666E+01  0.15390534742E+02  0.13843472809E+02  0.21549338269E+02  0.51100000000E-03 0. -1.
        -11    1    3    3    0    0  0.19101599733E+02 -0.52290149622E+01 -0.22369639159E+02  0.29876654200E+02  0.51100000000E-03 0.  1.
        -12    1    3    3    0    0 -0.94055026108E+01 -0.18612276488E+02  0.27596306484E+01  0.21035585962E+02  0.00000000000E+00 0.  1.
</event>
<event>
 7    1  0.1351543E-013  0.7246153E+02  0.7816164E-02  0.1226708E+00
        -11   -1    0    0    0    0  0.00000000000E+00  0.00000000000E+00  0.45593999997E+02  0.45594000000E+02  0.51100000000E-03 0. -1.
         11   -1    0    0    0    0 -0.00000000000E+00 -0.00000000000E+00 -0.45593999997E+02  0.45594000000E+02  0.51100000000E-03 0.  1.
    9900012    2    1    2    0    0 -0.15528242393E+02  0.18432834090E+01 -0.10303241836E+02  0.72461526818E+02  0.69999943363E+02 0.  0.
         12    1    1    2    0    0  0.15528242393E+02 -0.18432834090E+01  0.10303241836E+02  0.18726473182E+02  0.00000000000E+00 0. -1.
         11    1    3    3    0    0 -0.12916095404E+02  0.14298077794E+02  0.18261659691E+02  0.26547104626E+02  0.51100000000E-03 0. -1.
        -11    1    3    3    0    0 -0.16508034894E+02 -0.13331860309E+02 -0.21844625961E+02  0.30453922555E+02  0.51100000000E-03 0.  1.
         12    1    3    3    0    0  0.13895887906E+02  0.87706592429E+00 -0.67202755661E+01  0.15460499636E+02  0.00000000000E+00 0. -1.
</event>
<event>
 7    1  0.1351543E-013  0.7246175E+02  0.7816164E-02  0.1226708E+00
        -11   -1    0    0    0    0  0.00000000000E+00  0.00000000000E+00  0.45593999997E+02  0.45594000000E+02  0.51100000000E-03 0.  1.
         11   -1    0    0    0    0 -0.00000000000E+00 -0.00000000000E+00 -0.45593999997E+02  0.45594000000E+02  0.51100000000E-03 0. -1.
    9900012    2    1    2    0    0  0.12411919838E+02  0.13953996799E+02 -0.13794263421E+01  0.72461745763E+02  0.70000228580E+02 0.  0.
         12    1    1    2    0    0 -0.12411919838E+02 -0.13953996799E+02  0.13794263421E+01  0.18726254237E+02  0.00000000000E+00 0. -1.
         11    1    3    3    0    0 -0.30759382733E+01 -0.91348862603E+01 -0.14460557622E+02  0.17378586544E+02  0.51100000000E-03 0. -1.
        -11    1    3    3    0    0 -0.73749147518E+01  0.27766299654E+02  0.13500544665E+02  0.31743053895E+02  0.51100000000E-03 0.  1.
        -12    1    3    3    0    0  0.22862772863E+02 -0.46774165947E+01 -0.41941338465E+00  0.23340105325E+02  0.00000000000E+00 0.  1.
</event>
<event>
 7    1  0.1351543E-013  0.7246160E+02  0.7816164E-02  0.1226708E+00
        -11   -1    0    0    0    0  0.00000000000E+00  0.00000000000E+00  0.45593999997E+02  0.45594000000E+02  0.51100000000E-03 0. -1.
         11   -1    0    0    0    0 -0.00000000000E+00 -0.00000000000E+00 -0.45593999997E+02  0.45594000000E+02  0.51100000000E-03 0.  1.
    9900012    2    1    2    0    0 -0.70069961783E+01  0.72525959744E+01 -0.15779095344E+02  0.72461601690E+02  0.70000040898E+02 0.  0.
         12    1    1    2    0    0  0.70069961783E+01 -0.72525959744E+01  0.15779095344E+02  0.18726398310E+02  0.00000000000E+00 0. -1.
         11    1    3    3    0    0  0.21308388887E+02 -0.61452090235E+01 -0.17454541352E+02  0.28221836315E+02  0.51100000000E-03 0. -1.
        -11    1    3    3    0    0 -0.23065066786E+02 -0.51443372597E+01 -0.43911269784E+01  0.24036295640E+02  0.51100000000E-03 0.  1.
         12    1    3    3    0    0 -0.52503182799E+01  0.18542142258E+02  0.60665729865E+01  0.20203469735E+02  0.00000000000E+00 0. -1.
</event>
<event>
 7    1  0.1351543E-013  0.7246160E+02  0.7816164E-02  0.1226708E+00
        -11   -1    0    0    0    0  0.00000000000E+00  0.00000000000E+00  0.45593999997E+02  0.45594000000E+02  0.51100000000E-03 0. -1.
         11   -1    0    0    0    0 -0.00000000000E+00 -0.00000000000E+00 -0.45593999997E+02  0.45594000000E+02  0.51100000000E-03 0.  1.
    9900012    2    1    2    0    0  0.43087801372E+01  0.11366352446E+02 -0.14244943773E+02  0.72461602127E+02  0.70000041468E+02 0.  0.
         12    1    1    2    0    0 -0.43087801372E+01 -0.11366352446E+02  0.14244943773E+02  0.18726397873E+02  0.00000000000E+00 0. -1.
         11    1    3    3    0    0  0.84649030867E+01 -0.27868053381E+02 -0.91070137932E+01  0.30515908703E+02  0.51100000000E-03 0. -1.
        -11    1    3    3    0    0 -0.72918628097E-02  0.33246866155E+02 -0.78701734910E+01  0.34165681514E+02  0.51100000000E-03 0.  1.
         12    1    3    3    0    0 -0.41488310866E+01  0.59875396717E+01  0.27322435109E+01  0.77800119093E+01  0.00000000000E+00 0. -1.
</event>
<event>
 7    1  0.1351543E-013  0.7246161E+02  0.7816164E-02  0.1226708E+00
        -11   -1    0    0    0    0  0.00000000000E+00  0.00000000000E+00  0.45593999997E+02  0.45594000000E+02  0.51100000000E-03 0.  1.
         11   -1    0    0    0    0 -0.00000000000E+00 -0.00000000000E+00 -0.45593999997E+02  0.45594000000E+02  0.51100000000E-03 0. -1.
    9900012    2    1    2    0    0 -0.15246014512E+02  0.70615673213E+00  0.10850715873E+02  0.72461610844E+02  0.70000052824E+02 0.  0.
         12    1    1    2    0    0  0.15246014512E+02 -0.70615673213E+00 -0.10850715873E+02  0.18726389156E+02  0.00000000000E+00 0. -1.
         11    1    3    3    0    0  0.14089220195E+01  0.17181682705E+01  0.32492483329E+02  0.32568368652E+02  0.51100000000E-03 0. -1.
        -11    1    3    3    0    0 -0.16167231463E+02  0.12098179508E+02 -0.15222229247E+02  0.25287577664E+02  0.51100000000E-03 0.  1.
         12    1    3    3    0    0 -0.48770506898E+00 -0.13110191047E+02 -0.64195382090E+01  0.14605664529E+02  0.00000000000E+00 0. -1.
</event>
<event>
 7    1  0.1351543E-013  0.7246162E+02  0.7816164E-02  0.1226708E+00
        -11   -1    0    0    0    0  0.00000000000E+00  0.00000000000E+00  0.45593999997E+02  0.45594000000E+02  0.51100000000E-03 0.  1.
         11   -1    0    0    0    0 -0.00000000000E+00 -0.00000000000E+00 -0.45593999997E+02  0.45594000000E+02  0.51100000000E-03 0. -1.
    9900012    2    1    2    0    0 -0.12437355877E+02  0.12032016868E+02 -0.71568299789E+01  0.72461615766E+02  0.70000059236E+02 0.  0.
         12    1    1    2    0    0  0.12437355877E+02 -0.12032016868E+02  0.71568299789E+01  0.18726384234E+02  0.00000000000E+00 0. -1.
         11    1    3    3    0    0 -0.63446141372E+01 -0.12399278510E+02 -0.10703743086E+02  0.17566056826E+02  0.51100000000E-03 0.  1.
        -11    1    3    3    0    0  0.13157290217E+02  0.60781810720E+01  0.19183224064E+02  0.24042767244E+02  0.51100000000E-03 0. -1.
        -12    1    3    3    0    0 -0.19250031957E+02  0.18353114306E+02 -0.15636310957E+02  0.30852791696E+02  0.00000000000E+00 0.  1.
</event>
<event>
 7    1  0.1351543E-013  0.7246149E+02  0.7816164E-02  0.1226708E+00
        -11   -1    0    0    0    0  0.00000000000E+00  0.00000000000E+00  0.45593999997E+02  0.45594000000E+02  0.51100000000E-03 0. -1.
         11   -1    0    0    0    0 -0.00000000000E+00 -0.00000000000E+00 -0.45593999997E+02  0.45594000000E+02  0.51100000000E-03 0.  1.
    9900012    2    1    2    0    0  0.10398801223E+02  0.12512687365E+02  0.92725271819E+01  0.72461490119E+02  0.69999895557E+02 0.  0.
         12    1    1    2    0    0 -0.10398801223E+02 -0.12512687365E+02 -0.92725271819E+01  0.18726509881E+02  0.00000000000E+00 0. -1.
         11    1    3    3    0    0 -0.26474181506E+01  0.11958500670E+02  0.22627868354E+02  0.25730040568E+02  0.51100000000E-03 0. -1.
        -11    1    3    3    0    0 -0.56424980819E+01  0.11368637127E+02 -0.20394195545E+02  0.24020968068E+02  0.51100000000E-03 0.  1.
         12    1    3    3    0    0  0.18688717456E+02 -0.10814450432E+02  0.70388543728E+01  0.22710481482E+02  0.00000000000E+00 0. -1.
</event>
<event>
 7    1  0.1620991E-013  0.7246155E+02  0.7816164E-02  0.1226708E+00
        -11   -1    0    0    0    0  0.00000000000E+00  0.00000000000E+00  0.45593999997E+02  0.45594000000E+02  0.51100000000E-03 0. -1.
         11   -1    0    0    0    0 -0.00000000000E+00 -0.00000000000E+00 -0.45593999997E+02  0.45594000000E+02  0.51100000000E-03 0.  1.
    9900012    2    1    2    0    0 -0.50114674828E+01  0.13507523422E+02 -0.11962943391E+02  0.72461547856E+02  0.69999970770E+02 0.  0.
         12    1    1    2    0    0  0.50114674828E+01 -0.13507523422E+02  0.11962943391E+02  0.18726452144E+02  0.00000000000E+00 0. -1.
         11    1    3    3    0    0 -0.86238838044E+01 -0.10493900369E+02  0.14321169924E+02  0.19738014720E+02  0.51100000000E-03 0. -1.
        -11    1    3    3    0    0  0.21101096359E+02  0.13043077422E+02 -0.11540115496E+02  0.27359685710E+02  0.51100000000E-03 0.  1.
         12    1    3    3    0    0 -0.17488680037E+02  0.10958346369E+02 -0.14743997819E+02  0.25363847426E+02  0.00000000000E+00 0. -1.
</event>
<event>
 7    1  0.1351543E-013  0.7246160E+02  0.7816164E-02  0.1226708E+00
        -11   -1    0    0    0    0  0.00000000000E+00  0.00000000000E+00  0.45593999997E+02  0.45594000000E+02  0.51100000000E-03 0.  1.
         11   -1    0    0    0    0 -0.00000000000E+00 -0.00000000000E+00 -0.45593999997E+02  0.45594000000E+02  0.51100000000E-03 0. -1.
    9900012    2    1    2    0    0  0.10287858684E+02 -0.58125546766E+01  0.14527638474E+02  0.72461598642E+02  0.70000036928E+02 0.  0.
         12    1    1    2    0    0 -0.10287858684E+02  0.58125546766E+01 -0.14527638474E+02  0.18726401358E+02  0.00000000000E+00 0. -1.
         11    1    3    3    0    0 -0.11639099256E+01 -0.13801092762E+02 -0.23154183467E+02  0.26980382874E+02  0.51100000000E-03 0. -1.
        -11    1    3    3    0    0  0.70958449133E+01  0.14275670370E+02  0.16421650744E+02  0.22887035478E+02  0.51100000000E-03 0.  1.
         12    1    3    3    0    0  0.43559236962E+01 -0.62871322848E+01  0.21260171198E+02  0.22594180290E+02  0.00000000000E+00 0. -1.
</event>
<event>
 7    1  0.1351543E-013  0.7246158E+02  0.7816164E-02  0.1226708E+00
        -11   -1    0    0    0    0  0.00000000000E+00  0.00000000000E+00  0.45593999997E+02  0.45594000000E+02  0.51100000000E-03 0. -1.
         11   -1    0    0    0    0 -0.00000000000E+00 -0.00000000000E+00 -0.45593999997E+02  0.45594000000E+02  0.51100000000E-03 0.  1.
    9900012    2    1    2    0    0 -0.10789314217E+02  0.70940818587E+01 -0.13562581495E+02  0.72461577077E+02  0.70000008835E+02 0.  0.
         12    1    1    2    0    0  0.10789314217E+02 -0.70940818587E+01  0.13562581495E+02  0.18726422923E+02  0.00000000000E+00 0. -1.
         11    1    3    3    0    0 -0.12211042874E+02 -0.18438525897E+02 -0.10400495563E+02  0.24438885276E+02  0.51100000000E-03 0. -1.
        -11    1    3    3    0    0  0.20858227693E+02  0.15164653480E+02 -0.32609580344E+01  0.25993580462E+02  0.51100000000E-03 0.  1.
        -12    1    3    3    0    0 -0.19436499037E+02  0.10367954276E+02  0.98872102297E-01  0.22029111339E+02  0.00000000000E+00 0.  1.
</event>
<event>
 7    1  0.1351543E-013  0.7246156E+02  0.7816164E-02  0.1226708E+00
        -11   -1    0    0    0    0  0.00000000000E+00  0.00000000000E+00  0.45593999997E+02  0.45594000000E+02  0.51100000000E-03 0.  1.
         11   -1    0    0    0    0 -0.00000000000E+00 -0.00000000000E+00 -0.45593999997E+02  0.45594000000E+02  0.51100000000E-03 0. -1.
    9900012    2    1    2    0    0 -0.91070977433E+01 -0.12768825099E+02  0.10232168428E+02  0.72461564288E+02  0.69999992176E+02 0.  0.
         12    1    1    2    0    0  0.91070977433E+01  0.12768825099E+02 -0.10232168428E+02  0.18726435712E+02  0.00000000000E+00 0. -1.
         11    1    3    3    0    0 -0.21434290895E+02  0.77210590113E+00 -0.46249523500E+01  0.21941174950E+02  0.51100000000E-03 0. -1.
        -11    1    3    3    0    0  0.23686939936E+01  0.96890468084E+01  0.22084743165E+02  0.24232709717E+02  0.51100000000E-03 0.  1.
         12    1    3    3    0    0  0.99584991584E+01 -0.23229977809E+02 -0.72276223867E+01  0.26287679621E+02  0.00000000000E+00 0. -1.
</event>
<event>
 7    1  0.1351543E-013  0.7246160E+02  0.7816164E-02  0.1226708E+00
        -11   -1    0    0    0    0  0.00000000000E+00  0.00000000000E+00  0.45593999997E+02  0.45594000000E+02  0.51100000000E-03 0.  1.
         11   -1    0    0    0    0 -0.00000000000E+00 -0.00000000000E+00 -0.45593999997E+02  0.45594000000E+02  0.51100000000E-03 0. -1.
    9900012    2    1    2    0    0  0.15593074870E+02  0.49124446750E+00  0.10358219557E+02  0.72461601056E+02  0.70000040073E+02 0.  0.
         12    1    1    2    0    0 -0.15593074870E+02 -0.49124446750E+00 -0.10358219557E+02  0.18726398944E+02  0.00000000000E+00 0. -1.
         11    1    3    3    0    0  0.70838534809E+01 -0.26510896138E+02  0.20801104767E+02  0.34433915751E+02  0.51100000000E-03 0. -1.
        -11    1    3    3    0    0  0.85652683793E+01  0.26472886750E+02 -0.25429925893E+00  0.27825208420E+02  0.51100000000E-03 0.  1.
        -12    1    3    3    0    0 -0.56046990620E-01  0.52925385594E+00 -0.10188585951E+02  0.10202476885E+02  0.00000000000E+00 0.  1.
</event>
<event>
 7    1  0.1351543E-013  0.7246161E+02  0.7816164E-02  0.1226708E+00
        -11   -1    0    0    0    0  0.00000000000E+00  0.00000000000E+00  0.45593999997E+02  0.45594000000E+02  0.51100000000E-03 0. -1.
         11   -1    0    0    0    0 -0.00000000000E+00 -0.00000000000E+00 -0.45593999997E+02  0.45594000000E+02  0.51100000000E-03 0.  1.
    9900012    2    1    2    0    0  0.17385971987E+02 -0.60567545300E+01  0.34236397331E+01  0.72461612030E+02  0.70000054369E+02 0.  0.
         12    1    1    2    0    0 -0.17385971987E+02  0.60567545300E+01 -0.34236397331E+01  0.18726387970E+02  0.00000000000E+00 0. -1.
         11    1    3    3    0    0  0.18322703049E+01 -0.12613102480E+01  0.18950001865E+02  0.19080112394E+02  0.51100000000E-03 0. -1.
        -11    1    3    3    0    0  0.23273138754E+02  0.16064385257E+02 -0.12557850429E+02  0.30941930593E+02  0.51100000000E-03 0.  1.
        -12    1    3    3    0    0 -0.77194370717E+01 -0.20859829539E+02 -0.29685117032E+01  0.22439569043E+02  0.00000000000E+00 0.  1.
</event>
<event>
 7    1  0.1351543E-013  0.7246152E+02  0.7816164E-02  0.1226708E+00
        -11   -1    0    0    0    0  0.00000000000E+00  0.00000000000E+00  0.45593999997E+02  0.45594000000E+02  0.51100000000E-03 0. -1.
         11   -1    0    0    0    0 -0.00000000000E+00 -0.00000000000E+00 -0.45593999997E+02  0.45594000000E+02  0.51100000000E-03 0.  1.
    9900012    2    1    2    0    0 -0.47939095964E+01 -0.41200847590E+00 -0.18097777755E+02  0.72461524627E+02  0.69999940510E+02 0.  0.
         12    1    1    2    0    0  0.47939095964E+01  0.41200847590E+00  0.18097777755E+02  0.18726475373E+02  0.00000000000E+00 0. -1.
         11    1    3    3    0    0 -0.53109836300E+01 -0.15198907529E+02  0.19796776527E+02  0.25517164778E+02  0.51100000000E-03 0. -1.
        -11    1    3    3    0    0 -0.96338277090E+01 -0.15219538080E+00 -0.13852562727E+02  0.16873864232E+02  0.51100000000E-03 0.  1.
         12    1    3    3    0    0  0.10150901743E+02  0.14939094434E+02 -0.24041991555E+02  0.30070495617E+02  0.00000000000E+00 0. -1.
</event>
<event>
 7    1  0.1351543E-013  0.7246095E+02  0.7816164E-02  0.1226710E+00
        -11   -1    0    0    0    0  0.00000000000E+00  0.00000000000E+00  0.45593999997E+02  0.45594000000E+02  0.51100000000E-03 0. -1.
         11   -1    0    0    0    0 -0.00000000000E+00 -0.00000000000E+00 -0.45593999997E+02  0.45594000000E+02  0.51100000000E-03 0.  1.
    9900012    2    1    2    0    0 -0.57114303902E+01  0.12864412871E+02 -0.12352692083E+02  0.72460945846E+02  0.69999186535E+02 0.  0.
         12    1    1    2    0    0  0.57114303902E+01 -0.12864412871E+02  0.12352692083E+02  0.18727054154E+02  0.00000000000E+00 0. -1.
         11    1    3    3    0    0 -0.47047278903E+00  0.25973876585E+02  0.25732385936E+01  0.26105270859E+02  0.51100000000E-03 0.  1.
        -11    1    3    3    0    0 -0.56611226770E+01 -0.25373474603E+02  0.12790115753E+01  0.26028780114E+02  0.51100000000E-03 0. -1.
        -12    1    3    3    0    0  0.42016507589E+00  0.12264010888E+02 -0.16204942252E+02  0.20326894872E+02  0.00000000000E+00 0.  1.
</event>
<event>
 7    1  0.1351543E-013  0.7246160E+02  0.7816164E-02  0.1226708E+00
        -11   -1    0    0    0    0  0.00000000000E+00  0.00000000000E+00  0.45593999997E+02  0.45594000000E+02  0.51100000000E-03 0. -1.
         11   -1    0    0    0    0 -0.00000000000E+00 -0.00000000000E+00 -0.45593999997E+02  0.45594000000E+02  0.51100000000E-03 0.  1.
    9900012    2    1    2    0    0 -0.13201948012E+02  0.75164070486E+01 -0.10949433468E+02  0.72461604205E+02  0.70000044174E+02 0.  0.
         12    1    1    2    0    0  0.13201948012E+02 -0.75164070486E+01  0.10949433468E+02  0.18726395795E+02  0.00000000000E+00 0. -1.
         11    1    3    3    0    0 -0.14618789667E+02 -0.29517487213E+02 -0.43929107070E+01  0.33230840005E+02  0.51100000000E-03 0. -1.
        -11    1    3    3    0    0 -0.32381736703E+01  0.30376511320E+02 -0.54817507309E+01  0.31036555866E+02  0.51100000000E-03 0.  1.
         12    1    3    3    0    0  0.46550153253E+01  0.66573829410E+01 -0.10747720299E+01  0.81942083339E+01  0.00000000000E+00 0. -1.
</event>
<event>
 7    1  0.1351543E-013  0.7246158E+02  0.7816164E-02  0.1226708E+00
        -11   -1    0    0    0    0  0.00000000000E+00  0.00000000000E+00  0.45593999997E+02  0.45594000000E+02  0.51100000000E-03 0.  1.
         11   -1    0    0    0    0 -0.00000000000E+00 -0.00000000000E+00 -0.45593999997E+02  0.45594000000E+02  0.51100000000E-03 0. -1.
    9900012    2    1    2    0    0 -0.30792539969E+01 -0.13814823355E+02  0.12261631787E+02  0.72461581133E+02  0.70000014119E+02 0.  0.
         12    1    1    2    0    0  0.30792539969E+01  0.13814823355E+02 -0.12261631787E+02  0.18726418867E+02  0.00000000000E+00 0. -1.
         11    1    3    3    0    0  0.32436008034E+02 -0.72675640231E+01 -0.78507435210E+00  0.33249487906E+02  0.51100000000E-03 0. -1.
        -11    1    3    3    0    0 -0.27801136040E+02 -0.42197737757E+01  0.65768124738E+01  0.28878436911E+02  0.51100000000E-03 0.  1.
         12    1    3    3    0    0 -0.77141259904E+01 -0.23274855559E+01  0.64698936656E+01  0.10333656316E+02  0.00000000000E+00 0. -1.
</event>
<event>
 7    1  0.1351543E-013  0.7246159E+02  0.7816164E-02  0.1226708E+00
        -11   -1    0    0    0    0  0.00000000000E+00  0.00000000000E+00  0.45593999997E+02  0.45594000000E+02  0.51100000000E-03 0. -1.
         11   -1    0    0    0    0 -0.00000000000E+00 -0.00000000000E+00 -0.45593999997E+02  0.45594000000E+02  0.51100000000E-03 0.  1.
    9900012    2    1    2    0    0 -0.17740702480E+02  0.22598602774E+01 -0.55532759000E+01  0.72461591743E+02  0.70000027941E+02 0.  0.
         12    1    1    2    0    0  0.17740702480E+02 -0.22598602774E+01  0.55532759000E+01  0.18726408257E+02  0.00000000000E+00 0. -1.
         11    1    3    3    0    0 -0.12981306529E+02  0.11938085508E+02 -0.95175887722E+01  0.20040376770E+02  0.51100000000E-03 0. -1.
        -11    1    3    3    0    0  0.14556200703E+02 -0.22155266378E+02  0.10503932945E+02  0.28514407144E+02  0.51100000000E-03 0.  1.
        -12    1    3    3    0    0 -0.19315596654E+02  0.12477041148E+02 -0.65396200732E+01  0.23906807830E+02  0.00000000000E+00 0.  1.
</event>
<event>
 7    1  0.2387593E-013  0.7246158E+02  0.7816164E-02  0.1226708E+00
        -11   -1    0    0    0    0  0.00000000000E+00  0.00000000000E+00  0.45593999997E+02  0.45594000000E+02  0.51100000000E-03 0. -1.
         11   -1    0    0    0    0 -0.00000000000E+00 -0.00000000000E+00 -0.45593999997E+02  0.45594000000E+02  0.51100000000E-03 0.  1.
    9900012    2    1    2    0    0  0.63585540143E+01  0.16415057538E+02 -0.63869681562E+01  0.72461583221E+02  0.70000016840E+02 0.  0.
         12    1    1    2    0    0 -0.63585540143E+01 -0.16415057538E+02  0.63869681562E+01  0.18726416779E+02  0.00000000000E+00 0. -1.
         11    1    3    3    0    0 -0.12156975056E+02 -0.13643437265E+02  0.91773810767E+01  0.20448954658E+02  0.51100000000E-03 0. -1.
        -11    1    3    3    0    0  0.20292897723E+02  0.18739372508E+02  0.53782779475E+01  0.28140569538E+02  0.51100000000E-03 0.  1.
         12    1    3    3    0    0 -0.17773686521E+01  0.11319122296E+02 -0.20942627180E+02  0.23872059025E+02  0.00000000000E+00 0. -1.
</event>
<event>
 7    1  0.1351543E-013  0.7246158E+02  0.7816164E-02  0.1226708E+00
        -11   -1    0    0    0    0  0.00000000000E+00  0.00000000000E+00  0.45593999997E+02  0.45594000000E+02  0.51100000000E-03 0. -1.
         11   -1    0    0    0    0 -0.00000000000E+00 -0.00000000000E+00 -0.45593999997E+02  0.45594000000E+02  0.51100000000E-03 0.  1.
    9900012    2    1    2    0    0  0.93631975800E+01 -0.14482564991E+02  0.72982629362E+01  0.72461580173E+02  0.70000012869E+02 0.  0.
         12    1    1    2    0    0 -0.93631975800E+01  0.14482564991E+02 -0.72982629362E+01  0.18726419827E+02  0.00000000000E+00 0. -1.
         11    1    3    3    0    0  0.25601153588E+01  0.19435770200E+02  0.22287697507E+02  0.29682399067E+02  0.51100000000E-03 0. -1.
        -11    1    3    3    0    0  0.11566253173E+02 -0.27428018982E+02 -0.53904947185E+01  0.30251146611E+02  0.51100000000E-03 0.  1.
        -12    1    3    3    0    0 -0.47631709518E+01 -0.64903162091E+01 -0.95989398527E+01  0.12528034495E+02  0.00000000000E+00 0.  1.
</event>
<event>
 7    1  0.1351543E-013  0.7246160E+02  0.7816164E-02  0.1226708E+00
        -11   -1    0    0    0    0  0.00000000000E+00  0.00000000000E+00  0.45593999997E+02  0.45594000000E+02  0.51100000000E-03 0.  1.
         11   -1    0    0    0    0 -0.00000000000E+00 -0.00000000000E+00 -0.45593999997E+02  0.45594000000E+02  0.51100000000E-03 0. -1.
    9900012    2    1    2    0    0 -0.10442499042E+02  0.34445345204E+01 -0.15158086161E+02  0.72461596705E+02  0.70000034404E+02 0.  0.
         12    1    1    2    0    0  0.10442499042E+02 -0.34445345204E+01  0.15158086161E+02  0.18726403295E+02  0.00000000000E+00 0. -1.
         11    1    3    3    0    0  0.94352410492E+01  0.37651717580E+01 -0.31387587122E+02  0.32990618631E+02  0.51100000000E-03 0. -1.
        -11    1    3    3    0    0 -0.23996753117E+01 -0.99176686363E+01  0.16648895833E+02  0.19527015274E+02  0.51100000000E-03 0.  1.
         12    1    3    3    0    0 -0.17478064780E+02  0.95970313987E+01 -0.41939487172E+00  0.19943962800E+02  0.00000000000E+00 0. -1.
</event>
<event>
 7    1  0.1351543E-013  0.7246157E+02  0.7816164E-02  0.1226708E+00
        -11   -1    0    0    0    0  0.00000000000E+00  0.00000000000E+00  0.45593999997E+02  0.45594000000E+02  0.51100000000E-03 0.  1.
         11   -1    0    0    0    0 -0.00000000000E+00 -0.00000000000E+00 -0.45593999997E+02  0.45594000000E+02  0.51100000000E-03 0. -1.
    9900012    2    1    2    0    0  0.17922910166E+02  0.33274302441E+01  0.42868191433E+01  0.72461566298E+02  0.69999994793E+02 0.  0.
         12    1    1    2    0    0 -0.17922910166E+02 -0.33274302441E+01 -0.42868191433E+01  0.18726433702E+02  0.00000000000E+00 0. -1.
         11    1    3    3    0    0  0.11364068968E+02 -0.25329869981E+02 -0.84815297339E+01  0.29028963531E+02  0.51100000000E-03 0. -1.
        -11    1    3    3    0    0  0.28376492583E+01  0.22420834652E+02  0.22099060202E+02  0.31608773179E+02  0.51100000000E-03 0.  1.
         12    1    3    3    0    0  0.37211919393E+01  0.62364655730E+01 -0.93307113250E+01  0.11823829588E+02  0.00000000000E+00 0. -1.
</event>
<event>
 7    1  0.1351543E-013  0.7246148E+02  0.7816164E-02  0.1226708E+00
        -11   -1    0    0    0    0  0.00000000000E+00  0.00000000000E+00  0.45593999997E+02  0.45594000000E+02  0.51100000000E-03 0. -1.
         11   -1    0    0    0    0 -0.00000000000E+00 -0.00000000000E+00 -0.45593999997E+02  0.45594000000E+02  0.51100000000E-03 0.  1.
    9900012    2    1    2    0    0  0.10047275605E+02 -0.72552882079E+01 -0.14039073899E+02  0.72461480035E+02  0.69999882421E+02 0.  0.
         12    1    1    2    0    0 -0.10047275605E+02  0.72552882079E+01  0.14039073899E+02  0.18726519965E+02  0.00000000000E+00 0. -1.
         11    1    3    3    0    0 -0.38063654396E+01  0.18034493625E+02 -0.19849662322E+02  0.27087644281E+02  0.51100000000E-03 0. -1.
        -11    1    3    3    0    0  0.57254920929E+00 -0.28461046502E+02  0.11339885947E+02  0.30642323576E+02  0.51100000000E-03 0.  1.
         12    1    3    3    0    0  0.13281091835E+02  0.31712646697E+01 -0.55292975232E+01  0.14731512178E+02  0.00000000000E+00 0. -1.
</event>
<event>
 7    1  0.1351543E-013  0.7246162E+02  0.7816164E-02  0.1226708E+00
        -11   -1    0    0    0    0  0.00000000000E+00  0.00000000000E+00  0.45593999997E+02  0.45594000000E+02  0.51100000000E-03 0.  1.
         11   -1    0    0    0    0 -0.00000000000E+00 -0.00000000000E+00 -0.45593999997E+02  0.45594000000E+02  0.51100000000E-03 0. -1.
    9900012    2    1    2    0    0 -0.41576667358E+01  0.17327015328E+02 -0.57589674308E+01  0.72461618643E+02  0.70000062983E+02 0.  0.
         12    1    1    2    0    0  0.41576667358E+01 -0.17327015328E+02  0.57589674308E+01  0.18726381357E+02  0.00000000000E+00 0. -1.
         11    1    3    3    0    0 -0.15771110537E+02  0.10534125828E+02  0.53648677948E+01  0.19709833618E+02  0.51100000000E-03 0. -1.
        -11    1    3    3    0    0  0.20955077936E+02  0.18732481078E+02 -0.20623138968E+02  0.34861655150E+02  0.51100000000E-03 0.  1.
        -12    1    3    3    0    0 -0.93416341343E+01 -0.11939591578E+02  0.94993037421E+01  0.17890129875E+02  0.00000000000E+00 0.  1.
</event>
<event>
 7    1  0.1351543E-013  0.7246150E+02  0.7816164E-02  0.1226708E+00
        -11   -1    0    0    0    0  0.00000000000E+00  0.00000000000E+00  0.45593999997E+02  0.45594000000E+02  0.51100000000E-03 0. -1.
         11   -1    0    0    0    0 -0.00000000000E+00 -0.00000000000E+00 -0.45593999997E+02  0.45594000000E+02  0.51100000000E-03 0.  1.
    9900012    2    1    2    0    0  0.10989272626E+02 -0.14969192198E+02 -0.24168326036E+01  0.72461497184E+02  0.69999904760E+02 0.  0.
         12    1    1    2    0    0 -0.10989272626E+02  0.14969192198E+02  0.24168326036E+01  0.18726502816E+02  0.00000000000E+00 0. -1.
         11    1    3    3    0    0  0.29403550885E+02 -0.12463998270E+02 -0.10720659594E+02  0.33687573375E+02  0.51100000000E-03 0. -1.
        -11    1    3    3    0    0 -0.13720661906E+02  0.14063208084E+02 -0.19140343842E-01  0.19647665290E+02  0.51100000000E-03 0.  1.
         12    1    3    3    0    0 -0.46936163535E+01 -0.16568402011E+02  0.83229673343E+01  0.19126258519E+02  0.00000000000E+00 0. -1.
</event>
<event>
 7    1  0.1351543E-013  0.7246159E+02  0.7816164E-02  0.1226708E+00
        -11   -1    0    0    0    0  0.00000000000E+00  0.00000000000E+00  0.45593999997E+02  0.45594000000E+02  0.51100000000E-03 0. -1.
         11   -1    0    0    0    0 -0.00000000000E+00 -0.00000000000E+00 -0.45593999997E+02  0.45594000000E+02  0.51100000000E-03 0.  1.
    9900012    2    1    2    0    0  0.16684652527E+02 -0.44170910154E+01 -0.72656929463E+01  0.72461585047E+02  0.70000019219E+02 0.  0.
         12    1    1    2    0    0 -0.16684652527E+02  0.44170910154E+01  0.72656929463E+01  0.18726414953E+02  0.00000000000E+00 0. -1.
         11    1    3    3    0    0 -0.19811223258E+02  0.62052662259E+01  0.13747454319E+02  0.24899445706E+02  0.51100000000E-03 0. -1.
        -11    1    3    3    0    0  0.27098632738E+02 -0.20485200486E+01 -0.59018717323E+01  0.27809430430E+02  0.51100000000E-03 0.  1.
         12    1    3    3    0    0  0.93972430479E+01 -0.85738371928E+01 -0.15111275533E+02  0.19752708912E+02  0.00000000000E+00 0. -1.
</event>
<event>
 7    1  0.1351543E-013  0.7246163E+02  0.7816164E-02  0.1226708E+00
        -11   -1    0    0    0    0  0.00000000000E+00  0.00000000000E+00  0.45593999997E+02  0.45594000000E+02  0.51100000000E-03 0.  1.
         11   -1    0    0    0    0 -0.00000000000E+00 -0.00000000000E+00 -0.45593999997E+02  0.45594000000E+02  0.51100000000E-03 0. -1.
    9900012    2    1    2    0    0 -0.90524051224E+01 -0.84326985666E+01  0.14057758640E+02  0.72461627644E+02  0.70000074709E+02 0.  0.
         12    1    1    2    0    0  0.90524051224E+01  0.84326985666E+01 -0.14057758640E+02  0.18726372356E+02  0.00000000000E+00 0. -1.
         11    1    3    3    0    0 -0.62189404818E+01  0.26607571311E+02 -0.89055638406E-01  0.27324823932E+02  0.51100000000E-03 0. -1.
        -11    1    3    3    0    0 -0.61374839602E+01 -0.11195422496E+02  0.16597190710E+02  0.20939745318E+02  0.51100000000E-03 0.  1.
         12    1    3    3    0    0  0.33040193197E+01 -0.23844847381E+02 -0.24503764318E+01  0.24197058394E+02  0.00000000000E+00 0. -1.
</event>
<event>
 7    1  0.1351543E-013  0.7246156E+02  0.7816164E-02  0.1226708E+00
        -11   -1    0    0    0    0  0.00000000000E+00  0.00000000000E+00  0.45593999997E+02  0.45594000000E+02  0.51100000000E-03 0. -1.
         11   -1    0    0    0    0 -0.00000000000E+00 -0.00000000000E+00 -0.45593999997E+02  0.45594000000E+02  0.51100000000E-03 0.  1.
    9900012    2    1    2    0    0  0.26386735661E+01 -0.15403760462E+02 -0.10317029458E+02  0.72461560632E+02  0.69999987413E+02 0.  0.
         12    1    1    2    0    0 -0.26386735661E+01  0.15403760462E+02  0.10317029458E+02  0.18726439368E+02  0.00000000000E+00 0. -1.
         11    1    3    3    0    0  0.31983027872E+02 -0.15336784054E+02  0.59403401648E+01  0.35964130165E+02  0.51100000000E-03 0. -1.
        -11    1    3    3    0    0 -0.15583915634E+02 -0.72032764983E+01 -0.89361979402E+01  0.19354618381E+02  0.51100000000E-03 0.  1.
         12    1    3    3    0    0 -0.13760438672E+02  0.71363000898E+01 -0.73211716828E+01  0.17142812086E+02  0.00000000000E+00 0. -1.
</event>
<event>
 7    1  0.1351543E-013  0.7246160E+02  0.7816164E-02  0.1226708E+00
        -11   -1    0    0    0    0  0.00000000000E+00  0.00000000000E+00  0.45593999997E+02  0.45594000000E+02  0.51100000000E-03 0. -1.
         11   -1    0    0    0    0 -0.00000000000E+00 -0.00000000000E+00 -0.45593999997E+02  0.45594000000E+02  0.51100000000E-03 0.  1.
    9900012    2    1    2    0    0 -0.17176382222E+02  0.44301237603E+01 -0.60020025226E+01  0.72461597861E+02  0.70000035911E+02 0.  0.
         12    1    1    2    0    0  0.17176382222E+02 -0.44301237603E+01  0.60020025226E+01  0.18726402139E+02  0.00000000000E+00 0. -1.
         11    1    3    3    0    0  0.12078974744E+02  0.28901178404E+02 -0.11502461655E+02  0.33368943171E+02  0.51100000000E-03 0.  1.
        -11    1    3    3    0    0 -0.20361584924E+02 -0.19021302000E+02  0.65063964126E+01  0.28613585321E+02  0.51100000000E-03 0. -1.
        -12    1    3    3    0    0 -0.88937720430E+01 -0.54497526439E+01 -0.10059372805E+01  0.10479069369E+02  0.00000000000E+00 0.  1.
</event>
<event>
 7    1  0.1351543E-013  0.7246157E+02  0.7816164E-02  0.1226708E+00
        -11   -1    0    0    0    0  0.00000000000E+00  0.00000000000E+00  0.45593999997E+02  0.45594000000E+02  0.51100000000E-03 0. -1.
         11   -1    0    0    0    0 -0.00000000000E+00 -0.00000000000E+00 -0.45593999997E+02  0.45594000000E+02  0.51100000000E-03 0.  1.
    9900012    2    1    2    0    0 -0.13003544245E+02  0.13219977117E+02 -0.26113289386E+01  0.72461574908E+02  0.70000006010E+02 0.  0.
         12    1    1    2    0    0  0.13003544245E+02 -0.13219977117E+02  0.26113289386E+01  0.18726425092E+02  0.00000000000E+00 0. -1.
         11    1    3    3    0    0 -0.28693914455E+02  0.17447427048E+02  0.20232763521E+02  0.39206098470E+02  0.51100000000E-03 0.  1.
        -11    1    3    3    0    0  0.18961145670E+02 -0.16293485790E+01 -0.21822716707E+02  0.28955323978E+02  0.51100000000E-03 0. -1.
         12    1    3    3    0    0 -0.32707754610E+01 -0.25981013515E+01 -0.10213757527E+01  0.43001524597E+01  0.00000000000E+00 0. -1.
</event>
<event>
 7    1  0.1351543E-013  0.7246147E+02  0.7816164E-02  0.1226708E+00
        -11   -1    0    0    0    0  0.00000000000E+00  0.00000000000E+00  0.45593999997E+02  0.45594000000E+02  0.51100000000E-03 0.  1.
         11   -1    0    0    0    0 -0.00000000000E+00 -0.00000000000E+00 -0.45593999997E+02  0.45594000000E+02  0.51100000000E-03 0. -1.
    9900012    2    1    2    0    0  0.58637293963E+00 -0.64652492826E+01  0.17565294102E+02  0.72461472335E+02  0.69999872390E+02 0.  0.
         12    1    1    2    0    0 -0.58637293963E+00  0.64652492826E+01 -0.17565294102E+02  0.18726527665E+02  0.00000000000E+00 0. -1.
         11    1    3    3    0    0 -0.11182374742E+02  0.11595836169E+02 -0.16632313653E+02  0.23154757158E+02  0.51100000000E-03 0. -1.
        -11    1    3    3    0    0 -0.21289141719E+01 -0.19480597955E+02  0.11696981302E+02  0.22822036371E+02  0.51100000000E-03 0.  1.
         12    1    3    3    0    0  0.13897661854E+02  0.14195125040E+01  0.22500626452E+02  0.26484678807E+02  0.00000000000E+00 0. -1.
</event>
<event>
 7    1  0.1351543E-013  0.7246154E+02  0.7816164E-02  0.1226708E+00
        -11   -1    0    0    0    0  0.00000000000E+00  0.00000000000E+00  0.45593999997E+02  0.45594000000E+02  0.51100000000E-03 0.  1.
         11   -1    0    0    0    0 -0.00000000000E+00 -0.00000000000E+00 -0.45593999997E+02  0.45594000000E+02  0.51100000000E-03 0. -1.
    9900012    2    1    2    0    0 -0.11520851346E+02  0.13175902501E+02  0.66592709749E+01  0.72461539780E+02  0.69999960249E+02 0.  0.
         12    1    1    2    0    0  0.11520851346E+02 -0.13175902501E+02 -0.66592709749E+01  0.18726460220E+02  0.00000000000E+00 0. -1.
         11    1    3    3    0    0  0.28210390773E+02  0.98000576867E+01 -0.52245759329E+01  0.30317708887E+02  0.51100000000E-03 0. -1.
        -11    1    3    3    0    0 -0.16578290414E+02  0.33923910306E+01  0.78019747205E+01  0.18633809051E+02  0.51100000000E-03 0.  1.
         12    1    3    3    0    0 -0.23152951706E+02 -0.16546216627E-01  0.40818721873E+01  0.23510021842E+02  0.00000000000E+00 0. -1.
</event>
<event>
 7    1  0.1351543E-013  0.7246157E+02  0.7816164E-02  0.1226708E+00
        -11   -1    0    0    0    0  0.00000000000E+00  0.00000000000E+00  0.45593999997E+02  0.45594000000E+02  0.51100000000E-03 0.  1.
         11   -1    0    0    0    0 -0.00000000000E+00 -0.00000000000E+00 -0.45593999997E+02  0.45594000000E+02  0.51100000000E-03 0. -1.
    9900012    2    1    2    0    0 -0.18267651273E+02  0.21991204032E+01  0.34836834293E+01  0.72461567777E+02  0.69999996720E+02 0.  0.
         12    1    1    2    0    0  0.18267651273E+02 -0.21991204032E+01 -0.34836834293E+01  0.18726432223E+02  0.00000000000E+00 0. -1.
         11    1    3    3    0    0 -0.38647657770E+02  0.81909228633E+01 -0.14850997971E+02  0.42205269925E+02  0.51100000000E-03 0. -1.
        -11    1    3    3    0    0  0.17636102501E+02 -0.11892330087E+01  0.17089893606E+02  0.24586802360E+02  0.51100000000E-03 0.  1.
         12    1    3    3    0    0  0.27439039963E+01 -0.48025694514E+01  0.12447877942E+01  0.56694954916E+01  0.00000000000E+00 0. -1.
</event>
<event>
 7    1  0.1351543E-013  0.7246153E+02  0.7816164E-02  0.1226708E+00
        -11   -1    0    0    0    0  0.00000000000E+00  0.00000000000E+00  0.45593999997E+02  0.45594000000E+02  0.51100000000E-03 0.  1.
         11   -1    0    0    0    0 -0.00000000000E+00 -0.00000000000E+00 -0.45593999997E+02  0.45594000000E+02  0.51100000000E-03 0. -1.
    9900012    2    1    2    0    0  0.12793813221E+01 -0.12699367753E+02  0.13702920691E+02  0.72461526938E+02  0.69999943520E+02 0.  0.
         12    1    1    2    0    0 -0.12793813221E+01  0.12699367753E+02 -0.13702920691E+02  0.18726473062E+02  0.00000000000E+00 0. -1.
         11    1    3    3    0    0  0.58605706970E+01  0.10371476463E+02 -0.25863698202E+01  0.12190288020E+02  0.51100000000E-03 0. -1.
        -11    1    3    3    0    0 -0.27689915452E+02 -0.13640870220E+02  0.76232266391E+00  0.30876947618E+02  0.51100000000E-03 0.  1.
        -12    1    3    3    0    0  0.23108726077E+02 -0.94299739952E+01  0.15526967848E+02  0.29394291299E+02  0.00000000000E+00 0.  1.
</event>
<event>
 7    1  0.1351543E-013  0.7246159E+02  0.7816164E-02  0.1226708E+00
        -11   -1    0    0    0    0  0.00000000000E+00  0.00000000000E+00  0.45593999997E+02  0.45594000000E+02  0.51100000000E-03 0. -1.
         11   -1    0    0    0    0 -0.00000000000E+00 -0.00000000000E+00 -0.45593999997E+02  0.45594000000E+02  0.51100000000E-03 0.  1.
    9900012    2    1    2    0    0  0.13936061850E+02  0.72578135443E+01 -0.10187681828E+02  0.72461587146E+02  0.70000021953E+02 0.  0.
         12    1    1    2    0    0 -0.13936061850E+02 -0.72578135443E+01  0.10187681828E+02  0.18726412854E+02  0.00000000000E+00 0. -1.
         11    1    3    3    0    0 -0.15757472763E+02  0.65799640617E+01  0.15265790465E+01  0.17144221148E+02  0.51100000000E-03 0. -1.
        -11    1    3    3    0    0  0.19827156339E+02 -0.29584174169E+01 -0.28898714467E+02  0.35171068511E+02  0.51100000000E-03 0.  1.
        -12    1    3    3    0    0  0.98663782739E+01  0.36362668995E+01  0.17184453592E+02  0.20146297488E+02  0.00000000000E+00 0.  1.
</event>
<event>
 7    1  0.1351543E-013  0.7246165E+02  0.7816164E-02  0.1226708E+00
        -11   -1    0    0    0    0  0.00000000000E+00  0.00000000000E+00  0.45593999997E+02  0.45594000000E+02  0.51100000000E-03 0.  1.
         11   -1    0    0    0    0 -0.00000000000E+00 -0.00000000000E+00 -0.45593999997E+02  0.45594000000E+02  0.51100000000E-03 0. -1.
    9900012    2    1    2    0    0  0.11404413946E+02  0.20957779425E+01  0.14704526984E+02  0.72461653414E+02  0.70000108278E+02 0.  0.
         12    1    1    2    0    0 -0.11404413946E+02 -0.20957779425E+01 -0.14704526984E+02  0.18726346586E+02  0.00000000000E+00 0. -1.
         11    1    3    3    0    0  0.14777218617E+02 -0.82597709873E+00  0.33320011250E+02  0.36459176872E+02  0.51100000000E-03 0.  1.
        -11    1    3    3    0    0 -0.14972194920E+02 -0.59524935887E+01 -0.11204949795E+02  0.19625231229E+02  0.51100000000E-03 0. -1.
         12    1    3    3    0    0  0.11599390249E+02  0.88742486299E+01 -0.74105344708E+01  0.16377245313E+02  0.00000000000E+00 0. -1.
</event>
<event>
 7    1  0.1351543E-013  0.7246156E+02  0.7816164E-02  0.1226708E+00
        -11   -1    0    0    0    0  0.00000000000E+00  0.00000000000E+00  0.45593999997E+02  0.45594000000E+02  0.51100000000E-03 0.  1.
         11   -1    0    0    0    0 -0.00000000000E+00 -0.00000000000E+00 -0.45593999997E+02  0.45594000000E+02  0.51100000000E-03 0. -1.
    9900012    2    1    2    0    0  0.15567212411E+02 -0.10012184988E+02 -0.28456079623E+01  0.72461563201E+02  0.69999990760E+02 0.  0.
         12    1    1    2    0    0 -0.15567212411E+02  0.10012184988E+02  0.28456079623E+01  0.18726436799E+02  0.00000000000E+00 0. -1.
         11    1    3    3    0    0  0.21426804338E+02  0.10762589358E+02 -0.13048333446E+02  0.27298356724E+02  0.51100000000E-03 0. -1.
        -11    1    3    3    0    0  0.19328196611E+01 -0.24261892121E+02  0.20475593800E+02  0.31806055128E+02  0.51100000000E-03 0.  1.
        -12    1    3    3    0    0 -0.77924115878E+01  0.34871177740E+01 -0.10272868316E+02  0.13357151349E+02  0.00000000000E+00 0.  1.
</event>
<event>
 7    1  0.1351543E-013  0.7246159E+02  0.7816164E-02  0.1226708E+00
        -11   -1    0    0    0    0  0.00000000000E+00  0.00000000000E+00  0.45593999997E+02  0.45594000000E+02  0.51100000000E-03 0. -1.
         11   -1    0    0    0    0 -0.00000000000E+00 -0.00000000000E+00 -0.45593999997E+02  0.45594000000E+02  0.51100000000E-03 0.  1.
    9900012    2    1    2    0    0 -0.14055505528E+02 -0.29506090973E+01 -0.12017278822E+02  0.72461592978E+02  0.70000029549E+02 0.  0.
         12    1    1    2    0    0  0.14055505528E+02  0.29506090973E+01  0.12017278822E+02  0.18726407022E+02  0.00000000000E+00 0. -1.
         11    1    3    3    0    0 -0.12675576594E+02 -0.68380690654E+01  0.21643435049E+02  0.25997455866E+02  0.51100000000E-03 0. -1.
        -11    1    3    3    0    0  0.86085754134E+00 -0.12292893850E+02 -0.46506533740E+01  0.13171366368E+02  0.51100000000E-03 0.  1.
         12    1    3    3    0    0 -0.22407864752E+01  0.16180353818E+02 -0.29010060497E+02  0.33292770744E+02  0.00000000000E+00 0. -1.
</event>
<event>
 7    1  0.1351543E-013  0.7246157E+02  0.7816164E-02  0.1226708E+00
        -11   -1    0    0    0    0  0.00000000000E+00  0.00000000000E+00  0.45593999997E+02  0.45594000000E+02  0.51100000000E-03 0.  1.
         11   -1    0    0    0    0 -0.00000000000E+00 -0.00000000000E+00 -0.45593999997E+02  0.45594000000E+02  0.51100000000E-03 0. -1.
    9900012    2    1    2    0    0 -0.26682281675E+01  0.52934279790E+01  0.17763431010E+02  0.72461566742E+02  0.69999995372E+02 0.  0.
         12    1    1    2    0    0  0.26682281675E+01 -0.52934279790E+01 -0.17763431010E+02  0.18726433258E+02  0.00000000000E+00 0. -1.
         11    1    3    3    0    0  0.38160818828E+01 -0.12290899774E+02  0.58391469901E+01  0.14132386069E+02  0.51100000000E-03 0. -1.
        -11    1    3    3    0    0 -0.71739986983E+01  0.23416874333E+02  0.30344715685E+02  0.38995102655E+02  0.51100000000E-03 0.  1.
        -12    1    3    3    0    0  0.68968864797E+00 -0.58325465806E+01 -0.18420431665E+02  0.19334078017E+02  0.00000000000E+00 0.  1.
</event>
<event>
 7    1  0.1351543E-013  0.7246137E+02  0.7816164E-02  0.1226709E+00
        -11   -1    0    0    0    0  0.00000000000E+00  0.00000000000E+00  0.45593999997E+02  0.45594000000E+02  0.51100000000E-03 0.  1.
         11   -1    0    0    0    0 -0.00000000000E+00 -0.00000000000E+00 -0.45593999997E+02  0.45594000000E+02  0.51100000000E-03 0. -1.
    9900012    2    1    2    0    0 -0.15215551540E+01 -0.19930846509E+01  0.18557992759E+02  0.72461371586E+02  0.69999741145E+02 0.  0.
         12    1    1    2    0    0  0.15215551540E+01  0.19930846509E+01 -0.18557992759E+02  0.18726628414E+02  0.00000000000E+00 0. -1.
         11    1    3    3    0    0 -0.14344323584E+02 -0.18415785228E+02  0.29213039933E+01  0.23525194621E+02  0.51100000000E-03 0. -1.
        -11    1    3    3    0    0  0.13945763218E+01 -0.31041725313E+01  0.24427299079E+02  0.24663204795E+02  0.51100000000E-03 0.  1.
         12    1    3    3    0    0  0.11428192108E+02  0.19526873109E+02 -0.87906103131E+01  0.24272972170E+02  0.00000000000E+00 0. -1.
</event>
<event>
 7    1  0.1351543E-013  0.7246155E+02  0.7816164E-02  0.1226708E+00
        -11   -1    0    0    0    0  0.00000000000E+00  0.00000000000E+00  0.45593999997E+02  0.45594000000E+02  0.51100000000E-03 0.  1.
         11   -1    0    0    0    0 -0.00000000000E+00 -0.00000000000E+00 -0.45593999997E+02  0.45594000000E+02  0.51100000000E-03 0. -1.
    9900012    2    1    2    0    0  0.45737380370E+01 -0.16496413110E+02  0.75914010908E+01  0.72461545567E+02  0.69999967788E+02 0.  0.
         12    1    1    2    0    0 -0.45737380370E+01  0.16496413110E+02 -0.75914010908E+01  0.18726454433E+02  0.00000000000E+00 0. -1.
         11    1    3    3    0    0 -0.27160707988E+02 -0.14551240874E+02  0.10044811051E+02  0.32408963246E+02  0.51100000000E-03 0. -1.
        -11    1    3    3    0    0  0.21141784562E+02 -0.20246511199E+01 -0.13164943741E+02  0.24987797234E+02  0.51100000000E-03 0.  1.
         12    1    3    3    0    0  0.10592661463E+02  0.79478883814E-01  0.10711533781E+02  0.15064785087E+02  0.00000000000E+00 0. -1.
</event>
<event>
 8    1  0.1351543E-013  0.7246154E+02  0.7816164E-02  0.1226708E+00
        -11   -1    0    0    0    0  0.00000000000E+00  0.00000000000E+00  0.45593999997E+02  0.45594000000E+02  0.51100000000E-03 0.  1.
         11   -1    0    0    0    0 -0.00000000000E+00 -0.00000000000E+00 -0.45593999997E+02  0.45594000000E+02  0.51100000000E-03 0. -1.
    9900012    2    1    2    0    0  0.71044486859E+01  0.67895614691E+01  0.15940793509E+02  0.72461541878E+02  0.69999962983E+02 0.  0.
         24    2    3    3    0    0  0.71456090744E+01  0.22891352772E+01  0.24943150903E+02  0.62396852664E+02  0.56700146173E+02 0.  0.
         12    1    1    2    0    0 -0.71044486859E+01 -0.67895614691E+01 -0.15940793509E+02  0.18726458122E+02  0.00000000000E+00 0. -1.
         11    1    3    3    0    0 -0.41160388513E-01  0.45004261919E+01 -0.90023573932E+01  0.10064689214E+02  0.51100000000E-03 0. -1.
        -11    1    4    4    0    0 -0.22263966480E+02 -0.95700240340E+01  0.17308612396E+02  0.29780154915E+02  0.51100000000E-03 0.  1.
         12    1    4    4    0    0  0.29409575554E+02  0.11859159311E+02  0.76345385062E+01  0.32616697749E+02  0.00000000000E+00 0. -1.
</event>
<event>
 7    1  0.1351543E-013  0.7246155E+02  0.7816164E-02  0.1226708E+00
        -11   -1    0    0    0    0  0.00000000000E+00  0.00000000000E+00  0.45593999997E+02  0.45594000000E+02  0.51100000000E-03 0.  1.
         11   -1    0    0    0    0 -0.00000000000E+00 -0.00000000000E+00 -0.45593999997E+02  0.45594000000E+02  0.51100000000E-03 0. -1.
    9900012    2    1    2    0    0  0.52360243308E+01 -0.48944154830E+01  0.17300534936E+02  0.72461554454E+02  0.69999979365E+02 0.  0.
         12    1    1    2    0    0 -0.52360243308E+01  0.48944154830E+01 -0.17300534936E+02  0.18726445546E+02  0.00000000000E+00 0. -1.
         11    1    3    3    0    0  0.26288467046E+02 -0.13962008812E+02  0.24718635799E+02  0.38691499656E+02  0.51100000000E-03 0.  1.
        -11    1    3    3    0    0 -0.19186077807E+02  0.16046264836E+02 -0.86022690602E+01  0.26449711342E+02  0.51100000000E-03 0. -1.
         12    1    3    3    0    0 -0.18663649076E+01 -0.69786715078E+01  0.11841681981E+01  0.73203434553E+01  0.00000000000E+00 0. -1.
</event>
<event>
 7    1  0.1351543E-013  0.7246158E+02  0.7816164E-02  0.1226708E+00
        -11   -1    0    0    0    0  0.00000000000E+00  0.00000000000E+00  0.45593999997E+02  0.45594000000E+02  0.51100000000E-03 0. -1.
         11   -1    0    0    0    0 -0.00000000000E+00 -0.00000000000E+00 -0.45593999997E+02  0.45594000000E+02  0.51100000000E-03 0.  1.
    9900012    2    1    2    0    0  0.15580705244E+02  0.33429557045E+01  0.98359001235E+01  0.72461583899E+02  0.70000017722E+02 0.  0.
         12    1    1    2    0    0 -0.15580705244E+02 -0.33429557045E+01 -0.98359001235E+01  0.18726416101E+02  0.00000000000E+00 0. -1.
         11    1    3    3    0    0  0.65708183780E+01  0.24564327923E+02  0.16916840476E+02  0.30541141964E+02  0.51100000000E-03 0. -1.
        -11    1    3    3    0    0  0.11512867036E+01 -0.45918220271E+01 -0.19278063649E+02  0.19850794163E+02  0.51100000000E-03 0.  1.
        -12    1    3    3    0    0  0.78586001628E+01 -0.16629550192E+02  0.12197123296E+02  0.22069647772E+02  0.00000000000E+00 0.  1.
</event>
<event>
 7    1  0.1351543E-013  0.7246176E+02  0.7816164E-02  0.1226708E+00
        -11   -1    0    0    0    0  0.00000000000E+00  0.00000000000E+00  0.45593999997E+02  0.45594000000E+02  0.51100000000E-03 0.  1.
         11   -1    0    0    0    0 -0.00000000000E+00 -0.00000000000E+00 -0.45593999997E+02  0.45594000000E+02  0.51100000000E-03 0. -1.
    9900012    2    1    2    0    0 -0.16918387590E+02  0.78485957284E+01 -0.16851270209E+01  0.72461763148E+02  0.70000251227E+02 0.  0.
         12    1    1    2    0    0  0.16918387590E+02 -0.78485957284E+01  0.16851270209E+01  0.18726236852E+02  0.00000000000E+00 0. -1.
         11    1    3    3    0    0  0.19128089967E+02 -0.11742812056E+01 -0.17718898207E+02  0.26100232108E+02  0.51100000000E-03 0. -1.
        -11    1    3    3    0    0 -0.34486993041E+01  0.14242458198E+01  0.12096713089E+02  0.12659086494E+02  0.51100000000E-03 0.  1.
         12    1    3    3    0    0 -0.32597778254E+02  0.75986311142E+01  0.39370580971E+01  0.33702444546E+02  0.00000000000E+00 0. -1.
</event>
<event>
 8    1  0.1351543E-013  0.7246155E+02  0.7816164E-02  0.1226708E+00
        -11   -1    0    0    0    0  0.00000000000E+00  0.00000000000E+00  0.45593999997E+02  0.45594000000E+02  0.51100000000E-03 0. -1.
         11   -1    0    0    0    0 -0.00000000000E+00 -0.00000000000E+00 -0.45593999997E+02  0.45594000000E+02  0.51100000000E-03 0.  1.
    9900012    2    1    2    0    0 -0.14793803643E+02  0.86578108740E+01  0.75409267192E+01  0.72461551027E+02  0.69999974901E+02 0.  0.
        -24    2    3    3    0    0 -0.26013388650E+02  0.17219385643E+01  0.14275792377E+02  0.57651290120E+02  0.49398497377E+02 0.  0.
         12    1    1    2    0    0  0.14793803643E+02 -0.86578108740E+01 -0.75409267192E+01  0.18726448973E+02  0.00000000000E+00 0. -1.
         11    1    4    4    0    0 -0.27309107472E+02 -0.18116783326E+02 -0.67022560937E+00  0.32778871116E+02  0.51100000000E-03 0. -1.
        -11    1    3    3    0    0  0.11219585007E+02  0.69358723097E+01 -0.67348656574E+01  0.14810260906E+02  0.51100000000E-03 0.  1.
        -12    1    4    4    0    0  0.12957188219E+01  0.19838721890E+02  0.14946017986E+02  0.24872419005E+02  0.00000000000E+00 0.  1.
</event>
<event>
 7    1  0.1351543E-013  0.7246162E+02  0.7816164E-02  0.1226708E+00
        -11   -1    0    0    0    0  0.00000000000E+00  0.00000000000E+00  0.45593999997E+02  0.45594000000E+02  0.51100000000E-03 0. -1.
         11   -1    0    0    0    0 -0.00000000000E+00 -0.00000000000E+00 -0.45593999997E+02  0.45594000000E+02  0.51100000000E-03 0.  1.
    9900012    2    1    2    0    0  0.14603956399E+02  0.17629771897E+01 -0.11588508999E+02  0.72461623632E+02  0.70000069482E+02 0.  0.
         12    1    1    2    0    0 -0.14603956399E+02 -0.17629771897E+01  0.11588508999E+02  0.18726376368E+02  0.00000000000E+00 0. -1.
         11    1    3    3    0    0 -0.91402338401E+01  0.60128812206E+01 -0.27590176381E+02  0.29680236660E+02  0.51100000000E-03 0. -1.
        -11    1    3    3    0    0  0.14779617596E+02 -0.17966998497E+02  0.86440506262E+01  0.24818737735E+02  0.51100000000E-03 0.  1.
         12    1    3    3    0    0  0.89645726435E+01  0.13717094466E+02  0.73576167558E+01  0.17962649237E+02  0.00000000000E+00 0. -1.
</event>
<event>
 7    1  0.1351543E-013  0.7246164E+02  0.7816164E-02  0.1226708E+00
        -11   -1    0    0    0    0  0.00000000000E+00  0.00000000000E+00  0.45593999997E+02  0.45594000000E+02  0.51100000000E-03 0. -1.
         11   -1    0    0    0    0 -0.00000000000E+00 -0.00000000000E+00 -0.45593999997E+02  0.45594000000E+02  0.51100000000E-03 0.  1.
    9900012    2    1    2    0    0  0.25560227307E+01  0.43409671891E+01 -0.18036053200E+02  0.72461642549E+02  0.70000094125E+02 0.  0.
         12    1    1    2    0    0 -0.25560227307E+01 -0.43409671891E+01  0.18036053200E+02  0.18726357451E+02  0.00000000000E+00 0. -1.
         11    1    3    3    0    0 -0.26374870782E+02 -0.80381419577E+01  0.20257234813E+01  0.27646864032E+02  0.51100000000E-03 0. -1.
        -11    1    3    3    0    0  0.20204228233E+02  0.18432453965E+02 -0.20509257381E+02  0.34184731040E+02  0.51100000000E-03 0.  1.
        -12    1    3    3    0    0  0.87266652797E+01 -0.60533448180E+01  0.44748069997E+00  0.10630047477E+02  0.00000000000E+00 0.  1.
</event>
<event>
 7    1  0.1351543E-013  0.7246157E+02  0.7816164E-02  0.1226708E+00
        -11   -1    0    0    0    0  0.00000000000E+00  0.00000000000E+00  0.45593999997E+02  0.45594000000E+02  0.51100000000E-03 0.  1.
         11   -1    0    0    0    0 -0.00000000000E+00 -0.00000000000E+00 -0.45593999997E+02  0.45594000000E+02  0.51100000000E-03 0. -1.
    9900012    2    1    2    0    0  0.51130155441E+01  0.17781441011E+02 -0.28907520110E+01  0.72461574298E+02  0.70000005216E+02 0.  0.
         12    1    1    2    0    0 -0.51130155441E+01 -0.17781441011E+02  0.28907520110E+01  0.18726425702E+02  0.00000000000E+00 0. -1.
         11    1    3    3    0    0  0.10367945468E+02  0.61093962165E+01 -0.48436686262E+01  0.12972283584E+02  0.51100000000E-03 0. -1.
        -11    1    3    3    0    0 -0.18941818627E+02 -0.16836977280E+02 -0.75921067467E+01  0.26455932831E+02  0.51100000000E-03 0.  1.
        -12    1    3    3    0    0  0.13686888703E+02  0.28509022075E+02  0.95450233619E+01  0.33033357883E+02  0.00000000000E+00 0.  1.
</event>
<event>
 7    1  0.1351543E-013  0.7246139E+02  0.7816164E-02  0.1226708E+00
        -11   -1    0    0    0    0  0.00000000000E+00  0.00000000000E+00  0.45593999997E+02  0.45594000000E+02  0.51100000000E-03 0.  1.
         11   -1    0    0    0    0 -0.00000000000E+00 -0.00000000000E+00 -0.45593999997E+02  0.45594000000E+02  0.51100000000E-03 0. -1.
    9900012    2    1    2    0    0  0.10728301597E+01  0.23675920836E+01  0.18545331970E+02  0.72461393401E+02  0.69999769563E+02 0.  0.
         12    1    1    2    0    0 -0.10728301597E+01 -0.23675920836E+01 -0.18545331970E+02  0.18726606599E+02  0.00000000000E+00 0. -1.
         11    1    3    3    0    0  0.65357740660E+01 -0.20690100774E+02  0.19092843195E+00  0.21698688131E+02  0.51100000000E-03 0. -1.
        -11    1    3    3    0    0 -0.22961843542E+02  0.11450805613E+02  0.58291080393E+01  0.26312462994E+02  0.51100000000E-03 0.  1.
        -12    1    3    3    0    0  0.17498899636E+02  0.11606887245E+02  0.12525295499E+02  0.24450242275E+02  0.00000000000E+00 0.  1.
</event>
<event>
 7    1  0.1351543E-013  0.7246160E+02  0.7816164E-02  0.1226708E+00
        -11   -1    0    0    0    0  0.00000000000E+00  0.00000000000E+00  0.45593999997E+02  0.45594000000E+02  0.51100000000E-03 0. -1.
         11   -1    0    0    0    0 -0.00000000000E+00 -0.00000000000E+00 -0.45593999997E+02  0.45594000000E+02  0.51100000000E-03 0.  1.
    9900012    2    1    2    0    0 -0.34090093013E+01 -0.66335015526E+01 -0.17177121820E+02  0.72461596147E+02  0.70000033678E+02 0.  0.
         12    1    1    2    0    0  0.34090093013E+01  0.66335015526E+01  0.17177121820E+02  0.18726403853E+02  0.00000000000E+00 0. -1.
         11    1    3    3    0    0  0.13564131136E+02 -0.21529572910E+02  0.12606260828E+02  0.28397640316E+02  0.51100000000E-03 0. -1.
        -11    1    3    3    0    0 -0.50164166192E+01  0.11876011986E+02 -0.28965114323E+02  0.31704604467E+02  0.51100000000E-03 0.  1.
         12    1    3    3    0    0 -0.11956723818E+02  0.30200593717E+01 -0.81826832475E+00  0.12359351364E+02  0.00000000000E+00 0. -1.
</event>
<event>
 7    1  0.1351543E-013  0.7246144E+02  0.7816164E-02  0.1226708E+00
        -11   -1    0    0    0    0  0.00000000000E+00  0.00000000000E+00  0.45593999997E+02  0.45594000000E+02  0.51100000000E-03 0. -1.
         11   -1    0    0    0    0 -0.00000000000E+00 -0.00000000000E+00 -0.45593999997E+02  0.45594000000E+02  0.51100000000E-03 0.  1.
    9900012    2    1    2    0    0 -0.22226807425E+01  0.89186107934E+01 -0.16315699798E+02  0.72461441638E+02  0.69999832402E+02 0.  0.
         12    1    1    2    0    0  0.22226807425E+01 -0.89186107934E+01  0.16315699798E+02  0.18726558362E+02  0.00000000000E+00 0. -1.
         11    1    3    3    0    0 -0.21268965515E+02 -0.48669774544E+01  0.19282523401E+02  0.29118242951E+02  0.51100000000E-03 0. -1.
        -11    1    3    3    0    0  0.52719090603E-01 -0.71648695576E+00 -0.47461068054E+00  0.86103915096E+00  0.51100000000E-03 0.  1.
         12    1    3    3    0    0  0.18993565682E+02  0.14502075203E+02 -0.35123612518E+02  0.42482159536E+02  0.00000000000E+00 0. -1.
</event>
<event>
 7    1  0.1351543E-013  0.7246165E+02  0.7816164E-02  0.1226708E+00
        -11   -1    0    0    0    0  0.00000000000E+00  0.00000000000E+00  0.45593999997E+02  0.45594000000E+02  0.51100000000E-03 0.  1.
         11   -1    0    0    0    0 -0.00000000000E+00 -0.00000000000E+00 -0.45593999997E+02  0.45594000000E+02  0.51100000000E-03 0. -1.
    9900012    2    1    2    0    0  0.33676772410E+01 -0.13444917786E+02  0.12592428931E+02  0.72461646093E+02  0.70000098742E+02 0.  0.
         12    1    1    2    0    0 -0.33676772410E+01  0.13444917786E+02 -0.12592428931E+02  0.18726353907E+02  0.00000000000E+00 0. -1.
         11    1    3    3    0    0  0.50463466304E+01 -0.31091403941E+02  0.81758480650E+01  0.32542057482E+02  0.51100000000E-03 0. -1.
        -11    1    3    3    0    0  0.79565544358E+01  0.12302990607E+02  0.17494344636E+02  0.22819343349E+02  0.51100000000E-03 0.  1.
        -12    1    3    3    0    0 -0.96352238252E+01  0.53434955478E+01 -0.13077763769E+02  0.17100245263E+02  0.00000000000E+00 0.  1.
</event>
<event>
 7    1  0.1351543E-013  0.7246154E+02  0.7816164E-02  0.1226708E+00
        -11   -1    0    0    0    0  0.00000000000E+00  0.00000000000E+00  0.45593999997E+02  0.45594000000E+02  0.51100000000E-03 0.  1.
         11   -1    0    0    0    0 -0.00000000000E+00 -0.00000000000E+00 -0.45593999997E+02  0.45594000000E+02  0.51100000000E-03 0. -1.
    9900012    2    1    2    0    0 -0.95441765053E+01  0.10798598814E+02 -0.11957390438E+02  0.72461542044E+02  0.69999963198E+02 0.  0.
         12    1    1    2    0    0  0.95441765053E+01 -0.10798598814E+02  0.11957390438E+02  0.18726457956E+02  0.00000000000E+00 0. -1.
         11    1    3    3    0    0 -0.22548008182E+02 -0.29674403131E+01  0.22185812943E+02  0.31771507222E+02  0.51100000000E-03 0. -1.
        -11    1    3    3    0    0  0.11129457620E+02  0.41080842301E+01 -0.14617445926E+02  0.18825804329E+02  0.51100000000E-03 0.  1.
         12    1    3    3    0    0  0.18743740560E+01  0.96579548971E+01 -0.19525757454E+02  0.21864230493E+02  0.00000000000E+00 0. -1.
</event>
<event>
 7    1  0.1351543E-013  0.7246159E+02  0.7816164E-02  0.1226708E+00
        -11   -1    0    0    0    0  0.00000000000E+00  0.00000000000E+00  0.45593999997E+02  0.45594000000E+02  0.51100000000E-03 0.  1.
         11   -1    0    0    0    0 -0.00000000000E+00 -0.00000000000E+00 -0.45593999997E+02  0.45594000000E+02  0.51100000000E-03 0. -1.
    9900012    2    1    2    0    0 -0.79542118226E+01 -0.78887649968E+01  0.15005879031E+02  0.72461588053E+02  0.70000023134E+02 0.  0.
         12    1    1    2    0    0  0.79542118226E+01  0.78887649968E+01 -0.15005879031E+02  0.18726411947E+02  0.00000000000E+00 0. -1.
         11    1    3    3    0    0  0.91760940373E+01 -0.18296694617E+02 -0.16222816314E+02  0.26117991981E+02  0.51100000000E-03 0. -1.
        -11    1    3    3    0    0 -0.45310910317E+01 -0.44365439005E+01  0.25163623576E+02  0.25950369158E+02  0.51100000000E-03 0.  1.
         12    1    3    3    0    0 -0.12599214828E+02  0.14844473521E+02  0.60650717699E+01  0.20393226914E+02  0.00000000000E+00 0. -1.
</event>
<event>
 7    1  0.1351543E-013  0.7246157E+02  0.7816164E-02  0.1226708E+00
        -11   -1    0    0    0    0  0.00000000000E+00  0.00000000000E+00  0.45593999997E+02  0.45594000000E+02  0.51100000000E-03 0. -1.
         11   -1    0    0    0    0 -0.00000000000E+00 -0.00000000000E+00 -0.45593999997E+02  0.45594000000E+02  0.51100000000E-03 0.  1.
    9900012    2    1    2    0    0  0.13183167888E+02  0.13094727226E+02  0.23261986238E+01  0.72461574908E+02  0.70000006010E+02 0.  0.
         12    1    1    2    0    0 -0.13183167888E+02 -0.13094727226E+02 -0.23261986238E+01  0.18726425092E+02  0.00000000000E+00 0. -1.
         11    1    3    3    0    0  0.27087442109E+02  0.67657479477E+01  0.50628393306E+01  0.28374939782E+02  0.51100000000E-03 0. -1.
        -11    1    3    3    0    0 -0.27214713029E+02  0.21199187542E+01  0.55453345585E+01  0.27854719464E+02  0.51100000000E-03 0.  1.
        -12    1    3    3    0    0  0.13310438809E+02  0.42090605239E+01 -0.82819752653E+01  0.16231915662E+02  0.00000000000E+00 0.  1.
</event>
<event>
 7    1  0.1351543E-013  0.7246157E+02  0.7816164E-02  0.1226708E+00
        -11   -1    0    0    0    0  0.00000000000E+00  0.00000000000E+00  0.45593999997E+02  0.45594000000E+02  0.51100000000E-03 0.  1.
         11   -1    0    0    0    0 -0.00000000000E+00 -0.00000000000E+00 -0.45593999997E+02  0.45594000000E+02  0.51100000000E-03 0. -1.
    9900012    2    1    2    0    0  0.14952037351E+02 -0.38972108812E+01  0.10579576708E+02  0.72461571699E+02  0.70000001830E+02 0.  0.
         12    1    1    2    0    0 -0.14952037351E+02  0.38972108812E+01 -0.10579576708E+02  0.18726428301E+02  0.00000000000E+00 0. -1.
         11    1    3    3    0    0 -0.64521573848E+01 -0.52630812835E+01 -0.83613875268E+01  0.11800133946E+02  0.51100000000E-03 0. -1.
        -11    1    3    3    0    0  0.33452346512E+02  0.16737140732E+02  0.79162331023E+01  0.38234253148E+02  0.51100000000E-03 0.  1.
        -12    1    3    3    0    0 -0.12048151776E+02 -0.15371270330E+02  0.11024731132E+02  0.22427184605E+02  0.00000000000E+00 0.  1.
</event>
<event>
 7    1  0.1351543E-013  0.7246163E+02  0.7816164E-02  0.1226708E+00
        -11   -1    0    0    0    0  0.00000000000E+00  0.00000000000E+00  0.45593999997E+02  0.45594000000E+02  0.51100000000E-03 0.  1.
         11   -1    0    0    0    0 -0.00000000000E+00 -0.00000000000E+00 -0.45593999997E+02  0.45594000000E+02  0.51100000000E-03 0. -1.
    9900012    2    1    2    0    0  0.10571837127E+02 -0.92934266763E+01  0.12350935067E+02  0.72461625106E+02  0.70000071402E+02 0.  0.
         12    1    1    2    0    0 -0.10571837127E+02  0.92934266763E+01 -0.12350935067E+02  0.18726374894E+02  0.00000000000E+00 0. -1.
         11    1    3    3    0    0  0.95609537777E+00 -0.39153960877E+01  0.30601986944E+02  0.30866260708E+02  0.51100000000E-03 0.  1.
        -11    1    3    3    0    0 -0.65535492880E-02 -0.10342953485E+02 -0.26197030217E+02  0.28164891660E+02  0.51100000000E-03 0. -1.
        -12    1    3    3    0    0  0.96222952989E+01  0.49649228965E+01  0.79459783408E+01  0.13430472738E+02  0.00000000000E+00 0.  1.
</event>
<event>
 7    1  0.1351543E-013  0.7246162E+02  0.7816164E-02  0.1226708E+00
        -11   -1    0    0    0    0  0.00000000000E+00  0.00000000000E+00  0.45593999997E+02  0.45594000000E+02  0.51100000000E-03 0. -1.
         11   -1    0    0    0    0 -0.00000000000E+00 -0.00000000000E+00 -0.45593999997E+02  0.45594000000E+02  0.51100000000E-03 0.  1.
    9900012    2    1    2    0    0 -0.49291568065E+01  0.48883154400E+01 -0.17392101349E+02  0.72461617434E+02  0.70000061408E+02 0.  0.
         12    1    1    2    0    0  0.49291568065E+01 -0.48883154400E+01  0.17392101349E+02  0.18726382566E+02  0.00000000000E+00 0. -1.
         11    1    3    3    0    0  0.75162390279E+01  0.13644291736E+02  0.36995351762E+01  0.16010843416E+02  0.51100000000E-03 0. -1.
        -11    1    3    3    0    0 -0.78162196531E+00 -0.20598427720E+02  0.86697419329E+01  0.22362258000E+02  0.51100000000E-03 0.  1.
        -12    1    3    3    0    0 -0.11663773869E+02  0.11842451424E+02 -0.29761378458E+02  0.34088516018E+02  0.00000000000E+00 0.  1.
</event>
<event>
 7    1  0.1351543E-013  0.7246161E+02  0.7816164E-02  0.1226708E+00
        -11   -1    0    0    0    0  0.00000000000E+00  0.00000000000E+00  0.45593999997E+02  0.45594000000E+02  0.51100000000E-03 0.  1.
         11   -1    0    0    0    0 -0.00000000000E+00 -0.00000000000E+00 -0.45593999997E+02  0.45594000000E+02  0.51100000000E-03 0. -1.
    9900012    2    1    2    0    0  0.55928785628E+01  0.17429678782E+02  0.39501516022E+01  0.72461609778E+02  0.70000051435E+02 0.  0.
         12    1    1    2    0    0 -0.55928785628E+01 -0.17429678782E+02 -0.39501516022E+01  0.18726390222E+02  0.00000000000E+00 0. -1.
         11    1    3    3    0    0 -0.50394883306E+01 -0.16225796027E+02 -0.77051410965E-01  0.16990551389E+02  0.51100000000E-03 0. -1.
        -11    1    3    3    0    0 -0.12011136396E+02  0.30084260419E+02  0.18957987123E+01  0.32448793128E+02  0.51100000000E-03 0.  1.
        -12    1    3    3    0    0  0.22643503290E+02  0.35712143894E+01  0.21314043009E+01  0.23022265261E+02  0.00000000000E+00 0.  1.
</event>
<event>
 7    1  0.1351543E-013  0.7246155E+02  0.7816164E-02  0.1226708E+00
        -11   -1    0    0    0    0  0.00000000000E+00  0.00000000000E+00  0.45593999997E+02  0.45594000000E+02  0.51100000000E-03 0.  1.
         11   -1    0    0    0    0 -0.00000000000E+00 -0.00000000000E+00 -0.45593999997E+02  0.45594000000E+02  0.51100000000E-03 0. -1.
    9900012    2    1    2    0    0  0.10093543806E+02  0.14059679725E+02  0.71502142501E+01  0.72461553878E+02  0.69999978615E+02 0.  0.
         12    1    1    2    0    0 -0.10093543806E+02 -0.14059679725E+02 -0.71502142501E+01  0.18726446122E+02  0.00000000000E+00 0. -1.
         11    1    3    3    0    0 -0.16322164074E+02  0.16838397845E+00  0.18930069966E+02  0.24995778492E+02  0.51100000000E-03 0. -1.
        -11    1    3    3    0    0  0.25820256231E+02  0.22649500384E+01  0.56285433719E+01  0.26523501489E+02  0.51100000000E-03 0.  1.
        -12    1    3    3    0    0  0.59545164911E+00  0.11626345708E+02 -0.17408399088E+02  0.20942273897E+02  0.00000000000E+00 0.  1.
</event>
<event>
 7    1  0.1351543E-013  0.7246147E+02  0.7816164E-02  0.1226708E+00
        -11   -1    0    0    0    0  0.00000000000E+00  0.00000000000E+00  0.45593999997E+02  0.45594000000E+02  0.51100000000E-03 0.  1.
         11   -1    0    0    0    0 -0.00000000000E+00 -0.00000000000E+00 -0.45593999997E+02  0.45594000000E+02  0.51100000000E-03 0. -1.
    9900012    2    1    2    0    0 -0.15874393761E+02  0.60397431683E+01 -0.78872104859E+01  0.72461468979E+02  0.69999868018E+02 0.  0.
         12    1    1    2    0    0  0.15874393761E+02 -0.60397431683E+01  0.78872104859E+01  0.18726531021E+02  0.00000000000E+00 0. -1.
         11    1    3    3    0    0 -0.24589625803E+02 -0.10267069512E+02  0.19536952999E+02  0.33041715244E+02  0.51100000000E-03 0. -1.
        -11    1    3    3    0    0  0.30654058360E+00  0.18243249547E+02 -0.12291362181E+02  0.21999720582E+02  0.51100000000E-03 0.  1.
         12    1    3    3    0    0  0.84086914581E+01 -0.19364368663E+01 -0.15132801304E+02  0.17420033153E+02  0.00000000000E+00 0. -1.
</event>
<event>
 7    1  0.1351543E-013  0.7246147E+02  0.7816164E-02  0.1226708E+00
        -11   -1    0    0    0    0  0.00000000000E+00  0.00000000000E+00  0.45593999997E+02  0.45594000000E+02  0.51100000000E-03 0. -1.
         11   -1    0    0    0    0 -0.00000000000E+00 -0.00000000000E+00 -0.45593999997E+02  0.45594000000E+02  0.51100000000E-03 0.  1.
    9900012    2    1    2    0    0 -0.62205085313E+01 -0.10361469224E+02 -0.14304824043E+02  0.72461474381E+02  0.69999875055E+02 0.  0.
         12    1    1    2    0    0  0.62205085313E+01  0.10361469224E+02  0.14304824043E+02  0.18726525619E+02  0.00000000000E+00 0. -1.
         11    1    3    3    0    0 -0.13451575687E+02  0.20447840872E+02  0.10219096483E+02  0.26523367395E+02  0.51100000000E-03 0. -1.
        -11    1    3    3    0    0  0.70675876749E+00  0.98132331016E+00 -0.10525177446E+02  0.10594426078E+02  0.51100000000E-03 0.  1.
         12    1    3    3    0    0  0.65243083881E+01 -0.31790633406E+02 -0.13998743080E+02  0.35343680908E+02  0.00000000000E+00 0. -1.
</event>
<event>
 7    1  0.1351543E-013  0.7246160E+02  0.7816164E-02  0.1226708E+00
        -11   -1    0    0    0    0  0.00000000000E+00  0.00000000000E+00  0.45593999997E+02  0.45594000000E+02  0.51100000000E-03 0. -1.
         11   -1    0    0    0    0 -0.00000000000E+00 -0.00000000000E+00 -0.45593999997E+02  0.45594000000E+02  0.51100000000E-03 0.  1.
    9900012    2    1    2    0    0 -0.16039795208E+02 -0.78950267386E+01  0.55741882409E+01  0.72461600131E+02  0.70000038867E+02 0.  0.
         12    1    1    2    0    0  0.16039795208E+02  0.78950267386E+01 -0.55741882409E+01  0.18726399869E+02  0.00000000000E+00 0. -1.
         11    1    3    3    0    0  0.99410351456E+01 -0.21732040986E+02 -0.10914588595E+02  0.26272305374E+02  0.51100000000E-03 0.  1.
        -11    1    3    3    0    0  0.68050183750E+00  0.14866363731E+02  0.12034183840E+02  0.19138793961E+02  0.51100000000E-03 0. -1.
         12    1    3    3    0    0 -0.26661332191E+02 -0.10293494835E+01  0.44545929962E+01  0.27050500796E+02  0.00000000000E+00 0. -1.
</event>
<event>
 7    1  0.1351543E-013  0.7246212E+02  0.7816164E-02  0.1226707E+00
        -11   -1    0    0    0    0  0.00000000000E+00  0.00000000000E+00  0.45593999997E+02  0.45594000000E+02  0.51100000000E-03 0.  1.
         11   -1    0    0    0    0 -0.00000000000E+00 -0.00000000000E+00 -0.45593999997E+02  0.45594000000E+02  0.51100000000E-03 0. -1.
    9900012    2    1    2    0    0  0.50664455953E+01  0.15950126746E+02  0.84013749133E+01  0.72462121793E+02  0.70000718426E+02 0.  0.
         12    1    1    2    0    0 -0.50664455953E+01 -0.15950126746E+02 -0.84013749133E+01  0.18725878207E+02  0.00000000000E+00 0. -1.
         11    1    3    3    0    0  0.77951885642E+01  0.60152137283E+01  0.23233801130E+02  0.25234049936E+02  0.51100000000E-03 0.  1.
        -11    1    3    3    0    0 -0.67484685069E+01  0.19462836800E+02 -0.25224681951E+02  0.32567290696E+02  0.51100000000E-03 0. -1.
         12    1    3    3    0    0  0.40197255380E+01 -0.95279237824E+01  0.10392255734E+02  0.14660781161E+02  0.00000000000E+00 0. -1.
</event>
<event>
 7    1  0.1351543E-013  0.7246164E+02  0.7816164E-02  0.1226708E+00
        -11   -1    0    0    0    0  0.00000000000E+00  0.00000000000E+00  0.45593999997E+02  0.45594000000E+02  0.51100000000E-03 0.  1.
         11   -1    0    0    0    0 -0.00000000000E+00 -0.00000000000E+00 -0.45593999997E+02  0.45594000000E+02  0.51100000000E-03 0. -1.
    9900012    2    1    2    0    0  0.87522101148E+01 -0.84111418899E+01  0.14259310503E+02  0.72461643553E+02  0.70000095432E+02 0.  0.
         12    1    1    2    0    0 -0.87522101148E+01  0.84111418899E+01 -0.14259310503E+02  0.18726356447E+02  0.00000000000E+00 0. -1.
         11    1    3    3    0    0  0.60944848150E+01 -0.11924016760E+02 -0.15318668477E+02  0.20346658817E+02  0.51100000000E-03 0. -1.
        -11    1    3    3    0    0 -0.82634738910E+01 -0.11015134844E+02  0.30963199814E+02  0.33887135307E+02  0.51100000000E-03 0.  1.
        -12    1    3    3    0    0  0.10921199191E+02  0.14528009714E+02 -0.13852208340E+01  0.18227849428E+02  0.00000000000E+00 0.  1.
</event>
<event>
 7    1  0.1351543E-013  0.7246232E+02  0.7816164E-02  0.1226706E+00
        -11   -1    0    0    0    0  0.00000000000E+00  0.00000000000E+00  0.45593999997E+02  0.45594000000E+02  0.51100000000E-03 0.  1.
         11   -1    0    0    0    0 -0.00000000000E+00 -0.00000000000E+00 -0.45593999997E+02  0.45594000000E+02  0.51100000000E-03 0. -1.
    9900012    2    1    2    0    0 -0.12349404547E+02 -0.90079350953E+01 -0.10816676548E+02  0.72462317666E+02  0.70000973584E+02 0.  0.
         12    1    1    2    0    0  0.12349404547E+02  0.90079350953E+01  0.10816676548E+02  0.18725682334E+02  0.00000000000E+00 0. -1.
         11    1    3    3    0    0 -0.27568369559E+02 -0.56541016804E+01 -0.20862114987E+02  0.35031581580E+02  0.51100000000E-03 0.  1.
        -11    1    3    3    0    0  0.17534510138E+02 -0.12928472052E+02 -0.19921897207E+01  0.21876317230E+02  0.51100000000E-03 0. -1.
        -12    1    3    3    0    0 -0.23155451254E+01  0.95746386368E+01  0.12037628160E+02  0.15554418857E+02  0.00000000000E+00 0.  1.
</event>
<event>
 7    1  0.1351543E-013  0.7246152E+02  0.7816164E-02  0.1226708E+00
        -11   -1    0    0    0    0  0.00000000000E+00  0.00000000000E+00  0.45593999997E+02  0.45594000000E+02  0.51100000000E-03 0.  1.
         11   -1    0    0    0    0 -0.00000000000E+00 -0.00000000000E+00 -0.45593999997E+02  0.45594000000E+02  0.51100000000E-03 0. -1.
    9900012    2    1    2    0    0 -0.10849297469E+02  0.62583380799E+01  0.13921455412E+02  0.72461522171E+02  0.69999937310E+02 0.  0.
         12    1    1    2    0    0  0.10849297469E+02 -0.62583380799E+01 -0.13921455412E+02  0.18726477829E+02  0.00000000000E+00 0. -1.
         11    1    3    3    0    0  0.14585490569E+02 -0.66818898404E+01 -0.14387749091E+01  0.16107583943E+02  0.51100000000E-03 0. -1.
        -11    1    3    3    0    0 -0.36371781690E+02  0.18875359450E+02  0.15759685674E+02  0.43903910879E+02  0.51100000000E-03 0.  1.
        -12    1    3    3    0    0  0.10936993651E+02 -0.59351315300E+01 -0.39945535255E+00  0.12450027349E+02  0.00000000000E+00 0.  1.
</event>
<event>
 7    1  0.1351543E-013  0.7246156E+02  0.7816164E-02  0.1226708E+00
        -11   -1    0    0    0    0  0.00000000000E+00  0.00000000000E+00  0.45593999997E+02  0.45594000000E+02  0.51100000000E-03 0. -1.
         11   -1    0    0    0    0 -0.00000000000E+00 -0.00000000000E+00 -0.45593999997E+02  0.45594000000E+02  0.51100000000E-03 0.  1.
    9900012    2    1    2    0    0  0.72914044306E+00  0.16686017745E+02 -0.84690451718E+01  0.72461559866E+02  0.69999986416E+02 0.  0.
         12    1    1    2    0    0 -0.72914044306E+00 -0.16686017745E+02  0.84690451718E+01  0.18726440134E+02  0.00000000000E+00 0. -1.
         11    1    3    3    0    0  0.34111815872E+01  0.19220525227E+02  0.12753330192E+02  0.23317636695E+02  0.51100000000E-03 0. -1.
        -11    1    3    3    0    0 -0.14899857696E+02 -0.17915710971E+02 -0.17523091569E+02  0.29155397396E+02  0.51100000000E-03 0.  1.
        -12    1    3    3    0    0  0.12217816552E+02  0.15381203489E+02 -0.36992837949E+01  0.19988525775E+02  0.00000000000E+00 0.  1.
</event>
<event>
 7    1  0.1351543E-013  0.7246142E+02  0.7816164E-02  0.1226708E+00
        -11   -1    0    0    0    0  0.00000000000E+00  0.00000000000E+00  0.45593999997E+02  0.45594000000E+02  0.51100000000E-03 0.  1.
         11   -1    0    0    0    0 -0.00000000000E+00 -0.00000000000E+00 -0.45593999997E+02  0.45594000000E+02  0.51100000000E-03 0. -1.
    9900012    2    1    2    0    0  0.15533163857E+02  0.71784808577E+01 -0.76075518119E+01  0.72461424995E+02  0.69999810720E+02 0.  0.
         12    1    1    2    0    0 -0.15533163857E+02 -0.71784808577E+01  0.76075518119E+01  0.18726575005E+02  0.00000000000E+00 0. -1.
         11    1    3    3    0    0  0.94673279029E+01  0.30192875002E+02 -0.26120013026E+02  0.41030416513E+02  0.51100000000E-03 0. -1.
        -11    1    3    3    0    0  0.71952219243E+01 -0.99041077469E+01  0.89535342304E+01  0.15166685342E+02  0.51100000000E-03 0.  1.
         12    1    3    3    0    0 -0.11293859697E+01 -0.13110286398E+02  0.95589269836E+01  0.16264323139E+02  0.00000000000E+00 0. -1.
</event>
<event>
 7    1  0.1351543E-013  0.7246104E+02  0.7816164E-02  0.1226709E+00
        -11   -1    0    0    0    0  0.00000000000E+00  0.00000000000E+00  0.45593999997E+02  0.45594000000E+02  0.51100000000E-03 0.  1.
         11   -1    0    0    0    0 -0.00000000000E+00 -0.00000000000E+00 -0.45593999997E+02  0.45594000000E+02  0.51100000000E-03 0. -1.
    9900012    2    1    2    0    0  0.18314390716E+02 -0.39052086368E+01 -0.17739937124E+00  0.72461039960E+02  0.69999309138E+02 0.  0.
         12    1    1    2    0    0 -0.18314390716E+02  0.39052086368E+01  0.17739937124E+00  0.18726960040E+02  0.00000000000E+00 0. -1.
         11    1    3    3    0    0 -0.25232091045E+01  0.68908554278E+01  0.20995175649E+02  0.22240680599E+02  0.51100000000E-03 0.  1.
        -11    1    3    3    0    0  0.16442491481E+02  0.12350330054E+02 -0.16108669473E+02  0.26122316340E+02  0.51100000000E-03 0. -1.
        -12    1    3    3    0    0  0.43951083396E+01 -0.23146394119E+02 -0.50639055479E+01  0.24098043020E+02  0.00000000000E+00 0.  1.
</event>
<event>
 7    1  0.1351543E-013  0.7246155E+02  0.7816164E-02  0.1226708E+00
        -11   -1    0    0    0    0  0.00000000000E+00  0.00000000000E+00  0.45593999997E+02  0.45594000000E+02  0.51100000000E-03 0.  1.
         11   -1    0    0    0    0 -0.00000000000E+00 -0.00000000000E+00 -0.45593999997E+02  0.45594000000E+02  0.51100000000E-03 0. -1.
    9900012    2    1    2    0    0 -0.17066950118E+02  0.54797143208E+01 -0.54195873425E+01  0.72461548592E+02  0.69999971728E+02 0.  0.
         12    1    1    2    0    0  0.17066950118E+02 -0.54797143208E+01  0.54195873425E+01  0.18726451408E+02  0.00000000000E+00 0. -1.
         11    1    3    3    0    0 -0.15875038308E+02 -0.54517215478E+01 -0.15236650588E+02  0.22669222098E+02  0.51100000000E-03 0. -1.
        -11    1    3    3    0    0  0.16185497202E+02 -0.61931920131E+01  0.17084860178E+02  0.24335537688E+02  0.51100000000E-03 0.  1.
        -12    1    3    3    0    0 -0.17377409013E+02  0.17124627882E+02 -0.72677969321E+01  0.25456788806E+02  0.00000000000E+00 0.  1.
</event>
<event>
 7    1  0.1351543E-013  0.7246154E+02  0.7816164E-02  0.1226708E+00
        -11   -1    0    0    0    0  0.00000000000E+00  0.00000000000E+00  0.45593999997E+02  0.45594000000E+02  0.51100000000E-03 0.  1.
         11   -1    0    0    0    0 -0.00000000000E+00 -0.00000000000E+00 -0.45593999997E+02  0.45594000000E+02  0.51100000000E-03 0. -1.
    9900012    2    1    2    0    0  0.35017451330E+01  0.18305979815E+02 -0.18191440232E+01  0.72461537416E+02  0.69999957169E+02 0.  0.
         12    1    1    2    0    0 -0.35017451330E+01 -0.18305979815E+02  0.18191440232E+01  0.18726462584E+02  0.00000000000E+00 0. -1.
         11    1    3    3    0    0  0.91182272317E+00 -0.14666964818E+02  0.89172599569E+01  0.17189206004E+02  0.51100000000E-03 0.  1.
        -11    1    3    3    0    0  0.72948005965E+00  0.31831564467E+02 -0.25224416372E+02  0.40620829868E+02  0.51100000000E-03 0. -1.
        -12    1    3    3    0    0  0.18604423502E+01  0.11413801653E+01  0.14488012392E+02  0.14651501544E+02  0.00000000000E+00 0.  1.
</event>
<event>
 7    1  0.1351543E-013  0.7246135E+02  0.7816164E-02  0.1226709E+00
        -11   -1    0    0    0    0  0.00000000000E+00  0.00000000000E+00  0.45593999997E+02  0.45594000000E+02  0.51100000000E-03 0. -1.
         11   -1    0    0    0    0 -0.00000000000E+00 -0.00000000000E+00 -0.45593999997E+02  0.45594000000E+02  0.51100000000E-03 0.  1.
    9900012    2    1    2    0    0 -0.11493140745E+02  0.82758586433E+01 -0.12251746984E+02  0.72461349882E+02  0.69999712872E+02 0.  0.
         12    1    1    2    0    0  0.11493140745E+02 -0.82758586433E+01  0.12251746984E+02  0.18726650118E+02  0.00000000000E+00 0. -1.
         11    1    3    3    0    0  0.15732781664E+02 -0.13977853156E+02  0.14068584922E+02  0.25314538900E+02  0.51100000000E-03 0. -1.
        -11    1    3    3    0    0 -0.20616190424E+02  0.15273760474E+02 -0.27323309909E+02  0.37481706621E+02  0.51100000000E-03 0.  1.
         12    1    3    3    0    0 -0.66097319854E+01  0.69799513259E+01  0.10029780028E+01  0.96651043608E+01  0.00000000000E+00 0. -1.
</event>
<event>
 7    1  0.1351543E-013  0.7246158E+02  0.7816164E-02  0.1226708E+00
        -11   -1    0    0    0    0  0.00000000000E+00  0.00000000000E+00  0.45593999997E+02  0.45594000000E+02  0.51100000000E-03 0. -1.
         11   -1    0    0    0    0 -0.00000000000E+00 -0.00000000000E+00 -0.45593999997E+02  0.45594000000E+02  0.51100000000E-03 0.  1.
    9900012    2    1    2    0    0 -0.16783306340E+01 -0.22177094234E+01 -0.18518746012E+02  0.72461575284E+02  0.70000006500E+02 0.  0.
         12    1    1    2    0    0  0.16783306340E+01  0.22177094234E+01  0.18518746012E+02  0.18726424716E+02  0.00000000000E+00 0. -1.
         11    1    3    3    0    0 -0.52696910715E+00 -0.21132523389E+02 -0.29095054143E+02  0.35963640209E+02  0.51100000000E-03 0.  1.
        -11    1    3    3    0    0 -0.99762509010E+01  0.21755871937E+02  0.22548544665E+01  0.24040131338E+02  0.51100000000E-03 0. -1.
         12    1    3    3    0    0  0.88248893742E+01 -0.28410579718E+01  0.83214536647E+01  0.12457803737E+02  0.00000000000E+00 0. -1.
</event>
<event>
 7    1  0.1351543E-013  0.7246154E+02  0.7816164E-02  0.1226708E+00
        -11   -1    0    0    0    0  0.00000000000E+00  0.00000000000E+00  0.45593999997E+02  0.45594000000E+02  0.51100000000E-03 0.  1.
         11   -1    0    0    0    0 -0.00000000000E+00 -0.00000000000E+00 -0.45593999997E+02  0.45594000000E+02  0.51100000000E-03 0. -1.
    9900012    2    1    2    0    0  0.51797759000E+01 -0.37725969259E+01  0.17595962126E+02  0.72461536129E+02  0.69999955494E+02 0.  0.
         12    1    1    2    0    0 -0.51797759000E+01  0.37725969259E+01 -0.17595962126E+02  0.18726463871E+02  0.00000000000E+00 0. -1.
         11    1    3    3    0    0  0.13494083047E+02  0.14852025356E+02 -0.15423308341E+02  0.25309116439E+02  0.51100000000E-03 0. -1.
        -11    1    3    3    0    0  0.72344653485E+01  0.11270956128E+01  0.13381371266E+02  0.15253489130E+02  0.51100000000E-03 0.  1.
         12    1    3    3    0    0 -0.15548772496E+02 -0.19751717895E+02  0.19637899201E+02  0.31898930561E+02  0.00000000000E+00 0. -1.
</event>
<event>
 7    1  0.1351543E-013  0.7246158E+02  0.7816164E-02  0.1226708E+00
        -11   -1    0    0    0    0  0.00000000000E+00  0.00000000000E+00  0.45593999997E+02  0.45594000000E+02  0.51100000000E-03 0. -1.
         11   -1    0    0    0    0 -0.00000000000E+00 -0.00000000000E+00 -0.45593999997E+02  0.45594000000E+02  0.51100000000E-03 0.  1.
    9900012    2    1    2    0    0  0.33338715431E+01 -0.18249492914E+02 -0.25534451078E+01  0.72461580882E+02  0.70000013792E+02 0.  0.
         12    1    1    2    0    0 -0.33338715431E+01  0.18249492914E+02  0.25534451078E+01  0.18726419118E+02  0.00000000000E+00 0. -1.
         11    1    3    3    0    0 -0.84089532280E+01 -0.14408877422E+01  0.16044140284E+02  0.18171436090E+02  0.51100000000E-03 0. -1.
        -11    1    3    3    0    0 -0.10361636479E+02  0.12608461210E+01 -0.23135871504E+02  0.25381524658E+02  0.51100000000E-03 0.  1.
        -12    1    3    3    0    0  0.22104461250E+02 -0.18069451293E+02  0.45382861120E+01  0.28908620133E+02  0.00000000000E+00 0.  1.
</event>
<event>
 7    1  0.1351543E-013  0.7246152E+02  0.7816164E-02  0.1226708E+00
        -11   -1    0    0    0    0  0.00000000000E+00  0.00000000000E+00  0.45593999997E+02  0.45594000000E+02  0.51100000000E-03 0.  1.
         11   -1    0    0    0    0 -0.00000000000E+00 -0.00000000000E+00 -0.45593999997E+02  0.45594000000E+02  0.51100000000E-03 0. -1.
    9900012    2    1    2    0    0  0.30109121389E+01  0.85171036748E+01  0.16403489078E+02  0.72461518727E+02  0.69999932824E+02 0.  0.
         12    1    1    2    0    0 -0.30109121389E+01 -0.85171036748E+01 -0.16403489078E+02  0.18726481273E+02  0.00000000000E+00 0. -1.
         11    1    3    3    0    0 -0.55321756477E+01  0.21862509408E+00 -0.53210877841E+01  0.76789803878E+01  0.51100000000E-03 0. -1.
        -11    1    3    3    0    0 -0.13506484640E+02  0.53077422772E+01  0.35679060739E+02  0.38517432818E+02  0.51100000000E-03 0.  1.
        -12    1    3    3    0    0  0.22049572426E+02  0.29907363035E+01 -0.13954483876E+02  0.26265105522E+02  0.00000000000E+00 0.  1.
</event>
<event>
 7    1  0.1351543E-013  0.7246174E+02  0.7816164E-02  0.1226708E+00
        -11   -1    0    0    0    0  0.00000000000E+00  0.00000000000E+00  0.45593999997E+02  0.45594000000E+02  0.51100000000E-03 0. -1.
         11   -1    0    0    0    0 -0.00000000000E+00 -0.00000000000E+00 -0.45593999997E+02  0.45594000000E+02  0.51100000000E-03 0.  1.
    9900012    2    1    2    0    0  0.77806178629E+01  0.42343167618E+01 -0.16498651460E+02  0.72461736284E+02  0.70000216232E+02 0.  0.
         12    1    1    2    0    0 -0.77806178629E+01 -0.42343167618E+01  0.16498651460E+02  0.18726263716E+02  0.00000000000E+00 0. -1.
         11    1    3    3    0    0  0.18781960673E+02  0.16241131766E+02  0.18832200969E+02  0.31163892590E+02  0.51100000000E-03 0.  1.
        -11    1    3    3    0    0 -0.56435158080E+01 -0.12451235099E+02 -0.32419604590E+02  0.35183991931E+02  0.51100000000E-03 0. -1.
         12    1    3    3    0    0 -0.53578270020E+01  0.44442009492E+00 -0.29112478388E+01  0.61138517633E+01  0.00000000000E+00 0. -1.
</event>
<event>
 7    1  0.1351543E-013  0.7246159E+02  0.7816164E-02  0.1226708E+00
        -11   -1    0    0    0    0  0.00000000000E+00  0.00000000000E+00  0.45593999997E+02  0.45594000000E+02  0.51100000000E-03 0. -1.
         11   -1    0    0    0    0 -0.00000000000E+00 -0.00000000000E+00 -0.45593999997E+02  0.45594000000E+02  0.51100000000E-03 0.  1.
    9900012    2    1    2    0    0  0.10411486187E+02  0.12792903863E+02  0.88668379745E+01  0.72461594858E+02  0.70000031999E+02 0.  0.
         12    1    1    2    0    0 -0.10411486187E+02 -0.12792903863E+02 -0.88668379745E+01  0.18726405142E+02  0.00000000000E+00 0. -1.
         11    1    3    3    0    0  0.13029436274E+02  0.92736895924E+01 -0.18976351071E+02  0.24816716715E+02  0.51100000000E-03 0. -1.
        -11    1    3    3    0    0 -0.14826798695E+02 -0.11834249497E+02  0.12196888252E+02  0.22553214937E+02  0.51100000000E-03 0.  1.
         12    1    3    3    0    0  0.12208848607E+02  0.15353463768E+02  0.15646300793E+02  0.25091663207E+02  0.00000000000E+00 0. -1.
</event>
<event>
 7    1  0.1351543E-013  0.7246151E+02  0.7816164E-02  0.1226708E+00
        -11   -1    0    0    0    0  0.00000000000E+00  0.00000000000E+00  0.45593999997E+02  0.45594000000E+02  0.51100000000E-03 0.  1.
         11   -1    0    0    0    0 -0.00000000000E+00 -0.00000000000E+00 -0.45593999997E+02  0.45594000000E+02  0.51100000000E-03 0. -1.
    9900012    2    1    2    0    0 -0.96939855369E+01  0.99181704365E+01  0.12583239595E+02  0.72461511298E+02  0.69999923146E+02 0.  0.
         12    1    1    2    0    0  0.96939855369E+01 -0.99181704365E+01 -0.12583239595E+02  0.18726488702E+02  0.00000000000E+00 0. -1.
         11    1    3    3    0    0 -0.14419852698E+02 -0.81870183679E+01 -0.13263412574E+02  0.21233877059E+02  0.51100000000E-03 0. -1.
        -11    1    3    3    0    0  0.18495082819E+01  0.24454068178E+02  0.33082364662E+02  0.41180881282E+02  0.51100000000E-03 0.  1.
        -12    1    3    3    0    0  0.28763588790E+01 -0.63488793732E+01 -0.72357124930E+01  0.10046752957E+02  0.00000000000E+00 0.  1.
</event>
<event>
 7    1  0.1351543E-013  0.7246159E+02  0.7816164E-02  0.1226708E+00
        -11   -1    0    0    0    0  0.00000000000E+00  0.00000000000E+00  0.45593999997E+02  0.45594000000E+02  0.51100000000E-03 0.  1.
         11   -1    0    0    0    0 -0.00000000000E+00 -0.00000000000E+00 -0.45593999997E+02  0.45594000000E+02  0.51100000000E-03 0. -1.
    9900012    2    1    2    0    0 -0.22924316251E+01 -0.46819938335E+01  0.17986166231E+02  0.72461588579E+02  0.70000023819E+02 0.  0.
         12    1    1    2    0    0  0.22924316251E+01  0.46819938335E+01 -0.17986166231E+02  0.18726411421E+02  0.00000000000E+00 0. -1.
         11    1    3    3    0    0  0.11935015124E+02  0.10608356997E+02 -0.81970821049E+01  0.17949205539E+02  0.51100000000E-03 0. -1.
        -11    1    3    3    0    0 -0.23879092522E+02  0.57709432512E+01  0.11913523264E+02  0.27302873155E+02  0.51100000000E-03 0.  1.
        -12    1    3    3    0    0  0.96516457730E+01 -0.21061294082E+02  0.14269725073E+02  0.27209509885E+02  0.00000000000E+00 0.  1.
</event>
<event>
 7    1  0.1351543E-013  0.7246161E+02  0.7816164E-02  0.1226708E+00
        -11   -1    0    0    0    0  0.00000000000E+00  0.00000000000E+00  0.45593999997E+02  0.45594000000E+02  0.51100000000E-03 0.  1.
         11   -1    0    0    0    0 -0.00000000000E+00 -0.00000000000E+00 -0.45593999997E+02  0.45594000000E+02  0.51100000000E-03 0. -1.
    9900012    2    1    2    0    0 -0.10493696936E+02 -0.93644108878E+01  0.12363977665E+02  0.72461606584E+02  0.70000047274E+02 0.  0.
         12    1    1    2    0    0  0.10493696936E+02  0.93644108878E+01 -0.12363977665E+02  0.18726393416E+02  0.00000000000E+00 0. -1.
         11    1    3    3    0    0 -0.83979050018E+01 -0.22000710736E+02  0.65995106447E+01  0.24456279814E+02  0.51100000000E-03 0. -1.
        -11    1    3    3    0    0  0.13560392005E+02  0.23900569582E+02 -0.11829534450E+01  0.27504923865E+02  0.51100000000E-03 0.  1.
        -12    1    3    3    0    0 -0.15656183940E+02 -0.11264269734E+02  0.69474204652E+01  0.20500402906E+02  0.00000000000E+00 0.  1.
</event>
<event>
 7    1  0.1351543E-013  0.7246150E+02  0.7816164E-02  0.1226708E+00
        -11   -1    0    0    0    0  0.00000000000E+00  0.00000000000E+00  0.45593999997E+02  0.45594000000E+02  0.51100000000E-03 0. -1.
         11   -1    0    0    0    0 -0.00000000000E+00 -0.00000000000E+00 -0.45593999997E+02  0.45594000000E+02  0.51100000000E-03 0.  1.
    9900012    2    1    2    0    0  0.13172696114E+02 -0.38490131714E-01 -0.13310158398E+02  0.72461502170E+02  0.69999911255E+02 0.  0.
         12    1    1    2    0    0 -0.13172696114E+02  0.38490131714E-01  0.13310158398E+02  0.18726497830E+02  0.00000000000E+00 0. -1.
         11    1    3    3    0    0 -0.18145742980E+02 -0.74529418716E+00 -0.28156017378E+01  0.18378004928E+02  0.51100000000E-03 0. -1.
        -11    1    3    3    0    0  0.20036921070E+02 -0.42620276366E+01 -0.26743506439E+02  0.33687656827E+02  0.51100000000E-03 0.  1.
         12    1    3    3    0    0  0.11281518024E+02  0.49688316921E+01  0.16248949779E+02  0.20395840415E+02  0.00000000000E+00 0. -1.
</event>
<event>
 7    1  0.1351543E-013  0.7246156E+02  0.7816164E-02  0.1226708E+00
        -11   -1    0    0    0    0  0.00000000000E+00  0.00000000000E+00  0.45593999997E+02  0.45594000000E+02  0.51100000000E-03 0. -1.
         11   -1    0    0    0    0 -0.00000000000E+00 -0.00000000000E+00 -0.45593999997E+02  0.45594000000E+02  0.51100000000E-03 0.  1.
    9900012    2    1    2    0    0 -0.68417255703E+01 -0.11251584568E+02 -0.13314362873E+02  0.72461558192E+02  0.69999984235E+02 0.  0.
         12    1    1    2    0    0  0.68417255703E+01  0.11251584568E+02  0.13314362873E+02  0.18726441808E+02  0.00000000000E+00 0. -1.
         11    1    3    3    0    0 -0.13317513982E+02 -0.27240859489E+02 -0.23475628064E+01  0.30412689058E+02  0.51100000000E-03 0. -1.
        -11    1    3    3    0    0  0.16557815741E+02  0.65498202737E+01  0.72182570316E+01  0.19213657710E+02  0.51100000000E-03 0.  1.
        -12    1    3    3    0    0 -0.10082027330E+02  0.94394546480E+01 -0.18185057098E+02  0.22835211424E+02  0.00000000000E+00 0.  1.
</event>
<event>
 7    1  0.1351543E-013  0.7246160E+02  0.7816164E-02  0.1226708E+00
        -11   -1    0    0    0    0  0.00000000000E+00  0.00000000000E+00  0.45593999997E+02  0.45594000000E+02  0.51100000000E-03 0.  1.
         11   -1    0    0    0    0 -0.00000000000E+00 -0.00000000000E+00 -0.45593999997E+02  0.45594000000E+02  0.51100000000E-03 0. -1.
    9900012    2    1    2    0    0  0.25092308030E+01 -0.18403139389E+02  0.23888015491E+01  0.72461597478E+02  0.70000035411E+02 0.  0.
         12    1    1    2    0    0 -0.25092308030E+01  0.18403139389E+02 -0.23888015491E+01  0.18726402522E+02  0.00000000000E+00 0. -1.
         11    1    3    3    0    0 -0.26115659323E+01  0.82199920069E+01 -0.13732744115E+02  0.16216559635E+02  0.51100000000E-03 0. -1.
        -11    1    3    3    0    0 -0.12815880344E+02 -0.31928606099E+02  0.58278218728E+01  0.34894787354E+02  0.51100000000E-03 0.  1.
        -12    1    3    3    0    0  0.17936677079E+02  0.53054747033E+01  0.10293723791E+02  0.21350250489E+02  0.00000000000E+00 0.  1.
</event>
<event>
 7    1  0.1351543E-013  0.7246157E+02  0.7816164E-02  0.1226708E+00
        -11   -1    0    0    0    0  0.00000000000E+00  0.00000000000E+00  0.45593999997E+02  0.45594000000E+02  0.51100000000E-03 0.  1.
         11   -1    0    0    0    0 -0.00000000000E+00 -0.00000000000E+00 -0.45593999997E+02  0.45594000000E+02  0.51100000000E-03 0. -1.
    9900012    2    1    2    0    0  0.46562453264E+01 -0.65828603335E+01  0.16901609573E+02  0.72461572768E+02  0.70000003223E+02 0.  0.
         12    1    1    2    0    0 -0.46562453264E+01  0.65828603335E+01 -0.16901609573E+02  0.18726427232E+02  0.00000000000E+00 0. -1.
         11    1    3    3    0    0 -0.11535140143E+02  0.11270277774E+02  0.33274708717E+02  0.36976815165E+02  0.51100000000E-03 0.  1.
        -11    1    3    3    0    0  0.68873207078E+01 -0.18996587424E+02 -0.51322245759E+01  0.20848147391E+02  0.51100000000E-03 0. -1.
        -12    1    3    3    0    0  0.93040647618E+01  0.11434493168E+01 -0.11240874569E+02  0.14636610212E+02  0.00000000000E+00 0.  1.
</event>
<event>
 7    1  0.1351543E-013  0.7246157E+02  0.7816164E-02  0.1226708E+00
        -11   -1    0    0    0    0  0.00000000000E+00  0.00000000000E+00  0.45593999997E+02  0.45594000000E+02  0.51100000000E-03 0. -1.
         11   -1    0    0    0    0 -0.00000000000E+00 -0.00000000000E+00 -0.45593999997E+02  0.45594000000E+02  0.51100000000E-03 0.  1.
    9900012    2    1    2    0    0  0.48508007267E+01  0.12712197879E+02 -0.12866587173E+02  0.72461566595E+02  0.69999995181E+02 0.  0.
         12    1    1    2    0    0 -0.48508007267E+01 -0.12712197879E+02  0.12866587173E+02  0.18726433405E+02  0.00000000000E+00 0. -1.
         11    1    3    3    0    0  0.24058122115E+02 -0.58059792828E+01 -0.18078878951E+02  0.30648792790E+02  0.51100000000E-03 0. -1.
        -11    1    3    3    0    0 -0.52013325184E+01 -0.91002248003E+01  0.54238067098E+00  0.10495814806E+02  0.51100000000E-03 0.  1.
         12    1    3    3    0    0 -0.14005988870E+02  0.27618401962E+02  0.46699111074E+01  0.31316958999E+02  0.00000000000E+00 0. -1.
</event>
<event>
 7    1  0.1351543E-013  0.7246157E+02  0.7816164E-02  0.1226708E+00
        -11   -1    0    0    0    0  0.00000000000E+00  0.00000000000E+00  0.45593999997E+02  0.45594000000E+02  0.51100000000E-03 0. -1.
         11   -1    0    0    0    0 -0.00000000000E+00 -0.00000000000E+00 -0.45593999997E+02  0.45594000000E+02  0.51100000000E-03 0.  1.
    9900012    2    1    2    0    0 -0.97691509935E+01 -0.43790488224E+01 -0.15364469107E+02  0.72461567060E+02  0.69999995787E+02 0.  0.
         12    1    1    2    0    0  0.97691509935E+01  0.43790488224E+01  0.15364469107E+02  0.18726432940E+02  0.00000000000E+00 0. -1.
         11    1    3    3    0    0 -0.39335020818E+01  0.86956129386E+01 -0.11843036527E+01  0.96171044711E+01  0.51100000000E-03 0.  1.
        -11    1    3    3    0    0 -0.29713883051E+02 -0.20524975247E+02 -0.10109253669E+02  0.37501819487E+02  0.51100000000E-03 0. -1.
        -12    1    3    3    0    0  0.23878234139E+02  0.74503134858E+01 -0.40709117854E+01  0.25342643102E+02  0.00000000000E+00 0.  1.
</event>
<event>
 7    1  0.1351543E-013  0.7246157E+02  0.7816164E-02  0.1226708E+00
        -11   -1    0    0    0    0  0.00000000000E+00  0.00000000000E+00  0.45593999997E+02  0.45594000000E+02  0.51100000000E-03 0. -1.
         11   -1    0    0    0    0 -0.00000000000E+00 -0.00000000000E+00 -0.45593999997E+02  0.45594000000E+02  0.51100000000E-03 0.  1.
    9900012    2    1    2    0    0 -0.27682935183E+01  0.14585318569E+02 -0.11414204348E+02  0.72461574082E+02  0.70000004934E+02 0.  0.
         12    1    1    2    0    0  0.27682935183E+01 -0.14585318569E+02  0.11414204348E+02  0.18726425918E+02  0.00000000000E+00 0. -1.
         11    1    3    3    0    0  0.28089117104E+02  0.18919069352E+02 -0.19267045995E+01  0.33921112536E+02  0.51100000000E-03 0. -1.
        -11    1    3    3    0    0 -0.61760729148E+01 -0.39584415715E+00 -0.11918005821E+02  0.13429051801E+02  0.51100000000E-03 0.  1.
         12    1    3    3    0    0 -0.24681337707E+02 -0.39379066251E+01  0.24305060727E+01  0.25111409745E+02  0.00000000000E+00 0. -1.
</event>
<event>
 7    1  0.1351543E-013  0.7246148E+02  0.7816164E-02  0.1226708E+00
        -11   -1    0    0    0    0  0.00000000000E+00  0.00000000000E+00  0.45593999997E+02  0.45594000000E+02  0.51100000000E-03 0.  1.
         11   -1    0    0    0    0 -0.00000000000E+00 -0.00000000000E+00 -0.45593999997E+02  0.45594000000E+02  0.51100000000E-03 0. -1.
    9900012    2    1    2    0    0  0.55776444910E+01 -0.92027935787E+01  0.15325828178E+02  0.72461480380E+02  0.69999882870E+02 0.  0.
         12    1    1    2    0    0 -0.55776444910E+01  0.92027935787E+01 -0.15325828178E+02  0.18726519620E+02  0.00000000000E+00 0. -1.
         11    1    3    3    0    0 -0.15535657175E+01 -0.23644560919E+02 -0.13907760760E+02  0.27475527968E+02  0.51100000000E-03 0. -1.
        -11    1    3    3    0    0  0.12971141000E+02 -0.30251246412E+01  0.20871332665E+02  0.24759127719E+02  0.51100000000E-03 0.  1.
         12    1    3    3    0    0 -0.58399307914E+01  0.17466891982E+02  0.83622562742E+01  0.20226824693E+02  0.00000000000E+00 0. -1.
</event>
<event>
 7    1  0.1351543E-013  0.7246158E+02  0.7816164E-02  0.1226708E+00
        -11   -1    0    0    0    0  0.00000000000E+00  0.00000000000E+00  0.45593999997E+02  0.45594000000E+02  0.51100000000E-03 0. -1.
         11   -1    0    0    0    0 -0.00000000000E+00 -0.00000000000E+00 -0.45593999997E+02  0.45594000000E+02  0.51100000000E-03 0.  1.
    9900012    2    1    2    0    0  0.13825982054E+02 -0.92725837280E+01 -0.85755524694E+01  0.72461583127E+02  0.70000016717E+02 0.  0.
         12    1    1    2    0    0 -0.13825982054E+02  0.92725837280E+01  0.85755524694E+01  0.18726416873E+02  0.00000000000E+00 0. -1.
         11    1    3    3    0    0  0.24307603635E+02  0.15660172599E+02  0.95156644963E+00  0.28931057348E+02  0.51100000000E-03 0. -1.
        -11    1    3    3    0    0 -0.15710496396E+02 -0.19346661028E+02 -0.19010669898E+02  0.31345152100E+02  0.51100000000E-03 0.  1.
         12    1    3    3    0    0  0.52288748147E+01 -0.55860952993E+01  0.94835509789E+01  0.12185373679E+02  0.00000000000E+00 0. -1.
</event>
<event>
 7    1  0.1351543E-013  0.7246157E+02  0.7816164E-02  0.1226708E+00
        -11   -1    0    0    0    0  0.00000000000E+00  0.00000000000E+00  0.45593999997E+02  0.45594000000E+02  0.51100000000E-03 0. -1.
         11   -1    0    0    0    0 -0.00000000000E+00 -0.00000000000E+00 -0.45593999997E+02  0.45594000000E+02  0.51100000000E-03 0.  1.
    9900012    2    1    2    0    0  0.69891883515E+01 -0.27471393990E+01 -0.17154696285E+02  0.72461571261E+02  0.70000001260E+02 0.  0.
         12    1    1    2    0    0 -0.69891883515E+01  0.27471393990E+01  0.17154696285E+02  0.18726428739E+02  0.00000000000E+00 0. -1.
         11    1    3    3    0    0  0.23152175277E+02 -0.14532783332E+02  0.89355955894E+01  0.28758822651E+02  0.51100000000E-03 0. -1.
        -11    1    3    3    0    0 -0.97604937530E+01  0.21076844099E+02 -0.13795910454E+02  0.27015324188E+02  0.51100000000E-03 0.  1.
        -12    1    3    3    0    0 -0.64024931729E+01 -0.92912001663E+01 -0.12294381420E+02  0.16687424422E+02  0.00000000000E+00 0.  1.
</event>
<event>
 7    1  0.1351543E-013  0.7246155E+02  0.7816164E-02  0.1226708E+00
        -11   -1    0    0    0    0  0.00000000000E+00  0.00000000000E+00  0.45593999997E+02  0.45594000000E+02  0.51100000000E-03 0.  1.
         11   -1    0    0    0    0 -0.00000000000E+00 -0.00000000000E+00 -0.45593999997E+02  0.45594000000E+02  0.51100000000E-03 0. -1.
    9900012    2    1    2    0    0  0.13334209654E+02  0.13146857721E+02  0.19760176019E+00  0.72461546479E+02  0.69999968976E+02 0.  0.
         12    1    1    2    0    0 -0.13334209654E+02 -0.13146857721E+02 -0.19760176019E+00  0.18726453521E+02  0.00000000000E+00 0. -1.
         11    1    3    3    0    0 -0.10353618393E+01  0.23827777678E+01  0.28679306376E+02  0.28796739720E+02  0.51100000000E-03 0. -1.
        -11    1    3    3    0    0  0.10165898959E+02  0.16520664114E+02 -0.63457108921E+01  0.20409455931E+02  0.51100000000E-03 0.  1.
         12    1    3    3    0    0  0.42036725341E+01 -0.57565841614E+01 -0.22135993724E+02  0.23255350828E+02  0.00000000000E+00 0. -1.
</event>
<event>
 7    1  0.1351543E-013  0.7246156E+02  0.7816164E-02  0.1226708E+00
        -11   -1    0    0    0    0  0.00000000000E+00  0.00000000000E+00  0.45593999997E+02  0.45594000000E+02  0.51100000000E-03 0.  1.
         11   -1    0    0    0    0 -0.00000000000E+00 -0.00000000000E+00 -0.45593999997E+02  0.45594000000E+02  0.51100000000E-03 0. -1.
    9900012    2    1    2    0    0 -0.60263191562E+01 -0.17040813469E+02 -0.48962800886E+01  0.72461564008E+02  0.69999991811E+02 0.  0.
         12    1    1    2    0    0  0.60263191562E+01  0.17040813469E+02  0.48962800886E+01  0.18726435992E+02  0.00000000000E+00 0. -1.
         11    1    3    3    0    0  0.98628692262E+00 -0.22504738503E+02 -0.31739315354E+01  0.22748843018E+02  0.51100000000E-03 0. -1.
        -11    1    3    3    0    0 -0.11510304178E+02  0.13296049628E+02 -0.21615225140E+02  0.27865570084E+02  0.51100000000E-03 0.  1.
        -12    1    3    3    0    0  0.44976980994E+01 -0.78321245934E+01  0.19892876587E+02  0.21847150906E+02  0.00000000000E+00 0.  1.
</event>
<event>
 7    1  0.1351543E-013  0.7246156E+02  0.7816164E-02  0.1226708E+00
        -11   -1    0    0    0    0  0.00000000000E+00  0.00000000000E+00  0.45593999997E+02  0.45594000000E+02  0.51100000000E-03 0. -1.
         11   -1    0    0    0    0 -0.00000000000E+00 -0.00000000000E+00 -0.45593999997E+02  0.45594000000E+02  0.51100000000E-03 0.  1.
    9900012    2    1    2    0    0 -0.17553944591E+02 -0.22667053171E+00  0.65182124458E+01  0.72461562973E+02  0.69999990463E+02 0.  0.
         12    1    1    2    0    0  0.17553944591E+02  0.22667053171E+00 -0.65182124458E+01  0.18726437027E+02  0.00000000000E+00 0. -1.
         11    1    3    3    0    0  0.11051667483E+02  0.29778252063E+01 -0.17550362640E+02  0.20952852460E+02  0.51100000000E-03 0. -1.
        -11    1    3    3    0    0 -0.58717686031E+01 -0.16668857741E+02  0.34796114177E+01  0.18012112058E+02  0.51100000000E-03 0.  1.
         12    1    3    3    0    0 -0.22733843471E+02  0.13464362003E+02  0.20588963669E+02  0.33496598455E+02  0.00000000000E+00 0. -1.
</event>
<event>
 7    1  0.1351543E-013  0.7246161E+02  0.7816164E-02  0.1226708E+00
        -11   -1    0    0    0    0  0.00000000000E+00  0.00000000000E+00  0.45593999997E+02  0.45594000000E+02  0.51100000000E-03 0. -1.
         11   -1    0    0    0    0 -0.00000000000E+00 -0.00000000000E+00 -0.45593999997E+02  0.45594000000E+02  0.51100000000E-03 0.  1.
    9900012    2    1    2    0    0  0.52600871126E+01 -0.51619016800E+01 -0.17215221857E+02  0.72461611961E+02  0.70000054279E+02 0.  0.
         12    1    1    2    0    0 -0.52600871126E+01  0.51619016800E+01  0.17215221857E+02  0.18726388039E+02  0.00000000000E+00 0. -1.
         11    1    3    3    0    0  0.66525649440E+01 -0.16820426039E+01 -0.37159087800E+01  0.78034521834E+01  0.51100000000E-03 0. -1.
        -11    1    3    3    0    0 -0.27120178084E+02  0.13038289525E+01  0.10538401382E+02  0.29124936622E+02  0.51100000000E-03 0.  1.
        -12    1    3    3    0    0  0.25727700253E+02 -0.47836880286E+01 -0.24037714459E+02  0.35533223156E+02  0.00000000000E+00 0.  1.
</event>
<event>
 7    1  0.1351543E-013  0.7246157E+02  0.7816164E-02  0.1226708E+00
        -11   -1    0    0    0    0  0.00000000000E+00  0.00000000000E+00  0.45593999997E+02  0.45594000000E+02  0.51100000000E-03 0. -1.
         11   -1    0    0    0    0 -0.00000000000E+00 -0.00000000000E+00 -0.45593999997E+02  0.45594000000E+02  0.51100000000E-03 0.  1.
    9900012    2    1    2    0    0  0.16946593253E+02  0.33478933789E+01 -0.72307507164E+01  0.72461570311E+02  0.70000000022E+02 0.  0.
         12    1    1    2    0    0 -0.16946593253E+02 -0.33478933789E+01  0.72307507164E+01  0.18726429689E+02  0.00000000000E+00 0. -1.
         11    1    3    3    0    0 -0.49826244772E+01 -0.24371267731E+02 -0.50534744556E+00  0.24880526799E+02  0.51100000000E-03 0. -1.
        -11    1    3    3    0    0  0.11116119334E+02  0.33080605810E+02 -0.34094004403E+01  0.35064492031E+02  0.51100000000E-03 0.  1.
         12    1    3    3    0    0  0.10813098396E+02 -0.53614446996E+01 -0.33160028306E+01  0.12516551481E+02  0.00000000000E+00 0. -1.
</event>
<event>
 7    1  0.1351543E-013  0.7246168E+02  0.7816164E-02  0.1226708E+00
        -11   -1    0    0    0    0  0.00000000000E+00  0.00000000000E+00  0.45593999997E+02  0.45594000000E+02  0.51100000000E-03 0.  1.
         11   -1    0    0    0    0 -0.00000000000E+00 -0.00000000000E+00 -0.45593999997E+02  0.45594000000E+02  0.51100000000E-03 0. -1.
    9900012    2    1    2    0    0 -0.11099788602E+02  0.21607123393E+01  0.14926516555E+02  0.72461684791E+02  0.70000149154E+02 0.  0.
         12    1    1    2    0    0  0.11099788602E+02 -0.21607123393E+01 -0.14926516555E+02  0.18726315209E+02  0.00000000000E+00 0. -1.
         11    1    3    3    0    0  0.61970491976E+01 -0.57431566087E+01 -0.10250855698E+02  0.13284099871E+02  0.51100000000E-03 0. -1.
        -11    1    3    3    0    0  0.55923747887E+01  0.93144081092E+01  0.33160733050E+02  0.34895086629E+02  0.51100000000E-03 0.  1.
        -12    1    3    3    0    0 -0.22889212588E+02 -0.14105391612E+01 -0.79833607970E+01  0.24282498291E+02  0.00000000000E+00 0.  1.
</event>
<event>
 7    1  0.1351543E-013  0.7246156E+02  0.7816164E-02  0.1226708E+00
        -11   -1    0    0    0    0  0.00000000000E+00  0.00000000000E+00  0.45593999997E+02  0.45594000000E+02  0.51100000000E-03 0.  1.
         11   -1    0    0    0    0 -0.00000000000E+00 -0.00000000000E+00 -0.45593999997E+02  0.45594000000E+02  0.51100000000E-03 0. -1.
    9900012    2    1    2    0    0 -0.17719279467E+02 -0.45791186009E+01  0.39671378632E+01  0.72461564813E+02  0.69999992860E+02 0.  0.
         12    1    1    2    0    0  0.17719279467E+02  0.45791186009E+01 -0.39671378632E+01  0.18726435187E+02  0.00000000000E+00 0. -1.
         11    1    3    3    0    0 -0.85545387072E+01  0.19078593376E+01 -0.37110983028E+01  0.95179992971E+01  0.51100000000E-03 0. -1.
        -11    1    3    3    0    0  0.21379388034E+02 -0.15586044393E+02  0.14759158974E+02  0.30295804766E+02  0.51100000000E-03 0.  1.
        -12    1    3    3    0    0 -0.30544128794E+02  0.90990664549E+01 -0.70809228080E+01  0.32647760750E+02  0.00000000000E+00 0.  1.
</event>
<event>
 7    1  0.1351543E-013  0.7246160E+02  0.7816164E-02  0.1226708E+00
        -11   -1    0    0    0    0  0.00000000000E+00  0.00000000000E+00  0.45593999997E+02  0.45594000000E+02  0.51100000000E-03 0.  1.
         11   -1    0    0    0    0 -0.00000000000E+00 -0.00000000000E+00 -0.45593999997E+02  0.45594000000E+02  0.51100000000E-03 0. -1.
    9900012    2    1    2    0    0  0.11144102986E+02  0.47365909984E+01  0.14284666484E+02  0.72461600928E+02  0.70000039906E+02 0.  0.
         12    1    1    2    0    0 -0.11144102986E+02 -0.47365909984E+01 -0.14284666484E+02  0.18726399072E+02  0.00000000000E+00 0. -1.
         11    1    3    3    0    0 -0.75535491365E+01 -0.76186725981E+01 -0.14417388392E+02  0.17971125870E+02  0.51100000000E-03 0. -1.
        -11    1    3    3    0    0 -0.38479068394E+01 -0.22537880343E+01  0.27221923797E+02  0.27584761790E+02  0.51100000000E-03 0.  1.
         12    1    3    3    0    0  0.22545558962E+02  0.14609051631E+02  0.14801310788E+01  0.26905713268E+02  0.00000000000E+00 0. -1.
</event>
<event>
 7    1  0.1351543E-013  0.7246158E+02  0.7816164E-02  0.1226708E+00
        -11   -1    0    0    0    0  0.00000000000E+00  0.00000000000E+00  0.45593999997E+02  0.45594000000E+02  0.51100000000E-03 0.  1.
         11   -1    0    0    0    0 -0.00000000000E+00 -0.00000000000E+00 -0.45593999997E+02  0.45594000000E+02  0.51100000000E-03 0. -1.
    9900012    2    1    2    0    0  0.59011959968E+01  0.17618185699E+02  0.23354539374E+01  0.72461576780E+02  0.70000008449E+02 0.  0.
         12    1    1    2    0    0 -0.59011959968E+01 -0.17618185699E+02 -0.23354539374E+01  0.18726423220E+02  0.00000000000E+00 0. -1.
         11    1    3    3    0    0  0.17234706719E+02  0.70551901062E+01  0.26341139859E+02  0.32259362555E+02  0.51100000000E-03 0.  1.
        -11    1    3    3    0    0 -0.37586023964E+01  0.15743191607E+02 -0.26172604403E+02  0.30773046574E+02  0.51100000000E-03 0. -1.
         12    1    3    3    0    0 -0.75749083256E+01 -0.51801960143E+01  0.21669184821E+01  0.94291676513E+01  0.00000000000E+00 0. -1.
</event>
<event>
 7    1  0.1351543E-013  0.7246157E+02  0.7816164E-02  0.1226708E+00
        -11   -1    0    0    0    0  0.00000000000E+00  0.00000000000E+00  0.45593999997E+02  0.45594000000E+02  0.51100000000E-03 0. -1.
         11   -1    0    0    0    0 -0.00000000000E+00 -0.00000000000E+00 -0.45593999997E+02  0.45594000000E+02  0.51100000000E-03 0.  1.
    9900012    2    1    2    0    0  0.17673327401E+02  0.57941398748E+01 -0.21818859046E+01  0.72461569897E+02  0.69999999482E+02 0.  0.
         12    1    1    2    0    0 -0.17673327401E+02 -0.57941398748E+01  0.21818859046E+01  0.18726430103E+02  0.00000000000E+00 0. -1.
         11    1    3    3    0    0  0.27098442572E+02  0.31346301762E+02 -0.60017804020E+00  0.41440034241E+02  0.51100000000E-03 0. -1.
        -11    1    3    3    0    0 -0.31564128029E+00 -0.17825111767E+02  0.32758158471E+01  0.18126367773E+02  0.51100000000E-03 0.  1.
         12    1    3    3    0    0 -0.91094738903E+01 -0.77270501203E+01 -0.48575237115E+01  0.12895167883E+02  0.00000000000E+00 0. -1.
</event>
<event>
 7    1  0.1351543E-013  0.7246219E+02  0.7816164E-02  0.1226706E+00
        -11   -1    0    0    0    0  0.00000000000E+00  0.00000000000E+00  0.45593999997E+02  0.45594000000E+02  0.51100000000E-03 0.  1.
         11   -1    0    0    0    0 -0.00000000000E+00 -0.00000000000E+00 -0.45593999997E+02  0.45594000000E+02  0.51100000000E-03 0. -1.
    9900012    2    1    2    0    0  0.26937420762E+01 -0.30106683572E+01  0.18284846617E+02  0.72462189306E+02  0.70000806373E+02 0.  0.
         12    1    1    2    0    0 -0.26937420762E+01  0.30106683572E+01 -0.18284846617E+02  0.18725810694E+02  0.00000000000E+00 0. -1.
         11    1    3    3    0    0  0.72369948001E+01 -0.24911071409E+02  0.45607310505E+01  0.26338865588E+02  0.51100000000E-03 0. -1.
        -11    1    3    3    0    0 -0.20052193373E+02  0.18929474938E+02  0.12525327667E+02  0.30286949565E+02  0.51100000000E-03 0.  1.
        -12    1    3    3    0    0  0.15508940649E+02  0.29709281133E+01  0.11987878994E+01  0.15836374154E+02  0.00000000000E+00 0.  1.
</event>
<event>
 7    1  0.1351543E-013  0.7246157E+02  0.7816164E-02  0.1226708E+00
        -11   -1    0    0    0    0  0.00000000000E+00  0.00000000000E+00  0.45593999997E+02  0.45594000000E+02  0.51100000000E-03 0. -1.
         11   -1    0    0    0    0 -0.00000000000E+00 -0.00000000000E+00 -0.45593999997E+02  0.45594000000E+02  0.51100000000E-03 0.  1.
    9900012    2    1    2    0    0 -0.13857735356E+02  0.10145586967E+02  0.74638813541E+01  0.72461567105E+02  0.69999995845E+02 0.  0.
         12    1    1    2    0    0  0.13857735356E+02 -0.10145586967E+02 -0.74638813541E+01  0.18726432895E+02  0.00000000000E+00 0. -1.
         11    1    3    3    0    0  0.34223576996E+01  0.76643152421E+01  0.24330207493E+02  0.25737390257E+02  0.51100000000E-03 0. -1.
        -11    1    3    3    0    0 -0.28840971804E+01 -0.13940281864E+02 -0.20117951618E+02  0.24645110115E+02  0.51100000000E-03 0.  1.
        -12    1    3    3    0    0 -0.14395995876E+02  0.16421553589E+02  0.32516254793E+01  0.22079066733E+02  0.00000000000E+00 0.  1.
</event>
<event>
 7    1  0.1351543E-013  0.7246151E+02  0.7816164E-02  0.1226708E+00
        -11   -1    0    0    0    0  0.00000000000E+00  0.00000000000E+00  0.45593999997E+02  0.45594000000E+02  0.51100000000E-03 0.  1.
         11   -1    0    0    0    0 -0.00000000000E+00 -0.00000000000E+00 -0.45593999997E+02  0.45594000000E+02  0.51100000000E-03 0. -1.
    9900012    2    1    2    0    0 -0.17414516596E+02  0.61144929253E+01  0.31668421154E+01  0.72461513384E+02  0.69999925863E+02 0.  0.
         12    1    1    2    0    0  0.17414516596E+02 -0.61144929253E+01 -0.31668421154E+01  0.18726486616E+02  0.00000000000E+00 0. -1.
         11    1    3    3    0    0  0.11684263089E+02 -0.21109588538E+01  0.23910898683E+01  0.12111790216E+02  0.51100000000E-03 0. -1.
        -11    1    3    3    0    0 -0.13143703073E+02  0.13938848148E+01 -0.25579696503E+02  0.28792719892E+02  0.51100000000E-03 0.  1.
        -12    1    3    3    0    0 -0.15955076612E+02  0.68315669644E+01  0.26355448750E+02  0.31557003275E+02  0.00000000000E+00 0.  1.
</event>
<event>
 7    1  0.1351543E-013  0.7246160E+02  0.7816164E-02  0.1226708E+00
        -11   -1    0    0    0    0  0.00000000000E+00  0.00000000000E+00  0.45593999997E+02  0.45594000000E+02  0.51100000000E-03 0.  1.
         11   -1    0    0    0    0 -0.00000000000E+00 -0.00000000000E+00 -0.45593999997E+02  0.45594000000E+02  0.51100000000E-03 0. -1.
    9900012    2    1    2    0    0  0.11301134515E+02  0.94226684539E+01 -0.11583432867E+02  0.72461595137E+02  0.70000032362E+02 0.  0.
         12    1    1    2    0    0 -0.11301134515E+02 -0.94226684539E+01  0.11583432867E+02  0.18726404863E+02  0.00000000000E+00 0. -1.
         11    1    3    3    0    0 -0.17221645366E+02  0.65136751730E+01 -0.15280762231E+02  0.23927279996E+02  0.51100000000E-03 0. -1.
        -11    1    3    3    0    0  0.19528496640E+02  0.33945031794E+01 -0.16903616762E+02  0.26050280090E+02  0.51100000000E-03 0.  1.
         12    1    3    3    0    0  0.89942832408E+01 -0.48550989849E+00  0.20600946126E+02  0.22484035051E+02  0.00000000000E+00 0. -1.
</event>
<event>
 7    1  0.1351543E-013  0.7246149E+02  0.7816164E-02  0.1226708E+00
        -11   -1    0    0    0    0  0.00000000000E+00  0.00000000000E+00  0.45593999997E+02  0.45594000000E+02  0.51100000000E-03 0. -1.
         11   -1    0    0    0    0 -0.00000000000E+00 -0.00000000000E+00 -0.45593999997E+02  0.45594000000E+02  0.51100000000E-03 0.  1.
    9900012    2    1    2    0    0  0.41333586107E+01 -0.12875535756E+02 -0.12954463230E+02  0.72461489594E+02  0.69999894873E+02 0.  0.
         12    1    1    2    0    0 -0.41333586107E+01  0.12875535756E+02  0.12954463230E+02  0.18726510406E+02  0.00000000000E+00 0. -1.
         11    1    3    3    0    0 -0.81982125810E+01 -0.26078257971E+02  0.13567563332E+02  0.30518273269E+02  0.51100000000E-03 0. -1.
        -11    1    3    3    0    0  0.11091688079E+01  0.18794558831E+02 -0.21111942409E+02  0.28287449684E+02  0.51100000000E-03 0.  1.
         12    1    3    3    0    0  0.11222402384E+02 -0.55918366155E+01 -0.54100841526E+01  0.13655766640E+02  0.00000000000E+00 0. -1.
</event>
<event>
 7    1  0.1351543E-013  0.7246161E+02  0.7816164E-02  0.1226708E+00
        -11   -1    0    0    0    0  0.00000000000E+00  0.00000000000E+00  0.45593999997E+02  0.45594000000E+02  0.51100000000E-03 0.  1.
         11   -1    0    0    0    0 -0.00000000000E+00 -0.00000000000E+00 -0.45593999997E+02  0.45594000000E+02  0.51100000000E-03 0. -1.
    9900012    2    1    2    0    0  0.10450243800E+02  0.11328695487E+02  0.10636288308E+02  0.72461613112E+02  0.70000055777E+02 0.  0.
         12    1    1    2    0    0 -0.10450243800E+02 -0.11328695487E+02 -0.10636288308E+02  0.18726386888E+02  0.00000000000E+00 0. -1.
         11    1    3    3    0    0  0.26167075392E+02  0.16029470931E+02  0.11230465978E+02  0.32676951193E+02  0.51100000000E-03 0. -1.
        -11    1    3    3    0    0 -0.16560133467E+02 -0.27886998431E+00  0.15735657339E+02  0.22845715158E+02  0.51100000000E-03 0.  1.
         12    1    3    3    0    0  0.84330187492E+00 -0.44219054593E+01 -0.16329835009E+02  0.16938946761E+02  0.00000000000E+00 0. -1.
</event>
<event>
 7    1  0.1351543E-013  0.7246157E+02  0.7816164E-02  0.1226708E+00
        -11   -1    0    0    0    0  0.00000000000E+00  0.00000000000E+00  0.45593999997E+02  0.45594000000E+02  0.51100000000E-03 0. -1.
         11   -1    0    0    0    0 -0.00000000000E+00 -0.00000000000E+00 -0.45593999997E+02  0.45594000000E+02  0.51100000000E-03 0.  1.
    9900012    2    1    2    0    0 -0.12293452122E+02 -0.13265309967E+02 -0.48561211524E+01  0.72461566110E+02  0.69999994549E+02 0.  0.
         12    1    1    2    0    0  0.12293452122E+02  0.13265309967E+02  0.48561211524E+01  0.18726433890E+02  0.00000000000E+00 0. -1.
         11    1    3    3    0    0  0.13709603346E+02 -0.10472934133E+02 -0.76114579003E+01  0.18856560261E+02  0.51100000000E-03 0. -1.
        -11    1    3    3    0    0 -0.26732823351E+02  0.18219317011E+02  0.36843671258E+01  0.32560127734E+02  0.51100000000E-03 0.  1.
        -12    1    3    3    0    0  0.72976788372E+00 -0.21011692846E+02 -0.92903037790E+00  0.21044878114E+02  0.00000000000E+00 0.  1.
</event>
<event>
 7    1  0.1351543E-013  0.7246157E+02  0.7816164E-02  0.1226708E+00
        -11   -1    0    0    0    0  0.00000000000E+00  0.00000000000E+00  0.45593999997E+02  0.45594000000E+02  0.51100000000E-03 0. -1.
         11   -1    0    0    0    0 -0.00000000000E+00 -0.00000000000E+00 -0.45593999997E+02  0.45594000000E+02  0.51100000000E-03 0.  1.
    9900012    2    1    2    0    0  0.18225908838E+02 -0.30252159495E+01 -0.30567312080E+01  0.72461567073E+02  0.69999995803E+02 0.  0.
         12    1    1    2    0    0 -0.18225908838E+02  0.30252159495E+01  0.30567312080E+01  0.18726432927E+02  0.00000000000E+00 0. -1.
         11    1    3    3    0    0  0.11769860226E+02 -0.10764829887E+02 -0.29495760187E+02  0.33532238839E+02  0.51100000000E-03 0.  1.
        -11    1    3    3    0    0 -0.98051848046E+01 -0.11087212845E+01  0.70912952966E+01  0.12151435355E+02  0.51100000000E-03 0. -1.
         12    1    3    3    0    0  0.16261233416E+02  0.88483352221E+01  0.19347733683E+02  0.26777892879E+02  0.00000000000E+00 0. -1.
</event>
<event>
 7    1  0.1351543E-013  0.7246153E+02  0.7816164E-02  0.1226708E+00
        -11   -1    0    0    0    0  0.00000000000E+00  0.00000000000E+00  0.45593999997E+02  0.45594000000E+02  0.51100000000E-03 0. -1.
         11   -1    0    0    0    0 -0.00000000000E+00 -0.00000000000E+00 -0.45593999997E+02  0.45594000000E+02  0.51100000000E-03 0.  1.
    9900012    2    1    2    0    0  0.52673140001E+01  0.11805055064E+02 -0.13549044857E+02  0.72461533746E+02  0.69999952389E+02 0.  0.
         12    1    1    2    0    0 -0.52673140001E+01 -0.11805055064E+02  0.13549044857E+02  0.18726466254E+02  0.00000000000E+00 0. -1.
         11    1    3    3    0    0  0.37086728305E+01 -0.20730030750E+02 -0.20940654561E+02  0.29698475428E+02  0.51100000000E-03 0. -1.
        -11    1    3    3    0    0 -0.28226683266E+01  0.26655293761E+02 -0.60252600724E+01  0.27473185130E+02  0.51100000000E-03 0.  1.
         12    1    3    3    0    0  0.43813094961E+01  0.58797920530E+01  0.13416869777E+02  0.15289873188E+02  0.00000000000E+00 0. -1.
</event>
<event>
 7    1  0.1351543E-013  0.7246155E+02  0.7816164E-02  0.1226708E+00
        -11   -1    0    0    0    0  0.00000000000E+00  0.00000000000E+00  0.45593999997E+02  0.45594000000E+02  0.51100000000E-03 0.  1.
         11   -1    0    0    0    0 -0.00000000000E+00 -0.00000000000E+00 -0.45593999997E+02  0.45594000000E+02  0.51100000000E-03 0. -1.
    9900012    2    1    2    0    0  0.53287325395E+00  0.18707290511E+02  0.65814272618E+00  0.72461552819E+02  0.69999977235E+02 0.  0.
         12    1    1    2    0    0 -0.53287325395E+00 -0.18707290511E+02 -0.65814272618E+00  0.18726447181E+02  0.00000000000E+00 0. -1.
         11    1    3    3    0    0  0.13248938690E+02  0.14442609951E+02 -0.89530695232E+01  0.21547176445E+02  0.51100000000E-03 0. -1.
        -11    1    3    3    0    0 -0.17387206384E+02 -0.17317047536E+02 -0.41611939168E+01  0.24889970195E+02  0.51100000000E-03 0.  1.
        -12    1    3    3    0    0  0.46711409481E+01  0.21581728097E+02  0.13772406166E+02  0.26024406180E+02  0.00000000000E+00 0.  1.
</event>
<event>
 7    1  0.1351543E-013  0.7246147E+02  0.7816164E-02  0.1226708E+00
        -11   -1    0    0    0    0  0.00000000000E+00  0.00000000000E+00  0.45593999997E+02  0.45594000000E+02  0.51100000000E-03 0. -1.
         11   -1    0    0    0    0 -0.00000000000E+00 -0.00000000000E+00 -0.45593999997E+02  0.45594000000E+02  0.51100000000E-03 0.  1.
    9900012    2    1    2    0    0 -0.91483681232E+01  0.72139903447E+01 -0.14661129847E+02  0.72461467369E+02  0.69999865920E+02 0.  0.
         12    1    1    2    0    0  0.91483681232E+01 -0.72139903447E+01  0.14661129847E+02  0.18726532631E+02  0.00000000000E+00 0. -1.
         11    1    3    3    0    0  0.21506294048E+02  0.31531850580E+01  0.16300519462E+02  0.27169287710E+02  0.51100000000E-03 0. -1.
        -11    1    3    3    0    0 -0.91865329320E+01 -0.30633540923E+00 -0.16964666488E+02  0.19294717879E+02  0.51100000000E-03 0.  1.
         12    1    3    3    0    0 -0.21468129239E+02  0.43671406959E+01 -0.13996982821E+02  0.25997461780E+02  0.00000000000E+00 0. -1.
</event>
<event>
 7    1  0.1351543E-013  0.7246157E+02  0.7816164E-02  0.1226708E+00
        -11   -1    0    0    0    0  0.00000000000E+00  0.00000000000E+00  0.45593999997E+02  0.45594000000E+02  0.51100000000E-03 0.  1.
         11   -1    0    0    0    0 -0.00000000000E+00 -0.00000000000E+00 -0.45593999997E+02  0.45594000000E+02  0.51100000000E-03 0. -1.
    9900012    2    1    2    0    0  0.16876031229E+02  0.54758951925E+01 -0.59911114729E+01  0.72461567481E+02  0.69999996335E+02 0.  0.
         12    1    1    2    0    0 -0.16876031229E+02 -0.54758951925E+01  0.59911114729E+01  0.18726432519E+02  0.00000000000E+00 0. -1.
         11    1    3    3    0    0  0.26167388797E+02 -0.24633373116E+02 -0.12100038424E+02  0.37920261571E+02  0.51100000000E-03 0. -1.
        -11    1    3    3    0    0 -0.19141727674E+01  0.22640857750E+02  0.75545920733E+01  0.23944610222E+02  0.51100000000E-03 0.  1.
         12    1    3    3    0    0 -0.73771848006E+01  0.74684105582E+01 -0.14456651221E+01  0.10596695688E+02  0.00000000000E+00 0. -1.
</event>
<event>
 7    1  0.1351543E-013  0.7246159E+02  0.7816164E-02  0.1226708E+00
        -11   -1    0    0    0    0  0.00000000000E+00  0.00000000000E+00  0.45593999997E+02  0.45594000000E+02  0.51100000000E-03 0.  1.
         11   -1    0    0    0    0 -0.00000000000E+00 -0.00000000000E+00 -0.45593999997E+02  0.45594000000E+02  0.51100000000E-03 0. -1.
    9900012    2    1    2    0    0  0.35490487943E+01 -0.12702190008E+02  0.13294243928E+02  0.72461593512E+02  0.70000030246E+02 0.  0.
         12    1    1    2    0    0 -0.35490487943E+01  0.12702190008E+02 -0.13294243928E+02  0.18726406488E+02  0.00000000000E+00 0. -1.
         11    1    3    3    0    0 -0.21453461873E+02 -0.16557912888E+02  0.13376137762E+01  0.27133092644E+02  0.51100000000E-03 0. -1.
        -11    1    3    3    0    0  0.10172258934E+02 -0.10651629818E+02  0.18433366905E+02  0.23594937705E+02  0.51100000000E-03 0.  1.
         12    1    3    3    0    0  0.14830251734E+02  0.14507352698E+02 -0.64767367531E+01  0.21733563163E+02  0.00000000000E+00 0. -1.
</event>
<event>
 7    1  0.1351543E-013  0.7246156E+02  0.7816164E-02  0.1226708E+00
        -11   -1    0    0    0    0  0.00000000000E+00  0.00000000000E+00  0.45593999997E+02  0.45594000000E+02  0.51100000000E-03 0.  1.
         11   -1    0    0    0    0 -0.00000000000E+00 -0.00000000000E+00 -0.45593999997E+02  0.45594000000E+02  0.51100000000E-03 0. -1.
    9900012    2    1    2    0    0 -0.83978323606E+01 -0.34696596203E+01  0.16374287551E+02  0.72461563632E+02  0.69999991321E+02 0.  0.
         12    1    1    2    0    0  0.83978323606E+01  0.34696596203E+01 -0.16374287551E+02  0.18726436368E+02  0.00000000000E+00 0. -1.
         11    1    3    3    0    0 -0.29721302368E+02 -0.10047394861E+02  0.15979876571E+02  0.35208839990E+02  0.51100000000E-03 0. -1.
        -11    1    3    3    0    0  0.37623027569E+01  0.72683772117E-01 -0.13448220282E+02  0.13964771175E+02  0.51100000000E-03 0.  1.
         12    1    3    3    0    0  0.17561167251E+02  0.65050514689E+01  0.13842631262E+02  0.23287952467E+02  0.00000000000E+00 0. -1.
</event>
<event>
 7    1  0.1351543E-013  0.7246155E+02  0.7816164E-02  0.1226708E+00
        -11   -1    0    0    0    0  0.00000000000E+00  0.00000000000E+00  0.45593999997E+02  0.45594000000E+02  0.51100000000E-03 0.  1.
         11   -1    0    0    0    0 -0.00000000000E+00 -0.00000000000E+00 -0.45593999997E+02  0.45594000000E+02  0.51100000000E-03 0. -1.
    9900012    2    1    2    0    0  0.85305858798E+01 -0.36519300037E+01  0.16265680487E+02  0.72461552128E+02  0.69999976334E+02 0.  0.
         12    1    1    2    0    0 -0.85305858798E+01  0.36519300037E+01 -0.16265680487E+02  0.18726447872E+02  0.00000000000E+00 0. -1.
         11    1    3    3    0    0  0.28168339432E+02 -0.36715827415E+01 -0.13990531354E+02  0.31664978036E+02  0.51100000000E-03 0. -1.
        -11    1    3    3    0    0 -0.15862498966E+02 -0.85153438667E+01  0.20824212614E+02  0.27527763910E+02  0.51100000000E-03 0.  1.
        -12    1    3    3    0    0 -0.37752545861E+01  0.85349966045E+01  0.94319992275E+01  0.13268810182E+02  0.00000000000E+00 0.  1.
</event>
<event>
 7    1  0.1351543E-013  0.7246159E+02  0.7816164E-02  0.1226708E+00
        -11   -1    0    0    0    0  0.00000000000E+00  0.00000000000E+00  0.45593999997E+02  0.45594000000E+02  0.51100000000E-03 0. -1.
         11   -1    0    0    0    0 -0.00000000000E+00 -0.00000000000E+00 -0.45593999997E+02  0.45594000000E+02  0.51100000000E-03 0.  1.
    9900012    2    1    2    0    0  0.80807975436E+01  0.10898195514E+02 -0.12907693681E+02  0.72461587889E+02  0.70000022920E+02 0.  0.
         12    1    1    2    0    0 -0.80807975436E+01 -0.10898195514E+02  0.12907693681E+02  0.18726412111E+02  0.00000000000E+00 0. -1.
         11    1    3    3    0    0 -0.13021001371E+01  0.15701288617E+02  0.18260617279E+02  0.24117961619E+02  0.51100000000E-03 0. -1.
        -11    1    3    3    0    0  0.22781221236E+02 -0.55167730959E+01 -0.21489338042E+02  0.31799535785E+02  0.51100000000E-03 0.  1.
         12    1    3    3    0    0 -0.13398323555E+02  0.71367999272E+00 -0.96789729176E+01  0.16544090485E+02  0.00000000000E+00 0. -1.
</event>
<event>
 7    1  0.1351543E-013  0.7246158E+02  0.7816164E-02  0.1226708E+00
        -11   -1    0    0    0    0  0.00000000000E+00  0.00000000000E+00  0.45593999997E+02  0.45594000000E+02  0.51100000000E-03 0.  1.
         11   -1    0    0    0    0 -0.00000000000E+00 -0.00000000000E+00 -0.45593999997E+02  0.45594000000E+02  0.51100000000E-03 0. -1.
    9900012    2    1    2    0    0  0.47272354152E+01  0.34182024151E+01  0.17794603395E+02  0.72461580897E+02  0.70000013812E+02 0.  0.
         12    1    1    2    0    0 -0.47272354152E+01 -0.34182024151E+01 -0.17794603395E+02  0.18726419103E+02  0.00000000000E+00 0. -1.
         11    1    3    3    0    0  0.15938325211E+02  0.19414379948E+02  0.33549919652E+02  0.41911161618E+02  0.51100000000E-03 0. -1.
        -11    1    3    3    0    0  0.10931882192E+01 -0.13132957325E+02 -0.55049766007E+01  0.14281960518E+02  0.51100000000E-03 0.  1.
         12    1    3    3    0    0 -0.12304278015E+02 -0.28632202071E+01 -0.10250339656E+02  0.16268458762E+02  0.00000000000E+00 0. -1.
</event>
<event>
 7    1  0.1351543E-013  0.7246158E+02  0.7816164E-02  0.1226708E+00
        -11   -1    0    0    0    0  0.00000000000E+00  0.00000000000E+00  0.45593999997E+02  0.45594000000E+02  0.51100000000E-03 0.  1.
         11   -1    0    0    0    0 -0.00000000000E+00 -0.00000000000E+00 -0.45593999997E+02  0.45594000000E+02  0.51100000000E-03 0. -1.
    9900012    2    1    2    0    0 -0.17239141257E+02  0.70635391586E+00  0.72795553941E+01  0.72461578722E+02  0.70000010979E+02 0.  0.
         12    1    1    2    0    0  0.17239141257E+02 -0.70635391586E+00 -0.72795553941E+01  0.18726421278E+02  0.00000000000E+00 0. -1.
         11    1    3    3    0    0  0.14755801239E+02  0.30054196213E+01  0.18287264394E+02  0.23689454543E+02  0.51100000000E-03 0.  1.
        -11    1    3    3    0    0 -0.29333292395E+02 -0.16022655146E+02 -0.92663831336E+01  0.34684771547E+02  0.51100000000E-03 0. -1.
         12    1    3    3    0    0 -0.26616501012E+01  0.13723589441E+02 -0.17413258662E+01  0.14087352632E+02  0.00000000000E+00 0. -1.
</event>
<event>
 7    1  0.1351543E-013  0.7246153E+02  0.7816164E-02  0.1226708E+00
        -11   -1    0    0    0    0  0.00000000000E+00  0.00000000000E+00  0.45593999997E+02  0.45594000000E+02  0.51100000000E-03 0. -1.
         11   -1    0    0    0    0 -0.00000000000E+00 -0.00000000000E+00 -0.45593999997E+02  0.45594000000E+02  0.51100000000E-03 0.  1.
    9900012    2    1    2    0    0  0.92491798214E+01 -0.52180101921E+01 -0.15424188234E+02  0.72461533691E+02  0.69999952317E+02 0.  0.
         12    1    1    2    0    0 -0.92491798214E+01  0.52180101921E+01  0.15424188234E+02  0.18726466309E+02  0.00000000000E+00 0. -1.
         11    1    3    3    0    0 -0.12082242114E+02 -0.95104751591E+00 -0.25175474781E+02  0.27940823119E+02  0.51100000000E-03 0. -1.
        -11    1    3    3    0    0  0.11471270983E+02 -0.13185906219E+02  0.20846687408E+02  0.27203723218E+02  0.51100000000E-03 0.  1.
        -12    1    3    3    0    0  0.98601509523E+01  0.89189435423E+01 -0.11095400862E+02  0.17316987353E+02  0.00000000000E+00 0.  1.
</event>
<event>
 7    1  0.1351543E-013  0.7246168E+02  0.7816164E-02  0.1226708E+00
        -11   -1    0    0    0    0  0.00000000000E+00  0.00000000000E+00  0.45593999997E+02  0.45594000000E+02  0.51100000000E-03 0.  1.
         11   -1    0    0    0    0 -0.00000000000E+00 -0.00000000000E+00 -0.45593999997E+02  0.45594000000E+02  0.51100000000E-03 0. -1.
    9900012    2    1    2    0    0  0.25501067953E+01  0.76245274946E+01  0.16912670479E+02  0.72461684641E+02  0.70000148958E+02 0.  0.
         12    1    1    2    0    0 -0.25501067953E+01 -0.76245274946E+01 -0.16912670479E+02  0.18726315359E+02  0.00000000000E+00 0. -1.
         11    1    3    3    0    0 -0.53489196431E+01  0.17469883642E+01 -0.12932797696E+02  0.14103906062E+02  0.51100000000E-03 0. -1.
        -11    1    3    3    0    0  0.20626637248E+02  0.21189002097E+02  0.13104247699E+02  0.32344292882E+02  0.51100000000E-03 0.  1.
        -12    1    3    3    0    0 -0.12727610810E+02 -0.15311462966E+02  0.16741220476E+02  0.26013485697E+02  0.00000000000E+00 0.  1.
</event>
<event>
 7    1  0.1351543E-013  0.7246155E+02  0.7816164E-02  0.1226708E+00
        -11   -1    0    0    0    0  0.00000000000E+00  0.00000000000E+00  0.45593999997E+02  0.45594000000E+02  0.51100000000E-03 0.  1.
         11   -1    0    0    0    0 -0.00000000000E+00 -0.00000000000E+00 -0.45593999997E+02  0.45594000000E+02  0.51100000000E-03 0. -1.
    9900012    2    1    2    0    0  0.15293635844E+02 -0.73233571294E+01  0.79469020323E+01  0.72461545213E+02  0.69999967327E+02 0.  0.
         12    1    1    2    0    0 -0.15293635844E+02  0.73233571294E+01 -0.79469020323E+01  0.18726454787E+02  0.00000000000E+00 0. -1.
         11    1    3    3    0    0  0.54770200593E-01 -0.21838408040E+02  0.11514873802E+02  0.24688284356E+02  0.51100000000E-03 0. -1.
        -11    1    3    3    0    0  0.27825466574E+02  0.17004299451E+02 -0.90172596923E+01  0.33833618820E+02  0.51100000000E-03 0.  1.
         12    1    3    3    0    0 -0.12586600930E+02 -0.24892485402E+01  0.54492879227E+01  0.13939642038E+02  0.00000000000E+00 0. -1.
</event>
<event>
 7    1  0.1351543E-013  0.7246160E+02  0.7816164E-02  0.1226708E+00
        -11   -1    0    0    0    0  0.00000000000E+00  0.00000000000E+00  0.45593999997E+02  0.45594000000E+02  0.51100000000E-03 0.  1.
         11   -1    0    0    0    0 -0.00000000000E+00 -0.00000000000E+00 -0.45593999997E+02  0.45594000000E+02  0.51100000000E-03 0. -1.
    9900012    2    1    2    0    0 -0.48985652726E+01 -0.27511096287E+01  0.17863746035E+02  0.72461602367E+02  0.70000041781E+02 0.  0.
         12    1    1    2    0    0  0.48985652726E+01  0.27511096287E+01 -0.17863746035E+02  0.18726397633E+02  0.00000000000E+00 0. -1.
         11    1    3    3    0    0 -0.26637855888E+01  0.20055821942E+02  0.71539553345E+01  0.21459515946E+02  0.51100000000E-03 0. -1.
        -11    1    3    3    0    0  0.94243344841E+00 -0.23590522052E+02 -0.13078493249E+02  0.26989773942E+02  0.51100000000E-03 0.  1.
        -12    1    3    3    0    0 -0.31772131322E+01  0.78359048116E+00  0.23788283949E+02  0.24012312479E+02  0.00000000000E+00 0.  1.
</event>
<event>
 7    1  0.1351543E-013  0.7246183E+02  0.7816164E-02  0.1226707E+00
        -11   -1    0    0    0    0  0.00000000000E+00  0.00000000000E+00  0.45593999997E+02  0.45594000000E+02  0.51100000000E-03 0.  1.
         11   -1    0    0    0    0 -0.00000000000E+00 -0.00000000000E+00 -0.45593999997E+02  0.45594000000E+02  0.51100000000E-03 0. -1.
    9900012    2    1    2    0    0 -0.10657134386E+02 -0.44041006418E+01  0.14754614507E+02  0.72461834748E+02  0.70000344499E+02 0.  0.
         12    1    1    2    0    0  0.10657134386E+02  0.44041006418E+01 -0.14754614507E+02  0.18726165252E+02  0.00000000000E+00 0. -1.
         11    1    3    3    0    0  0.80190305593E+01 -0.30085400435E+02 -0.16546726321E+01  0.31179706737E+02  0.51100000000E-03 0. -1.
        -11    1    3    3    0    0 -0.11412302539E+02  0.80417193132E+01  0.17244208899E+02  0.22187217932E+02  0.51100000000E-03 0.  1.
         12    1    3    3    0    0 -0.72638624068E+01  0.17639580480E+02 -0.83492175931E+00  0.19094910079E+02  0.00000000000E+00 0. -1.
</event>
<event>
 7    1  0.1351543E-013  0.7246164E+02  0.7816164E-02  0.1226708E+00
        -11   -1    0    0    0    0  0.00000000000E+00  0.00000000000E+00  0.45593999997E+02  0.45594000000E+02  0.51100000000E-03 0.  1.
         11   -1    0    0    0    0 -0.00000000000E+00 -0.00000000000E+00 -0.45593999997E+02  0.45594000000E+02  0.51100000000E-03 0. -1.
    9900012    2    1    2    0    0 -0.15547458238E+02  0.10415324818E+02 -0.68861581824E+00  0.72461637820E+02  0.70000087965E+02 0.  0.
         12    1    1    2    0    0  0.15547458238E+02 -0.10415324818E+02  0.68861581824E+00  0.18726362180E+02  0.00000000000E+00 0. -1.
         11    1    3    3    0    0 -0.71876260451E+01 -0.19146099451E+02 -0.10065788607E+01  0.20475553560E+02  0.51100000000E-03 0. -1.
        -11    1    3    3    0    0  0.17193687415E+02  0.12261857326E+02 -0.32702643543E+00  0.21120676564E+02  0.51100000000E-03 0.  1.
        -12    1    3    3    0    0 -0.25553519608E+02  0.17299566943E+02  0.64498947785E+00  0.30865407695E+02  0.00000000000E+00 0.  1.
</event>
<event>
 7    1  0.1351543E-013  0.7246162E+02  0.7816164E-02  0.1226708E+00
        -11   -1    0    0    0    0  0.00000000000E+00  0.00000000000E+00  0.45593999997E+02  0.45594000000E+02  0.51100000000E-03 0. -1.
         11   -1    0    0    0    0 -0.00000000000E+00 -0.00000000000E+00 -0.45593999997E+02  0.45594000000E+02  0.51100000000E-03 0.  1.
    9900012    2    1    2    0    0 -0.14057034630E+02  0.12121576529E+02  0.24787797051E+01  0.72461623176E+02  0.70000068888E+02 0.  0.
         12    1    1    2    0    0  0.14057034630E+02 -0.12121576529E+02 -0.24787797051E+01  0.18726376824E+02  0.00000000000E+00 0. -1.
         11    1    3    3    0    0  0.19885961851E+02  0.12708693070E+02  0.26649963183E+01  0.23750043451E+02  0.51100000000E-03 0. -1.
        -11    1    3    3    0    0 -0.33233398983E+02 -0.66234499775E+01 -0.11569288430E+02  0.35807503859E+02  0.51100000000E-03 0.  1.
        -12    1    3    3    0    0 -0.70959749822E+00  0.60363334364E+01  0.11383071817E+02  0.12904075866E+02  0.00000000000E+00 0.  1.
</event>
<event>
 7    1  0.1351543E-013  0.7246146E+02  0.7816164E-02  0.1226708E+00
        -11   -1    0    0    0    0  0.00000000000E+00  0.00000000000E+00  0.45593999997E+02  0.45594000000E+02  0.51100000000E-03 0.  1.
         11   -1    0    0    0    0 -0.00000000000E+00 -0.00000000000E+00 -0.45593999997E+02  0.45594000000E+02  0.51100000000E-03 0. -1.
    9900012    2    1    2    0    0 -0.89229723887E+01  0.11839990767E+02 -0.11440220766E+02  0.72461455503E+02  0.69999850463E+02 0.  0.
         12    1    1    2    0    0  0.89229723887E+01 -0.11839990767E+02  0.11440220766E+02  0.18726544497E+02  0.00000000000E+00 0. -1.
         11    1    3    3    0    0 -0.97597452497E+01 -0.17888190430E+02  0.56824518720E+01  0.21154910629E+02  0.51100000000E-03 0. -1.
        -11    1    3    3    0    0 -0.70992212479E+01  0.27434410208E+02  0.40065244311E+01  0.28619888959E+02  0.51100000000E-03 0.  1.
         12    1    3    3    0    0  0.79359941089E+01  0.22937709892E+01 -0.21129197069E+02  0.22686655915E+02  0.00000000000E+00 0. -1.
</event>
<event>
 7    1  0.1879276E-013  0.7246157E+02  0.7816164E-02  0.1226708E+00
        -11   -1    0    0    0    0  0.00000000000E+00  0.00000000000E+00  0.45593999997E+02  0.45594000000E+02  0.51100000000E-03 0. -1.
         11   -1    0    0    0    0 -0.00000000000E+00 -0.00000000000E+00 -0.45593999997E+02  0.45594000000E+02  0.51100000000E-03 0.  1.
    9900012    2    1    2    0    0 -0.58457267124E+00 -0.16041090793E+02 -0.96447268661E+01  0.72461572809E+02  0.70000003275E+02 0.  0.
         12    1    1    2    0    0  0.58457267124E+00  0.16041090793E+02  0.96447268661E+01  0.18726427191E+02  0.00000000000E+00 0. -1.
         11    1    3    3    0    0  0.13614779330E+02  0.93854885852E+01  0.17251281493E+02  0.23896784838E+02  0.51100000000E-03 0. -1.
        -11    1    3    3    0    0  0.11647300577E+01 -0.50547917261E+01 -0.21974599200E+02  0.22578541267E+02  0.51100000000E-03 0.  1.
         12    1    3    3    0    0 -0.15364082059E+02 -0.20371787652E+02 -0.49214091586E+01  0.25986246704E+02  0.00000000000E+00 0. -1.
</event>
<event>
 7    1  0.1351543E-013  0.7246156E+02  0.7816164E-02  0.1226708E+00
        -11   -1    0    0    0    0  0.00000000000E+00  0.00000000000E+00  0.45593999997E+02  0.45594000000E+02  0.51100000000E-03 0. -1.
         11   -1    0    0    0    0 -0.00000000000E+00 -0.00000000000E+00 -0.45593999997E+02  0.45594000000E+02  0.51100000000E-03 0.  1.
    9900012    2    1    2    0    0  0.74634675204E+01 -0.12048421094E+02 -0.12239758936E+02  0.72461561548E+02  0.69999988606E+02 0.  0.
         12    1    1    2    0    0 -0.74634675204E+01  0.12048421094E+02  0.12239758936E+02  0.18726438452E+02  0.00000000000E+00 0. -1.
         11    1    3    3    0    0 -0.11524476739E+02 -0.15076943246E+02 -0.19152433947E+01  0.19073435434E+02  0.51100000000E-03 0. -1.
        -11    1    3    3    0    0  0.30254390236E+02  0.13223679824E+02  0.30329134538E+01  0.33157086737E+02  0.51100000000E-03 0.  1.
        -12    1    3    3    0    0 -0.11266445976E+02 -0.10195157672E+02 -0.13357428995E+02  0.20231039377E+02  0.00000000000E+00 0.  1.
</event>
<event>
 7    1  0.1351543E-013  0.7246157E+02  0.7816164E-02  0.1226708E+00
        -11   -1    0    0    0    0  0.00000000000E+00  0.00000000000E+00  0.45593999997E+02  0.45594000000E+02  0.51100000000E-03 0. -1.
         11   -1    0    0    0    0 -0.00000000000E+00 -0.00000000000E+00 -0.45593999997E+02  0.45594000000E+02  0.51100000000E-03 0.  1.
    9900012    2    1    2    0    0  0.89036598529E+01 -0.15450324118E+02 -0.57176552676E+01  0.72461567988E+02  0.69999996996E+02 0.  0.
         12    1    1    2    0    0 -0.89036598529E+01  0.15450324118E+02  0.57176552676E+01  0.18726432012E+02  0.00000000000E+00 0. -1.
         11    1    3    3    0    0 -0.12538078346E+01 -0.11264568402E+02  0.10202108971E+01  0.11379954565E+02  0.51100000000E-03 0. -1.
        -11    1    3    3    0    0  0.19385257890E+02  0.21670347076E+02 -0.14585069936E+02  0.32528701652E+02  0.51100000000E-03 0.  1.
        -12    1    3    3    0    0 -0.92277902026E+01 -0.25856102792E+02  0.78472037714E+01  0.28552911772E+02  0.00000000000E+00 0.  1.
</event>
<event>
 7    1  0.1351543E-013  0.7246159E+02  0.7816164E-02  0.1226708E+00
        -11   -1    0    0    0    0  0.00000000000E+00  0.00000000000E+00  0.45593999997E+02  0.45594000000E+02  0.51100000000E-03 0. -1.
         11   -1    0    0    0    0 -0.00000000000E+00 -0.00000000000E+00 -0.45593999997E+02  0.45594000000E+02  0.51100000000E-03 0.  1.
    9900012    2    1    2    0    0  0.32365726277E+01 -0.17884935140E+02 -0.45091077853E+01  0.72461591899E+02  0.70000028144E+02 0.  0.
         12    1    1    2    0    0 -0.32365726277E+01  0.17884935140E+02  0.45091077853E+01  0.18726408101E+02  0.00000000000E+00 0. -1.
         11    1    3    3    0    0  0.28757009541E+02  0.10067816085E+02 -0.12651470224E+02  0.32990698956E+02  0.51100000000E-03 0. -1.
        -11    1    3    3    0    0 -0.65792621665E+01 -0.61367264261E+01  0.52953096715E+01  0.10439655486E+02  0.51100000000E-03 0.  1.
         12    1    3    3    0    0 -0.18941174747E+02 -0.21816024800E+02  0.28470527675E+01  0.29031237457E+02  0.00000000000E+00 0. -1.
</event>
<event>
 7    1  0.1351543E-013  0.7246154E+02  0.7816164E-02  0.1226708E+00
        -11   -1    0    0    0    0  0.00000000000E+00  0.00000000000E+00  0.45593999997E+02  0.45594000000E+02  0.51100000000E-03 0.  1.
         11   -1    0    0    0    0 -0.00000000000E+00 -0.00000000000E+00 -0.45593999997E+02  0.45594000000E+02  0.51100000000E-03 0. -1.
    9900012    2    1    2    0    0 -0.84324839809E+01  0.14757616489E+02  0.78604299002E+01  0.72461537741E+02  0.69999957594E+02 0.  0.
         12    1    1    2    0    0  0.84324839809E+01 -0.14757616489E+02 -0.78604299002E+01  0.18726462259E+02  0.00000000000E+00 0. -1.
         11    1    3    3    0    0  0.42863150916E+01  0.13448538953E+02 -0.23032521541E+02  0.27013565960E+02  0.51100000000E-03 0. -1.
        -11    1    3    3    0    0 -0.15192033859E+02 -0.12194841562E+02  0.20032720368E+02  0.27943191284E+02  0.51100000000E-03 0.  1.
         12    1    3    3    0    0  0.24732347863E+01  0.13503919098E+02  0.10860231073E+02  0.17504780498E+02  0.00000000000E+00 0. -1.
</event>
<event>
 7    1  0.1351543E-013  0.7246172E+02  0.7816164E-02  0.1226708E+00
        -11   -1    0    0    0    0  0.00000000000E+00  0.00000000000E+00  0.45593999997E+02  0.45594000000E+02  0.51100000000E-03 0.  1.
         11   -1    0    0    0    0 -0.00000000000E+00 -0.00000000000E+00 -0.45593999997E+02  0.45594000000E+02  0.51100000000E-03 0. -1.
    9900012    2    1    2    0    0  0.10734241470E+02 -0.15392159553E+01  0.15266971860E+02  0.72461720192E+02  0.70000195269E+02 0.  0.
         12    1    1    2    0    0 -0.10734241470E+02  0.15392159553E+01 -0.15266971860E+02  0.18726279808E+02  0.00000000000E+00 0. -1.
         11    1    3    3    0    0 -0.27329485919E+02  0.66049718846E+01  0.70114919165E+01  0.28977361394E+02  0.51100000000E-03 0. -1.
        -11    1    3    3    0    0  0.14784088792E+02  0.38187858285E+01  0.81550779721E+01  0.17310624010E+02  0.51100000000E-03 0.  1.
         12    1    3    3    0    0  0.23279638597E+02 -0.11962973668E+02  0.10040197118E+00  0.26173734788E+02  0.00000000000E+00 0. -1.
</event>
<event>
 7    1  0.1351543E-013  0.7246156E+02  0.7816164E-02  0.1226708E+00
        -11   -1    0    0    0    0  0.00000000000E+00  0.00000000000E+00  0.45593999997E+02  0.45594000000E+02  0.51100000000E-03 0. -1.
         11   -1    0    0    0    0 -0.00000000000E+00 -0.00000000000E+00 -0.45593999997E+02  0.45594000000E+02  0.51100000000E-03 0.  1.
    9900012    2    1    2    0    0  0.24584989841E+01  0.17697292823E+02  0.56072437709E+01  0.72461559516E+02  0.69999985959E+02 0.  0.
         12    1    1    2    0    0 -0.24584989841E+01 -0.17697292823E+02 -0.56072437709E+01  0.18726440484E+02  0.00000000000E+00 0. -1.
         11    1    3    3    0    0  0.86953788062E+01  0.12071858780E+02  0.86963916695E+01  0.17232719324E+02  0.51100000000E-03 0. -1.
        -11    1    3    3    0    0 -0.18715846261E+02 -0.13430497805E+02  0.13817044817E+02  0.26862090393E+02  0.51100000000E-03 0.  1.
        -12    1    3    3    0    0  0.12478966439E+02  0.19055931848E+02 -0.16906192716E+02  0.28366749798E+02  0.00000000000E+00 0.  1.
</event>
<event>
 7    1  0.1351543E-013  0.7246157E+02  0.7816164E-02  0.1226708E+00
        -11   -1    0    0    0    0  0.00000000000E+00  0.00000000000E+00  0.45593999997E+02  0.45594000000E+02  0.51100000000E-03 0.  1.
         11   -1    0    0    0    0 -0.00000000000E+00 -0.00000000000E+00 -0.45593999997E+02  0.45594000000E+02  0.51100000000E-03 0. -1.
    9900012    2    1    2    0    0  0.13977634754E+02  0.10951008760E+02  0.59481503340E+01  0.72461565247E+02  0.69999993424E+02 0.  0.
         12    1    1    2    0    0 -0.13977634754E+02 -0.10951008760E+02 -0.59481503340E+01  0.18726434753E+02  0.00000000000E+00 0. -1.
         11    1    3    3    0    0  0.20658604228E+01  0.16634708074E+02 -0.12682431423E+02  0.21019642220E+02  0.51100000000E-03 0. -1.
        -11    1    3    3    0    0  0.95487995166E+00 -0.10504273871E+02  0.31883739504E+02  0.33583097092E+02  0.51100000000E-03 0.  1.
         12    1    3    3    0    0  0.10956894379E+02  0.48205745571E+01 -0.13253157747E+02  0.17858825935E+02  0.00000000000E+00 0. -1.
</event>
<event>
 7    1  0.1351543E-013  0.7246154E+02  0.7816164E-02  0.1226708E+00
        -11   -1    0    0    0    0  0.00000000000E+00  0.00000000000E+00  0.45593999997E+02  0.45594000000E+02  0.51100000000E-03 0. -1.
         11   -1    0    0    0    0 -0.00000000000E+00 -0.00000000000E+00 -0.45593999997E+02  0.45594000000E+02  0.51100000000E-03 0.  1.
    9900012    2    1    2    0    0  0.11122091848E+02  0.94862357624E+01  0.11704307857E+02  0.72461536948E+02  0.69999956561E+02 0.  0.
         12    1    1    2    0    0 -0.11122091848E+02 -0.94862357624E+01 -0.11704307857E+02  0.18726463052E+02  0.00000000000E+00 0. -1.
         11    1    3    3    0    0  0.21622018567E+01  0.15901134686E+02  0.85698304437E+01  0.18192393885E+02  0.51100000000E-03 0. -1.
        -11    1    3    3    0    0  0.22518656307E+02 -0.16781315504E+02  0.16516715324E+02  0.32580735371E+02  0.51100000000E-03 0.  1.
        -12    1    3    3    0    0 -0.13558766317E+02  0.10366416580E+02 -0.13382237911E+02  0.21688407692E+02  0.00000000000E+00 0.  1.
</event>
<event>
 7    1  0.1351543E-013  0.7246156E+02  0.7816164E-02  0.1226708E+00
        -11   -1    0    0    0    0  0.00000000000E+00  0.00000000000E+00  0.45593999997E+02  0.45594000000E+02  0.51100000000E-03 0.  1.
         11   -1    0    0    0    0 -0.00000000000E+00 -0.00000000000E+00 -0.45593999997E+02  0.45594000000E+02  0.51100000000E-03 0. -1.
    9900012    2    1    2    0    0 -0.13392145600E+02 -0.91133041338E+01 -0.93956226808E+01  0.72461558759E+02  0.69999984973E+02 0.  0.
         12    1    1    2    0    0  0.13392145600E+02  0.91133041338E+01  0.93956226808E+01  0.18726441241E+02  0.00000000000E+00 0. -1.
         11    1    3    3    0    0 -0.20570618030E+02  0.86538262726E+01 -0.16753159353E+01  0.22379582638E+02  0.51100000000E-03 0.  1.
        -11    1    3    3    0    0  0.13411654226E+02  0.99712245432E+01 -0.12990928764E+02  0.21167475484E+02  0.51100000000E-03 0. -1.
        -12    1    3    3    0    0 -0.62331817955E+01 -0.27738354950E+02  0.52706220185E+01  0.28914500637E+02  0.00000000000E+00 0.  1.
</event>
<event>
 7    1  0.1351543E-013  0.7246156E+02  0.7816164E-02  0.1226708E+00
        -11   -1    0    0    0    0  0.00000000000E+00  0.00000000000E+00  0.45593999997E+02  0.45594000000E+02  0.51100000000E-03 0. -1.
         11   -1    0    0    0    0 -0.00000000000E+00 -0.00000000000E+00 -0.45593999997E+02  0.45594000000E+02  0.51100000000E-03 0.  1.
    9900012    2    1    2    0    0  0.16165660213E+02  0.56744870158E+01 -0.75598307216E+01  0.72461563779E+02  0.69999991512E+02 0.  0.
         12    1    1    2    0    0 -0.16165660213E+02 -0.56744870158E+01  0.75598307216E+01  0.18726436221E+02  0.00000000000E+00 0. -1.
         11    1    3    3    0    0  0.19677996898E+01 -0.10581148225E+02  0.39587385047E+01  0.11467543076E+02  0.51100000000E-03 0. -1.
        -11    1    3    3    0    0 -0.81466082833E+01  0.31620046853E+02 -0.43161396685E+01  0.32936661206E+02  0.51100000000E-03 0.  1.
        -12    1    3    3    0    0  0.22344468807E+02 -0.15364411612E+02 -0.72024295578E+01  0.28057359497E+02  0.00000000000E+00 0.  1.
</event>
<event>
 7    1  0.1351543E-013  0.7246167E+02  0.7816164E-02  0.1226708E+00
        -11   -1    0    0    0    0  0.00000000000E+00  0.00000000000E+00  0.45593999997E+02  0.45594000000E+02  0.51100000000E-03 0.  1.
         11   -1    0    0    0    0 -0.00000000000E+00 -0.00000000000E+00 -0.45593999997E+02  0.45594000000E+02  0.51100000000E-03 0. -1.
    9900012    2    1    2    0    0 -0.14428249002E+02  0.15729643329E+01  0.11833287802E+02  0.72461673978E+02  0.70000135067E+02 0.  0.
         12    1    1    2    0    0  0.14428249002E+02 -0.15729643329E+01 -0.11833287802E+02  0.18726326022E+02  0.00000000000E+00 0. -1.
         11    1    3    3    0    0  0.47057128383E+01 -0.63056727513E+01 -0.11991386735E+02  0.14342196423E+02  0.51100000000E-03 0. -1.
        -11    1    3    3    0    0  0.58534763276E+01  0.20415260124E+02  0.21252768977E+02  0.30045402652E+02  0.51100000000E-03 0.  1.
        -12    1    3    3    0    0 -0.24987438168E+02 -0.12536623040E+02  0.25719055604E+01  0.28074074903E+02  0.00000000000E+00 0.  1.
</event>
<event>
 7    1  0.1351543E-013  0.7246152E+02  0.7816164E-02  0.1226708E+00
        -11   -1    0    0    0    0  0.00000000000E+00  0.00000000000E+00  0.45593999997E+02  0.45594000000E+02  0.51100000000E-03 0. -1.
         11   -1    0    0    0    0 -0.00000000000E+00 -0.00000000000E+00 -0.45593999997E+02  0.45594000000E+02  0.51100000000E-03 0.  1.
    9900012    2    1    2    0    0  0.50079743082E+01  0.11021625230E+02  0.14287231103E+02  0.72461521367E+02  0.69999936264E+02 0.  0.
         12    1    1    2    0    0 -0.50079743082E+01 -0.11021625230E+02 -0.14287231103E+02  0.18726478633E+02  0.00000000000E+00 0. -1.
         11    1    3    3    0    0 -0.76999989051E+01 -0.58075370934E+01  0.70813882508E+01  0.11965096324E+02  0.51100000000E-03 0. -1.
        -11    1    3    3    0    0  0.16854317260E+02  0.73461290626E+01 -0.22489897584E+02  0.29048736911E+02  0.51100000000E-03 0.  1.
        -12    1    3    3    0    0 -0.41463440466E+01  0.94830332606E+01  0.29695740437E+02  0.31447688132E+02  0.00000000000E+00 0.  1.
</event>
<event>
 7    1  0.1351543E-013  0.7246170E+02  0.7816164E-02  0.1226708E+00
        -11   -1    0    0    0    0  0.00000000000E+00  0.00000000000E+00  0.45593999997E+02  0.45594000000E+02  0.51100000000E-03 0. -1.
         11   -1    0    0    0    0 -0.00000000000E+00 -0.00000000000E+00 -0.45593999997E+02  0.45594000000E+02  0.51100000000E-03 0.  1.
    9900012    2    1    2    0    0  0.76087085368E+01 -0.17076000235E+02 -0.10917805538E+01  0.72461702597E+02  0.70000172349E+02 0.  0.
         12    1    1    2    0    0 -0.76087085368E+01  0.17076000235E+02  0.10917805538E+01  0.18726297403E+02  0.00000000000E+00 0. -1.
         11    1    3    3    0    0  0.27513436010E+02 -0.82332256329E+01  0.77070914523E+01  0.29735070612E+02  0.51100000000E-03 0. -1.
        -11    1    3    3    0    0 -0.11753576049E+02 -0.10777729191E+02 -0.21951480210E+02  0.27132517025E+02  0.51100000000E-03 0.  1.
         12    1    3    3    0    0 -0.81511514242E+01  0.19349545883E+01  0.13152608204E+02  0.15594114959E+02  0.00000000000E+00 0. -1.
</event>
<event>
 7    1  0.1351543E-013  0.7246157E+02  0.7816164E-02  0.1226708E+00
        -11   -1    0    0    0    0  0.00000000000E+00  0.00000000000E+00  0.45593999997E+02  0.45594000000E+02  0.51100000000E-03 0. -1.
         11   -1    0    0    0    0 -0.00000000000E+00 -0.00000000000E+00 -0.45593999997E+02  0.45594000000E+02  0.51100000000E-03 0.  1.
    9900012    2    1    2    0    0  0.38223251877E+01 -0.17789004588E+02  0.44294838516E+01  0.72461569980E+02  0.69999999591E+02 0.  0.
         12    1    1    2    0    0 -0.38223251877E+01  0.17789004588E+02 -0.44294838516E+01  0.18726430020E+02  0.00000000000E+00 0. -1.
         11    1    3    3    0    0  0.17977073893E+02 -0.47277811463E+01  0.23602796483E+02  0.30043619995E+02  0.51100000000E-03 0. -1.
        -11    1    3    3    0    0 -0.26785415600E+01 -0.21972474469E+02 -0.16585816717E+02  0.27659601147E+02  0.51100000000E-03 0.  1.
         12    1    3    3    0    0 -0.11476207146E+02  0.89112510266E+01 -0.25874959145E+01  0.14758348838E+02  0.00000000000E+00 0. -1.
</event>
<event>
 7    1  0.1351543E-013  0.7246154E+02  0.7816164E-02  0.1226708E+00
        -11   -1    0    0    0    0  0.00000000000E+00  0.00000000000E+00  0.45593999997E+02  0.45594000000E+02  0.51100000000E-03 0.  1.
         11   -1    0    0    0    0 -0.00000000000E+00 -0.00000000000E+00 -0.45593999997E+02  0.45594000000E+02  0.51100000000E-03 0. -1.
    9900012    2    1    2    0    0 -0.88263048319E+01  0.14462309096E+02  0.79761153253E+01  0.72461535917E+02  0.69999955217E+02 0.  0.
         12    1    1    2    0    0  0.88263048319E+01 -0.14462309096E+02 -0.79761153253E+01  0.18726464083E+02  0.00000000000E+00 0. -1.
         11    1    3    3    0    0 -0.26491261242E+02  0.26912398296E+02  0.14480231205E+02  0.40444297500E+02  0.51100000000E-03 0.  1.
        -11    1    3    3    0    0 -0.92766155089E+00 -0.92480820089E+01  0.43384661857E+01  0.10257186062E+02  0.51100000000E-03 0. -1.
         12    1    3    3    0    0  0.18592617960E+02 -0.32020071919E+01 -0.10842582066E+02  0.21760052356E+02  0.00000000000E+00 0. -1.
</event>
<event>
 7    1  0.1590768E-013  0.7246162E+02  0.7816164E-02  0.1226708E+00
        -11   -1    0    0    0    0  0.00000000000E+00  0.00000000000E+00  0.45593999997E+02  0.45594000000E+02  0.51100000000E-03 0. -1.
         11   -1    0    0    0    0 -0.00000000000E+00 -0.00000000000E+00 -0.45593999997E+02  0.45594000000E+02  0.51100000000E-03 0.  1.
    9900012    2    1    2    0    0  0.68065232564E+01  0.16297521617E+02 -0.62240888142E+01  0.72461621512E+02  0.70000066721E+02 0.  0.
         12    1    1    2    0    0 -0.68065232564E+01 -0.16297521617E+02  0.62240888142E+01  0.18726378488E+02  0.00000000000E+00 0. -1.
         11    1    3    3    0    0 -0.20931679780E+02  0.17583215348E+02 -0.27012014986E+01  0.27470004918E+02  0.51100000000E-03 0. -1.
        -11    1    3    3    0    0  0.20273107939E+02  0.15981290273E+02 -0.42684374610E+01  0.26165246089E+02  0.51100000000E-03 0.  1.
         12    1    3    3    0    0  0.74650950981E+01 -0.17266984003E+02  0.74555014540E+00  0.18826370506E+02  0.00000000000E+00 0. -1.
</event>
<event>
 7    1  0.1351543E-013  0.7246157E+02  0.7816164E-02  0.1226708E+00
        -11   -1    0    0    0    0  0.00000000000E+00  0.00000000000E+00  0.45593999997E+02  0.45594000000E+02  0.51100000000E-03 0. -1.
         11   -1    0    0    0    0 -0.00000000000E+00 -0.00000000000E+00 -0.45593999997E+02  0.45594000000E+02  0.51100000000E-03 0.  1.
    9900012    2    1    2    0    0  0.14745862534E+02 -0.58087676273E+01 -0.99748105064E+01  0.72461572475E+02  0.70000002840E+02 0.  0.
         12    1    1    2    0    0 -0.14745862534E+02  0.58087676273E+01  0.99748105064E+01  0.18726427525E+02  0.00000000000E+00 0. -1.
         11    1    3    3    0    0 -0.16015061069E+02 -0.52571988964E+00  0.88100638946E+01  0.18285945109E+02  0.51100000000E-03 0. -1.
        -11    1    3    3    0    0  0.37326316520E+02  0.59369673536E+01 -0.14626770012E+02  0.40527075981E+02  0.51100000000E-03 0.  1.
        -12    1    3    3    0    0 -0.65653929166E+01 -0.11220015091E+02 -0.41581043891E+01  0.13648551385E+02  0.00000000000E+00 0.  1.
</event>
<event>
 7    1  0.1351543E-013  0.7246159E+02  0.7816164E-02  0.1226708E+00
        -11   -1    0    0    0    0  0.00000000000E+00  0.00000000000E+00  0.45593999997E+02  0.45594000000E+02  0.51100000000E-03 0.  1.
         11   -1    0    0    0    0 -0.00000000000E+00 -0.00000000000E+00 -0.45593999997E+02  0.45594000000E+02  0.51100000000E-03 0. -1.
    9900012    2    1    2    0    0  0.20149576878E+01  0.46890898383E+01  0.18017513229E+02  0.72461590815E+02  0.70000026732E+02 0.  0.
         12    1    1    2    0    0 -0.20149576878E+01 -0.46890898383E+01 -0.18017513229E+02  0.18726409185E+02  0.00000000000E+00 0. -1.
         11    1    3    3    0    0  0.20003442674E+02 -0.85652214001E+01  0.13544738765E+01  0.21802186500E+02  0.51100000000E-03 0. -1.
        -11    1    3    3    0    0 -0.13235189804E+01  0.24057971510E+02  0.18969223666E+02  0.30665438892E+02  0.51100000000E-03 0.  1.
         12    1    3    3    0    0 -0.16664966006E+02 -0.10803660272E+02 -0.23061843138E+01  0.19993965423E+02  0.00000000000E+00 0. -1.
</event>
<event>
 7    1  0.1351543E-013  0.7246156E+02  0.7816164E-02  0.1226708E+00
        -11   -1    0    0    0    0  0.00000000000E+00  0.00000000000E+00  0.45593999997E+02  0.45594000000E+02  0.51100000000E-03 0.  1.
         11   -1    0    0    0    0 -0.00000000000E+00 -0.00000000000E+00 -0.45593999997E+02  0.45594000000E+02  0.51100000000E-03 0. -1.
    9900012    2    1    2    0    0  0.13490844471E+02 -0.12597195573E+02 -0.31602606496E+01  0.72461562319E+02  0.69999989611E+02 0.  0.
         12    1    1    2    0    0 -0.13490844471E+02  0.12597195573E+02  0.31602606496E+01  0.18726437681E+02  0.00000000000E+00 0. -1.
         11    1    3    3    0    0  0.38872291237E+02 -0.19249012123E+01 -0.31373932817E+01  0.39046171484E+02  0.51100000000E-03 0. -1.
        -11    1    3    3    0    0 -0.12970292622E+01 -0.12558231121E+01  0.64996292337E+01  0.67457065629E+01  0.51100000000E-03 0.  1.
         12    1    3    3    0    0 -0.24084417504E+02 -0.94164712486E+01 -0.65224966016E+01  0.26669684272E+02  0.00000000000E+00 0. -1.
</event>
<event>
 7    1  0.1351543E-013  0.7246159E+02  0.7816164E-02  0.1226708E+00
        -11   -1    0    0    0    0  0.00000000000E+00  0.00000000000E+00  0.45593999997E+02  0.45594000000E+02  0.51100000000E-03 0.  1.
         11   -1    0    0    0    0 -0.00000000000E+00 -0.00000000000E+00 -0.45593999997E+02  0.45594000000E+02  0.51100000000E-03 0. -1.
    9900012    2    1    2    0    0 -0.15143482698E+02  0.16927495553E+01  0.10885210798E+02  0.72461593954E+02  0.70000030820E+02 0.  0.
         12    1    1    2    0    0  0.15143482698E+02 -0.16927495553E+01 -0.10885210798E+02  0.18726406046E+02  0.00000000000E+00 0. -1.
         11    1    3    3    0    0 -0.39726365273E+02  0.10782120416E+02  0.84268002359E+01  0.42017248612E+02  0.51100000000E-03 0. -1.
        -11    1    3    3    0    0  0.19877327805E+02 -0.84018212468E+00  0.51928462952E+01  0.20561607903E+02  0.51100000000E-03 0.  1.
         12    1    3    3    0    0  0.47055547704E+01 -0.82491887356E+01 -0.27344357326E+01  0.98827374380E+01  0.00000000000E+00 0. -1.
</event>
<event>
 7    1  0.1351543E-013  0.7246155E+02  0.7816164E-02  0.1226708E+00
        -11   -1    0    0    0    0  0.00000000000E+00  0.00000000000E+00  0.45593999997E+02  0.45594000000E+02  0.51100000000E-03 0.  1.
         11   -1    0    0    0    0 -0.00000000000E+00 -0.00000000000E+00 -0.45593999997E+02  0.45594000000E+02  0.51100000000E-03 0. -1.
    9900012    2    1    2    0    0 -0.12237803316E+02 -0.10096241690E+02  0.99489622599E+01  0.72461554093E+02  0.69999978894E+02 0.  0.
         12    1    1    2    0    0  0.12237803316E+02  0.10096241690E+02 -0.99489622599E+01  0.18726445907E+02  0.00000000000E+00 0. -1.
         11    1    3    3    0    0 -0.24806761818E+02 -0.26157496157E+02  0.11667476477E+01  0.36068703018E+02  0.51100000000E-03 0. -1.
        -11    1    3    3    0    0  0.67695730897E+01 -0.37847927891E+01  0.13144133624E+02  0.15261717638E+02  0.51100000000E-03 0.  1.
         12    1    3    3    0    0  0.57993854123E+01  0.19846047256E+02 -0.43619190120E+01  0.21131133436E+02  0.00000000000E+00 0. -1.
</event>
<event>
 7    1  0.1351543E-013  0.7246186E+02  0.7816164E-02  0.1226707E+00
        -11   -1    0    0    0    0  0.00000000000E+00  0.00000000000E+00  0.45593999997E+02  0.45594000000E+02  0.51100000000E-03 0. -1.
         11   -1    0    0    0    0 -0.00000000000E+00 -0.00000000000E+00 -0.45593999997E+02  0.45594000000E+02  0.51100000000E-03 0.  1.
    9900012    2    1    2    0    0 -0.30778053847E+00 -0.18468894283E+02 -0.30779072407E+01  0.72461860572E+02  0.70000378139E+02 0.  0.
         12    1    1    2    0    0  0.30778053847E+00  0.18468894283E+02  0.30779072407E+01  0.18726139428E+02  0.00000000000E+00 0. -1.
         11    1    3    3    0    0  0.91481625953E+00  0.22877784805E+02  0.11139999259E+02  0.25462315490E+02  0.51100000000E-03 0. -1.
        -11    1    3    3    0    0  0.47259647288E+01 -0.24208796509E+02 -0.14952048947E+02  0.28843792036E+02  0.51100000000E-03 0.  1.
         12    1    3    3    0    0 -0.59485615268E+01 -0.17137882579E+02  0.73414244702E+00  0.18155753046E+02  0.00000000000E+00 0. -1.
</event>
<event>
 7    1  0.1351543E-013  0.7246157E+02  0.7816164E-02  0.1226708E+00
        -11   -1    0    0    0    0  0.00000000000E+00  0.00000000000E+00  0.45593999997E+02  0.45594000000E+02  0.51100000000E-03 0.  1.
         11   -1    0    0    0    0 -0.00000000000E+00 -0.00000000000E+00 -0.45593999997E+02  0.45594000000E+02  0.51100000000E-03 0. -1.
    9900012    2    1    2    0    0 -0.30774586646E+01  0.17434839087E+02 -0.61020230702E+01  0.72461573449E+02  0.70000004109E+02 0.  0.
         12    1    1    2    0    0  0.30774586646E+01 -0.17434839087E+02  0.61020230702E+01  0.18726426551E+02  0.00000000000E+00 0. -1.
         11    1    3    3    0    0 -0.16337162369E+02  0.25832759604E+02 -0.14490536915E+02  0.33826173348E+02  0.51100000000E-03 0. -1.
        -11    1    3    3    0    0 -0.42860125870E+01 -0.34567826504E+01  0.17436413720E+02  0.18285179076E+02  0.51100000000E-03 0.  1.
         12    1    3    3    0    0  0.17545716292E+02 -0.49411378660E+01 -0.90478998750E+01  0.20350221024E+02  0.00000000000E+00 0. -1.
</event>
<event>
 7    1  0.1351543E-013  0.7246156E+02  0.7816164E-02  0.1226708E+00
        -11   -1    0    0    0    0  0.00000000000E+00  0.00000000000E+00  0.45593999997E+02  0.45594000000E+02  0.51100000000E-03 0. -1.
         11   -1    0    0    0    0 -0.00000000000E+00 -0.00000000000E+00 -0.45593999997E+02  0.45594000000E+02  0.51100000000E-03 0.  1.
    9900012    2    1    2    0    0  0.58155228745E+01  0.11565743706E+02 -0.13531178444E+02  0.72461560833E+02  0.69999987675E+02 0.  0.
         12    1    1    2    0    0 -0.58155228745E+01 -0.11565743706E+02  0.13531178444E+02  0.18726439167E+02  0.00000000000E+00 0. -1.
         11    1    3    3    0    0  0.10635224847E+02  0.31519315224E+02 -0.80608317891E+01  0.34227945441E+02  0.51100000000E-03 0.  1.
        -11    1    3    3    0    0 -0.91968142872E+01 -0.18490006820E+02 -0.16399091577E+02  0.26370285362E+02  0.51100000000E-03 0. -1.
        -12    1    3    3    0    0  0.43771123144E+01 -0.14635646981E+01  0.10928744922E+02  0.11863330031E+02  0.00000000000E+00 0.  1.
</event>
<event>
 7    1  0.1351543E-013  0.7246163E+02  0.7816164E-02  0.1226708E+00
        -11   -1    0    0    0    0  0.00000000000E+00  0.00000000000E+00  0.45593999997E+02  0.45594000000E+02  0.51100000000E-03 0. -1.
         11   -1    0    0    0    0 -0.00000000000E+00 -0.00000000000E+00 -0.45593999997E+02  0.45594000000E+02  0.51100000000E-03 0.  1.
    9900012    2    1    2    0    0  0.11145199350E+02 -0.15042003071E+02  0.44697747295E+00  0.72461625182E+02  0.70000071502E+02 0.  0.
         12    1    1    2    0    0 -0.11145199350E+02  0.15042003071E+02 -0.44697747295E+00  0.18726374818E+02  0.00000000000E+00 0. -1.
         11    1    3    3    0    0  0.25495810702E+02 -0.26996619272E+02 -0.15307507545E+02  0.40164332473E+02  0.51100000000E-03 0. -1.
        -11    1    3    3    0    0 -0.14438884229E+02  0.84995684745E+01  0.61264456521E+00  0.16766018480E+02  0.51100000000E-03 0.  1.
        -12    1    3    3    0    0  0.88272877427E-01  0.34550477266E+01  0.15141840453E+02  0.15531274230E+02  0.00000000000E+00 0.  1.
</event>
<event>
 7    1  0.1351543E-013  0.7246155E+02  0.7816164E-02  0.1226708E+00
        -11   -1    0    0    0    0  0.00000000000E+00  0.00000000000E+00  0.45593999997E+02  0.45594000000E+02  0.51100000000E-03 0.  1.
         11   -1    0    0    0    0 -0.00000000000E+00 -0.00000000000E+00 -0.45593999997E+02  0.45594000000E+02  0.51100000000E-03 0. -1.
    9900012    2    1    2    0    0  0.15098504652E+01 -0.17469688692E+02  0.65734507606E+01  0.72461550088E+02  0.69999973677E+02 0.  0.
         12    1    1    2    0    0 -0.15098504652E+01  0.17469688692E+02 -0.65734507606E+01  0.18726449912E+02  0.00000000000E+00 0. -1.
         11    1    3    3    0    0  0.12949853243E+02  0.54027148168E+01 -0.36238245021E+01  0.14492071305E+02  0.51100000000E-03 0. -1.
        -11    1    3    3    0    0 -0.14738734077E+02 -0.34273264307E+02 -0.61053275375E+01  0.37804258398E+02  0.51100000000E-03 0.  1.
        -12    1    3    3    0    0  0.32987312991E+01  0.11400860798E+02  0.16302602800E+02  0.20165220385E+02  0.00000000000E+00 0.  1.
</event>
<event>
 7    1  0.1351543E-013  0.7246160E+02  0.7816164E-02  0.1226708E+00
        -11   -1    0    0    0    0  0.00000000000E+00  0.00000000000E+00  0.45593999997E+02  0.45594000000E+02  0.51100000000E-03 0.  1.
         11   -1    0    0    0    0 -0.00000000000E+00 -0.00000000000E+00 -0.45593999997E+02  0.45594000000E+02  0.51100000000E-03 0. -1.
    9900012    2    1    2    0    0 -0.15436171554E+02 -0.96005789364E+01  0.44979308299E+01  0.72461604460E+02  0.70000044507E+02 0.  0.
         12    1    1    2    0    0  0.15436171554E+02  0.96005789364E+01 -0.44979308299E+01  0.18726395540E+02  0.00000000000E+00 0. -1.
         11    1    3    3    0    0 -0.30955233187E+02 -0.97523813351E+01 -0.16543336838E+02  0.36428249991E+02  0.51100000000E-03 0. -1.
        -11    1    3    3    0    0  0.12796490908E+02 -0.98531474800E+01  0.19859361161E+02  0.25597439732E+02  0.51100000000E-03 0.  1.
         12    1    3    3    0    0  0.27225707249E+01  0.10004949879E+02  0.11819065068E+01  0.10435914738E+02  0.00000000000E+00 0. -1.
</event>
<event>
 7    1  0.1351543E-013  0.7246159E+02  0.7816164E-02  0.1226708E+00
        -11   -1    0    0    0    0  0.00000000000E+00  0.00000000000E+00  0.45593999997E+02  0.45594000000E+02  0.51100000000E-03 0.  1.
         11   -1    0    0    0    0 -0.00000000000E+00 -0.00000000000E+00 -0.45593999997E+02  0.45594000000E+02  0.51100000000E-03 0. -1.
    9900012    2    1    2    0    0  0.18526293966E+02 -0.18757847016E+01  0.19840169760E+01  0.72461589246E+02  0.70000024688E+02 0.  0.
         12    1    1    2    0    0 -0.18526293966E+02  0.18757847016E+01 -0.19840169760E+01  0.18726410754E+02  0.00000000000E+00 0. -1.
         11    1    3    3    0    0 -0.72980280983E+01 -0.93973361573E+01 -0.61444404415E+01  0.13391239285E+02  0.51100000000E-03 0. -1.
        -11    1    3    3    0    0  0.32137803309E+02  0.96586783686E+01  0.24397167832E+02  0.41489158437E+02  0.51100000000E-03 0.  1.
        -12    1    3    3    0    0 -0.63134812451E+01 -0.21371269130E+01 -0.16268710414E+02  0.17581191524E+02  0.00000000000E+00 0.  1.
</event>
<event>
 7    1  0.1351543E-013  0.7246159E+02  0.7816164E-02  0.1226708E+00
        -11   -1    0    0    0    0  0.00000000000E+00  0.00000000000E+00  0.45593999997E+02  0.45594000000E+02  0.51100000000E-03 0. -1.
         11   -1    0    0    0    0 -0.00000000000E+00 -0.00000000000E+00 -0.45593999997E+02  0.45594000000E+02  0.51100000000E-03 0.  1.
    9900012    2    1    2    0    0  0.12399060299E+02 -0.13347387799E+02 -0.43346440160E+01  0.72461585605E+02  0.70000019944E+02 0.  0.
         12    1    1    2    0    0 -0.12399060299E+02  0.13347387799E+02  0.43346440160E+01  0.18726414395E+02  0.00000000000E+00 0. -1.
         11    1    3    3    0    0 -0.21321041387E+02 -0.13301234965E+02  0.92005517949E+01  0.26761162363E+02  0.51100000000E-03 0. -1.
        -11    1    3    3    0    0  0.42197243704E+01  0.10794946824E+02 -0.71827194255E+01  0.13635556802E+02  0.51100000000E-03 0.  1.
         12    1    3    3    0    0  0.29500377316E+02 -0.10841099658E+02 -0.63524763853E+01  0.32064866440E+02  0.00000000000E+00 0. -1.
</event>
<event>
 7    1  0.1351543E-013  0.7246157E+02  0.7816164E-02  0.1226708E+00
        -11   -1    0    0    0    0  0.00000000000E+00  0.00000000000E+00  0.45593999997E+02  0.45594000000E+02  0.51100000000E-03 0.  1.
         11   -1    0    0    0    0 -0.00000000000E+00 -0.00000000000E+00 -0.45593999997E+02  0.45594000000E+02  0.51100000000E-03 0. -1.
    9900012    2    1    2    0    0 -0.13644964559E+02 -0.22252914974E+01 -0.12630995878E+02  0.72461573834E+02  0.70000004611E+02 0.  0.
         12    1    1    2    0    0  0.13644964559E+02  0.22252914974E+01  0.12630995878E+02  0.18726426166E+02  0.00000000000E+00 0. -1.
         11    1    3    3    0    0 -0.10655791098E+02 -0.15890024253E+02  0.20860924855E+00  0.19133276582E+02  0.51100000000E-03 0. -1.
        -11    1    3    3    0    0  0.13748015058E+02  0.27003447420E+02 -0.63049805616E+01  0.30950716805E+02  0.51100000000E-03 0.  1.
        -12    1    3    3    0    0 -0.16737188520E+02 -0.13338714665E+02 -0.65346245653E+01  0.22377580447E+02  0.00000000000E+00 0.  1.
</event>
<event>
 7    1  0.1351543E-013  0.7246204E+02  0.7816164E-02  0.1226707E+00
        -11   -1    0    0    0    0  0.00000000000E+00  0.00000000000E+00  0.45593999997E+02  0.45594000000E+02  0.51100000000E-03 0.  1.
         11   -1    0    0    0    0 -0.00000000000E+00 -0.00000000000E+00 -0.45593999997E+02  0.45594000000E+02  0.51100000000E-03 0. -1.
    9900012    2    1    2    0    0  0.16808807474E+02 -0.82533437053E+01  0.88801427579E-01  0.72462040032E+02  0.70000611918E+02 0.  0.
         12    1    1    2    0    0 -0.16808807474E+02  0.82533437053E+01 -0.88801427579E-01  0.18725959968E+02  0.00000000000E+00 0. -1.
         11    1    3    3    0    0 -0.55445798229E+01 -0.63014520116E+01  0.11341600699E+02  0.14109662276E+02  0.51100000000E-03 0.  1.
        -11    1    3    3    0    0  0.71967362665E+00  0.22341019903E+02 -0.12851460294E+02  0.25783698966E+02  0.51100000000E-03 0. -1.
        -12    1    3    3    0    0  0.21633713670E+02 -0.24292911597E+02  0.15986610223E+01  0.32568678790E+02  0.00000000000E+00 0.  1.
</event>
<event>
 7    1  0.1351543E-013  0.7246155E+02  0.7816164E-02  0.1226708E+00
        -11   -1    0    0    0    0  0.00000000000E+00  0.00000000000E+00  0.45593999997E+02  0.45594000000E+02  0.51100000000E-03 0.  1.
         11   -1    0    0    0    0 -0.00000000000E+00 -0.00000000000E+00 -0.45593999997E+02  0.45594000000E+02  0.51100000000E-03 0. -1.
    9900012    2    1    2    0    0  0.18510365336E+02  0.94627979849E+00 -0.26740919151E+01  0.72461552449E+02  0.69999976753E+02 0.  0.
         12    1    1    2    0    0 -0.18510365336E+02 -0.94627979849E+00  0.26740919151E+01  0.18726447551E+02  0.00000000000E+00 0. -1.
         11    1    3    3    0    0  0.16408374456E+02  0.91338851601E+01 -0.19521023477E+02  0.27087505759E+02  0.51100000000E-03 0. -1.
        -11    1    3    3    0    0 -0.15010134394E+02 -0.16514171735E+02  0.13410631443E+02  0.26035879831E+02  0.51100000000E-03 0.  1.
         12    1    3    3    0    0  0.17112125273E+02  0.83265663733E+01  0.34363001188E+01  0.19338166859E+02  0.00000000000E+00 0. -1.
</event>
<event>
 7    1  0.1351543E-013  0.7246155E+02  0.7816164E-02  0.1226708E+00
        -11   -1    0    0    0    0  0.00000000000E+00  0.00000000000E+00  0.45593999997E+02  0.45594000000E+02  0.51100000000E-03 0.  1.
         11   -1    0    0    0    0 -0.00000000000E+00 -0.00000000000E+00 -0.45593999997E+02  0.45594000000E+02  0.51100000000E-03 0. -1.
    9900012    2    1    2    0    0  0.46660273845E+01  0.44678270532E+01  0.17576874933E+02  0.72461552859E+02  0.69999977287E+02 0.  0.
         12    1    1    2    0    0 -0.46660273845E+01 -0.44678270532E+01 -0.17576874933E+02  0.18726447141E+02  0.00000000000E+00 0. -1.
         11    1    3    3    0    0  0.28372478184E+02  0.21215083960E+02 -0.35585091570E+01  0.35605340799E+02  0.51100000000E-03 0. -1.
        -11    1    3    3    0    0 -0.12109967342E+02 -0.70244398345E+01  0.53460445536E+01  0.14985801835E+02  0.51100000000E-03 0.  1.
         12    1    3    3    0    0 -0.11596483457E+02 -0.97228170722E+01  0.15789339536E+02  0.21870410225E+02  0.00000000000E+00 0. -1.
</event>
<event>
 7    1  0.1351543E-013  0.7246152E+02  0.7816164E-02  0.1226708E+00
        -11   -1    0    0    0    0  0.00000000000E+00  0.00000000000E+00  0.45593999997E+02  0.45594000000E+02  0.51100000000E-03 0.  1.
         11   -1    0    0    0    0 -0.00000000000E+00 -0.00000000000E+00 -0.45593999997E+02  0.45594000000E+02  0.51100000000E-03 0. -1.
    9900012    2    1    2    0    0 -0.16118303884E+02  0.68365103023E+01  0.66440610895E+01  0.72461517656E+02  0.69999931429E+02 0.  0.
         12    1    1    2    0    0  0.16118303884E+02 -0.68365103023E+01 -0.66440610895E+01  0.18726482344E+02  0.00000000000E+00 0. -1.
         11    1    3    3    0    0  0.88674616891E+00 -0.28766543351E+02  0.11532657981E+02  0.31004879221E+02  0.51100000000E-03 0. -1.
        -11    1    3    3    0    0 -0.10429491386E+02  0.93964174682E+01 -0.23628550121E+00  0.14040042126E+02  0.51100000000E-03 0.  1.
         12    1    3    3    0    0 -0.65755586667E+01  0.26206636185E+02 -0.46523113906E+01  0.27416596309E+02  0.00000000000E+00 0. -1.
</event>
<event>
 7    1  0.1351543E-013  0.7246156E+02  0.7816164E-02  0.1226708E+00
        -11   -1    0    0    0    0  0.00000000000E+00  0.00000000000E+00  0.45593999997E+02  0.45594000000E+02  0.51100000000E-03 0. -1.
         11   -1    0    0    0    0 -0.00000000000E+00 -0.00000000000E+00 -0.45593999997E+02  0.45594000000E+02  0.51100000000E-03 0.  1.
    9900012    2    1    2    0    0 -0.11761078202E+02 -0.13987908730E+02 -0.40859569313E+01  0.72461558930E+02  0.69999985196E+02 0.  0.
         12    1    1    2    0    0  0.11761078202E+02  0.13987908730E+02  0.40859569313E+01  0.18726441070E+02  0.00000000000E+00 0. -1.
         11    1    3    3    0    0 -0.34317851428E+02  0.10826331721E+02  0.51708408532E+01  0.36354669308E+02  0.51100000000E-03 0. -1.
        -11    1    3    3    0    0  0.48587265220E+00 -0.56413348547E+01 -0.13517604227E+01  0.58213389937E+01  0.51100000000E-03 0.  1.
         12    1    3    3    0    0  0.22070900574E+02 -0.19172905596E+02 -0.79050373618E+01  0.30285550628E+02  0.00000000000E+00 0. -1.
</event>
<event>
 7    1  0.1351543E-013  0.7246161E+02  0.7816164E-02  0.1226708E+00
        -11   -1    0    0    0    0  0.00000000000E+00  0.00000000000E+00  0.45593999997E+02  0.45594000000E+02  0.51100000000E-03 0.  1.
         11   -1    0    0    0    0 -0.00000000000E+00 -0.00000000000E+00 -0.45593999997E+02  0.45594000000E+02  0.51100000000E-03 0. -1.
    9900012    2    1    2    0    0 -0.27225513963E+01  0.11373944214E+02  0.14625282039E+02  0.72461607720E+02  0.70000048754E+02 0.  0.
         12    1    1    2    0    0  0.27225513963E+01 -0.11373944214E+02 -0.14625282039E+02  0.18726392280E+02  0.00000000000E+00 0. -1.
         11    1    3    3    0    0 -0.41335223985E+01 -0.84918031409E+01 -0.12089362454E+02  0.15341102073E+02  0.51100000000E-03 0. -1.
        -11    1    3    3    0    0  0.39807646851E+01  0.15482066208E+02  0.39903626723E+02  0.42986512856E+02  0.51100000000E-03 0.  1.
        -12    1    3    3    0    0 -0.25697936828E+01  0.43836811468E+01 -0.13188982230E+02  0.14133992792E+02  0.00000000000E+00 0.  1.
</event>
<event>
 7    1  0.1351543E-013  0.7246157E+02  0.7816164E-02  0.1226708E+00
        -11   -1    0    0    0    0  0.00000000000E+00  0.00000000000E+00  0.45593999997E+02  0.45594000000E+02  0.51100000000E-03 0. -1.
         11   -1    0    0    0    0 -0.00000000000E+00 -0.00000000000E+00 -0.45593999997E+02  0.45594000000E+02  0.51100000000E-03 0.  1.
    9900012    2    1    2    0    0  0.15835072278E+02 -0.94510560364E+01 -0.32568698180E+01  0.72461570141E+02  0.69999999800E+02 0.  0.
         12    1    1    2    0    0 -0.15835072278E+02  0.94510560364E+01  0.32568698180E+01  0.18726429859E+02  0.00000000000E+00 0. -1.
         11    1    3    3    0    0  0.22446992373E+00 -0.92191166416E+01 -0.14817830106E+01  0.93401380905E+01  0.51100000000E-03 0. -1.
        -11    1    3    3    0    0  0.36663424659E+02  0.93917139651E+01  0.67671597441E+01  0.38447437499E+02  0.51100000000E-03 0.  1.
        -12    1    3    3    0    0 -0.21052822305E+02 -0.96236533599E+01 -0.85422465516E+01  0.24673994552E+02  0.00000000000E+00 0.  1.
</event>
<event>
 7    1  0.1351543E-013  0.7246154E+02  0.7816164E-02  0.1226708E+00
        -11   -1    0    0    0    0  0.00000000000E+00  0.00000000000E+00  0.45593999997E+02  0.45594000000E+02  0.51100000000E-03 0.  1.
         11   -1    0    0    0    0 -0.00000000000E+00 -0.00000000000E+00 -0.45593999997E+02  0.45594000000E+02  0.51100000000E-03 0. -1.
    9900012    2    1    2    0    0  0.18403306077E+02 -0.31279085522E+01 -0.14881682840E+01  0.72461544615E+02  0.69999966547E+02 0.  0.
         12    1    1    2    0    0 -0.18403306077E+02  0.31279085522E+01  0.14881682840E+01  0.18726455385E+02  0.00000000000E+00 0. -1.
         11    1    3    3    0    0  0.61691020544E+01  0.67677426910E+01  0.24575711925E+01  0.94815514404E+01  0.51100000000E-03 0.  1.
        -11    1    3    3    0    0 -0.12045283932E+02 -0.22340591127E+02  0.15259735236E+02  0.29615036664E+02  0.51100000000E-03 0. -1.
        -12    1    3    3    0    0  0.24279487954E+02  0.12444939884E+02 -0.19205474712E+02  0.33364956510E+02  0.00000000000E+00 0.  1.
</event>
<event>
 7    1  0.1351543E-013  0.7246095E+02  0.7816164E-02  0.1226710E+00
        -11   -1    0    0    0    0  0.00000000000E+00  0.00000000000E+00  0.45593999997E+02  0.45594000000E+02  0.51100000000E-03 0. -1.
         11   -1    0    0    0    0 -0.00000000000E+00 -0.00000000000E+00 -0.45593999997E+02  0.45594000000E+02  0.51100000000E-03 0.  1.
    9900012    2    1    2    0    0 -0.14163234329E+02 -0.10524436874E+02  0.62722733751E+01  0.72460950274E+02  0.69999192303E+02 0.  0.
         12    1    1    2    0    0  0.14163234329E+02  0.10524436874E+02 -0.62722733751E+01  0.18727049726E+02  0.00000000000E+00 0. -1.
         11    1    3    3    0    0  0.38201860060E+00  0.21965796674E+02 -0.59449145246E+00  0.21977160465E+02  0.51100000000E-03 0. -1.
        -11    1    3    3    0    0 -0.47217697091E+01 -0.26716866176E+02 -0.11013834408E+02  0.29281232831E+02  0.51100000000E-03 0.  1.
        -12    1    3    3    0    0 -0.98234832201E+01 -0.57733673722E+01  0.17880599236E+02  0.21202556978E+02  0.00000000000E+00 0.  1.
</event>
<event>
 7    1  0.1351543E-013  0.7246168E+02  0.7816164E-02  0.1226708E+00
        -11   -1    0    0    0    0  0.00000000000E+00  0.00000000000E+00  0.45593999997E+02  0.45594000000E+02  0.51100000000E-03 0. -1.
         11   -1    0    0    0    0 -0.00000000000E+00 -0.00000000000E+00 -0.45593999997E+02  0.45594000000E+02  0.51100000000E-03 0.  1.
    9900012    2    1    2    0    0  0.59705977846E+01  0.11869423198E+02 -0.13196362589E+02  0.72461675466E+02  0.70000137006E+02 0.  0.
         12    1    1    2    0    0 -0.59705977846E+01 -0.11869423198E+02  0.13196362589E+02  0.18726324534E+02  0.00000000000E+00 0. -1.
         11    1    3    3    0    0  0.19908394005E+01  0.86989305909E+01 -0.41539323636E+02  0.42487059716E+02  0.51100000000E-03 0.  1.
        -11    1    3    3    0    0  0.18775644185E+01  0.11918862704E+01  0.93079587599E+00  0.24108550871E+01  0.51100000000E-03 0. -1.
         12    1    3    3    0    0  0.21021939656E+01  0.19786063371E+01  0.27412165171E+02  0.27563760663E+02  0.00000000000E+00 0. -1.
</event>
<event>
 7    1  0.1351543E-013  0.7246156E+02  0.7816164E-02  0.1226708E+00
        -11   -1    0    0    0    0  0.00000000000E+00  0.00000000000E+00  0.45593999997E+02  0.45594000000E+02  0.51100000000E-03 0.  1.
         11   -1    0    0    0    0 -0.00000000000E+00 -0.00000000000E+00 -0.45593999997E+02  0.45594000000E+02  0.51100000000E-03 0. -1.
    9900012    2    1    2    0    0 -0.18724176220E+02 -0.19194294764E+00  0.21927707003E+00  0.72461556139E+02  0.69999981561E+02 0.  0.
         12    1    1    2    0    0  0.18724176220E+02  0.19194294764E+00 -0.21927707003E+00  0.18726443861E+02  0.00000000000E+00 0. -1.
         11    1    3    3    0    0  0.54058727720E+00  0.15810934499E+02 -0.18621172324E+02  0.24434114334E+02  0.51100000000E-03 0. -1.
        -11    1    3    3    0    0 -0.96922172579E+01 -0.27477894706E+02  0.10933741840E+02  0.31121061738E+02  0.51100000000E-03 0.  1.
         12    1    3    3    0    0 -0.95725462398E+01  0.11475017259E+02  0.79067075541E+01  0.16906380067E+02  0.00000000000E+00 0. -1.
</event>
<event>
 7    1  0.1351543E-013  0.7246157E+02  0.7816164E-02  0.1226708E+00
        -11   -1    0    0    0    0  0.00000000000E+00  0.00000000000E+00  0.45593999997E+02  0.45594000000E+02  0.51100000000E-03 0. -1.
         11   -1    0    0    0    0 -0.00000000000E+00 -0.00000000000E+00 -0.45593999997E+02  0.45594000000E+02  0.51100000000E-03 0.  1.
    9900012    2    1    2    0    0  0.35244100597E+01  0.90925805044E+00 -0.18369288966E+02  0.72461574991E+02  0.70000006119E+02 0.  0.
         12    1    1    2    0    0 -0.35244100597E+01 -0.90925805044E+00  0.18369288966E+02  0.18726425009E+02  0.00000000000E+00 0. -1.
         11    1    3    3    0    0  0.16925299449E+02  0.48210992190E+01  0.52204207036E+01  0.18356512515E+02  0.51100000000E-03 0. -1.
        -11    1    3    3    0    0 -0.16250907168E+02  0.18310949092E+02 -0.19569507832E+02  0.31342438921E+02  0.51100000000E-03 0.  1.
        -12    1    3    3    0    0  0.28500177786E+01 -0.22222790261E+02 -0.40202018382E+01  0.22762623556E+02  0.00000000000E+00 0.  1.
</event>
<event>
 7    1  0.1351543E-013  0.7246160E+02  0.7816164E-02  0.1226708E+00
        -11   -1    0    0    0    0  0.00000000000E+00  0.00000000000E+00  0.45593999997E+02  0.45594000000E+02  0.51100000000E-03 0. -1.
         11   -1    0    0    0    0 -0.00000000000E+00 -0.00000000000E+00 -0.45593999997E+02  0.45594000000E+02  0.51100000000E-03 0.  1.
    9900012    2    1    2    0    0  0.16099511047E+02 -0.95646330969E+01  0.39476143323E-01  0.72461600971E+02  0.70000039962E+02 0.  0.
         12    1    1    2    0    0 -0.16099511047E+02  0.95646330969E+01 -0.39476143323E-01  0.18726399029E+02  0.00000000000E+00 0. -1.
         11    1    3    3    0    0  0.50903502047E+01  0.13809511141E+02 -0.11596684688E+02  0.18737592139E+02  0.51100000000E-03 0. -1.
        -11    1    3    3    0    0  0.23537420469E+02 -0.15501184806E+02  0.21920438377E+02  0.35704376645E+02  0.51100000000E-03 0.  1.
        -12    1    3    3    0    0 -0.12528259628E+02 -0.78729594322E+01 -0.10284277546E+02  0.18019632187E+02  0.00000000000E+00 0.  1.
</event>
<event>
 7    1  0.1855550E-013  0.7246157E+02  0.7816164E-02  0.1226708E+00
        -11   -1    0    0    0    0  0.00000000000E+00  0.00000000000E+00  0.45593999997E+02  0.45594000000E+02  0.51100000000E-03 0. -1.
         11   -1    0    0    0    0 -0.00000000000E+00 -0.00000000000E+00 -0.45593999997E+02  0.45594000000E+02  0.51100000000E-03 0.  1.
    9900012    2    1    2    0    0  0.12221373118E+02 -0.66748006492E+01 -0.12520558951E+02  0.72461566249E+02  0.69999994730E+02 0.  0.
         12    1    1    2    0    0 -0.12221373118E+02  0.66748006492E+01  0.12520558951E+02  0.18726433751E+02  0.00000000000E+00 0. -1.
         11    1    3    3    0    0  0.15971534740E+02  0.20229292242E+02  0.23173298680E+01  0.25878257371E+02  0.51100000000E-03 0. -1.
        -11    1    3    3    0    0  0.14472256633E+02 -0.19871018946E+02 -0.72591918343E+01  0.25632000943E+02  0.51100000000E-03 0.  1.
         12    1    3    3    0    0 -0.18222418255E+02 -0.70330739454E+01 -0.75786969847E+01  0.20951307934E+02  0.00000000000E+00 0. -1.
</event>
<event>
 7    1  0.1351543E-013  0.7246162E+02  0.7816164E-02  0.1226708E+00
        -11   -1    0    0    0    0  0.00000000000E+00  0.00000000000E+00  0.45593999997E+02  0.45594000000E+02  0.51100000000E-03 0.  1.
         11   -1    0    0    0    0 -0.00000000000E+00 -0.00000000000E+00 -0.45593999997E+02  0.45594000000E+02  0.51100000000E-03 0. -1.
    9900012    2    1    2    0    0 -0.18846167967E+01  0.13286611129E+02  0.13061068223E+02  0.72461619706E+02  0.70000064368E+02 0.  0.
         12    1    1    2    0    0  0.18846167967E+01 -0.13286611129E+02 -0.13061068223E+02  0.18726380294E+02  0.00000000000E+00 0. -1.
         11    1    3    3    0    0 -0.93788718306E+01 -0.18737541167E+02  0.18163681713E+01  0.21032305613E+02  0.51100000000E-03 0.  1.
        -11    1    3    3    0    0 -0.96529950269E+01  0.21358503106E+02 -0.67395655681E+01  0.24388269972E+02  0.51100000000E-03 0. -1.
        -12    1    3    3    0    0  0.17147250061E+02  0.10665649191E+02  0.17984265620E+02  0.27041044122E+02  0.00000000000E+00 0.  1.
</event>
<event>
 7    1  0.1351543E-013  0.7246122E+02  0.7816164E-02  0.1226709E+00
        -11   -1    0    0    0    0  0.00000000000E+00  0.00000000000E+00  0.45593999997E+02  0.45594000000E+02  0.51100000000E-03 0.  1.
         11   -1    0    0    0    0 -0.00000000000E+00 -0.00000000000E+00 -0.45593999997E+02  0.45594000000E+02  0.51100000000E-03 0. -1.
    9900012    2    1    2    0    0  0.11116835606E+02  0.15065058297E+02 -0.39041550858E+00  0.72461215983E+02  0.69999538442E+02 0.  0.
         12    1    1    2    0    0 -0.11116835606E+02 -0.15065058297E+02  0.39041550858E+00  0.18726784017E+02  0.00000000000E+00 0. -1.
         11    1    3    3    0    0  0.13018951141E+00  0.19437743443E+02 -0.18791807517E+02  0.27036546553E+02  0.51100000000E-03 0. -1.
        -11    1    3    3    0    0  0.42326306923E+01 -0.20595104515E+02  0.15571956790E+01  0.21083129540E+02  0.51100000000E-03 0.  1.
        -12    1    3    3    0    0  0.67540154018E+01  0.16222419368E+02  0.16844196330E+02  0.24341539890E+02  0.00000000000E+00 0.  1.
</event>
<event>
 7    1  0.1351543E-013  0.7246157E+02  0.7816164E-02  0.1226708E+00
        -11   -1    0    0    0    0  0.00000000000E+00  0.00000000000E+00  0.45593999997E+02  0.45594000000E+02  0.51100000000E-03 0.  1.
         11   -1    0    0    0    0 -0.00000000000E+00 -0.00000000000E+00 -0.45593999997E+02  0.45594000000E+02  0.51100000000E-03 0. -1.
    9900012    2    1    2    0    0  0.10413186936E+02 -0.20765109733E+01  0.15425074358E+02  0.72461567373E+02  0.69999996195E+02 0.  0.
         12    1    1    2    0    0 -0.10413186936E+02  0.20765109733E+01 -0.15425074358E+02  0.18726432627E+02  0.00000000000E+00 0. -1.
         11    1    3    3    0    0 -0.67664757806E+01  0.24891910701E+02  0.18700137503E+02  0.31860438725E+02  0.51100000000E-03 0. -1.
        -11    1    3    3    0    0  0.17546779661E+02 -0.27877227435E+02  0.40706138705E+01  0.33190347746E+02  0.51100000000E-03 0.  1.
        -12    1    3    3    0    0 -0.36711694466E+00  0.90880576115E+00 -0.73456770161E+01  0.74107809027E+01  0.00000000000E+00 0.  1.
</event>
<event>
 7    1  0.1351543E-013  0.7246157E+02  0.7816164E-02  0.1226708E+00
        -11   -1    0    0    0    0  0.00000000000E+00  0.00000000000E+00  0.45593999997E+02  0.45594000000E+02  0.51100000000E-03 0. -1.
         11   -1    0    0    0    0 -0.00000000000E+00 -0.00000000000E+00 -0.45593999997E+02  0.45594000000E+02  0.51100000000E-03 0.  1.
    9900012    2    1    2    0    0 -0.10955254660E+02 -0.48859764353E+01 -0.14380152475E+02  0.72461570666E+02  0.70000000484E+02 0.  0.
         12    1    1    2    0    0  0.10955254660E+02  0.48859764353E+01  0.14380152475E+02  0.18726429334E+02  0.00000000000E+00 0. -1.
         11    1    3    3    0    0 -0.45182772746E+01 -0.22681827138E+02  0.82546601232E+01  0.24556455890E+02  0.51100000000E-03 0. -1.
        -11    1    3    3    0    0 -0.16593298523E+02  0.18945126454E+02 -0.26882530781E+02  0.36836474230E+02  0.51100000000E-03 0.  1.
        -12    1    3    3    0    0  0.10156321137E+02 -0.11492757511E+01  0.42477181835E+01  0.11068640547E+02  0.00000000000E+00 0.  1.
</event>
<event>
 7    1  0.1351543E-013  0.7246154E+02  0.7816164E-02  0.1226708E+00
        -11   -1    0    0    0    0  0.00000000000E+00  0.00000000000E+00  0.45593999997E+02  0.45594000000E+02  0.51100000000E-03 0. -1.
         11   -1    0    0    0    0 -0.00000000000E+00 -0.00000000000E+00 -0.45593999997E+02  0.45594000000E+02  0.51100000000E-03 0.  1.
    9900012    2    1    2    0    0  0.46041715601E+01 -0.17591282045E+02 -0.44753376132E+01  0.72461541539E+02  0.69999962541E+02 0.  0.
         12    1    1    2    0    0 -0.46041715601E+01  0.17591282045E+02  0.44753376132E+01  0.18726458461E+02  0.00000000000E+00 0. -1.
         11    1    3    3    0    0 -0.63163683218E+01 -0.17314149601E+02 -0.23780382373E+02  0.30086257183E+02  0.51100000000E-03 0. -1.
        -11    1    3    3    0    0  0.20827913179E+02  0.38082310350E+01  0.10403391340E+01  0.21198747529E+02  0.51100000000E-03 0.  1.
         12    1    3    3    0    0 -0.99073732974E+01 -0.40853634788E+01  0.18264705626E+02  0.21176536828E+02  0.00000000000E+00 0. -1.
</event>
<event>
 7    1  0.1351543E-013  0.7246160E+02  0.7816164E-02  0.1226708E+00
        -11   -1    0    0    0    0  0.00000000000E+00  0.00000000000E+00  0.45593999997E+02  0.45594000000E+02  0.51100000000E-03 0.  1.
         11   -1    0    0    0    0 -0.00000000000E+00 -0.00000000000E+00 -0.45593999997E+02  0.45594000000E+02  0.51100000000E-03 0. -1.
    9900012    2    1    2    0    0 -0.35648128531E+01  0.18380060912E+02 -0.37872858296E+00  0.72461602452E+02  0.70000041891E+02 0.  0.
         12    1    1    2    0    0  0.35648128531E+01 -0.18380060912E+02  0.37872858296E+00  0.18726397548E+02  0.00000000000E+00 0. -1.
         11    1    3    3    0    0 -0.11684837403E+02  0.12806592624E+02 -0.31482226068E+02  0.35939877549E+02  0.51100000000E-03 0. -1.
        -11    1    3    3    0    0 -0.37809457200E+01 -0.19598119950E+01  0.12379798904E+02  0.13091823202E+02  0.51100000000E-03 0.  1.
         12    1    3    3    0    0  0.11900970270E+02  0.75332802827E+01  0.18723698581E+02  0.23429901701E+02  0.00000000000E+00 0. -1.
</event>
<event>
 7    1  0.1351543E-013  0.7246158E+02  0.7816164E-02  0.1226708E+00
        -11   -1    0    0    0    0  0.00000000000E+00  0.00000000000E+00  0.45593999997E+02  0.45594000000E+02  0.51100000000E-03 0.  1.
         11   -1    0    0    0    0 -0.00000000000E+00 -0.00000000000E+00 -0.45593999997E+02  0.45594000000E+02  0.51100000000E-03 0. -1.
    9900012    2    1    2    0    0 -0.52091463172E+00 -0.18412819979E+02  0.33727731436E+01  0.72461577749E+02  0.70000009711E+02 0.  0.
         12    1    1    2    0    0  0.52091463172E+00  0.18412819979E+02 -0.33727731436E+01  0.18726422251E+02  0.00000000000E+00 0. -1.
         11    1    3    3    0    0  0.22199075222E+02 -0.23428066059E+01  0.86547804404E+01  0.23941447497E+02  0.51100000000E-03 0. -1.
        -11    1    3    3    0    0 -0.30290540867E+02 -0.74459968159E+01  0.67273842674E+01  0.31909519488E+02  0.51100000000E-03 0.  1.
         12    1    3    3    0    0  0.75705510133E+01 -0.86240165575E+01 -0.12009391564E+02  0.16610610765E+02  0.00000000000E+00 0. -1.
</event>
<event>
 7    1  0.1351543E-013  0.7246158E+02  0.7816164E-02  0.1226708E+00
        -11   -1    0    0    0    0  0.00000000000E+00  0.00000000000E+00  0.45593999997E+02  0.45594000000E+02  0.51100000000E-03 0. -1.
         11   -1    0    0    0    0 -0.00000000000E+00 -0.00000000000E+00 -0.45593999997E+02  0.45594000000E+02  0.51100000000E-03 0.  1.
    9900012    2    1    2    0    0  0.11388371578E+01 -0.14107243615E+02 -0.12262438528E+02  0.72461583601E+02  0.70000017335E+02 0.  0.
         12    1    1    2    0    0 -0.11388371578E+01  0.14107243615E+02  0.12262438528E+02  0.18726416399E+02  0.00000000000E+00 0. -1.
         11    1    3    3    0    0 -0.92491799297E+01 -0.27862028079E+02 -0.17323562471E+02  0.34087325430E+02  0.51100000000E-03 0. -1.
        -11    1    3    3    0    0  0.87813446188E+00  0.21987792568E+02 -0.46401248862E+01  0.22489217447E+02  0.51100000000E-03 0.  1.
         12    1    3    3    0    0  0.95098826257E+01 -0.82330081034E+01  0.97012488286E+01  0.15885040724E+02  0.00000000000E+00 0. -1.
</event>
<event>
 7    1  0.1351543E-013  0.7246155E+02  0.7816164E-02  0.1226708E+00
        -11   -1    0    0    0    0  0.00000000000E+00  0.00000000000E+00  0.45593999997E+02  0.45594000000E+02  0.51100000000E-03 0.  1.
         11   -1    0    0    0    0 -0.00000000000E+00 -0.00000000000E+00 -0.45593999997E+02  0.45594000000E+02  0.51100000000E-03 0. -1.
    9900012    2    1    2    0    0  0.70839627050E+00 -0.46366955780E+01  0.18129512528E+02  0.72461548236E+02  0.69999971265E+02 0.  0.
         12    1    1    2    0    0 -0.70839627050E+00  0.46366955780E+01 -0.18129512528E+02  0.18726451764E+02  0.00000000000E+00 0. -1.
         11    1    3    3    0    0 -0.40330867460E+01 -0.26584148433E+02  0.21481157363E+02  0.34415445058E+02  0.51100000000E-03 0. -1.
        -11    1    3    3    0    0  0.10383820536E+01  0.21757084537E+02  0.10160029629E+02  0.24034873979E+02  0.51100000000E-03 0.  1.
         12    1    3    3    0    0  0.37031009628E+01  0.19036831774E+00 -0.13511674465E+02  0.14011229199E+02  0.00000000000E+00 0. -1.
</event>
<event>
 7    1  0.1351543E-013  0.7246156E+02  0.7816164E-02  0.1226708E+00
        -11   -1    0    0    0    0  0.00000000000E+00  0.00000000000E+00  0.45593999997E+02  0.45594000000E+02  0.51100000000E-03 0. -1.
         11   -1    0    0    0    0 -0.00000000000E+00 -0.00000000000E+00 -0.45593999997E+02  0.45594000000E+02  0.51100000000E-03 0.  1.
    9900012    2    1    2    0    0  0.34184450021E+01  0.29331620345E+01 -0.18176639001E+02  0.72461563844E+02  0.69999991597E+02 0.  0.
         12    1    1    2    0    0 -0.34184450021E+01 -0.29331620345E+01  0.18176639001E+02  0.18726436156E+02  0.00000000000E+00 0. -1.
         11    1    3    3    0    0 -0.62398396329E+01 -0.67390072560E+01  0.96204447593E+01  0.13300480257E+02  0.51100000000E-03 0. -1.
        -11    1    3    3    0    0  0.25229194026E+02  0.51958555125E+01  0.13713082035E+01  0.25795147453E+02  0.51100000000E-03 0.  1.
        -12    1    3    3    0    0 -0.15570909391E+02  0.44763137781E+01 -0.29168391964E+02  0.33365936133E+02  0.00000000000E+00 0.  1.
</event>
<event>
 7    1  0.1351543E-013  0.7246156E+02  0.7816164E-02  0.1226708E+00
        -11   -1    0    0    0    0  0.00000000000E+00  0.00000000000E+00  0.45593999997E+02  0.45594000000E+02  0.51100000000E-03 0. -1.
         11   -1    0    0    0    0 -0.00000000000E+00 -0.00000000000E+00 -0.45593999997E+02  0.45594000000E+02  0.51100000000E-03 0.  1.
    9900012    2    1    2    0    0 -0.12839861422E+02  0.93738345972E+01 -0.98969043644E+01  0.72461560605E+02  0.69999987378E+02 0.  0.
         12    1    1    2    0    0  0.12839861422E+02 -0.93738345972E+01  0.98969043644E+01  0.18726439395E+02  0.00000000000E+00 0. -1.
         11    1    3    3    0    0 -0.52268408441E+01 -0.17087406890E+02 -0.23280614272E+00  0.17870465533E+02  0.51100000000E-03 0. -1.
        -11    1    3    3    0    0 -0.62690106797E+01  0.33153483637E+02 -0.22149558324E+02  0.40361577105E+02  0.51100000000E-03 0.  1.
         12    1    3    3    0    0 -0.13440098986E+01 -0.66922421502E+01  0.12485460102E+02  0.14229517967E+02  0.00000000000E+00 0. -1.
</event>
<event>
 7    1  0.1351543E-013  0.7246155E+02  0.7816164E-02  0.1226708E+00
        -11   -1    0    0    0    0  0.00000000000E+00  0.00000000000E+00  0.45593999997E+02  0.45594000000E+02  0.51100000000E-03 0.  1.
         11   -1    0    0    0    0 -0.00000000000E+00 -0.00000000000E+00 -0.45593999997E+02  0.45594000000E+02  0.51100000000E-03 0. -1.
    9900012    2    1    2    0    0  0.10425732570E+01  0.10725624464E+01  0.18666611912E+02  0.72461554810E+02  0.69999979828E+02 0.  0.
         12    1    1    2    0    0 -0.10425732570E+01 -0.10725624464E+01 -0.18666611912E+02  0.18726445190E+02  0.00000000000E+00 0. -1.
         11    1    3    3    0    0  0.12151464976E+02 -0.15145204710E+02 -0.15106207398E+02  0.24601480219E+02  0.51100000000E-03 0. -1.
        -11    1    3    3    0    0  0.50916890062E+01  0.88141616779E+01  0.26911243235E+02  0.28772030790E+02  0.51100000000E-03 0.  1.
         12    1    3    3    0    0 -0.16200580725E+02  0.74036054785E+01  0.68615760748E+01  0.19088043801E+02  0.00000000000E+00 0. -1.
</event>
<event>
 7    1  0.1351543E-013  0.7246155E+02  0.7816164E-02  0.1226708E+00
        -11   -1    0    0    0    0  0.00000000000E+00  0.00000000000E+00  0.45593999997E+02  0.45594000000E+02  0.51100000000E-03 0. -1.
         11   -1    0    0    0    0 -0.00000000000E+00 -0.00000000000E+00 -0.45593999997E+02  0.45594000000E+02  0.51100000000E-03 0.  1.
    9900012    2    1    2    0    0  0.11034036647E+02  0.60186394616E+01 -0.13881849925E+02  0.72461554982E+02  0.69999980052E+02 0.  0.
         12    1    1    2    0    0 -0.11034036647E+02 -0.60186394616E+01  0.13881849925E+02  0.18726445018E+02  0.00000000000E+00 0. -1.
         11    1    3    3    0    0 -0.45105562517E+01  0.61914305558E+01 -0.40185518805E-01  0.76603227846E+01  0.51100000000E-03 0. -1.
        -11    1    3    3    0    0  0.11616741397E+02 -0.19893301825E+02  0.16546047088E+02  0.28363071284E+02  0.51100000000E-03 0.  1.
        -12    1    3    3    0    0  0.39278515016E+01  0.19720510731E+02 -0.30387711494E+02  0.36438160913E+02  0.00000000000E+00 0.  1.
</event>
<event>
 7    1  0.1351543E-013  0.7246193E+02  0.7816164E-02  0.1226707E+00
        -11   -1    0    0    0    0  0.00000000000E+00  0.00000000000E+00  0.45593999997E+02  0.45594000000E+02  0.51100000000E-03 0.  1.
         11   -1    0    0    0    0 -0.00000000000E+00 -0.00000000000E+00 -0.45593999997E+02  0.45594000000E+02  0.51100000000E-03 0. -1.
    9900012    2    1    2    0    0  0.18350247730E+02  0.30935396337E+01 -0.20890345777E+01  0.72461931414E+02  0.70000470424E+02 0.  0.
         12    1    1    2    0    0 -0.18350247730E+02 -0.30935396337E+01  0.20890345777E+01  0.18726068586E+02  0.00000000000E+00 0. -1.
         11    1    3    3    0    0  0.38427660427E+01  0.19936409040E+02  0.16130341520E+02  0.25930969401E+02  0.51100000000E-03 0. -1.
        -11    1    3    3    0    0  0.91401295303E+01 -0.18319332346E+02 -0.28351297598E+02  0.34970501586E+02  0.51100000000E-03 0.  1.
        -12    1    3    3    0    0  0.53673521569E+01  0.14764629394E+01  0.10131921500E+02  0.11560460427E+02  0.00000000000E+00 0.  1.
</event>
<event>
 7    1  0.1351543E-013  0.7246158E+02  0.7816164E-02  0.1226708E+00
        -11   -1    0    0    0    0  0.00000000000E+00  0.00000000000E+00  0.45593999997E+02  0.45594000000E+02  0.51100000000E-03 0.  1.
         11   -1    0    0    0    0 -0.00000000000E+00 -0.00000000000E+00 -0.45593999997E+02  0.45594000000E+02  0.51100000000E-03 0. -1.
    9900012    2    1    2    0    0  0.13699341923E+02 -0.98865273092E+01  0.80785717119E+01  0.72461582503E+02  0.70000015904E+02 0.  0.
         12    1    1    2    0    0 -0.13699341923E+02  0.98865273092E+01 -0.80785717119E+01  0.18726417497E+02  0.00000000000E+00 0. -1.
         11    1    3    3    0    0 -0.13714870949E+02 -0.25933143909E+02 -0.92643580109E+01  0.30764491996E+02  0.51100000000E-03 0. -1.
        -11    1    3    3    0    0  0.28555065129E+02  0.10645365393E+02  0.19025304140E+02  0.35926003768E+02  0.51100000000E-03 0.  1.
         12    1    3    3    0    0 -0.11408522578E+01  0.54012512065E+01 -0.16823744170E+01  0.57710867389E+01  0.00000000000E+00 0. -1.
</event>
<event>
 8    1  0.1351543E-013  0.7246157E+02  0.7816164E-02  0.1226708E+00
        -11   -1    0    0    0    0  0.00000000000E+00  0.00000000000E+00  0.45593999997E+02  0.45594000000E+02  0.51100000000E-03 0.  1.
         11   -1    0    0    0    0 -0.00000000000E+00 -0.00000000000E+00 -0.45593999997E+02  0.45594000000E+02  0.51100000000E-03 0. -1.
    9900012    2    1    2    0    0  0.84096606581E+01 -0.99062169709E+01  0.13484205755E+02  0.72461565959E+02  0.69999994352E+02 0.  0.
         24    2    3    3    0    0  0.68121113106E+01  0.13750513522E+01  0.15411452402E+02  0.60905898138E+02  0.58512562207E+02 0.  0.
         12    1    1    2    0    0 -0.84096606581E+01  0.99062169709E+01 -0.13484205755E+02  0.18726434041E+02  0.00000000000E+00 0. -1.
         11    1    3    3    0    0  0.15975493475E+01 -0.11281268323E+02 -0.19272466466E+01  0.11555667821E+02  0.51100000000E-03 0.  1.
        -11    1    4    4    0    0  0.28762559138E+02  0.14020297771E+02  0.15543622768E+02  0.35573273208E+02  0.51100000000E-03 0. -1.
         12    1    4    4    0    0 -0.21950447827E+02 -0.12645246419E+02 -0.13217036629E+00  0.25332624929E+02  0.00000000000E+00 0. -1.
</event>
<event>
 8    1  0.1351543E-013  0.7246157E+02  0.7816164E-02  0.1226708E+00
        -11   -1    0    0    0    0  0.00000000000E+00  0.00000000000E+00  0.45593999997E+02  0.45594000000E+02  0.51100000000E-03 0. -1.
         11   -1    0    0    0    0 -0.00000000000E+00 -0.00000000000E+00 -0.45593999997E+02  0.45594000000E+02  0.51100000000E-03 0.  1.
    9900012    2    1    2    0    0  0.14682051216E+02  0.10748350127E+02 -0.44259857992E+01  0.72461574589E+02  0.70000005595E+02 0.  0.
        -24    2    3    3    0    0  0.18626908282E+02  0.13707811886E+02  0.28290919777E+01  0.63689091191E+02  0.59274199754E+02 0.  0.
         12    1    1    2    0    0 -0.14682051216E+02 -0.10748350127E+02  0.44259857992E+01  0.18726425411E+02  0.00000000000E+00 0. -1.
         11    1    4    4    0    0  0.19419236002E+02  0.82761853425E+01  0.29602892122E+02  0.36358399208E+02  0.51100000000E-03 0. -1.
        -11    1    3    3    0    0 -0.39448570652E+01 -0.29594617591E+01 -0.72550777769E+01  0.87724833986E+01  0.51100000000E-03 0.  1.
        -12    1    4    4    0    0 -0.79232772011E+00  0.54316265435E+01 -0.26773800144E+02  0.27330691983E+02  0.00000000000E+00 0.  1.
</event>
<event>
 7    1  0.1351543E-013  0.7246196E+02  0.7816164E-02  0.1226707E+00
        -11   -1    0    0    0    0  0.00000000000E+00  0.00000000000E+00  0.45593999997E+02  0.45594000000E+02  0.51100000000E-03 0. -1.
         11   -1    0    0    0    0 -0.00000000000E+00 -0.00000000000E+00 -0.45593999997E+02  0.45594000000E+02  0.51100000000E-03 0.  1.
    9900012    2    1    2    0    0 -0.15734341446E+02  0.84544241507E+01  0.56229591063E+01  0.72461963111E+02  0.70000511715E+02 0.  0.
         12    1    1    2    0    0  0.15734341446E+02 -0.84544241507E+01 -0.56229591063E+01  0.18726036889E+02  0.00000000000E+00 0. -1.
         11    1    3    3    0    0 -0.38807351474E+01 -0.16567770018E+02 -0.87069741011E+01  0.19114458059E+02  0.51100000000E-03 0. -1.
        -11    1    3    3    0    0 -0.28314171730E+02  0.14559925629E+02  0.99591570877E+01  0.33359684730E+02  0.51100000000E-03 0.  1.
        -12    1    3    3    0    0  0.16460565432E+02  0.10462268539E+02  0.43707761197E+01  0.19987820322E+02  0.00000000000E+00 0.  1.
</event>
<event>
 7    1  0.1351543E-013  0.7246143E+02  0.7816164E-02  0.1226708E+00
        -11   -1    0    0    0    0  0.00000000000E+00  0.00000000000E+00  0.45593999997E+02  0.45594000000E+02  0.51100000000E-03 0.  1.
         11   -1    0    0    0    0 -0.00000000000E+00 -0.00000000000E+00 -0.45593999997E+02  0.45594000000E+02  0.51100000000E-03 0. -1.
    9900012    2    1    2    0    0  0.85686037751E+01 -0.23431255570E+00  0.16649579480E+02  0.72461431443E+02  0.69999819121E+02 0.  0.
         12    1    1    2    0    0 -0.85686037751E+01  0.23431255570E+00 -0.16649579480E+02  0.18726568557E+02  0.00000000000E+00 0. -1.
         11    1    3    3    0    0  0.17543609779E+02 -0.52986199893E+01  0.44001184345E+01  0.18847139315E+02  0.51100000000E-03 0. -1.
        -11    1    3    3    0    0 -0.29037194655E+02 -0.14351838891E+01  0.14349812656E+02  0.32421220670E+02  0.51100000000E-03 0.  1.
        -12    1    3    3    0    0  0.20062188651E+02  0.64994913227E+01 -0.21003516106E+01  0.21193071458E+02  0.00000000000E+00 0.  1.
</event>
<event>
 7    1  0.1351543E-013  0.7246153E+02  0.7816164E-02  0.1226708E+00
        -11   -1    0    0    0    0  0.00000000000E+00  0.00000000000E+00  0.45593999997E+02  0.45594000000E+02  0.51100000000E-03 0.  1.
         11   -1    0    0    0    0 -0.00000000000E+00 -0.00000000000E+00 -0.45593999997E+02  0.45594000000E+02  0.51100000000E-03 0. -1.
    9900012    2    1    2    0    0 -0.16602335550E+02  0.68961291723E+01  0.52427597127E+01  0.72461530160E+02  0.69999947717E+02 0.  0.
         12    1    1    2    0    0  0.16602335550E+02 -0.68961291723E+01 -0.52427597127E+01  0.18726469840E+02  0.00000000000E+00 0. -1.
         11    1    3    3    0    0  0.18913588469E+02 -0.16339797734E+02  0.86646107575E+01  0.26453512028E+02  0.51100000000E-03 0. -1.
        -11    1    3    3    0    0 -0.18080268384E+02  0.21653786946E+02 -0.22075470195E+00  0.28210482570E+02  0.51100000000E-03 0.  1.
         12    1    3    3    0    0 -0.17435655635E+02  0.15821399601E+01 -0.32010963429E+01  0.17797535562E+02  0.00000000000E+00 0. -1.
</event>
<event>
 7    1  0.1351543E-013  0.7246156E+02  0.7816164E-02  0.1226708E+00
        -11   -1    0    0    0    0  0.00000000000E+00  0.00000000000E+00  0.45593999997E+02  0.45594000000E+02  0.51100000000E-03 0.  1.
         11   -1    0    0    0    0 -0.00000000000E+00 -0.00000000000E+00 -0.45593999997E+02  0.45594000000E+02  0.51100000000E-03 0. -1.
    9900012    2    1    2    0    0  0.82787114448E+01 -0.12236362240E+02  0.11507119235E+02  0.72461563683E+02  0.69999991387E+02 0.  0.
         12    1    1    2    0    0 -0.82787114448E+01  0.12236362240E+02 -0.11507119235E+02  0.18726436317E+02  0.00000000000E+00 0. -1.
         11    1    3    3    0    0  0.22474107469E+02 -0.16512810671E+02  0.16032986996E+02  0.32168542010E+02  0.51100000000E-03 0. -1.
        -11    1    3    3    0    0 -0.21987326867E+02 -0.67014361100E+01  0.53458249614E+01  0.23599356632E+02  0.51100000000E-03 0.  1.
         12    1    3    3    0    0  0.77919308427E+01  0.10977884541E+02 -0.98716927230E+01  0.16693665040E+02  0.00000000000E+00 0. -1.
</event>
<event>
 7    1  0.1351543E-013  0.7246153E+02  0.7816164E-02  0.1226708E+00
        -11   -1    0    0    0    0  0.00000000000E+00  0.00000000000E+00  0.45593999997E+02  0.45594000000E+02  0.51100000000E-03 0.  1.
         11   -1    0    0    0    0 -0.00000000000E+00 -0.00000000000E+00 -0.45593999997E+02  0.45594000000E+02  0.51100000000E-03 0. -1.
    9900012    2    1    2    0    0  0.18270640823E+02  0.22745218921E+01  0.34192217185E+01  0.72461525610E+02  0.69999941791E+02 0.  0.
         12    1    1    2    0    0 -0.18270640823E+02 -0.22745218921E+01 -0.34192217185E+01  0.18726474390E+02  0.00000000000E+00 0. -1.
         11    1    3    3    0    0 -0.29656157376E+01 -0.20768525258E+02 -0.48334876016E+01  0.21528797475E+02  0.51100000000E-03 0. -1.
        -11    1    3    3    0    0  0.10138995059E+02  0.33593816511E+01  0.22019236866E+02  0.24473076192E+02  0.51100000000E-03 0.  1.
         12    1    3    3    0    0  0.11097261501E+02  0.19683665499E+02 -0.13766527545E+02  0.26459651943E+02  0.00000000000E+00 0. -1.
</event>
<event>
 7    1  0.1351543E-013  0.7246158E+02  0.7816164E-02  0.1226708E+00
        -11   -1    0    0    0    0  0.00000000000E+00  0.00000000000E+00  0.45593999997E+02  0.45594000000E+02  0.51100000000E-03 0. -1.
         11   -1    0    0    0    0 -0.00000000000E+00 -0.00000000000E+00 -0.45593999997E+02  0.45594000000E+02  0.51100000000E-03 0.  1.
    9900012    2    1    2    0    0 -0.87048700067E+01  0.27290185759E+01 -0.16354096765E+02  0.72461580555E+02  0.70000013367E+02 0.  0.
         12    1    1    2    0    0  0.87048700067E+01 -0.27290185759E+01  0.16354096765E+02  0.18726419445E+02  0.00000000000E+00 0. -1.
         11    1    3    3    0    0 -0.32858642011E+01  0.16217503353E+02  0.24223501021E+02  0.29335683400E+02  0.51100000000E-03 0. -1.
        -11    1    3    3    0    0 -0.26080599708E+01 -0.72262875733E+01 -0.23340783672E+02  0.24572614667E+02  0.51100000000E-03 0.  1.
         12    1    3    3    0    0 -0.28109458347E+01 -0.62621972043E+01 -0.17236814113E+02  0.18553282488E+02  0.00000000000E+00 0. -1.
</event>
<event>
 7    1  0.1351543E-013  0.7246157E+02  0.7816164E-02  0.1226708E+00
        -11   -1    0    0    0    0  0.00000000000E+00  0.00000000000E+00  0.45593999997E+02  0.45594000000E+02  0.51100000000E-03 0. -1.
         11   -1    0    0    0    0 -0.00000000000E+00 -0.00000000000E+00 -0.45593999997E+02  0.45594000000E+02  0.51100000000E-03 0.  1.
    9900012    2    1    2    0    0  0.10165395542E+02 -0.14327879730E+01 -0.15661767727E+02  0.72461571717E+02  0.70000001853E+02 0.  0.
         12    1    1    2    0    0 -0.10165395542E+02  0.14327879730E+01  0.15661767727E+02  0.18726428283E+02  0.00000000000E+00 0. -1.
         11    1    3    3    0    0  0.30160552212E+02 -0.13440314888E+01 -0.14598492978E+01  0.30225758727E+02  0.51100000000E-03 0. -1.
        -11    1    3    3    0    0 -0.22145129398E+02  0.14919244308E+00  0.51719609623E+01  0.22741552165E+02  0.51100000000E-03 0.  1.
        -12    1    3    3    0    0  0.21499727276E+01 -0.23794892722E+00 -0.19373879392E+02  0.19494260825E+02  0.00000000000E+00 0.  1.
</event>
<event>
 7    1  0.1351543E-013  0.7246154E+02  0.7816164E-02  0.1226708E+00
        -11   -1    0    0    0    0  0.00000000000E+00  0.00000000000E+00  0.45593999997E+02  0.45594000000E+02  0.51100000000E-03 0. -1.
         11   -1    0    0    0    0 -0.00000000000E+00 -0.00000000000E+00 -0.45593999997E+02  0.45594000000E+02  0.51100000000E-03 0.  1.
    9900012    2    1    2    0    0 -0.14695229276E+02 -0.52872272198E+00 -0.11595294448E+02  0.72461543728E+02  0.69999965392E+02 0.  0.
         12    1    1    2    0    0  0.14695229276E+02  0.52872272198E+00  0.11595294448E+02  0.18726456272E+02  0.00000000000E+00 0. -1.
         11    1    3    3    0    0  0.12924638914E+02  0.10976449254E+02  0.17837587553E+02  0.24611140957E+02  0.51100000000E-03 0. -1.
        -11    1    3    3    0    0 -0.14682747523E+02  0.37703959749E+01 -0.21524950294E+02  0.26327218730E+02  0.51100000000E-03 0.  1.
         12    1    3    3    0    0 -0.12937120667E+02 -0.15275567951E+02 -0.79079317061E+01  0.21523184040E+02  0.00000000000E+00 0. -1.
</event>
<event>
 7    1  0.1351543E-013  0.7246163E+02  0.7816164E-02  0.1226708E+00
        -11   -1    0    0    0    0  0.00000000000E+00  0.00000000000E+00  0.45593999997E+02  0.45594000000E+02  0.51100000000E-03 0. -1.
         11   -1    0    0    0    0 -0.00000000000E+00 -0.00000000000E+00 -0.45593999997E+02  0.45594000000E+02  0.51100000000E-03 0.  1.
    9900012    2    1    2    0    0 -0.41500997456E+01  0.17913906217E+02 -0.35419539230E+01  0.72461633523E+02  0.70000082367E+02 0.  0.
         12    1    1    2    0    0  0.41500997456E+01 -0.17913906217E+02  0.35419539230E+01  0.18726366477E+02  0.00000000000E+00 0. -1.
         11    1    3    3    0    0  0.26464481379E+02 -0.56262827526E+01  0.99808475808E+01  0.28838189107E+02  0.51100000000E-03 0. -1.
        -11    1    3    3    0    0 -0.10785867171E+02  0.11979716691E+00 -0.33835255704E+01  0.11304756854E+02  0.51100000000E-03 0.  1.
         12    1    3    3    0    0 -0.19828713954E+02  0.23420391803E+02 -0.10139275933E+02  0.32318687562E+02  0.00000000000E+00 0. -1.
</event>
<event>
 7    1  0.1351543E-013  0.7246157E+02  0.7816164E-02  0.1226708E+00
        -11   -1    0    0    0    0  0.00000000000E+00  0.00000000000E+00  0.45593999997E+02  0.45594000000E+02  0.51100000000E-03 0. -1.
         11   -1    0    0    0    0 -0.00000000000E+00 -0.00000000000E+00 -0.45593999997E+02  0.45594000000E+02  0.51100000000E-03 0.  1.
    9900012    2    1    2    0    0  0.57760975087E+01  0.13387817016E+02 -0.11750834346E+02  0.72461573360E+02  0.70000003994E+02 0.  0.
         12    1    1    2    0    0 -0.57760975087E+01 -0.13387817016E+02  0.11750834346E+02  0.18726426640E+02  0.00000000000E+00 0. -1.
         11    1    3    3    0    0 -0.17539630833E+02 -0.13769608370E+02  0.12282559123E+02  0.25457847970E+02  0.51100000000E-03 0. -1.
        -11    1    3    3    0    0  0.23086698566E+02  0.17888648210E+02 -0.23887803661E+02  0.37730975994E+02  0.51100000000E-03 0.  1.
        -12    1    3    3    0    0  0.22902977601E+00  0.92687771758E+01 -0.14558980730E+00  0.92727493962E+01  0.00000000000E+00 0.  1.
</event>
<event>
 7    1  0.1351543E-013  0.7246160E+02  0.7816164E-02  0.1226708E+00
        -11   -1    0    0    0    0  0.00000000000E+00  0.00000000000E+00  0.45593999997E+02  0.45594000000E+02  0.51100000000E-03 0. -1.
         11   -1    0    0    0    0 -0.00000000000E+00 -0.00000000000E+00 -0.45593999997E+02  0.45594000000E+02  0.51100000000E-03 0.  1.
    9900012    2    1    2    0    0  0.13710704523E+02  0.12460349154E+02 -0.27266218973E+01  0.72461596541E+02  0.70000034191E+02 0.  0.
         12    1    1    2    0    0 -0.13710704523E+02 -0.12460349154E+02  0.27266218973E+01  0.18726403459E+02  0.00000000000E+00 0. -1.
         11    1    3    3    0    0  0.13320581201E+02 -0.15453015231E+02 -0.13873330629E+02  0.24671904391E+02  0.51100000000E-03 0. -1.
        -11    1    3    3    0    0 -0.14611417914E+00  0.31082836056E+02 -0.48622666387E+01  0.31461177406E+02  0.51100000000E-03 0.  1.
        -12    1    3    3    0    0  0.53623750068E+00 -0.31694716715E+01  0.16008975371E+02  0.16328514744E+02  0.00000000000E+00 0.  1.
</event>
<event>
 7    1  0.1351543E-013  0.7246156E+02  0.7816164E-02  0.1226708E+00
        -11   -1    0    0    0    0  0.00000000000E+00  0.00000000000E+00  0.45593999997E+02  0.45594000000E+02  0.51100000000E-03 0.  1.
         11   -1    0    0    0    0 -0.00000000000E+00 -0.00000000000E+00 -0.45593999997E+02  0.45594000000E+02  0.51100000000E-03 0. -1.
    9900012    2    1    2    0    0  0.14750811508E+02 -0.30641483582E+01  0.11122243163E+02  0.72461555109E+02  0.69999980218E+02 0.  0.
         12    1    1    2    0    0 -0.14750811508E+02  0.30641483582E+01 -0.11122243163E+02  0.18726444891E+02  0.00000000000E+00 0. -1.
         11    1    3    3    0    0  0.29943852957E+01 -0.15685516703E+02  0.14389672295E+02  0.21495684370E+02  0.51100000000E-03 0. -1.
        -11    1    3    3    0    0 -0.49322713261E+01  0.21687901525E+02  0.13169694915E+02  0.25848273393E+02  0.51100000000E-03 0.  1.
         12    1    3    3    0    0  0.16688697538E+02 -0.90665331803E+01 -0.16437124048E+02  0.25117597345E+02  0.00000000000E+00 0. -1.
</event>
<event>
 7    1  0.1351543E-013  0.7246157E+02  0.7816164E-02  0.1226708E+00
        -11   -1    0    0    0    0  0.00000000000E+00  0.00000000000E+00  0.45593999997E+02  0.45594000000E+02  0.51100000000E-03 0.  1.
         11   -1    0    0    0    0 -0.00000000000E+00 -0.00000000000E+00 -0.45593999997E+02  0.45594000000E+02  0.51100000000E-03 0. -1.
    9900012    2    1    2    0    0 -0.29818577841E+01 -0.18487060285E+02  0.12834459761E+00  0.72461565578E+02  0.69999993856E+02 0.  0.
         12    1    1    2    0    0  0.29818577841E+01  0.18487060285E+02 -0.12834459761E+00  0.18726434422E+02  0.00000000000E+00 0. -1.
         11    1    3    3    0    0 -0.77829843949E+01 -0.13560904046E+02 -0.21867742880E+02  0.26882543473E+02  0.51100000000E-03 0. -1.
        -11    1    3    3    0    0  0.10898696895E+02 -0.12814226636E+01  0.31704047411E+02  0.33549519528E+02  0.51100000000E-03 0.  1.
        -12    1    3    3    0    0 -0.60975702837E+01 -0.36447335750E+01 -0.97079599335E+01  0.12029502578E+02  0.00000000000E+00 0.  1.
</event>
<event>
 7    1  0.1351543E-013  0.7246157E+02  0.7816164E-02  0.1226708E+00
        -11   -1    0    0    0    0  0.00000000000E+00  0.00000000000E+00  0.45593999997E+02  0.45594000000E+02  0.51100000000E-03 0.  1.
         11   -1    0    0    0    0 -0.00000000000E+00 -0.00000000000E+00 -0.45593999997E+02  0.45594000000E+02  0.51100000000E-03 0. -1.
    9900012    2    1    2    0    0 -0.15462428283E+02  0.99899390567E+01  0.34342013070E+01  0.72461566560E+02  0.69999995135E+02 0.  0.
         12    1    1    2    0    0  0.15462428283E+02 -0.99899390567E+01 -0.34342013070E+01  0.18726433440E+02  0.00000000000E+00 0. -1.
         11    1    3    3    0    0  0.68085837160E+00 -0.12095178639E+02 -0.14135071097E+02  0.18616045488E+02  0.51100000000E-03 0. -1.
        -11    1    3    3    0    0 -0.21419526516E+02  0.32581388563E+02  0.11674849307E+02  0.40701905404E+02  0.51100000000E-03 0.  1.
        -12    1    3    3    0    0  0.52762398613E+01 -0.10496270867E+02  0.58944230968E+01  0.13143615668E+02  0.00000000000E+00 0.  1.
</event>
<event>
 7    1  0.1351543E-013  0.7246158E+02  0.7816164E-02  0.1226708E+00
        -11   -1    0    0    0    0  0.00000000000E+00  0.00000000000E+00  0.45593999997E+02  0.45594000000E+02  0.51100000000E-03 0.  1.
         11   -1    0    0    0    0 -0.00000000000E+00 -0.00000000000E+00 -0.45593999997E+02  0.45594000000E+02  0.51100000000E-03 0. -1.
    9900012    2    1    2    0    0  0.87284865503E+01  0.14228254179E+02 -0.84881855371E+01  0.72461575137E+02  0.70000006309E+02 0.  0.
         12    1    1    2    0    0 -0.87284865503E+01 -0.14228254179E+02  0.84881855371E+01  0.18726424863E+02  0.00000000000E+00 0. -1.
         11    1    3    3    0    0 -0.21235426896E+02  0.22948400161E+01 -0.10772039732E+02  0.23921673988E+02  0.51100000000E-03 0. -1.
        -11    1    3    3    0    0  0.22821527982E+02 -0.19321014820E+01 -0.13305707175E+02  0.26487676365E+02  0.51100000000E-03 0.  1.
        -12    1    3    3    0    0  0.71423854643E+01  0.13865515645E+02  0.15589561369E+02  0.22052224784E+02  0.00000000000E+00 0.  1.
</event>
<event>
 7    1  0.1351543E-013  0.7246150E+02  0.7816164E-02  0.1226708E+00
        -11   -1    0    0    0    0  0.00000000000E+00  0.00000000000E+00  0.45593999997E+02  0.45594000000E+02  0.51100000000E-03 0.  1.
         11   -1    0    0    0    0 -0.00000000000E+00 -0.00000000000E+00 -0.45593999997E+02  0.45594000000E+02  0.51100000000E-03 0. -1.
    9900012    2    1    2    0    0 -0.15184378976E+02 -0.82746019341E+01  0.71866065373E+01  0.72461502314E+02  0.69999911443E+02 0.  0.
         12    1    1    2    0    0  0.15184378976E+02  0.82746019341E+01 -0.71866065373E+01  0.18726497686E+02  0.00000000000E+00 0. -1.
         11    1    3    3    0    0  0.17614519727E+02 -0.92987647651E+00 -0.62728757311E+01  0.18721243165E+02  0.51100000000E-03 0. -1.
        -11    1    3    3    0    0 -0.23918425835E+02 -0.21723149651E+02  0.16945444375E+02  0.36484714751E+02  0.51100000000E-03 0.  1.
         12    1    3    3    0    0 -0.88804728680E+01  0.14378424193E+02 -0.34859621064E+01  0.17255544397E+02  0.00000000000E+00 0. -1.
</event>
<event>
 7    1  0.1351543E-013  0.7246156E+02  0.7816164E-02  0.1226708E+00
        -11   -1    0    0    0    0  0.00000000000E+00  0.00000000000E+00  0.45593999997E+02  0.45594000000E+02  0.51100000000E-03 0.  1.
         11   -1    0    0    0    0 -0.00000000000E+00 -0.00000000000E+00 -0.45593999997E+02  0.45594000000E+02  0.51100000000E-03 0. -1.
    9900012    2    1    2    0    0  0.14020134907E+02 -0.11265768003E+02  0.52151692948E+01  0.72461556069E+02  0.69999981469E+02 0.  0.
         12    1    1    2    0    0 -0.14020134907E+02  0.11265768003E+02 -0.52151692948E+01  0.18726443931E+02  0.00000000000E+00 0. -1.
         11    1    3    3    0    0 -0.78952705059E+01  0.28131073254E+01 -0.14665135230E+00  0.83827427532E+01  0.51100000000E-03 0. -1.
        -11    1    3    3    0    0  0.25168507983E+02 -0.22402475731E+02  0.25361935020E+02  0.42172887750E+02  0.51100000000E-03 0.  1.
        -12    1    3    3    0    0 -0.32531025698E+01  0.83236004026E+01 -0.20000114373E+02  0.21905925566E+02  0.00000000000E+00 0.  1.
</event>
<event>
 7    1  0.1351543E-013  0.7246127E+02  0.7816164E-02  0.1226709E+00
        -11   -1    0    0    0    0  0.00000000000E+00  0.00000000000E+00  0.45593999997E+02  0.45594000000E+02  0.51100000000E-03 0. -1.
         11   -1    0    0    0    0 -0.00000000000E+00 -0.00000000000E+00 -0.45593999997E+02  0.45594000000E+02  0.51100000000E-03 0.  1.
    9900012    2    1    2    0    0  0.15112764530E+02  0.28587895888E+00 -0.11055003002E+02  0.72461268574E+02  0.69999606952E+02 0.  0.
         12    1    1    2    0    0 -0.15112764530E+02 -0.28587895888E+00  0.11055003002E+02  0.18726731426E+02  0.00000000000E+00 0. -1.
         11    1    3    3    0    0  0.28245507590E+01  0.14979238889E+01  0.95140815485E+01  0.10036912421E+02  0.51100000000E-03 0. -1.
        -11    1    3    3    0    0  0.24740049569E+02  0.19238338303E+02 -0.22230692262E+02  0.38423786800E+02  0.51100000000E-03 0.  1.
        -12    1    3    3    0    0 -0.12451835798E+02 -0.20450383233E+02  0.16616077117E+01  0.24000569354E+02  0.00000000000E+00 0.  1.
</event>
<event>
 7    1  0.1351543E-013  0.7246155E+02  0.7816164E-02  0.1226708E+00
        -11   -1    0    0    0    0  0.00000000000E+00  0.00000000000E+00  0.45593999997E+02  0.45594000000E+02  0.51100000000E-03 0.  1.
         11   -1    0    0    0    0 -0.00000000000E+00 -0.00000000000E+00 -0.45593999997E+02  0.45594000000E+02  0.51100000000E-03 0. -1.
    9900012    2    1    2    0    0  0.44125412135E+01  0.17677786728E+02  0.43249419441E+01  0.72461553824E+02  0.69999978544E+02 0.  0.
         12    1    1    2    0    0 -0.44125412135E+01 -0.17677786728E+02 -0.43249419441E+01  0.18726446176E+02  0.00000000000E+00 0. -1.
         11    1    3    3    0    0 -0.24473878255E+02  0.23964649808E+01  0.16881523266E+02  0.29827832460E+02  0.51100000000E-03 0. -1.
        -11    1    3    3    0    0  0.18032052491E+02  0.16604645633E+02 -0.18007076327E+02  0.30415850666E+02  0.51100000000E-03 0.  1.
        -12    1    3    3    0    0  0.10854366978E+02 -0.13233238849E+01  0.54504950051E+01  0.12217870698E+02  0.00000000000E+00 0.  1.
</event>
<event>
 7    1  0.1351543E-013  0.7246157E+02  0.7816164E-02  0.1226708E+00
        -11   -1    0    0    0    0  0.00000000000E+00  0.00000000000E+00  0.45593999997E+02  0.45594000000E+02  0.51100000000E-03 0.  1.
         11   -1    0    0    0    0 -0.00000000000E+00 -0.00000000000E+00 -0.45593999997E+02  0.45594000000E+02  0.51100000000E-03 0. -1.
    9900012    2    1    2    0    0 -0.17672846324E+02 -0.61921207946E+01  0.85734543372E-01  0.72461569279E+02  0.69999998678E+02 0.  0.
         12    1    1    2    0    0  0.17672846324E+02  0.61921207946E+01 -0.85734543372E-01  0.18726430721E+02  0.00000000000E+00 0. -1.
         11    1    3    3    0    0  0.87404400434E+01  0.17471746787E+02  0.87225035359E+01  0.21394842746E+02  0.51100000000E-03 0. -1.
        -11    1    3    3    0    0 -0.28564855933E+02 -0.30985524970E+02 -0.44904685716E+01  0.42381812849E+02  0.51100000000E-03 0.  1.
        -12    1    3    3    0    0  0.21515695654E+01  0.73216573887E+01 -0.41463004209E+01  0.86849136837E+01  0.00000000000E+00 0.  1.
</event>
<event>
 7    1  0.1351543E-013  0.7246156E+02  0.7816164E-02  0.1226708E+00
        -11   -1    0    0    0    0  0.00000000000E+00  0.00000000000E+00  0.45593999997E+02  0.45594000000E+02  0.51100000000E-03 0.  1.
         11   -1    0    0    0    0 -0.00000000000E+00 -0.00000000000E+00 -0.45593999997E+02  0.45594000000E+02  0.51100000000E-03 0. -1.
    9900012    2    1    2    0    0 -0.42669847182E+01  0.54068982438E+01  0.17413729696E+02  0.72461556420E+02  0.69999981927E+02 0.  0.
         12    1    1    2    0    0  0.42669847182E+01 -0.54068982438E+01 -0.17413729696E+02  0.18726443580E+02  0.00000000000E+00 0. -1.
         11    1    3    3    0    0 -0.84261525487E+01 -0.19202219411E+02  0.18228752508E+02  0.27785116436E+02  0.51100000000E-03 0.  1.
        -11    1    3    3    0    0  0.13434626370E+02  0.30491558403E+02  0.18599343063E+01  0.33371899488E+02  0.51100000000E-03 0. -1.
         12    1    3    3    0    0 -0.92754585392E+01 -0.58824407476E+01 -0.26749571183E+01  0.11304540497E+02  0.00000000000E+00 0. -1.
</event>
<event>
 7    1  0.1351543E-013  0.7246149E+02  0.7816164E-02  0.1226708E+00
        -11   -1    0    0    0    0  0.00000000000E+00  0.00000000000E+00  0.45593999997E+02  0.45594000000E+02  0.51100000000E-03 0.  1.
         11   -1    0    0    0    0 -0.00000000000E+00 -0.00000000000E+00 -0.45593999997E+02  0.45594000000E+02  0.51100000000E-03 0. -1.
    9900012    2    1    2    0    0 -0.13979339593E+02  0.28138795526E+01  0.12138465201E+02  0.72461489620E+02  0.69999894906E+02 0.  0.
         12    1    1    2    0    0  0.13979339593E+02 -0.28138795526E+01 -0.12138465201E+02  0.18726510380E+02  0.00000000000E+00 0. -1.
         11    1    3    3    0    0 -0.33868950245E+02 -0.49772099619E+01 -0.10828243738E+02  0.35904446416E+02  0.51100000000E-03 0. -1.
        -11    1    3    3    0    0  0.13101908815E+02 -0.49476984413E+01  0.11561637136E+02  0.18160704502E+02  0.51100000000E-03 0.  1.
         12    1    3    3    0    0  0.67877018370E+01  0.12738787956E+02  0.11405071803E+02  0.18396338702E+02  0.00000000000E+00 0. -1.
</event>
<event>
 7    1  0.1351543E-013  0.7246167E+02  0.7816164E-02  0.1226708E+00
        -11   -1    0    0    0    0  0.00000000000E+00  0.00000000000E+00  0.45593999997E+02  0.45594000000E+02  0.51100000000E-03 0. -1.
         11   -1    0    0    0    0 -0.00000000000E+00 -0.00000000000E+00 -0.45593999997E+02  0.45594000000E+02  0.51100000000E-03 0.  1.
    9900012    2    1    2    0    0  0.11469966413E+02 -0.12762687665E+02 -0.74986050122E+01  0.72461670859E+02  0.70000131004E+02 0.  0.
         12    1    1    2    0    0 -0.11469966413E+02  0.12762687665E+02  0.74986050122E+01  0.18726329141E+02  0.00000000000E+00 0. -1.
         11    1    3    3    0    0  0.22881204455E+02 -0.34570289755E+02 -0.71305893744E+01  0.42065422334E+02  0.51100000000E-03 0. -1.
        -11    1    3    3    0    0 -0.30246731108E+00  0.16349199384E+02  0.47113731268E+01  0.17017192599E+02  0.51100000000E-03 0.  1.
         12    1    3    3    0    0 -0.11108770730E+02  0.54584027061E+01 -0.50793887645E+01  0.13379055926E+02  0.00000000000E+00 0. -1.
</event>
<event>
 7    1  0.1351543E-013  0.7246159E+02  0.7816164E-02  0.1226708E+00
        -11   -1    0    0    0    0  0.00000000000E+00  0.00000000000E+00  0.45593999997E+02  0.45594000000E+02  0.51100000000E-03 0. -1.
         11   -1    0    0    0    0 -0.00000000000E+00 -0.00000000000E+00 -0.45593999997E+02  0.45594000000E+02  0.51100000000E-03 0.  1.
    9900012    2    1    2    0    0 -0.14683367157E+02  0.46618294034E+01 -0.10646330607E+02  0.72461594048E+02  0.70000030944E+02 0.  0.
         12    1    1    2    0    0  0.14683367157E+02 -0.46618294034E+01  0.10646330607E+02  0.18726405952E+02  0.00000000000E+00 0. -1.
         11    1    3    3    0    0  0.78707838669E+01  0.10692540922E+01  0.11595516595E+02  0.14055196490E+02  0.51100000000E-03 0. -1.
        -11    1    3    3    0    0 -0.10762838855E+02  0.17391460572E+02 -0.31863926059E+02  0.37863060959E+02  0.51100000000E-03 0.  1.
        -12    1    3    3    0    0 -0.11791312170E+02 -0.13798885261E+02  0.96220788564E+01  0.20543336600E+02  0.00000000000E+00 0.  1.
</event>
<event>
 7    1  0.1351543E-013  0.7246158E+02  0.7816164E-02  0.1226708E+00
        -11   -1    0    0    0    0  0.00000000000E+00  0.00000000000E+00  0.45593999997E+02  0.45594000000E+02  0.51100000000E-03 0.  1.
         11   -1    0    0    0    0 -0.00000000000E+00 -0.00000000000E+00 -0.45593999997E+02  0.45594000000E+02  0.51100000000E-03 0. -1.
    9900012    2    1    2    0    0 -0.50167205665E+01  0.98640632151E+01  0.15106668283E+02  0.72461584033E+02  0.70000017897E+02 0.  0.
         12    1    1    2    0    0  0.50167205665E+01 -0.98640632151E+01 -0.15106668283E+02  0.18726415967E+02  0.00000000000E+00 0. -1.
         11    1    3    3    0    0  0.25537430889E+02  0.50299101109E+01 -0.68755646250E+01  0.26920879653E+02  0.51100000000E-03 0. -1.
        -11    1    3    3    0    0 -0.17827801476E+02 -0.99066965466E+01  0.11852609508E+02  0.23589351291E+02  0.51100000000E-03 0.  1.
        -12    1    3    3    0    0 -0.12726349980E+02  0.14740849651E+02  0.10129623399E+02  0.21951353089E+02  0.00000000000E+00 0.  1.
</event>
<event>
 7    1  0.1351543E-013  0.7246151E+02  0.7816164E-02  0.1226708E+00
        -11   -1    0    0    0    0  0.00000000000E+00  0.00000000000E+00  0.45593999997E+02  0.45594000000E+02  0.51100000000E-03 0.  1.
         11   -1    0    0    0    0 -0.00000000000E+00 -0.00000000000E+00 -0.45593999997E+02  0.45594000000E+02  0.51100000000E-03 0. -1.
    9900012    2    1    2    0    0 -0.16838815247E+02 -0.45328107564E+01  0.68256421985E+01  0.72461509040E+02  0.69999920204E+02 0.  0.
         12    1    1    2    0    0  0.16838815247E+02  0.45328107564E+01 -0.68256421985E+01  0.18726490960E+02  0.00000000000E+00 0. -1.
         11    1    3    3    0    0 -0.80045708470E+01  0.25482482254E+02  0.32661534562E+01  0.26909065665E+02  0.51100000000E-03 0. -1.
        -11    1    3    3    0    0 -0.20858383899E+02 -0.13269757890E+02  0.62709113672E+00  0.24729575347E+02  0.51100000000E-03 0.  1.
        -12    1    3    3    0    0  0.12024139499E+02 -0.16745535121E+02  0.29323976056E+01  0.20822868028E+02  0.00000000000E+00 0.  1.
</event>
<event>
 7    1  0.1351543E-013  0.7246155E+02  0.7816164E-02  0.1226708E+00
        -11   -1    0    0    0    0  0.00000000000E+00  0.00000000000E+00  0.45593999997E+02  0.45594000000E+02  0.51100000000E-03 0. -1.
         11   -1    0    0    0    0 -0.00000000000E+00 -0.00000000000E+00 -0.45593999997E+02  0.45594000000E+02  0.51100000000E-03 0.  1.
    9900012    2    1    2    0    0 -0.10502547158E+01  0.34581645033E+01 -0.18374379472E+02  0.72461554590E+02  0.69999979543E+02 0.  0.
         12    1    1    2    0    0  0.10502547158E+01 -0.34581645033E+01  0.18374379472E+02  0.18726445410E+02  0.00000000000E+00 0. -1.
         11    1    3    3    0    0  0.12701555574E+02 -0.15275388768E+02  0.11095347356E+02  0.22754642366E+02  0.51100000000E-03 0. -1.
        -11    1    3    3    0    0 -0.10755864482E+02 -0.68099565514E+01 -0.16681946664E+02  0.20984553218E+02  0.51100000000E-03 0.  1.
         12    1    3    3    0    0 -0.29959458073E+01  0.25543509823E+02 -0.12787780163E+02  0.28722359006E+02  0.00000000000E+00 0. -1.
</event>
<event>
 7    1  0.1351543E-013  0.7246159E+02  0.7816164E-02  0.1226708E+00
        -11   -1    0    0    0    0  0.00000000000E+00  0.00000000000E+00  0.45593999997E+02  0.45594000000E+02  0.51100000000E-03 0. -1.
         11   -1    0    0    0    0 -0.00000000000E+00 -0.00000000000E+00 -0.45593999997E+02  0.45594000000E+02  0.51100000000E-03 0.  1.
    9900012    2    1    2    0    0  0.14112290280E+02  0.49954177667E+01 -0.11250220697E+02  0.72461590805E+02  0.70000026719E+02 0.  0.
         12    1    1    2    0    0 -0.14112290280E+02 -0.49954177667E+01  0.11250220697E+02  0.18726409195E+02  0.00000000000E+00 0. -1.
         11    1    3    3    0    0  0.85635890976E+01  0.26567818879E+02 -0.29060753731E+02  0.40295303273E+02  0.51100000000E-03 0.  1.
        -11    1    3    3    0    0 -0.10081053883E+01 -0.74272859350E+01  0.14359486229E+02  0.16198015244E+02  0.51100000000E-03 0. -1.
        -12    1    3    3    0    0  0.65568065707E+01 -0.14145115178E+02  0.34510468049E+01  0.15968272288E+02  0.00000000000E+00 0.  1.
</event>
<event>
 7    1  0.1351543E-013  0.7246156E+02  0.7816164E-02  0.1226708E+00
        -11   -1    0    0    0    0  0.00000000000E+00  0.00000000000E+00  0.45593999997E+02  0.45594000000E+02  0.51100000000E-03 0. -1.
         11   -1    0    0    0    0 -0.00000000000E+00 -0.00000000000E+00 -0.45593999997E+02  0.45594000000E+02  0.51100000000E-03 0.  1.
    9900012    2    1    2    0    0 -0.99117051163E+01 -0.18375675032E+01 -0.15781663271E+02  0.72461562852E+02  0.69999990306E+02 0.  0.
         12    1    1    2    0    0  0.99117051163E+01  0.18375675032E+01  0.15781663271E+02  0.18726437148E+02  0.00000000000E+00 0. -1.
         11    1    3    3    0    0 -0.10574911311E+02  0.24335062708E+02 -0.47227669215E+01  0.26950483371E+02  0.51100000000E-03 0. -1.
        -11    1    3    3    0    0 -0.11177704185E+02 -0.19541638035E+02 -0.19283355516E+02  0.29642275354E+02  0.51100000000E-03 0.  1.
        -12    1    3    3    0    0  0.11840910380E+02 -0.66309921763E+01  0.82244591664E+01  0.15868804128E+02  0.00000000000E+00 0.  1.
</event>
<event>
 7    1  0.1351543E-013  0.7246155E+02  0.7816164E-02  0.1226708E+00
        -11   -1    0    0    0    0  0.00000000000E+00  0.00000000000E+00  0.45593999997E+02  0.45594000000E+02  0.51100000000E-03 0.  1.
         11   -1    0    0    0    0 -0.00000000000E+00 -0.00000000000E+00 -0.45593999997E+02  0.45594000000E+02  0.51100000000E-03 0. -1.
    9900012    2    1    2    0    0 -0.62388635362E+00  0.16102265755E+02  0.95397983274E+01  0.72461549489E+02  0.69999972897E+02 0.  0.
         12    1    1    2    0    0  0.62388635362E+00 -0.16102265755E+02 -0.95397983274E+01  0.18726450511E+02  0.00000000000E+00 0. -1.
         11    1    3    3    0    0  0.11390956599E+02 -0.32371724572E+01 -0.93550752712E+01  0.15091408528E+02  0.51100000000E-03 0. -1.
        -11    1    3    3    0    0 -0.27008450389E+02 -0.13522677104E+01  0.16561837693E+02  0.31710873347E+02  0.51100000000E-03 0.  1.
        -12    1    3    3    0    0  0.14993607436E+02  0.20691705923E+02  0.23330359052E+01  0.25659267614E+02  0.00000000000E+00 0.  1.
</event>
<event>
 7    1  0.1351543E-013  0.7246152E+02  0.7816164E-02  0.1226708E+00
        -11   -1    0    0    0    0  0.00000000000E+00  0.00000000000E+00  0.45593999997E+02  0.45594000000E+02  0.51100000000E-03 0.  1.
         11   -1    0    0    0    0 -0.00000000000E+00 -0.00000000000E+00 -0.45593999997E+02  0.45594000000E+02  0.51100000000E-03 0. -1.
    9900012    2    1    2    0    0 -0.32260431076E+01 -0.12639975081E+02  0.13435201889E+02  0.72461522115E+02  0.69999937238E+02 0.  0.
         12    1    1    2    0    0  0.32260431076E+01  0.12639975081E+02 -0.13435201889E+02  0.18726477885E+02  0.00000000000E+00 0. -1.
         11    1    3    3    0    0 -0.24253791395E+02  0.12332371108E+02  0.20019297215E+02  0.33780261032E+02  0.51100000000E-03 0.  1.
        -11    1    3    3    0    0  0.21457866317E+02 -0.13322691865E+02  0.71653407042E-01  0.25257459886E+02  0.51100000000E-03 0. -1.
        -12    1    3    3    0    0 -0.43011803008E+00 -0.11649654324E+02 -0.66557487334E+01  0.13423801198E+02  0.00000000000E+00 0.  1.
</event>
<event>
 7    1  0.2016834E-013  0.7246158E+02  0.7816164E-02  0.1226708E+00
        -11   -1    0    0    0    0  0.00000000000E+00  0.00000000000E+00  0.45593999997E+02  0.45594000000E+02  0.51100000000E-03 0.  1.
         11   -1    0    0    0    0 -0.00000000000E+00 -0.00000000000E+00 -0.45593999997E+02  0.45594000000E+02  0.51100000000E-03 0. -1.
    9900012    2    1    2    0    0 -0.14103799694E+02 -0.23148619263E+01 -0.12099718072E+02  0.72461576717E+02  0.70000008367E+02 0.  0.
         12    1    1    2    0    0  0.14103799694E+02  0.23148619263E+01  0.12099718072E+02  0.18726423283E+02  0.00000000000E+00 0. -1.
         11    1    3    3    0    0  0.11479013366E+02 -0.15107336202E+02  0.53204993397E+01  0.19705508582E+02  0.51100000000E-03 0.  1.
        -11    1    3    3    0    0 -0.11963485985E+02  0.15702065558E+02 -0.28700664855E+02  0.34834006705E+02  0.51100000000E-03 0. -1.
         12    1    3    3    0    0 -0.13619327075E+02 -0.29095912827E+01  0.11280447443E+02  0.17922061431E+02  0.00000000000E+00 0. -1.
</event>
<event>
 7    1  0.1351543E-013  0.7246160E+02  0.7816164E-02  0.1226708E+00
        -11   -1    0    0    0    0  0.00000000000E+00  0.00000000000E+00  0.45593999997E+02  0.45594000000E+02  0.51100000000E-03 0.  1.
         11   -1    0    0    0    0 -0.00000000000E+00 -0.00000000000E+00 -0.45593999997E+02  0.45594000000E+02  0.51100000000E-03 0. -1.
    9900012    2    1    2    0    0  0.11257602095E+02 -0.14350157934E+02  0.42446962675E+01  0.72461599276E+02  0.70000037754E+02 0.  0.
         12    1    1    2    0    0 -0.11257602095E+02  0.14350157934E+02 -0.42446962675E+01  0.18726400724E+02  0.00000000000E+00 0. -1.
         11    1    3    3    0    0  0.56073761696E+01  0.20761688085E+02 -0.17425811270E+02  0.27679401336E+02  0.51100000000E-03 0. -1.
        -11    1    3    3    0    0  0.76390573697E+01 -0.69575223110E+01  0.24032246162E+01  0.10608383620E+02  0.51100000000E-03 0.  1.
         12    1    3    3    0    0 -0.19888314440E+01 -0.28154323708E+02  0.19267282922E+02  0.34173814320E+02  0.00000000000E+00 0. -1.
</event>
<event>
 7    1  0.1351543E-013  0.7246157E+02  0.7816164E-02  0.1226708E+00
        -11   -1    0    0    0    0  0.00000000000E+00  0.00000000000E+00  0.45593999997E+02  0.45594000000E+02  0.51100000000E-03 0.  1.
         11   -1    0    0    0    0 -0.00000000000E+00 -0.00000000000E+00 -0.45593999997E+02  0.45594000000E+02  0.51100000000E-03 0. -1.
    9900012    2    1    2    0    0  0.50559916683E+01  0.14537311937E+00  0.18030395566E+02  0.72461565492E+02  0.69999993744E+02 0.  0.
         12    1    1    2    0    0 -0.50559916683E+01 -0.14537311937E+00 -0.18030395566E+02  0.18726434508E+02  0.00000000000E+00 0. -1.
         11    1    3    3    0    0  0.44937802126E+01  0.14726659709E+01 -0.24355420124E+02  0.24810265927E+02  0.51100000000E-03 0. -1.
        -11    1    3    3    0    0 -0.54150125099E+01 -0.71632333955E+01  0.36091127515E+02  0.37191447387E+02  0.51100000000E-03 0.  1.
         12    1    3    3    0    0  0.59772239657E+01  0.58359405440E+01  0.62946881757E+01  0.10459852179E+02  0.00000000000E+00 0. -1.
</event>
<event>
 7    1  0.1351543E-013  0.7246157E+02  0.7816164E-02  0.1226708E+00
        -11   -1    0    0    0    0  0.00000000000E+00  0.00000000000E+00  0.45593999997E+02  0.45594000000E+02  0.51100000000E-03 0.  1.
         11   -1    0    0    0    0 -0.00000000000E+00 -0.00000000000E+00 -0.45593999997E+02  0.45594000000E+02  0.51100000000E-03 0. -1.
    9900012    2    1    2    0    0 -0.53269106241E+01 -0.17890091379E+02 -0.14993375536E+01  0.72461565223E+02  0.69999993394E+02 0.  0.
         12    1    1    2    0    0  0.53269106241E+01  0.17890091379E+02  0.14993375536E+01  0.18726434777E+02  0.00000000000E+00 0. -1.
         11    1    3    3    0    0  0.27205919829E+02  0.60607139015E+01  0.82005620124E+01  0.29054148488E+02  0.51100000000E-03 0. -1.
        -11    1    3    3    0    0 -0.18209349512E+02 -0.17381770967E+02 -0.11250777707E+02  0.27573290896E+02  0.51100000000E-03 0.  1.
         12    1    3    3    0    0 -0.14323480941E+02 -0.65690343139E+01  0.15508781407E+01  0.15834125839E+02  0.00000000000E+00 0. -1.
</event>
<event>
 7    1  0.1351543E-013  0.7246153E+02  0.7816164E-02  0.1226708E+00
        -11   -1    0    0    0    0  0.00000000000E+00  0.00000000000E+00  0.45593999997E+02  0.45594000000E+02  0.51100000000E-03 0.  1.
         11   -1    0    0    0    0 -0.00000000000E+00 -0.00000000000E+00 -0.45593999997E+02  0.45594000000E+02  0.51100000000E-03 0. -1.
    9900012    2    1    2    0    0 -0.41495137860E+01  0.17673940872E+02 -0.45928096369E+01  0.72461533410E+02  0.69999951951E+02 0.  0.
         12    1    1    2    0    0  0.41495137860E+01 -0.17673940872E+02  0.45928096369E+01  0.18726466590E+02  0.00000000000E+00 0. -1.
         11    1    3    3    0    0  0.87504850555E+01  0.18908628468E+02 -0.10717359015E+02  0.23430087574E+02  0.51100000000E-03 0. -1.
        -11    1    3    3    0    0 -0.24959067325E+02  0.41089653850E+01  0.18189336636E+02  0.31155908040E+02  0.51100000000E-03 0.  1.
        -12    1    3    3    0    0  0.12059068484E+02 -0.53436529807E+01 -0.12064787258E+02  0.17875537795E+02  0.00000000000E+00 0.  1.
</event>
<event>
 7    1  0.1351543E-013  0.7246157E+02  0.7816164E-02  0.1226708E+00
        -11   -1    0    0    0    0  0.00000000000E+00  0.00000000000E+00  0.45593999997E+02  0.45594000000E+02  0.51100000000E-03 0.  1.
         11   -1    0    0    0    0 -0.00000000000E+00 -0.00000000000E+00 -0.45593999997E+02  0.45594000000E+02  0.51100000000E-03 0. -1.
    9900012    2    1    2    0    0 -0.45130562003E+01 -0.20945134303E+01  0.18053377279E+02  0.72461572312E+02  0.70000002628E+02 0.  0.
         12    1    1    2    0    0  0.45130562003E+01  0.20945134303E+01 -0.18053377279E+02  0.18726427688E+02  0.00000000000E+00 0. -1.
         11    1    3    3    0    0 -0.76484417322E+01  0.14658649155E+02  0.71273138123E+00  0.16549400057E+02  0.51100000000E-03 0. -1.
        -11    1    3    3    0    0  0.78016134690E+01 -0.34207500691E+02  0.11216374843E+02  0.36835110169E+02  0.51100000000E-03 0.  1.
        -12    1    3    3    0    0 -0.46662279371E+01  0.17454338106E+02  0.61242710544E+01  0.19077062086E+02  0.00000000000E+00 0.  1.
</event>
<event>
 7    1  0.1351543E-013  0.7246159E+02  0.7816164E-02  0.1226708E+00
        -11   -1    0    0    0    0  0.00000000000E+00  0.00000000000E+00  0.45593999997E+02  0.45594000000E+02  0.51100000000E-03 0.  1.
         11   -1    0    0    0    0 -0.00000000000E+00 -0.00000000000E+00 -0.45593999997E+02  0.45594000000E+02  0.51100000000E-03 0. -1.
    9900012    2    1    2    0    0  0.73627620994E+01  0.15306673875E+02  0.78850429110E+01  0.72461589971E+02  0.70000025633E+02 0.  0.
         12    1    1    2    0    0 -0.73627620994E+01 -0.15306673875E+02 -0.78850429110E+01  0.18726410029E+02  0.00000000000E+00 0. -1.
         11    1    3    3    0    0  0.30866809296E+02  0.17005954456E+02 -0.15277870881E+02  0.38410620172E+02  0.51100000000E-03 0.  1.
        -11    1    3    3    0    0 -0.20402874524E+02 -0.43521022111E+01  0.18911598193E+02  0.28157887509E+02  0.51100000000E-03 0. -1.
        -12    1    3    3    0    0 -0.31011726730E+01  0.26528216307E+01  0.42513155986E+01  0.58930822895E+01  0.00000000000E+00 0.  1.
</event>
<event>
 7    1  0.1351543E-013  0.7246156E+02  0.7816164E-02  0.1226708E+00
        -11   -1    0    0    0    0  0.00000000000E+00  0.00000000000E+00  0.45593999997E+02  0.45594000000E+02  0.51100000000E-03 0.  1.
         11   -1    0    0    0    0 -0.00000000000E+00 -0.00000000000E+00 -0.45593999997E+02  0.45594000000E+02  0.51100000000E-03 0. -1.
    9900012    2    1    2    0    0  0.11487753816E+02 -0.46664175568E+01  0.14033373362E+02  0.72461561244E+02  0.69999988211E+02 0.  0.
         12    1    1    2    0    0 -0.11487753816E+02  0.46664175568E+01 -0.14033373362E+02  0.18726438756E+02  0.00000000000E+00 0. -1.
         11    1    3    3    0    0 -0.22982955799E+02  0.40500929037E+01  0.36908602896E+01  0.23627144553E+02  0.51100000000E-03 0. -1.
        -11    1    3    3    0    0  0.83293174218E+01  0.19873547744E+01  0.17683909029E+02  0.19648097784E+02  0.51100000000E-03 0.  1.
         12    1    3    3    0    0  0.26141392193E+02 -0.10703865235E+02 -0.73413959565E+01  0.29186318907E+02  0.00000000000E+00 0. -1.
</event>
<event>
 7    1  0.1351543E-013  0.7246156E+02  0.7816164E-02  0.1226708E+00
        -11   -1    0    0    0    0  0.00000000000E+00  0.00000000000E+00  0.45593999997E+02  0.45594000000E+02  0.51100000000E-03 0.  1.
         11   -1    0    0    0    0 -0.00000000000E+00 -0.00000000000E+00 -0.45593999997E+02  0.45594000000E+02  0.51100000000E-03 0. -1.
    9900012    2    1    2    0    0 -0.90371938090E+01  0.16139174441E+02  0.29216259679E+01  0.72461555546E+02  0.69999980788E+02 0.  0.
         12    1    1    2    0    0  0.90371938090E+01 -0.16139174441E+02 -0.29216259679E+01  0.18726444454E+02  0.00000000000E+00 0. -1.
         11    1    3    3    0    0 -0.13476542527E+00  0.84313561681E+01 -0.11254126155E+02  0.14062762329E+02  0.51100000000E-03 0. -1.
        -11    1    3    3    0    0  0.17409681223E+01 -0.23379158056E+02  0.91118098438E+01  0.25152357351E+02  0.51100000000E-03 0.  1.
        -12    1    3    3    0    0 -0.10643396506E+02  0.31086976329E+02  0.50639422788E+01  0.33246435867E+02  0.00000000000E+00 0.  1.
</event>
<event>
 7    1  0.1351543E-013  0.7246179E+02  0.7816164E-02  0.1226707E+00
        -11   -1    0    0    0    0  0.00000000000E+00  0.00000000000E+00  0.45593999997E+02  0.45594000000E+02  0.51100000000E-03 0.  1.
         11   -1    0    0    0    0 -0.00000000000E+00 -0.00000000000E+00 -0.45593999997E+02  0.45594000000E+02  0.51100000000E-03 0. -1.
    9900012    2    1    2    0    0  0.12600285723E+02  0.18012301508E+01  0.13735332052E+02  0.72461789039E+02  0.70000284955E+02 0.  0.
         12    1    1    2    0    0 -0.12600285723E+02 -0.18012301508E+01 -0.13735332052E+02  0.18726210961E+02  0.00000000000E+00 0. -1.
         11    1    3    3    0    0 -0.97417973153E+01  0.23365046625E+02  0.10453274469E+01  0.25336154571E+02  0.51100000000E-03 0. -1.
        -11    1    3    3    0    0  0.25795166688E+02 -0.81606921301E+01  0.17784429896E+02  0.32377051556E+02  0.51100000000E-03 0.  1.
         12    1    3    3    0    0 -0.34530836491E+01 -0.13403124344E+02 -0.50944252910E+01  0.14748582912E+02  0.00000000000E+00 0. -1.
</event>
<event>
 7    1  0.1351543E-013  0.7246161E+02  0.7816164E-02  0.1226708E+00
        -11   -1    0    0    0    0  0.00000000000E+00  0.00000000000E+00  0.45593999997E+02  0.45594000000E+02  0.51100000000E-03 0. -1.
         11   -1    0    0    0    0 -0.00000000000E+00 -0.00000000000E+00 -0.45593999997E+02  0.45594000000E+02  0.51100000000E-03 0.  1.
    9900012    2    1    2    0    0 -0.40885763456E+01 -0.17845769180E+02 -0.39357005084E+01  0.72461610261E+02  0.70000052064E+02 0.  0.
         12    1    1    2    0    0  0.40885763456E+01  0.17845769180E+02  0.39357005084E+01  0.18726389739E+02  0.00000000000E+00 0. -1.
         11    1    3    3    0    0  0.89339192457E+01 -0.14252362266E+02  0.11239825963E+02  0.20230631013E+02  0.51100000000E-03 0. -1.
        -11    1    3    3    0    0 -0.57859696402E+01 -0.14468179934E+02 -0.29180186915E+02  0.33080039056E+02  0.51100000000E-03 0.  1.
         12    1    3    3    0    0 -0.72365259511E+01  0.10874773020E+02  0.14004660444E+02  0.19150940192E+02  0.00000000000E+00 0. -1.
</event>
<event>
 7    1  0.1351543E-013  0.7246158E+02  0.7816164E-02  0.1226708E+00
        -11   -1    0    0    0    0  0.00000000000E+00  0.00000000000E+00  0.45593999997E+02  0.45594000000E+02  0.51100000000E-03 0. -1.
         11   -1    0    0    0    0 -0.00000000000E+00 -0.00000000000E+00 -0.45593999997E+02  0.45594000000E+02  0.51100000000E-03 0.  1.
    9900012    2    1    2    0    0  0.28654205866E+00  0.11631496718E+02 -0.14673280003E+02  0.72461575667E+02  0.70000006998E+02 0.  0.
         12    1    1    2    0    0 -0.28654205866E+00 -0.11631496718E+02  0.14673280003E+02  0.18726424333E+02  0.00000000000E+00 0. -1.
         11    1    3    3    0    0 -0.25199449295E+02  0.62767737685E+01 -0.79872157875E+01  0.27169942032E+02  0.51100000000E-03 0. -1.
        -11    1    3    3    0    0  0.31250194212E+02 -0.27534776878E+01  0.28634843970E+01  0.31501679651E+02  0.51100000000E-03 0.  1.
        -12    1    3    3    0    0 -0.57642028586E+01  0.81082006375E+01 -0.95495486128E+01  0.13789953984E+02  0.00000000000E+00 0.  1.
</event>
<event>
 7    1  0.1351543E-013  0.7246158E+02  0.7816164E-02  0.1226708E+00
        -11   -1    0    0    0    0  0.00000000000E+00  0.00000000000E+00  0.45593999997E+02  0.45594000000E+02  0.51100000000E-03 0. -1.
         11   -1    0    0    0    0 -0.00000000000E+00 -0.00000000000E+00 -0.45593999997E+02  0.45594000000E+02  0.51100000000E-03 0.  1.
    9900012    2    1    2    0    0 -0.17646724868E+02 -0.49474437313E+01  0.38464033505E+01  0.72461577043E+02  0.70000008791E+02 0.  0.
         12    1    1    2    0    0  0.17646724868E+02  0.49474437313E+01 -0.38464033505E+01  0.18726422957E+02  0.00000000000E+00 0. -1.
         11    1    3    3    0    0  0.13052034558E+02 -0.27632999983E+02  0.59237239014E+01  0.31129227412E+02  0.51100000000E-03 0. -1.
        -11    1    3    3    0    0 -0.15078362133E+02  0.19467099502E+01 -0.22454684668E+01  0.15368435612E+02  0.51100000000E-03 0.  1.
         12    1    3    3    0    0 -0.15620397292E+02  0.20738846301E+02  0.16814791584E+00  0.25963914019E+02  0.00000000000E+00 0. -1.
</event>
<event>
 7    1  0.1351543E-013  0.7246154E+02  0.7816164E-02  0.1226708E+00
        -11   -1    0    0    0    0  0.00000000000E+00  0.00000000000E+00  0.45593999997E+02  0.45594000000E+02  0.51100000000E-03 0. -1.
         11   -1    0    0    0    0 -0.00000000000E+00 -0.00000000000E+00 -0.45593999997E+02  0.45594000000E+02  0.51100000000E-03 0.  1.
    9900012    2    1    2    0    0 -0.63157948656E+01 -0.16669348210E+02 -0.57379400845E+01  0.72461537682E+02  0.69999957517E+02 0.  0.
         12    1    1    2    0    0  0.63157948656E+01  0.16669348210E+02  0.57379400845E+01  0.18726462318E+02  0.00000000000E+00 0. -1.
         11    1    3    3    0    0 -0.37024494783E+01 -0.26245436467E+02 -0.29588218143E+01  0.26669939900E+02  0.51100000000E-03 0. -1.
        -11    1    3    3    0    0 -0.15448683018E+02  0.17979848627E+02  0.10093658420E+02  0.25764679393E+02  0.51100000000E-03 0.  1.
        -12    1    3    3    0    0  0.12835337631E+02 -0.84037603692E+01 -0.12872776690E+02  0.20026918389E+02  0.00000000000E+00 0.  1.
</event>
<event>
 7    1  0.1351543E-013  0.7246173E+02  0.7816164E-02  0.1226708E+00
        -11   -1    0    0    0    0  0.00000000000E+00  0.00000000000E+00  0.45593999997E+02  0.45594000000E+02  0.51100000000E-03 0. -1.
         11   -1    0    0    0    0 -0.00000000000E+00 -0.00000000000E+00 -0.45593999997E+02  0.45594000000E+02  0.51100000000E-03 0.  1.
    9900012    2    1    2    0    0 -0.45921765843E+01 -0.91372170807E+01 -0.15687455404E+02  0.72461732918E+02  0.70000211847E+02 0.  0.
         12    1    1    2    0    0  0.45921765843E+01  0.91372170807E+01  0.15687455404E+02  0.18726267082E+02  0.00000000000E+00 0. -1.
         11    1    3    3    0    0  0.29212252960E+01  0.19169264983E+02 -0.17875783675E+02  0.26373052904E+02  0.51100000000E-03 0. -1.
        -11    1    3    3    0    0  0.91982173589E+01 -0.26296002329E+02  0.67196506611E+01  0.28657296564E+02  0.51100000000E-03 0.  1.
         12    1    3    3    0    0 -0.16711619239E+02 -0.20104797348E+01 -0.45313223905E+01  0.17431383450E+02  0.00000000000E+00 0. -1.
</event>
<event>
 7    1  0.1351543E-013  0.7246156E+02  0.7816164E-02  0.1226708E+00
        -11   -1    0    0    0    0  0.00000000000E+00  0.00000000000E+00  0.45593999997E+02  0.45594000000E+02  0.51100000000E-03 0.  1.
         11   -1    0    0    0    0 -0.00000000000E+00 -0.00000000000E+00 -0.45593999997E+02  0.45594000000E+02  0.51100000000E-03 0. -1.
    9900012    2    1    2    0    0 -0.31129979838E+01  0.92276513333E+01  0.15994977299E+02  0.72461558684E+02  0.69999984875E+02 0.  0.
         12    1    1    2    0    0  0.31129979838E+01 -0.92276513333E+01 -0.15994977299E+02  0.18726441316E+02  0.00000000000E+00 0. -1.
         11    1    3    3    0    0 -0.25758257167E+02 -0.76472959039E+01 -0.13313352634E+02  0.29986902234E+02  0.51100000000E-03 0. -1.
        -11    1    3    3    0    0  0.10283562177E+02  0.15064646007E+02  0.16879534598E+02  0.24851838944E+02  0.51100000000E-03 0.  1.
         12    1    3    3    0    0  0.12361697006E+02  0.18103012304E+01  0.12428795335E+02  0.17622817507E+02  0.00000000000E+00 0. -1.
</event>
<event>
 7    1  0.1351543E-013  0.7246160E+02  0.7816164E-02  0.1226708E+00
        -11   -1    0    0    0    0  0.00000000000E+00  0.00000000000E+00  0.45593999997E+02  0.45594000000E+02  0.51100000000E-03 0.  1.
         11   -1    0    0    0    0 -0.00000000000E+00 -0.00000000000E+00 -0.45593999997E+02  0.45594000000E+02  0.51100000000E-03 0. -1.
    9900012    2    1    2    0    0 -0.14860854261E+02  0.29538064342E+01  0.11004911977E+02  0.72461600201E+02  0.70000038959E+02 0.  0.
         12    1    1    2    0    0  0.14860854261E+02 -0.29538064342E+01 -0.11004911977E+02  0.18726399799E+02  0.00000000000E+00 0. -1.
         11    1    3    3    0    0 -0.73822064335E+01 -0.11047198672E+02 -0.29610327162E+00  0.13290043180E+02  0.51100000000E-03 0. -1.
        -11    1    3    3    0    0  0.15868748927E+02  0.26773742578E+02  0.93031194171E+01  0.32483819284E+02  0.51100000000E-03 0.  1.
        -12    1    3    3    0    0 -0.23347396754E+02 -0.12772737472E+02  0.19978958315E+01  0.26687737737E+02  0.00000000000E+00 0.  1.
</event>
<event>
 7    1  0.1351543E-013  0.7246155E+02  0.7816164E-02  0.1226708E+00
        -11   -1    0    0    0    0  0.00000000000E+00  0.00000000000E+00  0.45593999997E+02  0.45594000000E+02  0.51100000000E-03 0.  1.
         11   -1    0    0    0    0 -0.00000000000E+00 -0.00000000000E+00 -0.45593999997E+02  0.45594000000E+02  0.51100000000E-03 0. -1.
    9900012    2    1    2    0    0  0.15516713640E+02  0.93928716726E+01  0.46567561392E+01  0.72461552975E+02  0.69999977438E+02 0.  0.
         12    1    1    2    0    0 -0.15516713640E+02 -0.93928716726E+01 -0.46567561392E+01  0.18726447025E+02  0.00000000000E+00 0. -1.
         11    1    3    3    0    0 -0.83487892198E+01 -0.17833481968E+02 -0.92406002152E+01  0.21751414969E+02  0.51100000000E-03 0. -1.
        -11    1    3    3    0    0  0.29151361348E+02  0.16635525674E+02  0.18120003878E+02  0.38142851541E+02  0.51100000000E-03 0.  1.
        -12    1    3    3    0    0 -0.52858584877E+01  0.10590827967E+02 -0.42226475241E+01  0.12567286465E+02  0.00000000000E+00 0.  1.
</event>
<event>
 7    1  0.1351543E-013  0.7246161E+02  0.7816164E-02  0.1226708E+00
        -11   -1    0    0    0    0  0.00000000000E+00  0.00000000000E+00  0.45593999997E+02  0.45594000000E+02  0.51100000000E-03 0.  1.
         11   -1    0    0    0    0 -0.00000000000E+00 -0.00000000000E+00 -0.45593999997E+02  0.45594000000E+02  0.51100000000E-03 0. -1.
    9900012    2    1    2    0    0 -0.21581733937E+01 -0.17524775575E+02  0.62371729146E+01  0.72461606933E+02  0.70000047728E+02 0.  0.
         12    1    1    2    0    0  0.21581733937E+01  0.17524775575E+02 -0.62371729146E+01  0.18726393067E+02  0.00000000000E+00 0. -1.
         11    1    3    3    0    0  0.16898788736E+02 -0.15999911151E+02  0.20185332566E+02  0.30806068698E+02  0.51100000000E-03 0. -1.
        -11    1    3    3    0    0 -0.17219090043E+01  0.15080200163E+02 -0.66013911415E+01  0.16551609373E+02  0.51100000000E-03 0.  1.
        -12    1    3    3    0    0 -0.17335053125E+02 -0.16605064586E+02 -0.73467685097E+01  0.25103928862E+02  0.00000000000E+00 0.  1.
</event>
<event>
 7    1  0.1351543E-013  0.7246156E+02  0.7816164E-02  0.1226708E+00
        -11   -1    0    0    0    0  0.00000000000E+00  0.00000000000E+00  0.45593999997E+02  0.45594000000E+02  0.51100000000E-03 0. -1.
         11   -1    0    0    0    0 -0.00000000000E+00 -0.00000000000E+00 -0.45593999997E+02  0.45594000000E+02  0.51100000000E-03 0.  1.
    9900012    2    1    2    0    0  0.12717364253E+02  0.11031095715E+02 -0.82013995173E+01  0.72461564667E+02  0.69999992670E+02 0.  0.
         12    1    1    2    0    0 -0.12717364253E+02 -0.11031095715E+02  0.82013995173E+01  0.18726435333E+02  0.00000000000E+00 0. -1.
         11    1    3    3    0    0 -0.16297688193E+01 -0.12790674508E+02 -0.12504932373E+02  0.17961927366E+02  0.51100000000E-03 0. -1.
        -11    1    3    3    0    0  0.26861670558E+02  0.10878716200E+02 -0.10872105759E+02  0.30953166158E+02  0.51100000000E-03 0.  1.
        -12    1    3    3    0    0 -0.12514537485E+02  0.12943054024E+02  0.15175638615E+02  0.23546471143E+02  0.00000000000E+00 0.  1.
</event>
<event>
 7    1  0.1351543E-013  0.7246159E+02  0.7816164E-02  0.1226708E+00
        -11   -1    0    0    0    0  0.00000000000E+00  0.00000000000E+00  0.45593999997E+02  0.45594000000E+02  0.51100000000E-03 0.  1.
         11   -1    0    0    0    0 -0.00000000000E+00 -0.00000000000E+00 -0.45593999997E+02  0.45594000000E+02  0.51100000000E-03 0. -1.
    9900012    2    1    2    0    0 -0.16187364135E+02  0.89178339006E+01  0.30199146646E+01  0.72461590742E+02  0.70000026637E+02 0.  0.
         12    1    1    2    0    0  0.16187364135E+02 -0.89178339006E+01 -0.30199146646E+01  0.18726409258E+02  0.00000000000E+00 0. -1.
         11    1    3    3    0    0 -0.12945311146E+02 -0.75790433263E+00 -0.21484820038E+02  0.25094879796E+02  0.51100000000E-03 0. -1.
        -11    1    3    3    0    0 -0.16523828578E+02  0.88514574337E+01  0.27919151823E+02  0.33628325090E+02  0.51100000000E-03 0.  1.
        -12    1    3    3    0    0  0.13281775590E+02  0.82428079956E+00 -0.34144171201E+01  0.13738385856E+02  0.00000000000E+00 0.  1.
</event>
<event>
 7    1  0.1351543E-013  0.7246155E+02  0.7816164E-02  0.1226708E+00
        -11   -1    0    0    0    0  0.00000000000E+00  0.00000000000E+00  0.45593999997E+02  0.45594000000E+02  0.51100000000E-03 0.  1.
         11   -1    0    0    0    0 -0.00000000000E+00 -0.00000000000E+00 -0.45593999997E+02  0.45594000000E+02  0.51100000000E-03 0. -1.
    9900012    2    1    2    0    0 -0.74401381793E+00  0.59908578362E+01  0.17726706479E+02  0.72461546604E+02  0.69999969139E+02 0.  0.
         12    1    1    2    0    0  0.74401381793E+00 -0.59908578362E+01 -0.17726706479E+02  0.18726453396E+02  0.00000000000E+00 0. -1.
         11    1    3    3    0    0  0.19705398134E+01  0.27307657019E+02  0.70136012333E+01  0.28262727426E+02  0.51100000000E-03 0. -1.
        -11    1    3    3    0    0 -0.85942219849E+01 -0.38389106880E+01  0.21050154326E+02  0.23058770223E+02  0.51100000000E-03 0.  1.
         12    1    3    3    0    0  0.58796683536E+01 -0.17477888495E+02 -0.10337049080E+02  0.21140048956E+02  0.00000000000E+00 0. -1.
</event>
<event>
 7    1  0.1351543E-013  0.7246157E+02  0.7816164E-02  0.1226708E+00
        -11   -1    0    0    0    0  0.00000000000E+00  0.00000000000E+00  0.45593999997E+02  0.45594000000E+02  0.51100000000E-03 0.  1.
         11   -1    0    0    0    0 -0.00000000000E+00 -0.00000000000E+00 -0.45593999997E+02  0.45594000000E+02  0.51100000000E-03 0. -1.
    9900012    2    1    2    0    0 -0.45312796554E+01 -0.17546793656E+02  0.47177169682E+01  0.72461566375E+02  0.69999994894E+02 0.  0.
         12    1    1    2    0    0  0.45312796554E+01  0.17546793656E+02 -0.47177169682E+01  0.18726433625E+02  0.00000000000E+00 0. -1.
         11    1    3    3    0    0  0.91965230046E+01 -0.68383806750E+01 -0.22541179746E+02  0.25287235322E+02  0.51100000000E-03 0.  1.
        -11    1    3    3    0    0 -0.38365797368E+01 -0.94813836395E+01  0.33759396656E+02  0.35274818818E+02  0.51100000000E-03 0. -1.
        -12    1    3    3    0    0 -0.98912229233E+01 -0.12270293416E+01 -0.65004999424E+01  0.11899512235E+02  0.00000000000E+00 0.  1.
</event>
<event>
 7    1  0.1351543E-013  0.7246133E+02  0.7816164E-02  0.1226709E+00
        -11   -1    0    0    0    0  0.00000000000E+00  0.00000000000E+00  0.45593999997E+02  0.45594000000E+02  0.51100000000E-03 0.  1.
         11   -1    0    0    0    0 -0.00000000000E+00 -0.00000000000E+00 -0.45593999997E+02  0.45594000000E+02  0.51100000000E-03 0. -1.
    9900012    2    1    2    0    0  0.51248595530E+01  0.76180330871E+01  0.16321442392E+02  0.72461331976E+02  0.69999689545E+02 0.  0.
         12    1    1    2    0    0 -0.51248595530E+01 -0.76180330871E+01 -0.16321442392E+02  0.18726668024E+02  0.00000000000E+00 0. -1.
         11    1    3    3    0    0 -0.24595187595E+02 -0.79909824852E+01 -0.75815251306E+01  0.26949185099E+02  0.51100000000E-03 0. -1.
        -11    1    3    3    0    0  0.27620393367E+01  0.10328781636E+02  0.10349215865E+02  0.14880149887E+02  0.51100000000E-03 0.  1.
         12    1    3    3    0    0  0.26958007812E+02  0.52802339361E+01  0.13553751657E+02  0.30631996990E+02  0.00000000000E+00 0. -1.
</event>
<event>
 7    1  0.1351543E-013  0.7246158E+02  0.7816164E-02  0.1226708E+00
        -11   -1    0    0    0    0  0.00000000000E+00  0.00000000000E+00  0.45593999997E+02  0.45594000000E+02  0.51100000000E-03 0.  1.
         11   -1    0    0    0    0 -0.00000000000E+00 -0.00000000000E+00 -0.45593999997E+02  0.45594000000E+02  0.51100000000E-03 0. -1.
    9900012    2    1    2    0    0  0.68133683733E+01 -0.15772424483E+02 -0.74489816374E+01  0.72461583095E+02  0.70000016676E+02 0.  0.
         12    1    1    2    0    0 -0.68133683733E+01  0.15772424483E+02  0.74489816374E+01  0.18726416905E+02  0.00000000000E+00 0. -1.
         11    1    3    3    0    0  0.18646150975E+02  0.11292929502E+02  0.16579905083E+02  0.27387998389E+02  0.51100000000E-03 0. -1.
        -11    1    3    3    0    0 -0.91986268445E+01 -0.15200467482E+02  0.41824768591E+00  0.17771997043E+02  0.51100000000E-03 0.  1.
         12    1    3    3    0    0 -0.26341557576E+01 -0.11864886503E+02 -0.24447134406E+02  0.27301587664E+02  0.00000000000E+00 0. -1.
</event>
<event>
 7    1  0.1351543E-013  0.7246153E+02  0.7816164E-02  0.1226708E+00
        -11   -1    0    0    0    0  0.00000000000E+00  0.00000000000E+00  0.45593999997E+02  0.45594000000E+02  0.51100000000E-03 0. -1.
         11   -1    0    0    0    0 -0.00000000000E+00 -0.00000000000E+00 -0.45593999997E+02  0.45594000000E+02  0.51100000000E-03 0.  1.
    9900012    2    1    2    0    0  0.60761163002E+01  0.54684899351E+01 -0.16848058844E+02  0.72461530545E+02  0.69999948219E+02 0.  0.
         12    1    1    2    0    0 -0.60761163002E+01 -0.54684899351E+01  0.16848058844E+02  0.18726469455E+02  0.00000000000E+00 0. -1.
         11    1    3    3    0    0  0.10395526577E+02  0.23955077255E+02 -0.25242079935E+02  0.36319076239E+02  0.51100000000E-03 0.  1.
        -11    1    3    3    0    0  0.59301679914E+01 -0.23046676490E+02  0.71897955598E+01  0.24859793847E+02  0.51100000000E-03 0. -1.
         12    1    3    3    0    0 -0.10249578268E+02  0.45600891698E+01  0.12042255313E+01  0.11282660460E+02  0.00000000000E+00 0. -1.
</event>
<event>
 7    1  0.1351543E-013  0.7246163E+02  0.7816164E-02  0.1226708E+00
        -11   -1    0    0    0    0  0.00000000000E+00  0.00000000000E+00  0.45593999997E+02  0.45594000000E+02  0.51100000000E-03 0.  1.
         11   -1    0    0    0    0 -0.00000000000E+00 -0.00000000000E+00 -0.45593999997E+02  0.45594000000E+02  0.51100000000E-03 0. -1.
    9900012    2    1    2    0    0  0.98648066965E+01 -0.13210238778E+02  0.88798647263E+01  0.72461633100E+02  0.70000081816E+02 0.  0.
         12    1    1    2    0    0 -0.98648066965E+01  0.13210238778E+02 -0.88798647263E+01  0.18726366900E+02  0.00000000000E+00 0. -1.
         11    1    3    3    0    0 -0.38913094139E+01  0.13742697938E+02  0.78450937123E+01  0.16295690571E+02  0.51100000000E-03 0. -1.
        -11    1    3    3    0    0 -0.23050458413E+01 -0.12535552159E+02 -0.21480221367E+02  0.24977053759E+02  0.51100000000E-03 0.  1.
        -12    1    3    3    0    0  0.16061161952E+02 -0.14417384558E+02  0.22514992381E+02  0.31188888769E+02  0.00000000000E+00 0.  1.
</event>
<event>
 7    1  0.1351543E-013  0.7246161E+02  0.7816164E-02  0.1226708E+00
        -11   -1    0    0    0    0  0.00000000000E+00  0.00000000000E+00  0.45593999997E+02  0.45594000000E+02  0.51100000000E-03 0. -1.
         11   -1    0    0    0    0 -0.00000000000E+00 -0.00000000000E+00 -0.45593999997E+02  0.45594000000E+02  0.51100000000E-03 0.  1.
    9900012    2    1    2    0    0 -0.35385193036E+00 -0.60279248478E+01 -0.17726154582E+02  0.72461610988E+02  0.70000053012E+02 0.  0.
         12    1    1    2    0    0  0.35385193036E+00  0.60279248478E+01  0.17726154582E+02  0.18726389012E+02  0.00000000000E+00 0. -1.
         11    1    3    3    0    0  0.11602568138E+01 -0.26738839091E+02  0.13576827638E+02  0.30010697439E+02  0.51100000000E-03 0. -1.
        -11    1    3    3    0    0  0.72741943941E+01  0.86014441679E+01 -0.22313193217E+02  0.24995546357E+02  0.51100000000E-03 0.  1.
        -12    1    3    3    0    0 -0.87883031382E+01  0.12109470075E+02 -0.89897890018E+01  0.17455367193E+02  0.00000000000E+00 0.  1.
</event>
<event>
 7    1  0.1351543E-013  0.7246154E+02  0.7816164E-02  0.1226708E+00
        -11   -1    0    0    0    0  0.00000000000E+00  0.00000000000E+00  0.45593999997E+02  0.45594000000E+02  0.51100000000E-03 0. -1.
         11   -1    0    0    0    0 -0.00000000000E+00 -0.00000000000E+00 -0.45593999997E+02  0.45594000000E+02  0.51100000000E-03 0.  1.
    9900012    2    1    2    0    0 -0.16343317668E+02  0.46658928440E+01 -0.78616659120E+01  0.72461537992E+02  0.69999957920E+02 0.  0.
         12    1    1    2    0    0  0.16343317668E+02 -0.46658928440E+01  0.78616659120E+01  0.18726462008E+02  0.00000000000E+00 0. -1.
         11    1    3    3    0    0 -0.29865184802E+01 -0.14137098858E+02  0.13578675938E+02  0.19828194503E+02  0.51100000000E-03 0. -1.
        -11    1    3    3    0    0  0.88196321087E+01  0.13769779350E+00 -0.21936094457E+02  0.23643119750E+02  0.51100000000E-03 0.  1.
         12    1    3    3    0    0 -0.22176431297E+02  0.18665293908E+02  0.49575260703E+00  0.28990223738E+02  0.00000000000E+00 0. -1.
</event>
<event>
 7    1  0.1351543E-013  0.7246155E+02  0.7816164E-02  0.1226708E+00
        -11   -1    0    0    0    0  0.00000000000E+00  0.00000000000E+00  0.45593999997E+02  0.45594000000E+02  0.51100000000E-03 0.  1.
         11   -1    0    0    0    0 -0.00000000000E+00 -0.00000000000E+00 -0.45593999997E+02  0.45594000000E+02  0.51100000000E-03 0. -1.
    9900012    2    1    2    0    0  0.37547169987E+01 -0.14874538707E+02  0.10739181056E+02  0.72461553160E+02  0.69999977679E+02 0.  0.
         12    1    1    2    0    0 -0.37547169987E+01  0.14874538707E+02 -0.10739181056E+02  0.18726446840E+02  0.00000000000E+00 0. -1.
         11    1    3    3    0    0 -0.63109357802E+01  0.54407795603E+00 -0.16597161658E+02  0.17764844683E+02  0.51100000000E-03 0. -1.
        -11    1    3    3    0    0  0.22107433879E+02 -0.23268191878E+02  0.13748234614E+02  0.34916490964E+02  0.51100000000E-03 0.  1.
        -12    1    3    3    0    0 -0.12041781100E+02  0.78495752144E+01  0.13588108100E+02  0.19780217513E+02  0.00000000000E+00 0.  1.
</event>
<event>
 7    1  0.1351543E-013  0.7246156E+02  0.7816164E-02  0.1226708E+00
        -11   -1    0    0    0    0  0.00000000000E+00  0.00000000000E+00  0.45593999997E+02  0.45594000000E+02  0.51100000000E-03 0.  1.
         11   -1    0    0    0    0 -0.00000000000E+00 -0.00000000000E+00 -0.45593999997E+02  0.45594000000E+02  0.51100000000E-03 0. -1.
    9900012    2    1    2    0    0  0.11510489335E+02 -0.18400075627E+01  0.14656143720E+02  0.72461560368E+02  0.69999987069E+02 0.  0.
         12    1    1    2    0    0 -0.11510489335E+02  0.18400075627E+01 -0.14656143720E+02  0.18726439632E+02  0.00000000000E+00 0. -1.
         11    1    3    3    0    0 -0.11855700339E+02 -0.15115807452E+02  0.78852072416E+00  0.19226726987E+02  0.51100000000E-03 0. -1.
        -11    1    3    3    0    0  0.12472666853E+02  0.20249781266E+02 -0.10226538407E+02  0.25888282055E+02  0.51100000000E-03 0.  1.
        -12    1    3    3    0    0  0.10893522821E+02 -0.69739813765E+01  0.24094161402E+02  0.27346551325E+02  0.00000000000E+00 0.  1.
</event>
<event>
 7    1  0.1351543E-013  0.7246157E+02  0.7816164E-02  0.1226708E+00
        -11   -1    0    0    0    0  0.00000000000E+00  0.00000000000E+00  0.45593999997E+02  0.45594000000E+02  0.51100000000E-03 0.  1.
         11   -1    0    0    0    0 -0.00000000000E+00 -0.00000000000E+00 -0.45593999997E+02  0.45594000000E+02  0.51100000000E-03 0. -1.
    9900012    2    1    2    0    0 -0.64919024349E+01 -0.16280004326E+02  0.65951437248E+01  0.72461567909E+02  0.69999996893E+02 0.  0.
         12    1    1    2    0    0  0.64919024349E+01  0.16280004326E+02 -0.65951437248E+01  0.18726432091E+02  0.00000000000E+00 0. -1.
         11    1    3    3    0    0 -0.23446130845E+02  0.13142785533E+02  0.36376404177E+01  0.27123537588E+02  0.51100000000E-03 0. -1.
        -11    1    3    3    0    0 -0.46814060494E+00 -0.23503255797E+02  0.10118599816E+02  0.25593128984E+02  0.51100000000E-03 0.  1.
        -12    1    3    3    0    0  0.17422369015E+02 -0.59195340624E+01 -0.71610965089E+01  0.19744901338E+02  0.00000000000E+00 0.  1.
</event>
<event>
 7    1  0.1351543E-013  0.7246150E+02  0.7816164E-02  0.1226708E+00
        -11   -1    0    0    0    0  0.00000000000E+00  0.00000000000E+00  0.45593999997E+02  0.45594000000E+02  0.51100000000E-03 0.  1.
         11   -1    0    0    0    0 -0.00000000000E+00 -0.00000000000E+00 -0.45593999997E+02  0.45594000000E+02  0.51100000000E-03 0. -1.
    9900012    2    1    2    0    0  0.15501291189E+02  0.94575188896E+01 -0.45767873278E+01  0.72461503416E+02  0.69999912878E+02 0.  0.
         12    1    1    2    0    0 -0.15501291189E+02 -0.94575188896E+01  0.45767873278E+01  0.18726496584E+02  0.00000000000E+00 0. -1.
         11    1    3    3    0    0  0.21771432887E+02  0.28080541606E+02  0.14678013200E+01  0.35562150495E+02  0.51100000000E-03 0. -1.
        -11    1    3    3    0    0 -0.49821692704E+01 -0.10564763488E+02  0.12213910359E+02  0.16900172919E+02  0.51100000000E-03 0.  1.
         12    1    3    3    0    0 -0.12879724280E+01 -0.80582592285E+01 -0.18258499007E+02  0.19999180002E+02  0.00000000000E+00 0. -1.
</event>
<event>
 7    1  0.1351543E-013  0.7246200E+02  0.7816164E-02  0.1226707E+00
        -11   -1    0    0    0    0  0.00000000000E+00  0.00000000000E+00  0.45593999997E+02  0.45594000000E+02  0.51100000000E-03 0.  1.
         11   -1    0    0    0    0 -0.00000000000E+00 -0.00000000000E+00 -0.45593999997E+02  0.45594000000E+02  0.51100000000E-03 0. -1.
    9900012    2    1    2    0    0 -0.17278006319E+02 -0.67478926196E+01  0.25689671116E+01  0.72461998046E+02  0.70000557223E+02 0.  0.
         12    1    1    2    0    0  0.17278006319E+02  0.67478926196E+01 -0.25689671116E+01  0.18726001954E+02  0.00000000000E+00 0. -1.
         11    1    3    3    0    0 -0.14032541791E+02 -0.25541431732E+02  0.22623193936E+02  0.36892897259E+02  0.51100000000E-03 0. -1.
        -11    1    3    3    0    0  0.29567713126E+00 -0.50193189648E+01 -0.54313167472E+01  0.74013640436E+01  0.51100000000E-03 0.  1.
         12    1    3    3    0    0 -0.35411416593E+01  0.23812858077E+02 -0.14622910077E+02  0.28167736743E+02  0.00000000000E+00 0. -1.
</event>
<event>
 7    1  0.1351543E-013  0.7246149E+02  0.7816164E-02  0.1226708E+00
        -11   -1    0    0    0    0  0.00000000000E+00  0.00000000000E+00  0.45593999997E+02  0.45594000000E+02  0.51100000000E-03 0.  1.
         11   -1    0    0    0    0 -0.00000000000E+00 -0.00000000000E+00 -0.45593999997E+02  0.45594000000E+02  0.51100000000E-03 0. -1.
    9900012    2    1    2    0    0  0.11521938931E+02 -0.63691120565E+01 -0.13317709519E+02  0.72461493333E+02  0.69999899744E+02 0.  0.
         12    1    1    2    0    0 -0.11521938931E+02  0.63691120565E+01  0.13317709519E+02  0.18726506667E+02  0.00000000000E+00 0. -1.
         11    1    3    3    0    0  0.23400269798E+02  0.18342429388E+02 -0.26595816856E+02  0.39891788842E+02  0.51100000000E-03 0. -1.
        -11    1    3    3    0    0 -0.13567831261E+02 -0.19071653125E+02  0.82172065431E+01  0.24805976733E+02  0.51100000000E-03 0.  1.
        -12    1    3    3    0    0  0.16895003944E+01 -0.56398883194E+01  0.50609007948E+01  0.77637277575E+01  0.00000000000E+00 0.  1.
</event>
<event>
 7    1  0.1351543E-013  0.7246159E+02  0.7816164E-02  0.1226708E+00
        -11   -1    0    0    0    0  0.00000000000E+00  0.00000000000E+00  0.45593999997E+02  0.45594000000E+02  0.51100000000E-03 0. -1.
         11   -1    0    0    0    0 -0.00000000000E+00 -0.00000000000E+00 -0.45593999997E+02  0.45594000000E+02  0.51100000000E-03 0.  1.
    9900012    2    1    2    0    0 -0.10064754838E+02 -0.14615960196E+02 -0.59793746893E+01  0.72461588062E+02  0.70000023146E+02 0.  0.
         12    1    1    2    0    0  0.10064754838E+02  0.14615960196E+02  0.59793746893E+01  0.18726411938E+02  0.00000000000E+00 0. -1.
         11    1    3    3    0    0  0.71810719347E+00  0.28655048422E+01  0.18074441578E+02  0.18314263146E+02  0.51100000000E-03 0. -1.
        -11    1    3    3    0    0 -0.27240827999E+02 -0.13730385820E+02 -0.20891820003E+02  0.36973698058E+02  0.51100000000E-03 0.  1.
        -12    1    3    3    0    0  0.16457965967E+02 -0.37510792177E+01 -0.31619962646E+01  0.17173626858E+02  0.00000000000E+00 0.  1.
</event>
<event>
 7    1  0.1351543E-013  0.7246162E+02  0.7816164E-02  0.1226708E+00
        -11   -1    0    0    0    0  0.00000000000E+00  0.00000000000E+00  0.45593999997E+02  0.45594000000E+02  0.51100000000E-03 0.  1.
         11   -1    0    0    0    0 -0.00000000000E+00 -0.00000000000E+00 -0.45593999997E+02  0.45594000000E+02  0.51100000000E-03 0. -1.
    9900012    2    1    2    0    0 -0.24072622949E+01 -0.18006608452E+02  0.45436211290E+01  0.72461618805E+02  0.70000063194E+02 0.  0.
         12    1    1    2    0    0  0.24072622949E+01  0.18006608452E+02 -0.45436211290E+01  0.18726381195E+02  0.00000000000E+00 0. -1.
         11    1    3    3    0    0 -0.16435337068E+02  0.19753111143E+02  0.47261957087E+01  0.26127430614E+02  0.51100000000E-03 0.  1.
        -11    1    3    3    0    0  0.86163637598E+01 -0.70682137866E+00  0.18194756215E+01  0.88346936959E+01  0.51100000000E-03 0. -1.
         12    1    3    3    0    0  0.54117110138E+01 -0.37052898216E+02 -0.20020502012E+01  0.37499494494E+02  0.00000000000E+00 0. -1.
</event>
<event>
 7    1  0.1351543E-013  0.7246191E+02  0.7816164E-02  0.1226707E+00
        -11   -1    0    0    0    0  0.00000000000E+00  0.00000000000E+00  0.45593999997E+02  0.45594000000E+02  0.51100000000E-03 0.  1.
         11   -1    0    0    0    0 -0.00000000000E+00 -0.00000000000E+00 -0.45593999997E+02  0.45594000000E+02  0.51100000000E-03 0. -1.
    9900012    2    1    2    0    0  0.40751616636E+01 -0.29155323003E+01  0.18043260380E+02  0.72461908141E+02  0.70000440106E+02 0.  0.
         12    1    1    2    0    0 -0.40751616636E+01  0.29155323003E+01 -0.18043260380E+02  0.18726091859E+02  0.00000000000E+00 0. -1.
         11    1    3    3    0    0  0.11639934353E+02 -0.37542954342E+01 -0.12164727623E+02  0.17250026213E+02  0.51100000000E-03 0. -1.
        -11    1    3    3    0    0 -0.16816835930E+02 -0.97874564491E+01  0.35236485872E+02  0.40251834881E+02  0.51100000000E-03 0.  1.
        -12    1    3    3    0    0  0.92520632402E+01  0.10626219583E+02 -0.50284978684E+01  0.14960047047E+02  0.00000000000E+00 0.  1.
</event>
<event>
 7    1  0.1351543E-013  0.7246158E+02  0.7816164E-02  0.1226708E+00
        -11   -1    0    0    0    0  0.00000000000E+00  0.00000000000E+00  0.45593999997E+02  0.45594000000E+02  0.51100000000E-03 0.  1.
         11   -1    0    0    0    0 -0.00000000000E+00 -0.00000000000E+00 -0.45593999997E+02  0.45594000000E+02  0.51100000000E-03 0. -1.
    9900012    2    1    2    0    0  0.14037372621E+02  0.12180382387E+02 -0.22955234220E+01  0.72461575542E+02  0.70000006837E+02 0.  0.
         12    1    1    2    0    0 -0.14037372621E+02 -0.12180382387E+02  0.22955234220E+01  0.18726424458E+02  0.00000000000E+00 0. -1.
         11    1    3    3    0    0  0.44174370410E+01 -0.24256118793E+02 -0.83103038163E+01  0.26017959157E+02  0.51100000000E-03 0. -1.
        -11    1    3    3    0    0 -0.24491015410E+01  0.30370948944E+02  0.10473326518E+02  0.32219298669E+02  0.51100000000E-03 0.  1.
        -12    1    3    3    0    0  0.12069037121E+02  0.60655522361E+01 -0.44585461242E+01  0.14224317716E+02  0.00000000000E+00 0.  1.
</event>
<event>
 7    1  0.1351543E-013  0.7246158E+02  0.7816164E-02  0.1226708E+00
        -11   -1    0    0    0    0  0.00000000000E+00  0.00000000000E+00  0.45593999997E+02  0.45594000000E+02  0.51100000000E-03 0. -1.
         11   -1    0    0    0    0 -0.00000000000E+00 -0.00000000000E+00 -0.45593999997E+02  0.45594000000E+02  0.51100000000E-03 0.  1.
    9900012    2    1    2    0    0 -0.25838489289E+01 -0.10201122779E+02 -0.15489990301E+02  0.72461575335E+02  0.70000006566E+02 0.  0.
         12    1    1    2    0    0  0.25838489289E+01  0.10201122779E+02  0.15489990301E+02  0.18726424665E+02  0.00000000000E+00 0. -1.
         11    1    3    3    0    0 -0.37148557708E+01  0.94380193941E+01  0.23285962863E+02  0.25399063570E+02  0.51100000000E-03 0. -1.
        -11    1    3    3    0    0 -0.56743002848E+01 -0.11678580337E+01 -0.15678921227E+02  0.16714967760E+02  0.51100000000E-03 0.  1.
         12    1    3    3    0    0  0.68053071267E+01 -0.18471284139E+02 -0.23097031937E+02  0.30347544005E+02  0.00000000000E+00 0. -1.
</event>
<event>
 7    1  0.1351543E-013  0.7246140E+02  0.7816164E-02  0.1226708E+00
        -11   -1    0    0    0    0  0.00000000000E+00  0.00000000000E+00  0.45593999997E+02  0.45594000000E+02  0.51100000000E-03 0.  1.
         11   -1    0    0    0    0 -0.00000000000E+00 -0.00000000000E+00 -0.45593999997E+02  0.45594000000E+02  0.51100000000E-03 0. -1.
    9900012    2    1    2    0    0 -0.18149961941E+02  0.18154715351E+01  0.42389078360E+01  0.72461404073E+02  0.69999783466E+02 0.  0.
         12    1    1    2    0    0  0.18149961941E+02 -0.18154715351E+01 -0.42389078360E+01  0.18726595927E+02  0.00000000000E+00 0. -1.
         11    1    3    3    0    0 -0.21772064896E+02 -0.68303632812E+01 -0.25789414396E+02  0.34435019494E+02  0.51100000000E-03 0. -1.
        -11    1    3    3    0    0  0.92582315834E+01 -0.32333073564E+01  0.16260159353E+02  0.18988467841E+02  0.51100000000E-03 0.  1.
         12    1    3    3    0    0 -0.56361286282E+01  0.11879142173E+02  0.13768162878E+02  0.19037916738E+02  0.00000000000E+00 0. -1.
</event>
<event>
 7    1  0.1351543E-013  0.7246154E+02  0.7816164E-02  0.1226708E+00
        -11   -1    0    0    0    0  0.00000000000E+00  0.00000000000E+00  0.45593999997E+02  0.45594000000E+02  0.51100000000E-03 0. -1.
         11   -1    0    0    0    0 -0.00000000000E+00 -0.00000000000E+00 -0.45593999997E+02  0.45594000000E+02  0.51100000000E-03 0.  1.
    9900012    2    1    2    0    0  0.15611513964E+02 -0.64816425604E+01 -0.80590980765E+01  0.72461544908E+02  0.69999966929E+02 0.  0.
         12    1    1    2    0    0 -0.15611513964E+02  0.64816425604E+01  0.80590980765E+01  0.18726455092E+02  0.00000000000E+00 0. -1.
         11    1    3    3    0    0  0.63364342369E+01 -0.25866841424E+02  0.35661788380E+01  0.26869341560E+02  0.51100000000E-03 0. -1.
        -11    1    3    3    0    0  0.84541276169E+01  0.25083329868E+01 -0.23393964766E+02  0.25000831903E+02  0.51100000000E-03 0.  1.
         12    1    3    3    0    0  0.82095210989E+00  0.16876865877E+02  0.11768687851E+02  0.20591371444E+02  0.00000000000E+00 0. -1.
</event>
<event>
 7    1  0.1351543E-013  0.7246160E+02  0.7816164E-02  0.1226708E+00
        -11   -1    0    0    0    0  0.00000000000E+00  0.00000000000E+00  0.45593999997E+02  0.45594000000E+02  0.51100000000E-03 0.  1.
         11   -1    0    0    0    0 -0.00000000000E+00 -0.00000000000E+00 -0.45593999997E+02  0.45594000000E+02  0.51100000000E-03 0. -1.
    9900012    2    1    2    0    0  0.63795080350E+01  0.17348774503E+01  0.17520566426E+02  0.72461596971E+02  0.70000034751E+02 0.  0.
         12    1    1    2    0    0 -0.63795080350E+01 -0.17348774503E+01 -0.17520566426E+02  0.18726403029E+02  0.00000000000E+00 0. -1.
         11    1    3    3    0    0 -0.16900595681E+02 -0.23317643037E+02  0.75690714565E+00  0.28808254370E+02  0.51100000000E-03 0. -1.
        -11    1    3    3    0    0  0.15335135852E+02  0.25407544544E+02  0.60113578291E+01  0.30279467211E+02  0.51100000000E-03 0.  1.
         12    1    3    3    0    0  0.79449678636E+01 -0.35502405727E+00  0.10752301451E+02  0.13373875389E+02  0.00000000000E+00 0. -1.
</event>
<event>
 7    1  0.1351543E-013  0.7246176E+02  0.7816164E-02  0.1226708E+00
        -11   -1    0    0    0    0  0.00000000000E+00  0.00000000000E+00  0.45593999997E+02  0.45594000000E+02  0.51100000000E-03 0. -1.
         11   -1    0    0    0    0 -0.00000000000E+00 -0.00000000000E+00 -0.45593999997E+02  0.45594000000E+02  0.51100000000E-03 0.  1.
    9900012    2    1    2    0    0  0.11053970211E+02  0.94845840030E+01 -0.11769640526E+02  0.72461760942E+02  0.70000248354E+02 0.  0.
         12    1    1    2    0    0 -0.11053970211E+02 -0.94845840030E+01  0.11769640526E+02  0.18726239058E+02  0.00000000000E+00 0. -1.
         11    1    3    3    0    0  0.48840789334E+01 -0.47822952084E+01 -0.26260145633E+02  0.27135213716E+02  0.51100000000E-03 0.  1.
        -11    1    3    3    0    0 -0.12580461390E+02  0.13177965621E+02  0.18668802354E+02  0.26085455110E+02  0.51100000000E-03 0. -1.
         12    1    3    3    0    0  0.18750352667E+02  0.10889135907E+01 -0.41782972480E+01  0.19241092117E+02  0.00000000000E+00 0. -1.
</event>
<event>
 7    1  0.1351543E-013  0.7246158E+02  0.7816164E-02  0.1226708E+00
        -11   -1    0    0    0    0  0.00000000000E+00  0.00000000000E+00  0.45593999997E+02  0.45594000000E+02  0.51100000000E-03 0. -1.
         11   -1    0    0    0    0 -0.00000000000E+00 -0.00000000000E+00 -0.45593999997E+02  0.45594000000E+02  0.51100000000E-03 0.  1.
    9900012    2    1    2    0    0 -0.34964949159E+01 -0.17307772241E+02  0.62365393607E+01  0.72461578029E+02  0.70000010076E+02 0.  0.
         12    1    1    2    0    0  0.34964949159E+01  0.17307772241E+02 -0.62365393607E+01  0.18726421971E+02  0.00000000000E+00 0. -1.
         11    1    3    3    0    0 -0.13241536964E+02  0.13931430276E+02 -0.90858503555E+01  0.21259720780E+02  0.51100000000E-03 0. -1.
        -11    1    3    3    0    0  0.58416590532E+01 -0.35070418644E+02  0.22577161437E+02  0.42116356243E+02  0.51100000000E-03 0.  1.
        -12    1    3    3    0    0  0.39033829945E+01  0.38312161272E+01 -0.72547717204E+01  0.90855010060E+01  0.00000000000E+00 0.  1.
</event>
<event>
 7    1  0.1351543E-013  0.7246174E+02  0.7816164E-02  0.1226708E+00
        -11   -1    0    0    0    0  0.00000000000E+00  0.00000000000E+00  0.45593999997E+02  0.45594000000E+02  0.51100000000E-03 0.  1.
         11   -1    0    0    0    0 -0.00000000000E+00 -0.00000000000E+00 -0.45593999997E+02  0.45594000000E+02  0.51100000000E-03 0. -1.
    9900012    2    1    2    0    0 -0.33811054261E+01 -0.11620952260E+02  0.14289659289E+02  0.72461741219E+02  0.70000222661E+02 0.  0.
         12    1    1    2    0    0  0.33811054261E+01  0.11620952260E+02 -0.14289659289E+02  0.18726258781E+02  0.00000000000E+00 0. -1.
         11    1    3    3    0    0 -0.21535386889E+02  0.92144187111E+01 -0.99399848613E+01  0.25445661712E+02  0.51100000000E-03 0. -1.
        -11    1    3    3    0    0  0.82435335510E+01 -0.21498334669E+02  0.28124163516E+02  0.36346978040E+02  0.51100000000E-03 0.  1.
        -12    1    3    3    0    0  0.99107479116E+01  0.66296369837E+00 -0.38945193651E+01  0.10669101467E+02  0.00000000000E+00 0.  1.
</event>
<event>
 7    1  0.1351543E-013  0.7246158E+02  0.7816164E-02  0.1226708E+00
        -11   -1    0    0    0    0  0.00000000000E+00  0.00000000000E+00  0.45593999997E+02  0.45594000000E+02  0.51100000000E-03 0. -1.
         11   -1    0    0    0    0 -0.00000000000E+00 -0.00000000000E+00 -0.45593999997E+02  0.45594000000E+02  0.51100000000E-03 0.  1.
    9900012    2    1    2    0    0 -0.42986431818E+01 -0.85660825115E+01 -0.16087968483E+02  0.72461579288E+02  0.70000011715E+02 0.  0.
         12    1    1    2    0    0  0.42986431818E+01  0.85660825115E+01  0.16087968483E+02  0.18726420712E+02  0.00000000000E+00 0. -1.
         11    1    3    3    0    0 -0.16689787875E+02  0.35830457214E+01  0.18156760893E+02  0.24920979161E+02  0.51100000000E-03 0. -1.
        -11    1    3    3    0    0  0.71362174821E+01 -0.19505737981E+02 -0.13131212839E+02  0.24572915273E+02  0.51100000000E-03 0.  1.
         12    1    3    3    0    0  0.52549272113E+01  0.73566097477E+01 -0.21113516537E+02  0.22967684854E+02  0.00000000000E+00 0. -1.
</event>
<event>
 7    1  0.1351543E-013  0.7246156E+02  0.7816164E-02  0.1226708E+00
        -11   -1    0    0    0    0  0.00000000000E+00  0.00000000000E+00  0.45593999997E+02  0.45594000000E+02  0.51100000000E-03 0.  1.
         11   -1    0    0    0    0 -0.00000000000E+00 -0.00000000000E+00 -0.45593999997E+02  0.45594000000E+02  0.51100000000E-03 0. -1.
    9900012    2    1    2    0    0 -0.88176703191E+01  0.36088014045E+00  0.16516599250E+02  0.72461558931E+02  0.69999985197E+02 0.  0.
         12    1    1    2    0    0  0.88176703191E+01 -0.36088014045E+00 -0.16516599250E+02  0.18726441069E+02  0.00000000000E+00 0. -1.
         11    1    3    3    0    0  0.45422968051E+01 -0.19892138657E+01 -0.18167031752E+02  0.18831634953E+02  0.51100000000E-03 0. -1.
        -11    1    3    3    0    0 -0.36854815998E+01  0.14173857802E+01  0.41545299124E+02  0.41732524925E+02  0.51100000000E-03 0.  1.
         12    1    3    3    0    0 -0.96744855243E+01  0.93270822595E+00 -0.68616681220E+01  0.11897399052E+02  0.00000000000E+00 0. -1.
</event>
<event>
 7    1  0.1351543E-013  0.7246158E+02  0.7816164E-02  0.1226708E+00
        -11   -1    0    0    0    0  0.00000000000E+00  0.00000000000E+00  0.45593999997E+02  0.45594000000E+02  0.51100000000E-03 0.  1.
         11   -1    0    0    0    0 -0.00000000000E+00 -0.00000000000E+00 -0.45593999997E+02  0.45594000000E+02  0.51100000000E-03 0. -1.
    9900012    2    1    2    0    0 -0.86884402438E+01  0.32073792477E+01  0.16275822215E+02  0.72461583785E+02  0.70000017573E+02 0.  0.
         12    1    1    2    0    0  0.86884402438E+01 -0.32073792477E+01 -0.16275822215E+02  0.18726416215E+02  0.00000000000E+00 0. -1.
         11    1    3    3    0    0 -0.42309655829E+01 -0.56655900119E+01 -0.25093502065E+02  0.26070746558E+02  0.51100000000E-03 0. -1.
        -11    1    3    3    0    0 -0.38013608455E+01 -0.50403515234E+01  0.19177714078E+02  0.20190101666E+02  0.51100000000E-03 0.  1.
         12    1    3    3    0    0 -0.65611381542E+00  0.13913320783E+02  0.22191610202E+02  0.26200735560E+02  0.00000000000E+00 0. -1.
</event>
<event>
 7    1  0.1351543E-013  0.7246151E+02  0.7816164E-02  0.1226708E+00
        -11   -1    0    0    0    0  0.00000000000E+00  0.00000000000E+00  0.45593999997E+02  0.45594000000E+02  0.51100000000E-03 0.  1.
         11   -1    0    0    0    0 -0.00000000000E+00 -0.00000000000E+00 -0.45593999997E+02  0.45594000000E+02  0.51100000000E-03 0. -1.
    9900012    2    1    2    0    0 -0.55974037721E+01 -0.15811495068E+02  0.83274873466E+01  0.72461512054E+02  0.69999924132E+02 0.  0.
         12    1    1    2    0    0  0.55974037721E+01  0.15811495068E+02 -0.83274873466E+01  0.18726487946E+02  0.00000000000E+00 0. -1.
         11    1    3    3    0    0 -0.53817989880E+01  0.11760709537E+02  0.30722235968E+02  0.33333674149E+02  0.51100000000E-03 0.  1.
        -11    1    3    3    0    0 -0.54333855894E+01 -0.26017955220E+02 -0.17646874019E+02  0.31904041056E+02  0.51100000000E-03 0. -1.
        -12    1    3    3    0    0  0.52177808053E+01 -0.15542493849E+01 -0.47478746024E+01  0.72237968495E+01  0.00000000000E+00 0.  1.
</event>
<event>
 7    1  0.1351543E-013  0.7246160E+02  0.7816164E-02  0.1226708E+00
        -11   -1    0    0    0    0  0.00000000000E+00  0.00000000000E+00  0.45593999997E+02  0.45594000000E+02  0.51100000000E-03 0. -1.
         11   -1    0    0    0    0 -0.00000000000E+00 -0.00000000000E+00 -0.45593999997E+02  0.45594000000E+02  0.51100000000E-03 0.  1.
    9900012    2    1    2    0    0 -0.68188823467E+01  0.49614105316E+01 -0.16720207943E+02  0.72461598729E+02  0.70000037041E+02 0.  0.
         12    1    1    2    0    0  0.68188823467E+01 -0.49614105316E+01  0.16720207943E+02  0.18726401271E+02  0.00000000000E+00 0. -1.
         11    1    3    3    0    0 -0.14914325410E+02 -0.16960677384E+02  0.72926772580E+01  0.23733622176E+02  0.51100000000E-03 0.  1.
        -11    1    3    3    0    0  0.13851170412E+02  0.15119368694E+02 -0.31162383953E+02  0.37303410104E+02  0.51100000000E-03 0. -1.
         12    1    3    3    0    0 -0.57557273494E+01  0.68027192212E+01  0.71494987527E+01  0.11424566449E+02  0.00000000000E+00 0. -1.
</event>
<event>
 7    1  0.1351543E-013  0.7246157E+02  0.7816164E-02  0.1226708E+00
        -11   -1    0    0    0    0  0.00000000000E+00  0.00000000000E+00  0.45593999997E+02  0.45594000000E+02  0.51100000000E-03 0. -1.
         11   -1    0    0    0    0 -0.00000000000E+00 -0.00000000000E+00 -0.45593999997E+02  0.45594000000E+02  0.51100000000E-03 0.  1.
    9900012    2    1    2    0    0 -0.12192332365E+02  0.11634444931E+02 -0.81649116776E+01  0.72461573217E+02  0.70000003808E+02 0.  0.
         12    1    1    2    0    0  0.12192332365E+02 -0.11634444931E+02  0.81649116776E+01  0.18726426783E+02  0.00000000000E+00 0. -1.
         11    1    3    3    0    0  0.20786804176E+02 -0.29567102828E+01 -0.86024763372E+00  0.21013647703E+02  0.51100000000E-03 0. -1.
        -11    1    3    3    0    0 -0.19972756261E+02  0.23997229884E+02  0.44717335240E+01  0.31540044955E+02  0.51100000000E-03 0.  1.
         12    1    3    3    0    0 -0.13006380279E+02 -0.94060746706E+01 -0.11776397568E+02  0.19907880559E+02  0.00000000000E+00 0. -1.
</event>
<event>
 7    1  0.1351543E-013  0.7246199E+02  0.7816164E-02  0.1226707E+00
        -11   -1    0    0    0    0  0.00000000000E+00  0.00000000000E+00  0.45593999997E+02  0.45594000000E+02  0.51100000000E-03 0.  1.
         11   -1    0    0    0    0 -0.00000000000E+00 -0.00000000000E+00 -0.45593999997E+02  0.45594000000E+02  0.51100000000E-03 0. -1.
    9900012    2    1    2    0    0 -0.64702505616E+01  0.11257871148E+02 -0.13492953195E+02  0.72461986248E+02  0.70000541855E+02 0.  0.
         12    1    1    2    0    0  0.64702505616E+01 -0.11257871148E+02  0.13492953195E+02  0.18726013752E+02  0.00000000000E+00 0. -1.
         11    1    3    3    0    0 -0.27693896317E+01 -0.17680856521E+02  0.10690753604E+02  0.20846448597E+02  0.51100000000E-03 0. -1.
        -11    1    3    3    0    0 -0.25159077604E+01  0.27988115367E+02 -0.72769990711E+00  0.28110388490E+02  0.51100000000E-03 0.  1.
         12    1    3    3    0    0 -0.11849531694E+01  0.95061230194E+00 -0.23456006892E+02  0.23505149161E+02  0.00000000000E+00 0. -1.
</event>
<event>
 7    1  0.1351543E-013  0.7246151E+02  0.7816164E-02  0.1226708E+00
        -11   -1    0    0    0    0  0.00000000000E+00  0.00000000000E+00  0.45593999997E+02  0.45594000000E+02  0.51100000000E-03 0.  1.
         11   -1    0    0    0    0 -0.00000000000E+00 -0.00000000000E+00 -0.45593999997E+02  0.45594000000E+02  0.51100000000E-03 0. -1.
    9900012    2    1    2    0    0  0.49561063172E-01 -0.32852836108E+01  0.18435990983E+02  0.72461513190E+02  0.69999925611E+02 0.  0.
         12    1    1    2    0    0 -0.49561063172E-01  0.32852836108E+01 -0.18435990983E+02  0.18726486810E+02  0.00000000000E+00 0. -1.
         11    1    3    3    0    0  0.26006256739E+02 -0.76969915592E+01  0.28125108210E+00  0.27122834864E+02  0.51100000000E-03 0. -1.
        -11    1    3    3    0    0 -0.29594965810E+02  0.93127034857E+01  0.58065915898E+01  0.31564298720E+02  0.51100000000E-03 0.  1.
        -12    1    3    3    0    0  0.36382701346E+01 -0.49009955373E+01  0.12348148311E+02  0.13774379607E+02  0.00000000000E+00 0.  1.
</event>
<event>
 7    1  0.1351543E-013  0.7246155E+02  0.7816164E-02  0.1226708E+00
        -11   -1    0    0    0    0  0.00000000000E+00  0.00000000000E+00  0.45593999997E+02  0.45594000000E+02  0.51100000000E-03 0. -1.
         11   -1    0    0    0    0 -0.00000000000E+00 -0.00000000000E+00 -0.45593999997E+02  0.45594000000E+02  0.51100000000E-03 0.  1.
    9900012    2    1    2    0    0 -0.22454638761E+01  0.12427775559E+02 -0.13827087262E+02  0.72461546638E+02  0.69999969183E+02 0.  0.
         12    1    1    2    0    0  0.22454638761E+01 -0.12427775559E+02  0.13827087262E+02  0.18726453362E+02  0.00000000000E+00 0. -1.
         11    1    3    3    0    0  0.10819422370E+02  0.26406725758E+02 -0.11388823276E+02  0.30725890737E+02  0.51100000000E-03 0. -1.
        -11    1    3    3    0    0 -0.90844603792E+01 -0.89647475039E+01  0.17007125115E+02  0.21263499785E+02  0.51100000000E-03 0.  1.
        -12    1    3    3    0    0 -0.39804258674E+01 -0.50142026956E+01 -0.19445389100E+02  0.20472156116E+02  0.00000000000E+00 0.  1.
</event>
<event>
 7    1  0.1351543E-013  0.7246166E+02  0.7816164E-02  0.1226708E+00
        -11   -1    0    0    0    0  0.00000000000E+00  0.00000000000E+00  0.45593999997E+02  0.45594000000E+02  0.51100000000E-03 0. -1.
         11   -1    0    0    0    0 -0.00000000000E+00 -0.00000000000E+00 -0.45593999997E+02  0.45594000000E+02  0.51100000000E-03 0.  1.
    9900012    2    1    2    0    0  0.98204097854E+01 -0.32957927090E+01 -0.15600425197E+02  0.72461655875E+02  0.70000111485E+02 0.  0.
         12    1    1    2    0    0 -0.98204097854E+01  0.32957927090E+01  0.15600425197E+02  0.18726344125E+02  0.00000000000E+00 0. -1.
         11    1    3    3    0    0 -0.12023812334E+02  0.18443753218E+02 -0.10355778761E+02  0.24330767556E+02  0.51100000000E-03 0.  1.
        -11    1    3    3    0    0  0.27804013646E+02 -0.27121567051E+02 -0.79704383985E+01  0.39650604821E+02  0.51100000000E-03 0. -1.
         12    1    3    3    0    0 -0.59597915261E+01  0.53820211233E+01  0.27257919624E+01  0.84802834993E+01  0.00000000000E+00 0. -1.
</event>
<event>
 7    1  0.1351543E-013  0.7246118E+02  0.7816164E-02  0.1226709E+00
        -11   -1    0    0    0    0  0.00000000000E+00  0.00000000000E+00  0.45593999997E+02  0.45594000000E+02  0.51100000000E-03 0. -1.
         11   -1    0    0    0    0 -0.00000000000E+00 -0.00000000000E+00 -0.45593999997E+02  0.45594000000E+02  0.51100000000E-03 0.  1.
    9900012    2    1    2    0    0  0.28303127196E+01 -0.10200403096E+01 -0.18483577457E+02  0.72461179984E+02  0.69999491546E+02 0.  0.
         12    1    1    2    0    0 -0.28303127196E+01  0.10200403096E+01  0.18483577457E+02  0.18726820016E+02  0.00000000000E+00 0. -1.
         11    1    3    3    0    0 -0.22784483904E+02  0.14747875002E+01 -0.17958208670E+02  0.29048321188E+02  0.51100000000E-03 0. -1.
        -11    1    3    3    0    0  0.10137083425E+02 -0.15409614524E+02  0.96667539091E+01  0.20824572301E+02  0.51100000000E-03 0.  1.
         12    1    3    3    0    0  0.15477713198E+02  0.12914786714E+02 -0.10192122696E+02  0.22588286495E+02  0.00000000000E+00 0. -1.
</event>
<event>
 7    1  0.1351543E-013  0.7246156E+02  0.7816164E-02  0.1226708E+00
        -11   -1    0    0    0    0  0.00000000000E+00  0.00000000000E+00  0.45593999997E+02  0.45594000000E+02  0.51100000000E-03 0.  1.
         11   -1    0    0    0    0 -0.00000000000E+00 -0.00000000000E+00 -0.45593999997E+02  0.45594000000E+02  0.51100000000E-03 0. -1.
    9900012    2    1    2    0    0  0.94069980257E+00  0.62723307451E+01  0.17619665369E+02  0.72461557284E+02  0.69999983051E+02 0.  0.
         12    1    1    2    0    0 -0.94069980257E+00 -0.62723307451E+01 -0.17619665369E+02  0.18726442716E+02  0.00000000000E+00 0. -1.
         11    1    3    3    0    0  0.67438709642E+01 -0.42326260414E+01 -0.11514415144E+02  0.13999166945E+02  0.51100000000E-03 0. -1.
        -11    1    3    3    0    0  0.71655950870E+01 -0.82599266465E+01  0.33498710000E+02  0.35238270574E+02  0.51100000000E-03 0.  1.
        -12    1    3    3    0    0 -0.12968766249E+02  0.18764883433E+02 -0.43646294870E+01  0.23224119764E+02  0.00000000000E+00 0.  1.
</event>
<event>
 7    1  0.1351543E-013  0.7246159E+02  0.7816164E-02  0.1226708E+00
        -11   -1    0    0    0    0  0.00000000000E+00  0.00000000000E+00  0.45593999997E+02  0.45594000000E+02  0.51100000000E-03 0. -1.
         11   -1    0    0    0    0 -0.00000000000E+00 -0.00000000000E+00 -0.45593999997E+02  0.45594000000E+02  0.51100000000E-03 0.  1.
    9900012    2    1    2    0    0  0.10428065534E+02 -0.75819351907E+01 -0.13581173184E+02  0.72461586647E+02  0.70000021302E+02 0.  0.
         12    1    1    2    0    0 -0.10428065534E+02  0.75819351907E+01  0.13581173184E+02  0.18726413353E+02  0.00000000000E+00 0. -1.
         11    1    3    3    0    0 -0.17518963705E+02  0.52226458394E+00  0.14121299170E+02  0.22507730674E+02  0.51100000000E-03 0. -1.
        -11    1    3    3    0    0  0.15915686962E+02 -0.17179643760E+02 -0.25668985207E+02  0.34746885516E+02  0.51100000000E-03 0.  1.
         12    1    3    3    0    0  0.12031342277E+02  0.90754439853E+01 -0.20334871465E+01  0.15206970457E+02  0.00000000000E+00 0. -1.
</event>
<event>
 7    1  0.1351543E-013  0.7246157E+02  0.7816164E-02  0.1226708E+00
        -11   -1    0    0    0    0  0.00000000000E+00  0.00000000000E+00  0.45593999997E+02  0.45594000000E+02  0.51100000000E-03 0.  1.
         11   -1    0    0    0    0 -0.00000000000E+00 -0.00000000000E+00 -0.45593999997E+02  0.45594000000E+02  0.51100000000E-03 0. -1.
    9900012    2    1    2    0    0 -0.23595523707E-01  0.14532573817E+02  0.11810281378E+02  0.72461574695E+02  0.70000005732E+02 0.  0.
         12    1    1    2    0    0  0.23595523707E-01 -0.14532573817E+02 -0.11810281378E+02  0.18726425305E+02  0.00000000000E+00 0. -1.
         11    1    3    3    0    0  0.28165895440E+02  0.47532920633E+00  0.13446786589E+02  0.31214734880E+02  0.51100000000E-03 0.  1.
        -11    1    3    3    0    0 -0.32138217868E+02  0.90996319696E+01  0.27871925128E+01  0.33517708634E+02  0.51100000000E-03 0. -1.
         12    1    3    3    0    0  0.39487269038E+01  0.49576126406E+01 -0.44236977236E+01  0.77291311805E+01  0.00000000000E+00 0. -1.
</event>
<event>
 7    1  0.1351543E-013  0.7246148E+02  0.7816164E-02  0.1226708E+00
        -11   -1    0    0    0    0  0.00000000000E+00  0.00000000000E+00  0.45593999997E+02  0.45594000000E+02  0.51100000000E-03 0.  1.
         11   -1    0    0    0    0 -0.00000000000E+00 -0.00000000000E+00 -0.45593999997E+02  0.45594000000E+02  0.51100000000E-03 0. -1.
    9900012    2    1    2    0    0 -0.27282667739E-01 -0.85228528544E+01  0.16674612405E+02  0.72461482332E+02  0.69999885413E+02 0.  0.
         12    1    1    2    0    0  0.27282667739E-01  0.85228528544E+01 -0.16674612405E+02  0.18726517668E+02  0.00000000000E+00 0. -1.
         11    1    3    3    0    0  0.12241599639E+02  0.95868040126E+01  0.25612480380E+02  0.29962688871E+02  0.51100000000E-03 0. -1.
        -11    1    3    3    0    0  0.23736780818E+01 -0.12075893500E+02 -0.19786986676E+02  0.23302068436E+02  0.51100000000E-03 0.  1.
        -12    1    3    3    0    0 -0.14642560389E+02 -0.60337633674E+01  0.10849118701E+02  0.19196725025E+02  0.00000000000E+00 0.  1.
</event>
<event>
 7    1  0.1351543E-013  0.7246159E+02  0.7816164E-02  0.1226708E+00
        -11   -1    0    0    0    0  0.00000000000E+00  0.00000000000E+00  0.45593999997E+02  0.45594000000E+02  0.51100000000E-03 0.  1.
         11   -1    0    0    0    0 -0.00000000000E+00 -0.00000000000E+00 -0.45593999997E+02  0.45594000000E+02  0.51100000000E-03 0. -1.
    9900012    2    1    2    0    0  0.23485968696E+01  0.51337008310E+01  0.17855180015E+02  0.72461594983E+02  0.70000032162E+02 0.  0.
         12    1    1    2    0    0 -0.23485968696E+01 -0.51337008310E+01 -0.17855180015E+02  0.18726405017E+02  0.00000000000E+00 0. -1.
         11    1    3    3    0    0  0.16689230275E+02 -0.28813660937E+01 -0.11673339056E+02  0.20569383139E+02  0.51100000000E-03 0. -1.
        -11    1    3    3    0    0 -0.24734192707E+02 -0.56380924035E+01  0.15506054387E+02  0.29732240039E+02  0.51100000000E-03 0.  1.
        -12    1    3    3    0    0  0.10393559301E+02  0.13653159328E+02  0.14022464684E+02  0.22159971805E+02  0.00000000000E+00 0.  1.
</event>
<event>
 7    1  0.1351543E-013  0.7246158E+02  0.7816164E-02  0.1226708E+00
        -11   -1    0    0    0    0  0.00000000000E+00  0.00000000000E+00  0.45593999997E+02  0.45594000000E+02  0.51100000000E-03 0. -1.
         11   -1    0    0    0    0 -0.00000000000E+00 -0.00000000000E+00 -0.45593999997E+02  0.45594000000E+02  0.51100000000E-03 0.  1.
    9900012    2    1    2    0    0  0.18461257319E+02 -0.28468173673E+01 -0.13252336008E+01  0.72461584565E+02  0.70000018591E+02 0.  0.
         12    1    1    2    0    0 -0.18461257319E+02  0.28468173673E+01  0.13252336008E+01  0.18726415435E+02  0.00000000000E+00 0. -1.
         11    1    3    3    0    0  0.21040453075E+02 -0.13148921380E+01  0.23170171919E+02  0.31325492398E+02  0.51100000000E-03 0. -1.
        -11    1    3    3    0    0  0.10071276164E+02 -0.37248552919E+01 -0.26075641949E+02  0.28200075422E+02  0.51100000000E-03 0.  1.
         12    1    3    3    0    0 -0.12650471920E+02  0.21929300626E+01  0.15802364291E+01  0.12936016745E+02  0.00000000000E+00 0. -1.
</event>
<event>
 7    1  0.1351543E-013  0.7246237E+02  0.7816164E-02  0.1226706E+00
        -11   -1    0    0    0    0  0.00000000000E+00  0.00000000000E+00  0.45593999997E+02  0.45594000000E+02  0.51100000000E-03 0.  1.
         11   -1    0    0    0    0 -0.00000000000E+00 -0.00000000000E+00 -0.45593999997E+02  0.45594000000E+02  0.51100000000E-03 0. -1.
    9900012    2    1    2    0    0  0.41713750476E+01  0.18252000538E+02  0.33659312233E+00  0.72462370815E+02  0.70001042819E+02 0.  0.
         12    1    1    2    0    0 -0.41713750476E+01 -0.18252000538E+02 -0.33659312233E+00  0.18725629185E+02  0.00000000000E+00 0. -1.
         11    1    3    3    0    0  0.55800802373E+01 -0.91801410315E+01  0.97066443433E+00  0.10786773128E+02  0.51100000000E-03 0. -1.
        -11    1    3    3    0    0 -0.14305727644E+02  0.40107307610E+02 -0.55344472522E+01  0.42940424704E+02  0.51100000000E-03 0.  1.
        -12    1    3    3    0    0  0.12897022454E+02 -0.12675166040E+02  0.49003759402E+01  0.18735172982E+02  0.00000000000E+00 0.  1.
</event>
<event>
 7    1  0.1351543E-013  0.7246159E+02  0.7816164E-02  0.1226708E+00
        -11   -1    0    0    0    0  0.00000000000E+00  0.00000000000E+00  0.45593999997E+02  0.45594000000E+02  0.51100000000E-03 0. -1.
         11   -1    0    0    0    0 -0.00000000000E+00 -0.00000000000E+00 -0.45593999997E+02  0.45594000000E+02  0.51100000000E-03 0.  1.
    9900012    2    1    2    0    0 -0.11112441748E+02  0.79578840177E+01 -0.12800948108E+02  0.72461586779E+02  0.70000021474E+02 0.  0.
         12    1    1    2    0    0  0.11112441748E+02 -0.79578840177E+01  0.12800948108E+02  0.18726413221E+02  0.00000000000E+00 0. -1.
         11    1    3    3    0    0  0.17440371575E+01 -0.10503663829E+02 -0.21848260863E+02  0.24304631708E+02  0.51100000000E-03 0. -1.
        -11    1    3    3    0    0 -0.16817721463E+02  0.29650192080E+02  0.15596405371E+01  0.34123336948E+02  0.51100000000E-03 0.  1.
        -12    1    3    3    0    0  0.39612425569E+01 -0.11188644234E+02  0.74876722176E+01  0.14033618123E+02  0.00000000000E+00 0.  1.
</event>
<event>
 7    1  0.1351543E-013  0.7246170E+02  0.7816164E-02  0.1226708E+00
        -11   -1    0    0    0    0  0.00000000000E+00  0.00000000000E+00  0.45593999997E+02  0.45594000000E+02  0.51100000000E-03 0.  1.
         11   -1    0    0    0    0 -0.00000000000E+00 -0.00000000000E+00 -0.45593999997E+02  0.45594000000E+02  0.51100000000E-03 0. -1.
    9900012    2    1    2    0    0 -0.18384773292E+01 -0.14281142565E+02 -0.11972604876E+02  0.72461700329E+02  0.70000169394E+02 0.  0.
         12    1    1    2    0    0  0.18384773292E+01  0.14281142565E+02  0.11972604876E+02  0.18726299671E+02  0.00000000000E+00 0. -1.
         11    1    3    3    0    0  0.55847263138E+01  0.15358912819E+02 -0.15362614833E+02  0.22429786128E+02  0.51100000000E-03 0. -1.
        -11    1    3    3    0    0 -0.19673128127E+02 -0.22195388319E+02  0.13402369797E+02  0.32546747139E+02  0.51100000000E-03 0.  1.
        -12    1    3    3    0    0  0.12249924484E+02 -0.74446670661E+01 -0.10012359840E+02  0.17485167061E+02  0.00000000000E+00 0.  1.
</event>
<event>
 7    1  0.1351543E-013  0.7246159E+02  0.7816164E-02  0.1226708E+00
        -11   -1    0    0    0    0  0.00000000000E+00  0.00000000000E+00  0.45593999997E+02  0.45594000000E+02  0.51100000000E-03 0.  1.
         11   -1    0    0    0    0 -0.00000000000E+00 -0.00000000000E+00 -0.45593999997E+02  0.45594000000E+02  0.51100000000E-03 0. -1.
    9900012    2    1    2    0    0  0.55361736413E+01 -0.17856126100E+02  0.10899521259E+01  0.72461589411E+02  0.70000024903E+02 0.  0.
         12    1    1    2    0    0 -0.55361736413E+01  0.17856126100E+02 -0.10899521259E+01  0.18726410589E+02  0.00000000000E+00 0. -1.
         11    1    3    3    0    0  0.15385934035E+02 -0.23992017936E+02  0.28082761080E+02  0.40012315116E+02  0.51100000000E-03 0.  1.
        -11    1    3    3    0    0 -0.12788257696E+02  0.63089462863E+01 -0.17863245107E+02  0.22856899706E+02  0.51100000000E-03 0. -1.
        -12    1    3    3    0    0  0.29384973027E+01 -0.17305445031E+00 -0.91295638470E+01  0.95923745902E+01  0.00000000000E+00 0.  1.
</event>
<event>
 7    1  0.1351543E-013  0.7246118E+02  0.7816164E-02  0.1226709E+00
        -11   -1    0    0    0    0  0.00000000000E+00  0.00000000000E+00  0.45593999997E+02  0.45594000000E+02  0.51100000000E-03 0. -1.
         11   -1    0    0    0    0 -0.00000000000E+00 -0.00000000000E+00 -0.45593999997E+02  0.45594000000E+02  0.51100000000E-03 0.  1.
    9900012    2    1    2    0    0 -0.21215221245E+01  0.63231713262E+01  0.17498874136E+02  0.72461175715E+02  0.69999485986E+02 0.  0.
         12    1    1    2    0    0  0.21215221245E+01 -0.63231713262E+01 -0.17498874136E+02  0.18726824285E+02  0.00000000000E+00 0. -1.
         11    1    3    3    0    0 -0.17166172878E+01  0.33156852884E-01  0.19731386785E+02  0.19805946052E+02  0.51100000000E-03 0. -1.
        -11    1    3    3    0    0  0.13973884007E+02 -0.17556229637E+02 -0.87033589747E+01  0.24067386460E+02  0.51100000000E-03 0.  1.
        -12    1    3    3    0    0 -0.14378788844E+02  0.23846244111E+02  0.64708463256E+01  0.28587843203E+02  0.00000000000E+00 0.  1.
</event>
<event>
 7    1  0.1351543E-013  0.7246145E+02  0.7816164E-02  0.1226708E+00
        -11   -1    0    0    0    0  0.00000000000E+00  0.00000000000E+00  0.45593999997E+02  0.45594000000E+02  0.51100000000E-03 0.  1.
         11   -1    0    0    0    0 -0.00000000000E+00 -0.00000000000E+00 -0.45593999997E+02  0.45594000000E+02  0.51100000000E-03 0. -1.
    9900012    2    1    2    0    0 -0.35532906541E+00 -0.14007873362E+02  0.12423242947E+02  0.72461448257E+02  0.69999841023E+02 0.  0.
         12    1    1    2    0    0  0.35532906541E+00  0.14007873362E+02 -0.12423242947E+02  0.18726551743E+02  0.00000000000E+00 0. -1.
         11    1    3    3    0    0  0.17933006183E+02  0.81137476030E+01 -0.38120193255E+01  0.20048867861E+02  0.51100000000E-03 0. -1.
        -11    1    3    3    0    0 -0.87300876017E+01 -0.28807355352E+02  0.23916844410E+02  0.38445982868E+02  0.51100000000E-03 0.  1.
         12    1    3    3    0    0 -0.95582476467E+01  0.66857343868E+01 -0.76815821370E+01  0.13966597527E+02  0.00000000000E+00 0. -1.
</event>
<event>
 7    1  0.1351543E-013  0.7246155E+02  0.7816164E-02  0.1226708E+00
        -11   -1    0    0    0    0  0.00000000000E+00  0.00000000000E+00  0.45593999997E+02  0.45594000000E+02  0.51100000000E-03 0.  1.
         11   -1    0    0    0    0 -0.00000000000E+00 -0.00000000000E+00 -0.45593999997E+02  0.45594000000E+02  0.51100000000E-03 0. -1.
    9900012    2    1    2    0    0 -0.11544003465E+02  0.27039904996E+01  0.14494972276E+02  0.72461553410E+02  0.69999978005E+02 0.  0.
         12    1    1    2    0    0  0.11544003465E+02 -0.27039904996E+01 -0.14494972276E+02  0.18726446590E+02  0.00000000000E+00 0. -1.
         11    1    3    3    0    0  0.20939322525E+02  0.14812289722E+02 -0.83647811555E+01  0.26978300885E+02  0.51100000000E-03 0. -1.
        -11    1    3    3    0    0 -0.15320280129E+02 -0.81895676581E+01  0.97875629006E+00  0.17399366822E+02  0.51100000000E-03 0.  1.
         12    1    3    3    0    0 -0.17163045861E+02 -0.39187315642E+01  0.21880997141E+02  0.28083885703E+02  0.00000000000E+00 0. -1.
</event>
<event>
 7    1  0.1351543E-013  0.7246158E+02  0.7816164E-02  0.1226708E+00
        -11   -1    0    0    0    0  0.00000000000E+00  0.00000000000E+00  0.45593999997E+02  0.45594000000E+02  0.51100000000E-03 0. -1.
         11   -1    0    0    0    0 -0.00000000000E+00 -0.00000000000E+00 -0.45593999997E+02  0.45594000000E+02  0.51100000000E-03 0.  1.
    9900012    2    1    2    0    0 -0.13530818834E+02  0.69658854953E+01 -0.10912021219E+02  0.72461579463E+02  0.70000011944E+02 0.  0.
         12    1    1    2    0    0  0.13530818834E+02 -0.69658854953E+01  0.10912021219E+02  0.18726420537E+02  0.00000000000E+00 0. -1.
         11    1    3    3    0    0 -0.34964529756E+02 -0.10263756635E+02 -0.12204534736E+02  0.38429333974E+02  0.51100000000E-03 0. -1.
        -11    1    3    3    0    0  0.34900363804E+01  0.12862079766E+02 -0.54136627721E+01  0.14384755636E+02  0.51100000000E-03 0.  1.
         12    1    3    3    0    0  0.17943674542E+02  0.43675623647E+01  0.67061762895E+01  0.19647489852E+02  0.00000000000E+00 0. -1.
</event>
<event>
 7    1  0.1351543E-013  0.7246157E+02  0.7816164E-02  0.1226708E+00
        -11   -1    0    0    0    0  0.00000000000E+00  0.00000000000E+00  0.45593999997E+02  0.45594000000E+02  0.51100000000E-03 0.  1.
         11   -1    0    0    0    0 -0.00000000000E+00 -0.00000000000E+00 -0.45593999997E+02  0.45594000000E+02  0.51100000000E-03 0. -1.
    9900012    2    1    2    0    0 -0.72500456543E+01  0.63171916721E+01  0.16068880811E+02  0.72461574737E+02  0.70000005788E+02 0.  0.
         12    1    1    2    0    0  0.72500456543E+01 -0.63171916721E+01 -0.16068880811E+02  0.18726425263E+02  0.00000000000E+00 0. -1.
         11    1    3    3    0    0  0.18845288560E+02  0.23750457472E+02  0.50182160310E+01  0.30731280862E+02  0.51100000000E-03 0. -1.
        -11    1    3    3    0    0 -0.12004046713E+02 -0.84011530726E+01  0.18340272426E+02  0.23474286003E+02  0.51100000000E-03 0.  1.
         12    1    3    3    0    0 -0.14091287501E+02 -0.90321127275E+01 -0.72896076469E+01  0.18256007872E+02  0.00000000000E+00 0. -1.
</event>
<event>
 7    1  0.1351543E-013  0.7246158E+02  0.7816164E-02  0.1226708E+00
        -11   -1    0    0    0    0  0.00000000000E+00  0.00000000000E+00  0.45593999997E+02  0.45594000000E+02  0.51100000000E-03 0.  1.
         11   -1    0    0    0    0 -0.00000000000E+00 -0.00000000000E+00 -0.45593999997E+02  0.45594000000E+02  0.51100000000E-03 0. -1.
    9900012    2    1    2    0    0  0.10583443134E+01 -0.14232232005E+02  0.12124445048E+02  0.72461583144E+02  0.70000016739E+02 0.  0.
         12    1    1    2    0    0 -0.10583443134E+01  0.14232232005E+02 -0.12124445048E+02  0.18726416856E+02  0.00000000000E+00 0. -1.
         11    1    3    3    0    0  0.24483626576E+02 -0.17354823295E+02  0.14363448550E+02  0.33270805768E+02  0.51100000000E-03 0. -1.
        -11    1    3    3    0    0 -0.21359926155E+02 -0.11540505990E+02 -0.22577303448E+01  0.24382925797E+02  0.51100000000E-03 0.  1.
         12    1    3    3    0    0 -0.20653561079E+01  0.14663097280E+02  0.18726843267E-01  0.14807851579E+02  0.00000000000E+00 0. -1.
</event>
<event>
 7    1  0.1351543E-013  0.7246157E+02  0.7816164E-02  0.1226708E+00
        -11   -1    0    0    0    0  0.00000000000E+00  0.00000000000E+00  0.45593999997E+02  0.45594000000E+02  0.51100000000E-03 0.  1.
         11   -1    0    0    0    0 -0.00000000000E+00 -0.00000000000E+00 -0.45593999997E+02  0.45594000000E+02  0.51100000000E-03 0. -1.
    9900012    2    1    2    0    0 -0.70451985869E+01  0.27860219414E+00  0.17348398083E+02  0.72461565252E+02  0.69999993432E+02 0.  0.
         12    1    1    2    0    0  0.70451985869E+01 -0.27860219414E+00 -0.17348398083E+02  0.18726434748E+02  0.00000000000E+00 0. -1.
         11    1    3    3    0    0  0.95426106791E+01  0.10573178735E+02  0.16648948954E+02  0.21909838627E+02  0.51100000000E-03 0. -1.
        -11    1    3    3    0    0  0.24421725898E+01 -0.24869074017E+02 -0.59285366958E+01  0.25682340179E+02  0.51100000000E-03 0.  1.
         12    1    3    3    0    0 -0.19029981856E+02  0.14574497477E+02  0.66279858245E+01  0.24869386446E+02  0.00000000000E+00 0. -1.
</event>
<event>
 7    1  0.1351543E-013  0.7246162E+02  0.7816164E-02  0.1226708E+00
        -11   -1    0    0    0    0  0.00000000000E+00  0.00000000000E+00  0.45593999997E+02  0.45594000000E+02  0.51100000000E-03 0.  1.
         11   -1    0    0    0    0 -0.00000000000E+00 -0.00000000000E+00 -0.45593999997E+02  0.45594000000E+02  0.51100000000E-03 0. -1.
    9900012    2    1    2    0    0  0.93818347926E+01  0.90011229412E+01  0.13477319376E+02  0.72461623526E+02  0.70000069344E+02 0.  0.
         12    1    1    2    0    0 -0.93818347926E+01 -0.90011229412E+01 -0.13477319376E+02  0.18726376474E+02  0.00000000000E+00 0. -1.
         11    1    3    3    0    0  0.17774778539E+02  0.18832092941E+02 -0.14232360997E+02  0.29549121416E+02  0.51100000000E-03 0. -1.
        -11    1    3    3    0    0  0.96152690877E+01  0.66621781991E+00  0.16842740330E+02  0.19405544257E+02  0.51100000000E-03 0.  1.
         12    1    3    3    0    0 -0.18008212834E+02 -0.10497187820E+02  0.10866940043E+02  0.23506957853E+02  0.00000000000E+00 0. -1.
</event>
<event>
 7    1  0.1351543E-013  0.7246156E+02  0.7816164E-02  0.1226708E+00
        -11   -1    0    0    0    0  0.00000000000E+00  0.00000000000E+00  0.45593999997E+02  0.45594000000E+02  0.51100000000E-03 0.  1.
         11   -1    0    0    0    0 -0.00000000000E+00 -0.00000000000E+00 -0.45593999997E+02  0.45594000000E+02  0.51100000000E-03 0. -1.
    9900012    2    1    2    0    0  0.16377455488E+02  0.15266471275E+01  0.89514253673E+01  0.72461555708E+02  0.69999980999E+02 0.  0.
         12    1    1    2    0    0 -0.16377455488E+02 -0.15266471275E+01 -0.89514253673E+01  0.18726444292E+02  0.00000000000E+00 0. -1.
         11    1    3    3    0    0  0.24312342211E+02 -0.20219967638E+02 -0.59868762046E+01  0.32183532466E+02  0.51100000000E-03 0. -1.
        -11    1    3    3    0    0 -0.56317117343E+01  0.20129469698E+02  0.23390750261E+02  0.31369394725E+02  0.51100000000E-03 0.  1.
        -12    1    3    3    0    0 -0.23031749889E+01  0.16171450675E+01 -0.84524486895E+01  0.89086285166E+01  0.00000000000E+00 0.  1.
</event>
<event>
 7    1  0.1351543E-013  0.7246151E+02  0.7816164E-02  0.1226708E+00
        -11   -1    0    0    0    0  0.00000000000E+00  0.00000000000E+00  0.45593999997E+02  0.45594000000E+02  0.51100000000E-03 0.  1.
         11   -1    0    0    0    0 -0.00000000000E+00 -0.00000000000E+00 -0.45593999997E+02  0.45594000000E+02  0.51100000000E-03 0. -1.
    9900012    2    1    2    0    0 -0.13578030229E+02 -0.12853883267E+02  0.10470820997E+01  0.72461505377E+02  0.69999915433E+02 0.  0.
         12    1    1    2    0    0  0.13578030229E+02  0.12853883267E+02 -0.10470820997E+01  0.18726494623E+02  0.00000000000E+00 0. -1.
         11    1    3    3    0    0  0.11694737770E+02  0.73120666966E+01  0.23189392237E+02  0.26981125319E+02  0.51100000000E-03 0.  1.
        -11    1    3    3    0    0 -0.18198390634E+02 -0.23673771013E+02 -0.10995851597E+02  0.31820396104E+02  0.51100000000E-03 0. -1.
        -12    1    3    3    0    0 -0.70743773656E+01  0.35078210497E+01 -0.11146458540E+02  0.13659983954E+02  0.00000000000E+00 0.  1.
</event>
<event>
 7    1  0.1351543E-013  0.7246152E+02  0.7816164E-02  0.1226708E+00
        -11   -1    0    0    0    0  0.00000000000E+00  0.00000000000E+00  0.45593999997E+02  0.45594000000E+02  0.51100000000E-03 0.  1.
         11   -1    0    0    0    0 -0.00000000000E+00 -0.00000000000E+00 -0.45593999997E+02  0.45594000000E+02  0.51100000000E-03 0. -1.
    9900012    2    1    2    0    0 -0.15131849613E+02 -0.10726544886E+02  0.25786334889E+01  0.72461521725E+02  0.69999936729E+02 0.  0.
         12    1    1    2    0    0  0.15131849613E+02  0.10726544886E+02 -0.25786334889E+01  0.18726478275E+02  0.00000000000E+00 0. -1.
         11    1    3    3    0    0 -0.22783481367E+02  0.17715453420E+02 -0.64292141324E+01  0.29567872898E+02  0.51100000000E-03 0. -1.
        -11    1    3    3    0    0  0.51433438932E+01 -0.26848019255E+02 -0.56698945472E+01  0.27918055604E+02  0.51100000000E-03 0.  1.
         12    1    3    3    0    0  0.25082878605E+01 -0.15939790512E+01  0.14677742169E+02  0.14975593223E+02  0.00000000000E+00 0. -1.
</event>
<event>
 7    1  0.1351543E-013  0.7246154E+02  0.7816164E-02  0.1226708E+00
        -11   -1    0    0    0    0  0.00000000000E+00  0.00000000000E+00  0.45593999997E+02  0.45594000000E+02  0.51100000000E-03 0. -1.
         11   -1    0    0    0    0 -0.00000000000E+00 -0.00000000000E+00 -0.45593999997E+02  0.45594000000E+02  0.51100000000E-03 0.  1.
    9900012    2    1    2    0    0  0.51564573437E+01  0.17985914963E+02  0.77329074354E+00  0.72461543635E+02  0.69999965272E+02 0.  0.
         12    1    1    2    0    0 -0.51564573437E+01 -0.17985914963E+02 -0.77329074354E+00  0.18726456365E+02  0.00000000000E+00 0. -1.
         11    1    3    3    0    0 -0.88541583526E+01  0.29397515684E+02 -0.10213600850E+02  0.32356262008E+02  0.51100000000E-03 0.  1.
        -11    1    3    3    0    0  0.25395828245E+02 -0.80979343505E+01  0.86103918072E+01  0.28011845357E+02  0.51100000000E-03 0. -1.
        -12    1    3    3    0    0 -0.11385212549E+02 -0.33136663701E+01  0.23764997864E+01  0.12093436270E+02  0.00000000000E+00 0.  1.
</event>
<event>
 7    1  0.1351543E-013  0.7246158E+02  0.7816164E-02  0.1226708E+00
        -11   -1    0    0    0    0  0.00000000000E+00  0.00000000000E+00  0.45593999997E+02  0.45594000000E+02  0.51100000000E-03 0.  1.
         11   -1    0    0    0    0 -0.00000000000E+00 -0.00000000000E+00 -0.45593999997E+02  0.45594000000E+02  0.51100000000E-03 0. -1.
    9900012    2    1    2    0    0  0.16943130794E+02 -0.47834765724E+01  0.63818228605E+01  0.72461575028E+02  0.70000006166E+02 0.  0.
         12    1    1    2    0    0 -0.16943130794E+02  0.47834765724E+01 -0.63818228605E+01  0.18726424972E+02  0.00000000000E+00 0. -1.
         11    1    3    3    0    0 -0.12270508977E+02 -0.20278780125E+02  0.15186021542E+02  0.28149770238E+02  0.51100000000E-03 0.  1.
        -11    1    3    3    0    0  0.13648103409E+02  0.22125954120E+02 -0.19920200641E+01  0.26072911548E+02  0.51100000000E-03 0. -1.
        -12    1    3    3    0    0  0.15565536362E+02 -0.66306505669E+01 -0.68121786174E+01  0.18238893242E+02  0.00000000000E+00 0.  1.
</event>
<event>
 7    1  0.1351543E-013  0.7246148E+02  0.7816164E-02  0.1226708E+00
        -11   -1    0    0    0    0  0.00000000000E+00  0.00000000000E+00  0.45593999997E+02  0.45594000000E+02  0.51100000000E-03 0.  1.
         11   -1    0    0    0    0 -0.00000000000E+00 -0.00000000000E+00 -0.45593999997E+02  0.45594000000E+02  0.51100000000E-03 0. -1.
    9900012    2    1    2    0    0  0.19489459724E+01 -0.48899276757E+01  0.17971445227E+02  0.72461477989E+02  0.69999879756E+02 0.  0.
         12    1    1    2    0    0 -0.19489459724E+01  0.48899276757E+01 -0.17971445227E+02  0.18726522011E+02  0.00000000000E+00 0. -1.
         11    1    3    3    0    0  0.45827189770E+01  0.64693941915E+01  0.23239734329E+02  0.24554828983E+02  0.51100000000E-03 0. -1.
        -11    1    3    3    0    0  0.10507936804E+02  0.78885721634E+01 -0.17263156447E+02  0.21694766130E+02  0.51100000000E-03 0.  1.
        -12    1    3    3    0    0 -0.13141709809E+02 -0.19247894031E+02  0.11994867345E+02  0.26211882876E+02  0.00000000000E+00 0.  1.
</event>
<event>
 7    1  0.1351543E-013  0.7246156E+02  0.7816164E-02  0.1226708E+00
        -11   -1    0    0    0    0  0.00000000000E+00  0.00000000000E+00  0.45593999997E+02  0.45594000000E+02  0.51100000000E-03 0. -1.
         11   -1    0    0    0    0 -0.00000000000E+00 -0.00000000000E+00 -0.45593999997E+02  0.45594000000E+02  0.51100000000E-03 0.  1.
    9900012    2    1    2    0    0 -0.11141630589E+02  0.14513933827E+02  0.39861630700E+01  0.72461556041E+02  0.69999981432E+02 0.  0.
         12    1    1    2    0    0  0.11141630589E+02 -0.14513933827E+02 -0.39861630700E+01  0.18726443959E+02  0.00000000000E+00 0. -1.
         11    1    3    3    0    0  0.28369203474E+01 -0.87588599727E+01 -0.62651144512E+01  0.11136310180E+02  0.51100000000E-03 0. -1.
        -11    1    3    3    0    0 -0.32871095108E+02  0.72396761718E+01  0.13636381715E+02  0.36316287135E+02  0.51100000000E-03 0.  1.
        -12    1    3    3    0    0  0.18892544172E+02  0.16033117628E+02 -0.33851041942E+01  0.25008958726E+02  0.00000000000E+00 0.  1.
</event>
<event>
 7    1  0.1351543E-013  0.7246156E+02  0.7816164E-02  0.1226708E+00
        -11   -1    0    0    0    0  0.00000000000E+00  0.00000000000E+00  0.45593999997E+02  0.45594000000E+02  0.51100000000E-03 0. -1.
         11   -1    0    0    0    0 -0.00000000000E+00 -0.00000000000E+00 -0.45593999997E+02  0.45594000000E+02  0.51100000000E-03 0.  1.
    9900012    2    1    2    0    0  0.14229605332E+02  0.63328593801E+01 -0.10396762499E+02  0.72461562904E+02  0.69999990373E+02 0.  0.
         12    1    1    2    0    0 -0.14229605332E+02 -0.63328593801E+01  0.10396762499E+02  0.18726437096E+02  0.00000000000E+00 0. -1.
         11    1    3    3    0    0  0.16809246915E+02  0.84291685628E+01  0.75749642174E+01  0.20272684767E+02  0.51100000000E-03 0. -1.
        -11    1    3    3    0    0  0.14896010550E+01 -0.24302250577E+02 -0.16802710849E+02  0.29582923901E+02  0.51100000000E-03 0.  1.
        -12    1    3    3    0    0 -0.40692426375E+01  0.22205941394E+02 -0.11690158666E+01  0.22605954236E+02  0.00000000000E+00 0.  1.
</event>
<event>
 7    1  0.1351543E-013  0.7246160E+02  0.7816164E-02  0.1226708E+00
        -11   -1    0    0    0    0  0.00000000000E+00  0.00000000000E+00  0.45593999997E+02  0.45594000000E+02  0.51100000000E-03 0. -1.
         11   -1    0    0    0    0 -0.00000000000E+00 -0.00000000000E+00 -0.45593999997E+02  0.45594000000E+02  0.51100000000E-03 0.  1.
    9900012    2    1    2    0    0 -0.22088966941E+01  0.11491258596E+02 -0.14620180826E+02  0.72461603226E+02  0.70000042900E+02 0.  0.
         12    1    1    2    0    0  0.22088966941E+01 -0.11491258596E+02  0.14620180826E+02  0.18726396774E+02  0.00000000000E+00 0. -1.
         11    1    3    3    0    0  0.51208590873E+00 -0.71949095917E+01 -0.27158161156E+02  0.28099727287E+02  0.51100000000E-03 0.  1.
        -11    1    3    3    0    0 -0.68555255589E+01  0.36257059628E+01  0.23849117677E+02  0.25078364952E+02  0.51100000000E-03 0. -1.
        -12    1    3    3    0    0  0.41345429561E+01  0.15060462225E+02 -0.11311137348E+02  0.19283510987E+02  0.00000000000E+00 0.  1.
</event>
<event>
 7    1  0.1351543E-013  0.7246160E+02  0.7816164E-02  0.1226708E+00
        -11   -1    0    0    0    0  0.00000000000E+00  0.00000000000E+00  0.45593999997E+02  0.45594000000E+02  0.51100000000E-03 0.  1.
         11   -1    0    0    0    0 -0.00000000000E+00 -0.00000000000E+00 -0.45593999997E+02  0.45594000000E+02  0.51100000000E-03 0. -1.
    9900012    2    1    2    0    0  0.16058665095E+02  0.94592677120E+01 -0.18219467038E+01  0.72461602587E+02  0.70000042068E+02 0.  0.
         12    1    1    2    0    0 -0.16058665095E+02 -0.94592677120E+01  0.18219467038E+01  0.18726397413E+02  0.00000000000E+00 0. -1.
         11    1    3    3    0    0 -0.14395574379E+02 -0.46015075299E+01  0.10809019963E+02  0.18580671304E+02  0.51100000000E-03 0. -1.
        -11    1    3    3    0    0  0.23197570011E+02  0.25084895072E+02  0.19390901301E+01  0.34221912366E+02  0.51100000000E-03 0.  1.
        -12    1    3    3    0    0  0.72566694633E+01 -0.11024119831E+02 -0.14570056797E+02  0.19659018918E+02  0.00000000000E+00 0.  1.
</event>
<event>
 7    1  0.1351543E-013  0.7246170E+02  0.7816164E-02  0.1226708E+00
        -11   -1    0    0    0    0  0.00000000000E+00  0.00000000000E+00  0.45593999997E+02  0.45594000000E+02  0.51100000000E-03 0.  1.
         11   -1    0    0    0    0 -0.00000000000E+00 -0.00000000000E+00 -0.45593999997E+02  0.45594000000E+02  0.51100000000E-03 0. -1.
    9900012    2    1    2    0    0 -0.11812157919E+02  0.13146766666E+02  0.61895030793E+01  0.72461695056E+02  0.70000162525E+02 0.  0.
         12    1    1    2    0    0  0.11812157919E+02 -0.13146766666E+02 -0.61895030793E+01  0.18726304944E+02  0.00000000000E+00 0. -1.
         11    1    3    3    0    0  0.75345310333E+01  0.27071577666E+02 -0.18325208096E+02  0.33547767843E+02  0.51100000000E-03 0. -1.
        -11    1    3    3    0    0 -0.18590828278E+02 -0.34882996362E+01  0.11210462392E+02  0.21987760180E+02  0.51100000000E-03 0.  1.
         12    1    3    3    0    0 -0.75586067481E+00 -0.10436511363E+02  0.13304248782E+02  0.16926167034E+02  0.00000000000E+00 0. -1.
</event>
<event>
 7    1  0.1351543E-013  0.7246160E+02  0.7816164E-02  0.1226708E+00
        -11   -1    0    0    0    0  0.00000000000E+00  0.00000000000E+00  0.45593999997E+02  0.45594000000E+02  0.51100000000E-03 0. -1.
         11   -1    0    0    0    0 -0.00000000000E+00 -0.00000000000E+00 -0.45593999997E+02  0.45594000000E+02  0.51100000000E-03 0.  1.
    9900012    2    1    2    0    0 -0.54619613323E+01  0.16256126066E+02 -0.75221899664E+01  0.72461601570E+02  0.70000040743E+02 0.  0.
         12    1    1    2    0    0  0.54619613323E+01 -0.16256126066E+02  0.75221899664E+01  0.18726398430E+02  0.00000000000E+00 0. -1.
         11    1    3    3    0    0  0.41186171017E+01  0.24210751933E+02  0.19214266817E+02  0.31181910871E+02  0.51100000000E-03 0.  1.
        -11    1    3    3    0    0  0.25482961326E+01 -0.15629374205E+02 -0.19755413427E+02  0.25318916074E+02  0.51100000000E-03 0. -1.
        -12    1    3    3    0    0 -0.12128874567E+02  0.76747483379E+01 -0.69810433565E+01  0.15960774626E+02  0.00000000000E+00 0.  1.
</event>
<event>
 7    1  0.1351543E-013  0.7246156E+02  0.7816164E-02  0.1226708E+00
        -11   -1    0    0    0    0  0.00000000000E+00  0.00000000000E+00  0.45593999997E+02  0.45594000000E+02  0.51100000000E-03 0. -1.
         11   -1    0    0    0    0 -0.00000000000E+00 -0.00000000000E+00 -0.45593999997E+02  0.45594000000E+02  0.51100000000E-03 0.  1.
    9900012    2    1    2    0    0 -0.92856387793E+01  0.15671462692E+02 -0.43429961713E+01  0.72461562907E+02  0.69999990377E+02 0.  0.
         12    1    1    2    0    0  0.92856387793E+01 -0.15671462692E+02  0.43429961713E+01  0.18726437093E+02  0.00000000000E+00 0. -1.
         11    1    3    3    0    0 -0.18527257472E+02 -0.19196959698E+02 -0.12086149418E+02  0.29289205163E+02  0.51100000000E-03 0. -1.
        -11    1    3    3    0    0  0.16034222900E+02  0.17579664537E+02  0.58394095002E+01  0.24499788015E+02  0.51100000000E-03 0.  1.
         12    1    3    3    0    0 -0.67926042074E+01  0.17288757853E+02  0.19037437463E+01  0.18672569729E+02  0.00000000000E+00 0. -1.
</event>
<event>
 7    1  0.1351543E-013  0.7246148E+02  0.7816164E-02  0.1226708E+00
        -11   -1    0    0    0    0  0.00000000000E+00  0.00000000000E+00  0.45593999997E+02  0.45594000000E+02  0.51100000000E-03 0.  1.
         11   -1    0    0    0    0 -0.00000000000E+00 -0.00000000000E+00 -0.45593999997E+02  0.45594000000E+02  0.51100000000E-03 0. -1.
    9900012    2    1    2    0    0  0.80682401549E+01 -0.11850276667E+02  0.12048104571E+02  0.72461484573E+02  0.69999888332E+02 0.  0.
         12    1    1    2    0    0 -0.80682401549E+01  0.11850276667E+02 -0.12048104571E+02  0.18726515427E+02  0.00000000000E+00 0. -1.
         11    1    3    3    0    0 -0.52971958818E+01  0.99322699677E+01 -0.27166455531E+01  0.11579742408E+02  0.51100000000E-03 0. -1.
        -11    1    3    3    0    0  0.22658729709E+02 -0.11155061279E+02  0.30593854891E+02  0.39671619346E+02  0.51100000000E-03 0.  1.
        -12    1    3    3    0    0 -0.92932936719E+01 -0.10627485356E+02 -0.15829104768E+02  0.21210122819E+02  0.00000000000E+00 0.  1.
</event>
<event>
 7    1  0.1351543E-013  0.7246157E+02  0.7816164E-02  0.1226708E+00
        -11   -1    0    0    0    0  0.00000000000E+00  0.00000000000E+00  0.45593999997E+02  0.45594000000E+02  0.51100000000E-03 0.  1.
         11   -1    0    0    0    0 -0.00000000000E+00 -0.00000000000E+00 -0.45593999997E+02  0.45594000000E+02  0.51100000000E-03 0. -1.
    9900012    2    1    2    0    0  0.16867449767E+02 -0.77010561591E+01  0.26195522480E+01  0.72461569972E+02  0.69999999580E+02 0.  0.
         12    1    1    2    0    0 -0.16867449767E+02  0.77010561591E+01 -0.26195522480E+01  0.18726430028E+02  0.00000000000E+00 0. -1.
         11    1    3    3    0    0  0.16962937416E+02 -0.23516011779E+02 -0.82908593524E+01  0.30157625981E+02  0.51100000000E-03 0. -1.
        -11    1    3    3    0    0  0.79692878015E+00 -0.14885799466E+01  0.21783155399E+02  0.21848497091E+02  0.51100000000E-03 0.  1.
         12    1    3    3    0    0 -0.89241642871E+00  0.17303535566E+02 -0.10872743799E+02  0.20455446900E+02  0.00000000000E+00 0. -1.
</event>
<event>
 7    1  0.1351543E-013  0.7246148E+02  0.7816164E-02  0.1226708E+00
        -11   -1    0    0    0    0  0.00000000000E+00  0.00000000000E+00  0.45593999997E+02  0.45594000000E+02  0.51100000000E-03 0.  1.
         11   -1    0    0    0    0 -0.00000000000E+00 -0.00000000000E+00 -0.45593999997E+02  0.45594000000E+02  0.51100000000E-03 0. -1.
    9900012    2    1    2    0    0  0.14432808233E+02  0.10750691082E+02 -0.51768155657E+01  0.72461475185E+02  0.69999876103E+02 0.  0.
         12    1    1    2    0    0 -0.14432808233E+02 -0.10750691082E+02  0.51768155657E+01  0.18726524815E+02  0.00000000000E+00 0. -1.
         11    1    3    3    0    0  0.18517111526E+02  0.39937930574E+01 -0.22412825742E+02  0.29345673621E+02  0.51100000000E-03 0. -1.
        -11    1    3    3    0    0  0.95148094733E+01  0.14260658878E+02  0.21024973313E+02  0.27128352217E+02  0.51100000000E-03 0.  1.
        -12    1    3    3    0    0 -0.13599112767E+02 -0.75037608530E+01 -0.37889631362E+01  0.15987449347E+02  0.00000000000E+00 0.  1.
</event>
<event>
 7    1  0.1351543E-013  0.7246161E+02  0.7816164E-02  0.1226708E+00
        -11   -1    0    0    0    0  0.00000000000E+00  0.00000000000E+00  0.45593999997E+02  0.45594000000E+02  0.51100000000E-03 0. -1.
         11   -1    0    0    0    0 -0.00000000000E+00 -0.00000000000E+00 -0.45593999997E+02  0.45594000000E+02  0.51100000000E-03 0.  1.
    9900012    2    1    2    0    0 -0.14958561073E+02 -0.95129694717E+01 -0.60351149942E+01  0.72461608181E+02  0.70000049355E+02 0.  0.
         12    1    1    2    0    0  0.14958561073E+02  0.95129694717E+01  0.60351149942E+01  0.18726391819E+02  0.00000000000E+00 0. -1.
         11    1    3    3    0    0 -0.23059615381E+01  0.20247270153E+02 -0.65530077489E+01  0.21405871113E+02  0.51100000000E-03 0.  1.
        -11    1    3    3    0    0 -0.21425887631E+02 -0.13454386121E+02  0.13274097949E+02  0.28570804036E+02  0.51100000000E-03 0. -1.
        -12    1    3    3    0    0  0.87732880956E+01 -0.16305853504E+02 -0.12756205195E+02  0.22484933032E+02  0.00000000000E+00 0.  1.
</event>
<event>
 7    1  0.1351543E-013  0.7246152E+02  0.7816164E-02  0.1226708E+00
        -11   -1    0    0    0    0  0.00000000000E+00  0.00000000000E+00  0.45593999997E+02  0.45594000000E+02  0.51100000000E-03 0.  1.
         11   -1    0    0    0    0 -0.00000000000E+00 -0.00000000000E+00 -0.45593999997E+02  0.45594000000E+02  0.51100000000E-03 0. -1.
    9900012    2    1    2    0    0 -0.38643090032E+01  0.90641240764E+00  0.18300999021E+02  0.72461520547E+02  0.69999935195E+02 0.  0.
         12    1    1    2    0    0  0.38643090032E+01 -0.90641240764E+00 -0.18300999021E+02  0.18726479453E+02  0.00000000000E+00 0. -1.
         11    1    3    3    0    0 -0.25535720168E+01 -0.13845020277E+02 -0.76540116065E+01  0.16024643848E+02  0.51100000000E-03 0. -1.
        -11    1    3    3    0    0 -0.36078054130E+01  0.31890715437E+02  0.12176948998E+02  0.34326550630E+02  0.51100000000E-03 0.  1.
        -12    1    3    3    0    0  0.22970684266E+01 -0.17139282752E+02  0.13778061630E+02  0.22110326070E+02  0.00000000000E+00 0.  1.
</event>
<event>
 7    1  0.1351543E-013  0.7246157E+02  0.7816164E-02  0.1226708E+00
        -11   -1    0    0    0    0  0.00000000000E+00  0.00000000000E+00  0.45593999997E+02  0.45594000000E+02  0.51100000000E-03 0.  1.
         11   -1    0    0    0    0 -0.00000000000E+00 -0.00000000000E+00 -0.45593999997E+02  0.45594000000E+02  0.51100000000E-03 0. -1.
    9900012    2    1    2    0    0  0.15946849977E+02 -0.59527831497E+01 -0.78065072317E+01  0.72461569305E+02  0.69999998711E+02 0.  0.
         12    1    1    2    0    0 -0.15946849977E+02  0.59527831497E+01  0.78065072317E+01  0.18726430695E+02  0.00000000000E+00 0. -1.
         11    1    3    3    0    0  0.22467299510E+02 -0.38997380723E+01  0.10763455999E+02  0.25215857899E+02  0.51100000000E-03 0.  1.
        -11    1    3    3    0    0  0.21770005500E+01  0.18979584942E+01 -0.31242633184E+02  0.31375845907E+02  0.51100000000E-03 0. -1.
        -12    1    3    3    0    0 -0.86974500828E+01 -0.39510035715E+01  0.12672669954E+02  0.15869865498E+02  0.00000000000E+00 0.  1.
</event>
<event>
 7    1  0.1351543E-013  0.7246158E+02  0.7816164E-02  0.1226708E+00
        -11   -1    0    0    0    0  0.00000000000E+00  0.00000000000E+00  0.45593999997E+02  0.45594000000E+02  0.51100000000E-03 0.  1.
         11   -1    0    0    0    0 -0.00000000000E+00 -0.00000000000E+00 -0.45593999997E+02  0.45594000000E+02  0.51100000000E-03 0. -1.
    9900012    2    1    2    0    0 -0.13187251306E+02 -0.12065089959E+02  0.55864938396E+01  0.72461577326E+02  0.70000009161E+02 0.  0.
         12    1    1    2    0    0  0.13187251306E+02  0.12065089959E+02 -0.55864938396E+01  0.18726422674E+02  0.00000000000E+00 0. -1.
         11    1    3    3    0    0 -0.93639759350E+01 -0.12443900879E+02 -0.18869511289E+02  0.24466163797E+02  0.51100000000E-03 0. -1.
        -11    1    3    3    0    0 -0.48827731364E+01 -0.12714329316E+02  0.30599643436E+02  0.33493787814E+02  0.51100000000E-03 0.  1.
         12    1    3    3    0    0  0.10594977658E+01  0.13093140235E+02 -0.61436383072E+01  0.14501625715E+02  0.00000000000E+00 0. -1.
</event>
<event>
 7    1  0.1351543E-013  0.7246158E+02  0.7816164E-02  0.1226708E+00
        -11   -1    0    0    0    0  0.00000000000E+00  0.00000000000E+00  0.45593999997E+02  0.45594000000E+02  0.51100000000E-03 0.  1.
         11   -1    0    0    0    0 -0.00000000000E+00 -0.00000000000E+00 -0.45593999997E+02  0.45594000000E+02  0.51100000000E-03 0. -1.
    9900012    2    1    2    0    0  0.16208384292E+02 -0.50336410329E+00  0.93655628323E+01  0.72461578453E+02  0.70000010628E+02 0.  0.
         12    1    1    2    0    0 -0.16208384292E+02  0.50336410329E+00 -0.93655628323E+01  0.18726421547E+02  0.00000000000E+00 0. -1.
         11    1    3    3    0    0 -0.78698551598E+01  0.19054100975E+02 -0.14445514932E+02  0.25172729016E+02  0.51100000000E-03 0. -1.
        -11    1    3    3    0    0  0.26291817608E+02 -0.75816763875E+01  0.10663838499E+02  0.29367651281E+02  0.51100000000E-03 0.  1.
        -12    1    3    3    0    0 -0.22135781563E+01 -0.11975788691E+02  0.13147239266E+02  0.17921198156E+02  0.00000000000E+00 0.  1.
</event>
<event>
 7    1  0.1351543E-013  0.7246155E+02  0.7816164E-02  0.1226708E+00
        -11   -1    0    0    0    0  0.00000000000E+00  0.00000000000E+00  0.45593999997E+02  0.45594000000E+02  0.51100000000E-03 0. -1.
         11   -1    0    0    0    0 -0.00000000000E+00 -0.00000000000E+00 -0.45593999997E+02  0.45594000000E+02  0.51100000000E-03 0.  1.
    9900012    2    1    2    0    0  0.11560960412E+02 -0.56261684651E+01 -0.13615079201E+02  0.72461549218E+02  0.69999972544E+02 0.  0.
         12    1    1    2    0    0 -0.11560960412E+02  0.56261684651E+01  0.13615079201E+02  0.18726450782E+02  0.00000000000E+00 0. -1.
         11    1    3    3    0    0  0.10399366306E+02 -0.10579741817E+02 -0.35188203907E+01  0.15246634176E+02  0.51100000000E-03 0.  1.
        -11    1    3    3    0    0 -0.21565448651E+02 -0.81526239870E+01 -0.18614235546E+02  0.29631463322E+02  0.51100000000E-03 0. -1.
        -12    1    3    3    0    0  0.22727042756E+02  0.13106197339E+02  0.85179767356E+01  0.27583451720E+02  0.00000000000E+00 0.  1.
</event>
<event>
 7    1  0.1351543E-013  0.7246159E+02  0.7816164E-02  0.1226708E+00
        -11   -1    0    0    0    0  0.00000000000E+00  0.00000000000E+00  0.45593999997E+02  0.45594000000E+02  0.51100000000E-03 0.  1.
         11   -1    0    0    0    0 -0.00000000000E+00 -0.00000000000E+00 -0.45593999997E+02  0.45594000000E+02  0.51100000000E-03 0. -1.
    9900012    2    1    2    0    0  0.10606067963E+02  0.14571703737E+02  0.50848144266E+01  0.72461586430E+02  0.70000021020E+02 0.  0.
         12    1    1    2    0    0 -0.10606067963E+02 -0.14571703737E+02 -0.50848144266E+01  0.18726413570E+02  0.00000000000E+00 0. -1.
         11    1    3    3    0    0 -0.20262816302E+02  0.26888026604E+02  0.20224235874E+01  0.33728888161E+02  0.51100000000E-03 0.  1.
        -11    1    3    3    0    0  0.20075477385E+02 -0.93165036878E+01 -0.74679259756E+01  0.23357909835E+02  0.51100000000E-03 0. -1.
        -12    1    3    3    0    0  0.10793406879E+02 -0.29998191794E+01  0.10530316815E+02  0.15374788434E+02  0.00000000000E+00 0.  1.
</event>
<event>
 7    1  0.1351543E-013  0.7246168E+02  0.7816164E-02  0.1226708E+00
        -11   -1    0    0    0    0  0.00000000000E+00  0.00000000000E+00  0.45593999997E+02  0.45594000000E+02  0.51100000000E-03 0.  1.
         11   -1    0    0    0    0 -0.00000000000E+00 -0.00000000000E+00 -0.45593999997E+02  0.45594000000E+02  0.51100000000E-03 0. -1.
    9900012    2    1    2    0    0 -0.11147415415E+02 -0.79251861542E+01  0.12790689995E+02  0.72461676374E+02  0.70000138188E+02 0.  0.
         12    1    1    2    0    0  0.11147415415E+02  0.79251861542E+01 -0.12790689995E+02  0.18726323626E+02  0.00000000000E+00 0. -1.
         11    1    3    3    0    0 -0.14525157077E+02 -0.25272669691E+02 -0.55277894224E+01  0.29668914331E+02  0.51100000000E-03 0. -1.
        -11    1    3    3    0    0  0.26783134881E+01  0.38749747752E+01  0.26566251816E+02  0.26980632469E+02  0.51100000000E-03 0.  1.
        -12    1    3    3    0    0  0.69942817368E+00  0.13472508762E+02 -0.82477723987E+01  0.15812129573E+02  0.00000000000E+00 0.  1.
</event>
<event>
 7    1  0.1351543E-013  0.7246156E+02  0.7816164E-02  0.1226708E+00
        -11   -1    0    0    0    0  0.00000000000E+00  0.00000000000E+00  0.45593999997E+02  0.45594000000E+02  0.51100000000E-03 0.  1.
         11   -1    0    0    0    0 -0.00000000000E+00 -0.00000000000E+00 -0.45593999997E+02  0.45594000000E+02  0.51100000000E-03 0. -1.
    9900012    2    1    2    0    0 -0.54605648791E+00  0.11680618131E+02  0.14626844966E+02  0.72461558500E+02  0.69999984635E+02 0.  0.
         12    1    1    2    0    0  0.54605648791E+00 -0.11680618131E+02 -0.14626844966E+02  0.18726441500E+02  0.00000000000E+00 0. -1.
         11    1    3    3    0    0 -0.36157933504E+01 -0.79835242961E+01  0.35397955635E+02  0.36466777828E+02  0.51100000000E-03 0. -1.
        -11    1    3    3    0    0  0.44505130550E+01  0.23801363552E+02 -0.20319275400E+02  0.31609886530E+02  0.51100000000E-03 0.  1.
        -12    1    3    3    0    0 -0.13807761924E+01 -0.41372211244E+01 -0.45183526874E+00  0.43848941420E+01  0.00000000000E+00 0.  1.
</event>
<event>
 7    1  0.1351543E-013  0.7246160E+02  0.7816164E-02  0.1226708E+00
        -11   -1    0    0    0    0  0.00000000000E+00  0.00000000000E+00  0.45593999997E+02  0.45594000000E+02  0.51100000000E-03 0. -1.
         11   -1    0    0    0    0 -0.00000000000E+00 -0.00000000000E+00 -0.45593999997E+02  0.45594000000E+02  0.51100000000E-03 0.  1.
    9900012    2    1    2    0    0 -0.76605688966E+01 -0.19420189380E+00 -0.17086719373E+02  0.72461601277E+02  0.70000040361E+02 0.  0.
         12    1    1    2    0    0  0.76605688966E+01  0.19420189380E+00  0.17086719373E+02  0.18726398723E+02  0.00000000000E+00 0. -1.
         11    1    3    3    0    0 -0.81063199586E+01 -0.16932498391E+02 -0.14955279937E+02  0.24001715007E+02  0.51100000000E-03 0. -1.
        -11    1    3    3    0    0  0.20045191107E+02  0.14301070991E+01 -0.99043138281E+01  0.22404247935E+02  0.51100000000E-03 0.  1.
        -12    1    3    3    0    0 -0.19599440045E+02  0.15308189398E+02  0.77728743925E+01  0.26055638335E+02  0.00000000000E+00 0.  1.
</event>
<event>
 7    1  0.1351543E-013  0.7246157E+02  0.7816164E-02  0.1226708E+00
        -11   -1    0    0    0    0  0.00000000000E+00  0.00000000000E+00  0.45593999997E+02  0.45594000000E+02  0.51100000000E-03 0. -1.
         11   -1    0    0    0    0 -0.00000000000E+00 -0.00000000000E+00 -0.45593999997E+02  0.45594000000E+02  0.51100000000E-03 0.  1.
    9900012    2    1    2    0    0 -0.10833747645E+02 -0.14354169504E+02 -0.52217702623E+01  0.72461570686E+02  0.70000000510E+02 0.  0.
         12    1    1    2    0    0  0.10833747645E+02  0.14354169504E+02  0.52217702623E+01  0.18726429314E+02  0.00000000000E+00 0. -1.
         11    1    3    3    0    0 -0.28772714283E+02 -0.22510775225E+02  0.73709706861E+01  0.37268422258E+02  0.51100000000E-03 0. -1.
        -11    1    3    3    0    0  0.22780655539E+02 -0.67102243159E+00 -0.89962054606E+01  0.24501841785E+02  0.51100000000E-03 0.  1.
         12    1    3    3    0    0 -0.48416889015E+01  0.88276281534E+01 -0.35965354879E+01  0.10691306644E+02  0.00000000000E+00 0. -1.
</event>
<event>
 7    1  0.1351543E-013  0.7246164E+02  0.7816164E-02  0.1226708E+00
        -11   -1    0    0    0    0  0.00000000000E+00  0.00000000000E+00  0.45593999997E+02  0.45594000000E+02  0.51100000000E-03 0.  1.
         11   -1    0    0    0    0 -0.00000000000E+00 -0.00000000000E+00 -0.45593999997E+02  0.45594000000E+02  0.51100000000E-03 0. -1.
    9900012    2    1    2    0    0 -0.47084007013E+01 -0.13578195715E+02  0.12005843770E+02  0.72461635679E+02  0.70000085176E+02 0.  0.
         12    1    1    2    0    0  0.47084007013E+01  0.13578195715E+02 -0.12005843770E+02  0.18726364321E+02  0.00000000000E+00 0. -1.
         11    1    3    3    0    0  0.13972946847E+01  0.23708466631E+02 -0.12741548599E+02  0.26951639716E+02  0.51100000000E-03 0. -1.
        -11    1    3    3    0    0 -0.67475707617E+01 -0.28588567201E+02  0.17680901698E+02  0.34284838791E+02  0.51100000000E-03 0.  1.
         12    1    3    3    0    0  0.64187537572E+00 -0.86980951453E+01  0.70664906704E+01  0.11225157173E+02  0.00000000000E+00 0. -1.
</event>
<event>
 7    1  0.1351543E-013  0.7246155E+02  0.7816164E-02  0.1226708E+00
        -11   -1    0    0    0    0  0.00000000000E+00  0.00000000000E+00  0.45593999997E+02  0.45594000000E+02  0.51100000000E-03 0. -1.
         11   -1    0    0    0    0 -0.00000000000E+00 -0.00000000000E+00 -0.45593999997E+02  0.45594000000E+02  0.51100000000E-03 0.  1.
    9900012    2    1    2    0    0  0.36040858797E+01  0.12952126240E+02 -0.13035830872E+02  0.72461550906E+02  0.69999974743E+02 0.  0.
         12    1    1    2    0    0 -0.36040858797E+01 -0.12952126240E+02  0.13035830872E+02  0.18726449094E+02  0.00000000000E+00 0. -1.
         11    1    3    3    0    0 -0.40460584634E+01 -0.30421725865E+01 -0.74820555245E+00  0.51171491033E+01  0.51100000000E-03 0. -1.
        -11    1    3    3    0    0  0.27577680411E+02  0.18424537910E+02 -0.26744181050E+02  0.42605671857E+02  0.51100000000E-03 0.  1.
        -12    1    3    3    0    0 -0.19927536068E+02 -0.24302390839E+01  0.14456555731E+02  0.24738729946E+02  0.00000000000E+00 0.  1.
</event>
<event>
 7    1  0.1351543E-013  0.7246159E+02  0.7816164E-02  0.1226708E+00
        -11   -1    0    0    0    0  0.00000000000E+00  0.00000000000E+00  0.45593999997E+02  0.45594000000E+02  0.51100000000E-03 0.  1.
         11   -1    0    0    0    0 -0.00000000000E+00 -0.00000000000E+00 -0.45593999997E+02  0.45594000000E+02  0.51100000000E-03 0. -1.
    9900012    2    1    2    0    0 -0.45300743372E+01 -0.16777745420E+02  0.69759539488E+01  0.72461594889E+02  0.70000032039E+02 0.  0.
         12    1    1    2    0    0  0.45300743372E+01  0.16777745420E+02 -0.69759539488E+01  0.18726405111E+02  0.00000000000E+00 0. -1.
         11    1    3    3    0    0  0.19163260663E+02 -0.61330119903E+01 -0.24761653933E+01  0.20272537844E+02  0.51100000000E-03 0. -1.
        -11    1    3    3    0    0 -0.32953574497E+02 -0.18168740516E+02  0.12882122900E+02  0.39774241599E+02  0.51100000000E-03 0.  1.
        -12    1    3    3    0    0  0.92602394966E+01  0.75240070865E+01 -0.34300035582E+01  0.12414815447E+02  0.00000000000E+00 0.  1.
</event>
<event>
 7    1  0.1351543E-013  0.7246159E+02  0.7816164E-02  0.1226708E+00
        -11   -1    0    0    0    0  0.00000000000E+00  0.00000000000E+00  0.45593999997E+02  0.45594000000E+02  0.51100000000E-03 0.  1.
         11   -1    0    0    0    0 -0.00000000000E+00 -0.00000000000E+00 -0.45593999997E+02  0.45594000000E+02  0.51100000000E-03 0. -1.
    9900012    2    1    2    0    0  0.16452903273E+02  0.56902783724E+01  0.68993511231E+01  0.72461592443E+02  0.70000028852E+02 0.  0.
         12    1    1    2    0    0 -0.16452903273E+02 -0.56902783724E+01 -0.68993511231E+01  0.18726407557E+02  0.00000000000E+00 0. -1.
         11    1    3    3    0    0  0.23084336235E+02  0.21823128365E+02  0.19077069914E+02  0.37054960637E+02  0.51100000000E-03 0.  1.
        -11    1    3    3    0    0 -0.89580051856E+01 -0.20872969932E+02 -0.64568217441E+00  0.22723195999E+02  0.51100000000E-03 0. -1.
         12    1    3    3    0    0  0.23265722240E+01  0.47401199392E+01 -0.11532036616E+02  0.12683435807E+02  0.00000000000E+00 0. -1.
</event>
<event>
 7    1  0.1351543E-013  0.7246159E+02  0.7816164E-02  0.1226708E+00
        -11   -1    0    0    0    0  0.00000000000E+00  0.00000000000E+00  0.45593999997E+02  0.45594000000E+02  0.51100000000E-03 0.  1.
         11   -1    0    0    0    0 -0.00000000000E+00 -0.00000000000E+00 -0.45593999997E+02  0.45594000000E+02  0.51100000000E-03 0. -1.
    9900012    2    1    2    0    0 -0.82886481113E+01  0.14438211477E+02 -0.85740754950E+01  0.72461590607E+02  0.70000026461E+02 0.  0.
         12    1    1    2    0    0  0.82886481113E+01 -0.14438211477E+02  0.85740754950E+01  0.18726409393E+02  0.00000000000E+00 0. -1.
         11    1    3    3    0    0 -0.23340533928E+02 -0.60757383793E+01 -0.17465004751E+02  0.29777869503E+02  0.51100000000E-03 0.  1.
        -11    1    3    3    0    0  0.13291752325E+02  0.29538906440E+02  0.53499116446E+01  0.32830461898E+02  0.51100000000E-03 0. -1.
         12    1    3    3    0    0  0.17601334919E+01 -0.90249565844E+01  0.35410176118E+01  0.98532592063E+01  0.00000000000E+00 0. -1.
</event>
<event>
 7    1  0.1351543E-013  0.7246145E+02  0.7816164E-02  0.1226708E+00
        -11   -1    0    0    0    0  0.00000000000E+00  0.00000000000E+00  0.45593999997E+02  0.45594000000E+02  0.51100000000E-03 0.  1.
         11   -1    0    0    0    0 -0.00000000000E+00 -0.00000000000E+00 -0.45593999997E+02  0.45594000000E+02  0.51100000000E-03 0. -1.
    9900012    2    1    2    0    0 -0.18269802184E+02  0.39171443456E+01 -0.12465335882E+01  0.72461453665E+02  0.69999848068E+02 0.  0.
         12    1    1    2    0    0  0.18269802184E+02 -0.39171443456E+01  0.12465335882E+01  0.18726546335E+02  0.00000000000E+00 0. -1.
         11    1    3    3    0    0  0.13233064826E+02 -0.18876005323E+01  0.14217791521E+02  0.19514677462E+02  0.51100000000E-03 0. -1.
        -11    1    3    3    0    0 -0.11881203567E+02  0.15949387608E+02  0.73388861102E+01  0.21199179533E+02  0.51100000000E-03 0.  1.
         12    1    3    3    0    0 -0.19621663443E+02 -0.10144642730E+02 -0.22803211220E+02  0.31747596670E+02  0.00000000000E+00 0. -1.
</event>
<event>
 7    1  0.1351543E-013  0.7246156E+02  0.7816164E-02  0.1226708E+00
        -11   -1    0    0    0    0  0.00000000000E+00  0.00000000000E+00  0.45593999997E+02  0.45594000000E+02  0.51100000000E-03 0.  1.
         11   -1    0    0    0    0 -0.00000000000E+00 -0.00000000000E+00 -0.45593999997E+02  0.45594000000E+02  0.51100000000E-03 0. -1.
    9900012    2    1    2    0    0  0.77210290168E+01 -0.36728455313E+01  0.16660592174E+02  0.72461563741E+02  0.69999991463E+02 0.  0.
         12    1    1    2    0    0 -0.77210290168E+01  0.36728455313E+01 -0.16660592174E+02  0.18726436259E+02  0.00000000000E+00 0. -1.
         11    1    3    3    0    0 -0.10620484021E+02  0.12289275246E+02  0.22524934197E+02  0.27770373201E+02  0.51100000000E-03 0. -1.
        -11    1    3    3    0    0  0.24730133777E+02 -0.29297552943E+01 -0.13462036783E+02  0.28308822253E+02  0.51100000000E-03 0.  1.
        -12    1    3    3    0    0 -0.63886207392E+01 -0.13032365483E+02  0.75976947601E+01  0.16382368287E+02  0.00000000000E+00 0.  1.
</event>
<event>
 7    1  0.1351543E-013  0.7246155E+02  0.7816164E-02  0.1226708E+00
        -11   -1    0    0    0    0  0.00000000000E+00  0.00000000000E+00  0.45593999997E+02  0.45594000000E+02  0.51100000000E-03 0.  1.
         11   -1    0    0    0    0 -0.00000000000E+00 -0.00000000000E+00 -0.45593999997E+02  0.45594000000E+02  0.51100000000E-03 0. -1.
    9900012    2    1    2    0    0  0.11034843331E+02 -0.14932829245E+02 -0.24336470594E+01  0.72461553604E+02  0.69999978258E+02 0.  0.
         12    1    1    2    0    0 -0.11034843331E+02  0.14932829245E+02  0.24336470594E+01  0.18726446396E+02  0.00000000000E+00 0. -1.
         11    1    3    3    0    0  0.16574409581E+02 -0.32931910098E+02 -0.21034299116E+02  0.42446006823E+02  0.51100000000E-03 0. -1.
        -11    1    3    3    0    0  0.85552310253E+00  0.12776913256E+02  0.17501899945E+02  0.21686353637E+02  0.51100000000E-03 0.  1.
        -12    1    3    3    0    0 -0.63950893524E+01  0.52221675967E+01  0.10987521121E+01  0.83291931444E+01  0.00000000000E+00 0.  1.
</event>
<event>
 7    1  0.1351543E-013  0.7246155E+02  0.7816164E-02  0.1226708E+00
        -11   -1    0    0    0    0  0.00000000000E+00  0.00000000000E+00  0.45593999997E+02  0.45594000000E+02  0.51100000000E-03 0. -1.
         11   -1    0    0    0    0 -0.00000000000E+00 -0.00000000000E+00 -0.45593999997E+02  0.45594000000E+02  0.51100000000E-03 0.  1.
    9900012    2    1    2    0    0 -0.13519669016E+02 -0.79798334853E+01 -0.10208862933E+02  0.72461546114E+02  0.69999968501E+02 0.  0.
         12    1    1    2    0    0  0.13519669016E+02  0.79798334853E+01  0.10208862933E+02  0.18726453886E+02  0.00000000000E+00 0. -1.
         11    1    3    3    0    0 -0.15498585876E+01 -0.13886582346E+02 -0.27635910191E+02  0.30967446831E+02  0.51100000000E-03 0.  1.
        -11    1    3    3    0    0 -0.20266514499E+02  0.13379218341E+02  0.50113999324E+01  0.24796153389E+02  0.51100000000E-03 0. -1.
        -12    1    3    3    0    0  0.82967040706E+01 -0.74724694798E+01  0.12415647325E+02  0.16697945894E+02  0.00000000000E+00 0.  1.
</event>
<event>
 7    1  0.1351543E-013  0.7246156E+02  0.7816164E-02  0.1226708E+00
        -11   -1    0    0    0    0  0.00000000000E+00  0.00000000000E+00  0.45593999997E+02  0.45594000000E+02  0.51100000000E-03 0.  1.
         11   -1    0    0    0    0 -0.00000000000E+00 -0.00000000000E+00 -0.45593999997E+02  0.45594000000E+02  0.51100000000E-03 0. -1.
    9900012    2    1    2    0    0  0.39223277003E+01  0.10363684606E+02  0.15095991615E+02  0.72461559441E+02  0.69999985861E+02 0.  0.
         12    1    1    2    0    0 -0.39223277003E+01 -0.10363684606E+02 -0.15095991615E+02  0.18726440559E+02  0.00000000000E+00 0. -1.
         11    1    3    3    0    0 -0.69366385956E+01 -0.83848423348E+01 -0.15719698593E+02  0.19118877062E+02  0.51100000000E-03 0. -1.
        -11    1    3    3    0    0  0.10576526327E+02 -0.92491609015E+01  0.17197834850E+02  0.22207553002E+02  0.51100000000E-03 0.  1.
         12    1    3    3    0    0  0.28243996888E+00  0.27997687842E+02  0.13617855357E+02  0.31135129377E+02  0.00000000000E+00 0. -1.
</event>
<event>
 7    1  0.1351543E-013  0.7246165E+02  0.7816164E-02  0.1226708E+00
        -11   -1    0    0    0    0  0.00000000000E+00  0.00000000000E+00  0.45593999997E+02  0.45594000000E+02  0.51100000000E-03 0.  1.
         11   -1    0    0    0    0 -0.00000000000E+00 -0.00000000000E+00 -0.45593999997E+02  0.45594000000E+02  0.51100000000E-03 0. -1.
    9900012    2    1    2    0    0  0.15457009002E+02  0.76051768898E+01 -0.73429126822E+01  0.72461649329E+02  0.70000102957E+02 0.  0.
         12    1    1    2    0    0 -0.15457009002E+02 -0.76051768898E+01  0.73429126822E+01  0.18726350671E+02  0.00000000000E+00 0. -1.
         11    1    3    3    0    0  0.14490041126E+02 -0.10907408875E+02 -0.22054779454E+01  0.18270112026E+02  0.51100000000E-03 0. -1.
        -11    1    3    3    0    0  0.21855881126E+02  0.23771926007E+02 -0.13507286588E+01  0.32320403371E+02  0.51100000000E-03 0.  1.
        -12    1    3    3    0    0 -0.20888913250E+02 -0.52593402424E+01 -0.37867060779E+01  0.21871133932E+02  0.00000000000E+00 0.  1.
</event>
<event>
 7    1  0.1351543E-013  0.7246160E+02  0.7816164E-02  0.1226708E+00
        -11   -1    0    0    0    0  0.00000000000E+00  0.00000000000E+00  0.45593999997E+02  0.45594000000E+02  0.51100000000E-03 0. -1.
         11   -1    0    0    0    0 -0.00000000000E+00 -0.00000000000E+00 -0.45593999997E+02  0.45594000000E+02  0.51100000000E-03 0.  1.
    9900012    2    1    2    0    0 -0.79267426997E+00 -0.14957011332E+02 -0.11240003861E+02  0.72461595986E+02  0.70000033468E+02 0.  0.
         12    1    1    2    0    0  0.79267426997E+00  0.14957011332E+02  0.11240003861E+02  0.18726404014E+02  0.00000000000E+00 0. -1.
         11    1    3    3    0    0  0.92852535965E+01 -0.15706079828E+02 -0.57106636788E+01  0.19118278108E+02  0.51100000000E-03 0. -1.
        -11    1    3    3    0    0 -0.21240136094E+02 -0.56594157670E+01 -0.22887778602E+02  0.31733622197E+02  0.51100000000E-03 0.  1.
        -12    1    3    3    0    0  0.11162208228E+02  0.64084842628E+01  0.17358438420E+02  0.21609695681E+02  0.00000000000E+00 0.  1.
</event>
<event>
 7    1  0.1351543E-013  0.7246153E+02  0.7816164E-02  0.1226708E+00
        -11   -1    0    0    0    0  0.00000000000E+00  0.00000000000E+00  0.45593999997E+02  0.45594000000E+02  0.51100000000E-03 0.  1.
         11   -1    0    0    0    0 -0.00000000000E+00 -0.00000000000E+00 -0.45593999997E+02  0.45594000000E+02  0.51100000000E-03 0. -1.
    9900012    2    1    2    0    0 -0.44745916208E+01 -0.14097029929E+01  0.18129296141E+02  0.72461531800E+02  0.69999949854E+02 0.  0.
         12    1    1    2    0    0  0.44745916208E+01  0.14097029929E+01 -0.18129296141E+02  0.18726468200E+02  0.00000000000E+00 0. -1.
         11    1    3    3    0    0 -0.24162156195E+02  0.80504017463E+01 -0.10842646488E+02  0.27679988139E+02  0.51100000000E-03 0. -1.
        -11    1    3    3    0    0  0.24057155237E+02 -0.11423520221E+02  0.16274805908E+02  0.31210780829E+02  0.51100000000E-03 0.  1.
         12    1    3    3    0    0 -0.43695906629E+01  0.19634154821E+01  0.12697136721E+02  0.13570762832E+02  0.00000000000E+00 0. -1.
</event>
<event>
 7    1  0.1351543E-013  0.7246149E+02  0.7816164E-02  0.1226708E+00
        -11   -1    0    0    0    0  0.00000000000E+00  0.00000000000E+00  0.45593999997E+02  0.45594000000E+02  0.51100000000E-03 0.  1.
         11   -1    0    0    0    0 -0.00000000000E+00 -0.00000000000E+00 -0.45593999997E+02  0.45594000000E+02  0.51100000000E-03 0. -1.
    9900012    2    1    2    0    0  0.87231618080E+01  0.59074534254E+01  0.15481942960E+02  0.72461491630E+02  0.69999897525E+02 0.  0.
         12    1    1    2    0    0 -0.87231618080E+01 -0.59074534254E+01 -0.15481942960E+02  0.18726508370E+02  0.00000000000E+00 0. -1.
         11    1    3    3    0    0  0.20888873507E+02  0.19249863134E+01  0.14084099838E+02  0.25266825626E+02  0.51100000000E-03 0. -1.
        -11    1    3    3    0    0 -0.10714549429E+02 -0.78504391676E+01 -0.19228943454E+02  0.23370563348E+02  0.51100000000E-03 0.  1.
        -12    1    3    3    0    0 -0.14511622698E+01  0.11832906280E+02  0.20626786575E+02  0.23824102656E+02  0.00000000000E+00 0.  1.
</event>
<event>
 7    1  0.1351543E-013  0.7246158E+02  0.7816164E-02  0.1226708E+00
        -11   -1    0    0    0    0  0.00000000000E+00  0.00000000000E+00  0.45593999997E+02  0.45594000000E+02  0.51100000000E-03 0.  1.
         11   -1    0    0    0    0 -0.00000000000E+00 -0.00000000000E+00 -0.45593999997E+02  0.45594000000E+02  0.51100000000E-03 0. -1.
    9900012    2    1    2    0    0  0.10676887369E+02  0.17151837572E+01  0.15288587787E+02  0.72461582945E+02  0.70000016479E+02 0.  0.
         12    1    1    2    0    0 -0.10676887369E+02 -0.17151837572E+01 -0.15288587787E+02  0.18726417055E+02  0.00000000000E+00 0. -1.
         11    1    3    3    0    0 -0.25723402082E+02  0.70898417208E+01  0.11868434631E+02  0.29203065099E+02  0.51100000000E-03 0. -1.
        -11    1    3    3    0    0  0.37332032019E+02 -0.84134560348E+01 -0.42378909647E+00  0.38270699688E+02  0.51100000000E-03 0.  1.
        -12    1    3    3    0    0 -0.93174256847E+00  0.30387980713E+01  0.38439422532E+01  0.49878181580E+01  0.00000000000E+00 0.  1.
</event>
<event>
 7    1  0.1351543E-013  0.7246155E+02  0.7816164E-02  0.1226708E+00
        -11   -1    0    0    0    0  0.00000000000E+00  0.00000000000E+00  0.45593999997E+02  0.45594000000E+02  0.51100000000E-03 0. -1.
         11   -1    0    0    0    0 -0.00000000000E+00 -0.00000000000E+00 -0.45593999997E+02  0.45594000000E+02  0.51100000000E-03 0.  1.
    9900012    2    1    2    0    0 -0.41429760027E+01  0.17161928357E+02 -0.62437070671E+01  0.72461550442E+02  0.69999974139E+02 0.  0.
         12    1    1    2    0    0  0.41429760027E+01 -0.17161928357E+02  0.62437070671E+01  0.18726449558E+02  0.00000000000E+00 0. -1.
         11    1    3    3    0    0  0.27151720546E+02  0.12643540780E+02 -0.38024844248E+01  0.30191620362E+02  0.51100000000E-03 0. -1.
        -11    1    3    3    0    0 -0.20453573819E+02  0.15592075136E+02 -0.59106295527E+01  0.26389335554E+02  0.51100000000E-03 0.  1.
         12    1    3    3    0    0 -0.10841122729E+02 -0.11073687558E+02  0.34694069104E+01  0.15880594526E+02  0.00000000000E+00 0. -1.
</event>
<event>
 7    1  0.1351543E-013  0.7246159E+02  0.7816164E-02  0.1226708E+00
        -11   -1    0    0    0    0  0.00000000000E+00  0.00000000000E+00  0.45593999997E+02  0.45594000000E+02  0.51100000000E-03 0. -1.
         11   -1    0    0    0    0 -0.00000000000E+00 -0.00000000000E+00 -0.45593999997E+02  0.45594000000E+02  0.51100000000E-03 0.  1.
    9900012    2    1    2    0    0  0.55194223104E+01  0.14089054357E+01 -0.17838982074E+02  0.72461593014E+02  0.70000029597E+02 0.  0.
         12    1    1    2    0    0 -0.55194223104E+01 -0.14089054357E+01  0.17838982074E+02  0.18726406986E+02  0.00000000000E+00 0. -1.
         11    1    3    3    0    0 -0.94464889841E+00 -0.24827055330E+02 -0.98043981658E+01  0.26709572470E+02  0.51100000000E-03 0. -1.
        -11    1    3    3    0    0 -0.35013394847E+01  0.28859329219E+02 -0.15577476498E+02  0.32981480189E+02  0.51100000000E-03 0.  1.
         12    1    3    3    0    0  0.99654106935E+01 -0.26233684535E+01  0.75428925895E+01  0.12770540355E+02  0.00000000000E+00 0. -1.
</event>
<event>
 7    1  0.1351543E-013  0.7246160E+02  0.7816164E-02  0.1226708E+00
        -11   -1    0    0    0    0  0.00000000000E+00  0.00000000000E+00  0.45593999997E+02  0.45594000000E+02  0.51100000000E-03 0.  1.
         11   -1    0    0    0    0 -0.00000000000E+00 -0.00000000000E+00 -0.45593999997E+02  0.45594000000E+02  0.51100000000E-03 0. -1.
    9900012    2    1    2    0    0  0.17208075901E+02 -0.10417526983E+01 -0.73126474750E+01  0.72461603177E+02  0.70000042835E+02 0.  0.
         12    1    1    2    0    0 -0.17208075901E+02  0.10417526983E+01  0.73126474750E+01  0.18726396823E+02  0.00000000000E+00 0. -1.
         11    1    3    3    0    0  0.21528059270E+02  0.34158808954E+00 -0.23935040419E+02  0.32194101610E+02  0.51100000000E-03 0. -1.
        -11    1    3    3    0    0  0.44868081115E+00 -0.17250436810E+02  0.16237826951E+02  0.23694849840E+02  0.51100000000E-03 0.  1.
         12    1    3    3    0    0 -0.47686641803E+01  0.15867096022E+02  0.38456599334E+00  0.16572651726E+02  0.00000000000E+00 0. -1.
</event>
<event>
 7    1  0.1351543E-013  0.7246231E+02  0.7816164E-02  0.1226706E+00
        -11   -1    0    0    0    0  0.00000000000E+00  0.00000000000E+00  0.45593999997E+02  0.45594000000E+02  0.51100000000E-03 0. -1.
         11   -1    0    0    0    0 -0.00000000000E+00 -0.00000000000E+00 -0.45593999997E+02  0.45594000000E+02  0.51100000000E-03 0.  1.
    9900012    2    1    2    0    0 -0.60874513062E+01  0.11646834708E+02 -0.13339625772E+02  0.72462310751E+02  0.70000964576E+02 0.  0.
         12    1    1    2    0    0  0.60874513062E+01 -0.11646834708E+02  0.13339625772E+02  0.18725689249E+02  0.00000000000E+00 0. -1.
         11    1    3    3    0    0  0.12528225672E+02  0.65377598661E+00  0.14096655705E+01  0.12624223493E+02  0.51100000000E-03 0. -1.
        -11    1    3    3    0    0 -0.21273282694E+02  0.23216394872E+02  0.92114997331E+01  0.32808615866E+02  0.51100000000E-03 0.  1.
        -12    1    3    3    0    0  0.26576057154E+01 -0.12223336151E+02 -0.23960791075E+02  0.27029471392E+02  0.00000000000E+00 0.  1.
</event>
<event>
 7    1  0.1351543E-013  0.7246153E+02  0.7816164E-02  0.1226708E+00
        -11   -1    0    0    0    0  0.00000000000E+00  0.00000000000E+00  0.45593999997E+02  0.45594000000E+02  0.51100000000E-03 0.  1.
         11   -1    0    0    0    0 -0.00000000000E+00 -0.00000000000E+00 -0.45593999997E+02  0.45594000000E+02  0.51100000000E-03 0. -1.
    9900012    2    1    2    0    0  0.12393029472E+02 -0.14038588200E+02 -0.10803314157E+00  0.72461526512E+02  0.69999942965E+02 0.  0.
         12    1    1    2    0    0 -0.12393029472E+02  0.14038588200E+02  0.10803314157E+00  0.18726473488E+02  0.00000000000E+00 0. -1.
         11    1    3    3    0    0 -0.25503009766E+02  0.45571832644E+01  0.62487305685E+01  0.26649916705E+02  0.51100000000E-03 0. -1.
        -11    1    3    3    0    0  0.43089045016E+01  0.39018360963E+00  0.39696281016E+01  0.58716989687E+01  0.51100000000E-03 0.  1.
         12    1    3    3    0    0  0.33587134736E+02 -0.18985955074E+02 -0.10326391812E+02  0.39939910838E+02  0.00000000000E+00 0. -1.
</event>
<event>
 7    1  0.1351543E-013  0.7246156E+02  0.7816164E-02  0.1226708E+00
        -11   -1    0    0    0    0  0.00000000000E+00  0.00000000000E+00  0.45593999997E+02  0.45594000000E+02  0.51100000000E-03 0. -1.
         11   -1    0    0    0    0 -0.00000000000E+00 -0.00000000000E+00 -0.45593999997E+02  0.45594000000E+02  0.51100000000E-03 0.  1.
    9900012    2    1    2    0    0 -0.12948542973E+02  0.69747865442E+01  0.11591689989E+02  0.72461556417E+02  0.69999981923E+02 0.  0.
         12    1    1    2    0    0  0.12948542973E+02 -0.69747865442E+01 -0.11591689989E+02  0.18726443583E+02  0.00000000000E+00 0. -1.
         11    1    3    3    0    0 -0.20910992461E+02 -0.17606560543E+02 -0.39323388309E+01  0.27617455871E+02  0.51100000000E-03 0.  1.
        -11    1    3    3    0    0  0.10444309621E+02  0.49368568256E+01  0.21288874699E+02  0.24221320051E+02  0.51100000000E-03 0. -1.
         12    1    3    3    0    0 -0.24818601335E+01  0.19644490261E+02 -0.57648458797E+01  0.20622780496E+02  0.00000000000E+00 0. -1.
</event>
<event>
 7    1  0.1351543E-013  0.7246158E+02  0.7816164E-02  0.1226708E+00
        -11   -1    0    0    0    0  0.00000000000E+00  0.00000000000E+00  0.45593999997E+02  0.45594000000E+02  0.51100000000E-03 0. -1.
         11   -1    0    0    0    0 -0.00000000000E+00 -0.00000000000E+00 -0.45593999997E+02  0.45594000000E+02  0.51100000000E-03 0.  1.
    9900012    2    1    2    0    0  0.14838035042E+02  0.41894036181E+01 -0.10628283835E+02  0.72461580057E+02  0.70000012718E+02 0.  0.
         12    1    1    2    0    0 -0.14838035042E+02 -0.41894036181E+01  0.10628283835E+02  0.18726419943E+02  0.00000000000E+00 0. -1.
         11    1    3    3    0    0  0.16220765987E+02 -0.12170498260E+02  0.46202873426E+01  0.20798589675E+02  0.51100000000E-03 0. -1.
        -11    1    3    3    0    0 -0.22836857411E+02  0.15452216447E+02 -0.56708250856E+01  0.28150511664E+02  0.51100000000E-03 0.  1.
        -12    1    3    3    0    0  0.21454126466E+02  0.90768543098E+00 -0.95777460924E+01  0.23512478718E+02  0.00000000000E+00 0.  1.
</event>
<event>
 7    1  0.1351543E-013  0.7246162E+02  0.7816164E-02  0.1226708E+00
        -11   -1    0    0    0    0  0.00000000000E+00  0.00000000000E+00  0.45593999997E+02  0.45594000000E+02  0.51100000000E-03 0. -1.
         11   -1    0    0    0    0 -0.00000000000E+00 -0.00000000000E+00 -0.45593999997E+02  0.45594000000E+02  0.51100000000E-03 0.  1.
    9900012    2    1    2    0    0  0.54191210411E+00  0.15017276459E+02 -0.11174307216E+02  0.72461617468E+02  0.70000061453E+02 0.  0.
         12    1    1    2    0    0 -0.54191210411E+00 -0.15017276459E+02  0.11174307216E+02  0.18726382532E+02  0.00000000000E+00 0. -1.
         11    1    3    3    0    0  0.65449697807E+00  0.22658138868E+02  0.20710596685E+01  0.22762005880E+02  0.51100000000E-03 0. -1.
        -11    1    3    3    0    0 -0.19851917191E+02 -0.16925155812E+02 -0.70680979283E+01  0.27028087686E+02  0.51100000000E-03 0.  1.
         12    1    3    3    0    0  0.19739332317E+02  0.92842934024E+01 -0.61772689558E+01  0.22671523902E+02  0.00000000000E+00 0. -1.
</event>
<event>
 7    1  0.1351543E-013  0.7246156E+02  0.7816164E-02  0.1226708E+00
        -11   -1    0    0    0    0  0.00000000000E+00  0.00000000000E+00  0.45593999997E+02  0.45594000000E+02  0.51100000000E-03 0.  1.
         11   -1    0    0    0    0 -0.00000000000E+00 -0.00000000000E+00 -0.45593999997E+02  0.45594000000E+02  0.51100000000E-03 0. -1.
    9900012    2    1    2    0    0 -0.19451852217E+01 -0.16977938894E+02  0.76580371468E+01  0.72461556462E+02  0.69999981981E+02 0.  0.
         12    1    1    2    0    0  0.19451852217E+01  0.16977938894E+02 -0.76580371468E+01  0.18726443538E+02  0.00000000000E+00 0. -1.
         11    1    3    3    0    0 -0.40256600670E+01 -0.10754214017E+02 -0.23665401216E+02  0.26304187368E+02  0.51100000000E-03 0. -1.
        -11    1    3    3    0    0 -0.11890053666E+02 -0.83901383821E+01  0.28118736166E+02  0.31661192683E+02  0.51100000000E-03 0.  1.
         12    1    3    3    0    0  0.13970528512E+02  0.21664135047E+01  0.32047021970E+01  0.14496176411E+02  0.00000000000E+00 0. -1.
</event>
<event>
 7    1  0.1351543E-013  0.7246160E+02  0.7816164E-02  0.1226708E+00
        -11   -1    0    0    0    0  0.00000000000E+00  0.00000000000E+00  0.45593999997E+02  0.45594000000E+02  0.51100000000E-03 0. -1.
         11   -1    0    0    0    0 -0.00000000000E+00 -0.00000000000E+00 -0.45593999997E+02  0.45594000000E+02  0.51100000000E-03 0.  1.
    9900012    2    1    2    0    0 -0.10833406382E+02 -0.13606085523E+02 -0.69418947408E+01  0.72461597258E+02  0.70000035125E+02 0.  0.
         12    1    1    2    0    0  0.10833406382E+02  0.13606085523E+02  0.69418947408E+01  0.18726402742E+02  0.00000000000E+00 0. -1.
         11    1    3    3    0    0  0.52575643397E+01 -0.48312463429E+01  0.77696197584E+01  0.10552246939E+02  0.51100000000E-03 0. -1.
        -11    1    3    3    0    0 -0.18870286898E+02  0.20858820405E+02 -0.15537915384E+02  0.32134170769E+02  0.51100000000E-03 0.  1.
        -12    1    3    3    0    0  0.27793161763E+01 -0.29633659584E+02  0.82640088454E+00  0.29775179549E+02  0.00000000000E+00 0.  1.
</event>
<event>
 7    1  0.1507907E-013  0.7246139E+02  0.7816164E-02  0.1226708E+00
        -11   -1    0    0    0    0  0.00000000000E+00  0.00000000000E+00  0.45593999997E+02  0.45594000000E+02  0.51100000000E-03 0. -1.
         11   -1    0    0    0    0 -0.00000000000E+00 -0.00000000000E+00 -0.45593999997E+02  0.45594000000E+02  0.51100000000E-03 0.  1.
    9900012    2    1    2    0    0 -0.11765863016E+02  0.63599280447E+01 -0.13107313893E+02  0.72461390731E+02  0.69999766085E+02 0.  0.
         12    1    1    2    0    0  0.11765863016E+02 -0.63599280447E+01  0.13107313893E+02  0.18726609269E+02  0.00000000000E+00 0. -1.
         11    1    3    3    0    0 -0.25402385279E+02 -0.84929243895E+01  0.17549150406E+02  0.32021611808E+02  0.51100000000E-03 0. -1.
        -11    1    3    3    0    0  0.41834225034E+00  0.10577751654E+02 -0.21011536726E+02  0.23527611782E+02  0.51100000000E-03 0.  1.
         12    1    3    3    0    0  0.13218180013E+02  0.42751007803E+01 -0.96449275723E+01  0.16912167141E+02  0.00000000000E+00 0. -1.
</event>
<event>
 7    1  0.1351543E-013  0.7246177E+02  0.7816164E-02  0.1226707E+00
        -11   -1    0    0    0    0  0.00000000000E+00  0.00000000000E+00  0.45593999997E+02  0.45594000000E+02  0.51100000000E-03 0.  1.
         11   -1    0    0    0    0 -0.00000000000E+00 -0.00000000000E+00 -0.45593999997E+02  0.45594000000E+02  0.51100000000E-03 0. -1.
    9900012    2    1    2    0    0  0.73456618870E+00 -0.17758485191E+02  0.58964781358E+01  0.72461766044E+02  0.70000255000E+02 0.  0.
         12    1    1    2    0    0 -0.73456618870E+00  0.17758485191E+02 -0.58964781358E+01  0.18726233956E+02  0.00000000000E+00 0. -1.
         11    1    3    3    0    0 -0.22367283319E+02 -0.52347557266E-01 -0.10002302911E+02  0.24501921703E+02  0.51100000000E-03 0. -1.
        -11    1    3    3    0    0  0.11452067318E+02 -0.24822021804E+02  0.44494707966E+00  0.27340091266E+02  0.51100000000E-03 0.  1.
         12    1    3    3    0    0  0.11649782189E+02  0.71158841701E+01  0.15453833968E+02  0.20619753075E+02  0.00000000000E+00 0. -1.
</event>
<event>
 7    1  0.1351543E-013  0.7246134E+02  0.7816164E-02  0.1226709E+00
        -11   -1    0    0    0    0  0.00000000000E+00  0.00000000000E+00  0.45593999997E+02  0.45594000000E+02  0.51100000000E-03 0.  1.
         11   -1    0    0    0    0 -0.00000000000E+00 -0.00000000000E+00 -0.45593999997E+02  0.45594000000E+02  0.51100000000E-03 0. -1.
    9900012    2    1    2    0    0 -0.50271441583E+01 -0.11250551900E+02  0.14101091667E+02  0.72461337653E+02  0.69999696941E+02 0.  0.
         12    1    1    2    0    0  0.50271441583E+01  0.11250551900E+02 -0.14101091667E+02  0.18726662347E+02  0.00000000000E+00 0. -1.
         11    1    3    3    0    0 -0.32039144288E+01  0.37453805262E+01 -0.19904273592E+02  0.20505439533E+02  0.51100000000E-03 0. -1.
        -11    1    3    3    0    0  0.85244989794E+01 -0.16915881428E+02  0.36515543417E+02  0.41136346929E+02  0.51100000000E-03 0.  1.
        -12    1    3    3    0    0 -0.10347728709E+02  0.19199490019E+01 -0.25101781585E+01  0.10819551192E+02  0.00000000000E+00 0.  1.
</event>
<event>
 7    1  0.1351543E-013  0.7246160E+02  0.7816164E-02  0.1226708E+00
        -11   -1    0    0    0    0  0.00000000000E+00  0.00000000000E+00  0.45593999997E+02  0.45594000000E+02  0.51100000000E-03 0.  1.
         11   -1    0    0    0    0 -0.00000000000E+00 -0.00000000000E+00 -0.45593999997E+02  0.45594000000E+02  0.51100000000E-03 0. -1.
    9900012    2    1    2    0    0  0.55135668361E+01 -0.38694997244E+01  0.17472996133E+02  0.72461600420E+02  0.70000039244E+02 0.  0.
         12    1    1    2    0    0 -0.55135668361E+01  0.38694997244E+01 -0.17472996133E+02  0.18726399580E+02  0.00000000000E+00 0. -1.
         11    1    3    3    0    0  0.10496622137E+02 -0.64232900618E+01 -0.19749560573E+02  0.23269784584E+02  0.51100000000E-03 0. -1.
        -11    1    3    3    0    0 -0.33775394846E+01 -0.13792031373E+02  0.24879376486E+02  0.28646313497E+02  0.51100000000E-03 0.  1.
         12    1    3    3    0    0 -0.16055158160E+01  0.16345821711E+02  0.12343180219E+02  0.20545502339E+02  0.00000000000E+00 0. -1.
</event>
<event>
 7    1  0.1351543E-013  0.7246161E+02  0.7816164E-02  0.1226708E+00
        -11   -1    0    0    0    0  0.00000000000E+00  0.00000000000E+00  0.45593999997E+02  0.45594000000E+02  0.51100000000E-03 0.  1.
         11   -1    0    0    0    0 -0.00000000000E+00 -0.00000000000E+00 -0.45593999997E+02  0.45594000000E+02  0.51100000000E-03 0. -1.
    9900012    2    1    2    0    0 -0.84263604833E+01 -0.64909525924E+01  0.15412392708E+02  0.72461605111E+02  0.70000045355E+02 0.  0.
         12    1    1    2    0    0  0.84263604833E+01  0.64909525924E+01 -0.15412392708E+02  0.18726394889E+02  0.00000000000E+00 0. -1.
         11    1    3    3    0    0  0.12599029408E+02 -0.19463265256E+02  0.10155272298E+02  0.25311732302E+02  0.51100000000E-03 0. -1.
        -11    1    3    3    0    0 -0.25901938681E+02  0.10767490332E+01 -0.94707199482E+01  0.27600078850E+02  0.51100000000E-03 0.  1.
        -12    1    3    3    0    0  0.48765487896E+01  0.11895563630E+02  0.14727840359E+02  0.19549793958E+02  0.00000000000E+00 0.  1.
</event>
<event>
 7    1  0.1351543E-013  0.7246158E+02  0.7816164E-02  0.1226708E+00
        -11   -1    0    0    0    0  0.00000000000E+00  0.00000000000E+00  0.45593999997E+02  0.45594000000E+02  0.51100000000E-03 0. -1.
         11   -1    0    0    0    0 -0.00000000000E+00 -0.00000000000E+00 -0.45593999997E+02  0.45594000000E+02  0.51100000000E-03 0.  1.
    9900012    2    1    2    0    0 -0.10017830833E+01 -0.11930511309E+02 -0.14399242905E+02  0.72461578407E+02  0.70000010568E+02 0.  0.
         12    1    1    2    0    0  0.10017830833E+01  0.11930511309E+02  0.14399242905E+02  0.18726421593E+02  0.00000000000E+00 0. -1.
         11    1    3    3    0    0 -0.10016626077E+02 -0.21050743433E+02 -0.31137026263E+02  0.38897056467E+02  0.51100000000E-03 0.  1.
        -11    1    3    3    0    0  0.10657705379E+02  0.16081652339E+02  0.17900551496E+02  0.26317978076E+02  0.51100000000E-03 0. -1.
        -12    1    3    3    0    0 -0.16428623843E+01 -0.69614202160E+01 -0.11627681371E+01  0.72465438643E+01  0.00000000000E+00 0.  1.
</event>
<event>
 7    1  0.1351543E-013  0.7246155E+02  0.7816164E-02  0.1226708E+00
        -11   -1    0    0    0    0  0.00000000000E+00  0.00000000000E+00  0.45593999997E+02  0.45594000000E+02  0.51100000000E-03 0.  1.
         11   -1    0    0    0    0 -0.00000000000E+00 -0.00000000000E+00 -0.45593999997E+02  0.45594000000E+02  0.51100000000E-03 0. -1.
    9900012    2    1    2    0    0  0.18628945263E+02 -0.80584483824E+00 -0.17299717909E+01  0.72461553730E+02  0.69999978421E+02 0.  0.
         12    1    1    2    0    0 -0.18628945263E+02  0.80584483824E+00  0.17299717909E+01  0.18726446270E+02  0.00000000000E+00 0. -1.
         11    1    3    3    0    0  0.15432685599E+02 -0.22944490389E+02 -0.20455542072E+01  0.27727273871E+02  0.51100000000E-03 0. -1.
        -11    1    3    3    0    0 -0.16966179589E+02  0.65593915650E+01 -0.46496414475E+01  0.18774877720E+02  0.51100000000E-03 0.  1.
         12    1    3    3    0    0  0.20162439253E+02  0.15579253986E+02  0.49652238638E+01  0.25959402139E+02  0.00000000000E+00 0. -1.
</event>
<event>
 7    1  0.1351543E-013  0.7246155E+02  0.7816164E-02  0.1226708E+00
        -11   -1    0    0    0    0  0.00000000000E+00  0.00000000000E+00  0.45593999997E+02  0.45594000000E+02  0.51100000000E-03 0.  1.
         11   -1    0    0    0    0 -0.00000000000E+00 -0.00000000000E+00 -0.45593999997E+02  0.45594000000E+02  0.51100000000E-03 0. -1.
    9900012    2    1    2    0    0  0.27785905459E+01 -0.18518969697E+02 -0.83967655439E-01  0.72461552002E+02  0.69999976170E+02 0.  0.
         12    1    1    2    0    0 -0.27785905459E+01  0.18518969697E+02  0.83967655439E-01  0.18726447998E+02  0.00000000000E+00 0. -1.
         11    1    3    3    0    0 -0.21968165751E+02 -0.61397604560E+01  0.10215480333E+02  0.24993059108E+02  0.51100000000E-03 0. -1.
        -11    1    3    3    0    0  0.14874048586E+02  0.91354750845E+01  0.62989874101E+01  0.18557248423E+02  0.51100000000E-03 0.  1.
        -12    1    3    3    0    0  0.98727077103E+01 -0.21514684326E+02 -0.16598435398E+02  0.28911244471E+02  0.00000000000E+00 0.  1.
</event>
<event>
 7    1  0.1351543E-013  0.7246151E+02  0.7816164E-02  0.1226708E+00
        -11   -1    0    0    0    0  0.00000000000E+00  0.00000000000E+00  0.45593999997E+02  0.45594000000E+02  0.51100000000E-03 0. -1.
         11   -1    0    0    0    0 -0.00000000000E+00 -0.00000000000E+00 -0.45593999997E+02  0.45594000000E+02  0.51100000000E-03 0.  1.
    9900012    2    1    2    0    0  0.45109235421E+01  0.76186080814E+01 -0.16501202329E+02  0.72461513447E+02  0.69999925946E+02 0.  0.
         12    1    1    2    0    0 -0.45109235421E+01 -0.76186080814E+01  0.16501202329E+02  0.18726486553E+02  0.00000000000E+00 0. -1.
         11    1    3    3    0    0 -0.71502974520E+01 -0.41564137647E+01  0.25740443354E+02  0.27036511487E+02  0.51100000000E-03 0. -1.
        -11    1    3    3    0    0  0.38516691473E+01  0.36399515267E+01 -0.16253835040E+02  0.17095957303E+02  0.51100000000E-03 0.  1.
         12    1    3    3    0    0  0.78095518468E+01  0.81350703193E+01 -0.25987810644E+02  0.28329044658E+02  0.00000000000E+00 0. -1.
</event>
<event>
 7    1  0.1351543E-013  0.7246198E+02  0.7816164E-02  0.1226707E+00
        -11   -1    0    0    0    0  0.00000000000E+00  0.00000000000E+00  0.45593999997E+02  0.45594000000E+02  0.51100000000E-03 0.  1.
         11   -1    0    0    0    0 -0.00000000000E+00 -0.00000000000E+00 -0.45593999997E+02  0.45594000000E+02  0.51100000000E-03 0. -1.
    9900012    2    1    2    0    0 -0.15156147560E+02 -0.39569204015E+01 -0.10261475166E+02  0.72461977985E+02  0.70000531091E+02 0.  0.
         12    1    1    2    0    0  0.15156147560E+02  0.39569204015E+01  0.10261475166E+02  0.18726022015E+02  0.00000000000E+00 0. -1.
         11    1    3    3    0    0  0.36664293260E+01 -0.15325736506E+02 -0.95433661510E+01  0.18422723501E+02  0.51100000000E-03 0. -1.
        -11    1    3    3    0    0 -0.25015117466E+02  0.11460527862E+02 -0.19851125603E+02  0.33928851862E+02  0.51100000000E-03 0.  1.
        -12    1    3    3    0    0  0.61925405802E+01 -0.91711757702E-01  0.19133016587E+02  0.20110402622E+02  0.00000000000E+00 0.  1.
</event>
<event>
 7    1  0.1351543E-013  0.7246157E+02  0.7816164E-02  0.1226708E+00
        -11   -1    0    0    0    0  0.00000000000E+00  0.00000000000E+00  0.45593999997E+02  0.45594000000E+02  0.51100000000E-03 0.  1.
         11   -1    0    0    0    0 -0.00000000000E+00 -0.00000000000E+00 -0.45593999997E+02  0.45594000000E+02  0.51100000000E-03 0. -1.
    9900012    2    1    2    0    0  0.10699569056E+02  0.11743461434E+02 -0.99141051359E+01  0.72461570947E+02  0.70000000850E+02 0.  0.
         12    1    1    2    0    0 -0.10699569056E+02 -0.11743461434E+02  0.99141051359E+01  0.18726429053E+02  0.00000000000E+00 0. -1.
         11    1    3    3    0    0  0.18538177057E+01 -0.18595226081E+02 -0.25267623707E+02  0.31427247432E+02  0.51100000000E-03 0. -1.
        -11    1    3    3    0    0  0.29421605111E+01  0.18699829971E+02  0.19659617500E+02  0.27291766340E+02  0.51100000000E-03 0.  1.
         12    1    3    3    0    0  0.59035908388E+01  0.11638857544E+02 -0.43060989295E+01  0.13742557175E+02  0.00000000000E+00 0. -1.
</event>
<event>
 7    1  0.1351543E-013  0.7246156E+02  0.7816164E-02  0.1226708E+00
        -11   -1    0    0    0    0  0.00000000000E+00  0.00000000000E+00  0.45593999997E+02  0.45594000000E+02  0.51100000000E-03 0.  1.
         11   -1    0    0    0    0 -0.00000000000E+00 -0.00000000000E+00 -0.45593999997E+02  0.45594000000E+02  0.51100000000E-03 0. -1.
    9900012    2    1    2    0    0 -0.17993697135E+02 -0.16206174029E+01 -0.49274586347E+01  0.72461564516E+02  0.69999992473E+02 0.  0.
         12    1    1    2    0    0  0.17993697135E+02  0.16206174029E+01  0.49274586347E+01  0.18726435484E+02  0.00000000000E+00 0. -1.
         11    1    3    3    0    0  0.63202479776E+01  0.14584192733E+02 -0.28830232540E+01  0.16154133698E+02  0.51100000000E-03 0. -1.
        -11    1    3    3    0    0 -0.27961716302E+02  0.87436086634E+01  0.58732235939E+01  0.29879809683E+02  0.51100000000E-03 0.  1.
        -12    1    3    3    0    0  0.36477711902E+01 -0.24948418800E+02 -0.79176589747E+01  0.26427621136E+02  0.00000000000E+00 0.  1.
</event>
<event>
 7    1  0.1351543E-013  0.7246162E+02  0.7816164E-02  0.1226708E+00
        -11   -1    0    0    0    0  0.00000000000E+00  0.00000000000E+00  0.45593999997E+02  0.45594000000E+02  0.51100000000E-03 0.  1.
         11   -1    0    0    0    0 -0.00000000000E+00 -0.00000000000E+00 -0.45593999997E+02  0.45594000000E+02  0.51100000000E-03 0. -1.
    9900012    2    1    2    0    0 -0.22299352972E+01 -0.15479068769E+02 -0.10300640985E+02  0.72461617912E+02  0.70000062031E+02 0.  0.
         12    1    1    2    0    0  0.22299352972E+01  0.15479068769E+02  0.10300640985E+02  0.18726382088E+02  0.00000000000E+00 0. -1.
         11    1    3    3    0    0  0.11611966843E+02  0.91912798515E+01 -0.22446800087E+02  0.26891936220E+02  0.51100000000E-03 0. -1.
        -11    1    3    3    0    0 -0.63125576132E+01 -0.14928787894E+02  0.23682025977E+02  0.28697655762E+02  0.51100000000E-03 0.  1.
         12    1    3    3    0    0 -0.75293445271E+01 -0.97415607265E+01 -0.11535866876E+02  0.16872025930E+02  0.00000000000E+00 0. -1.
</event>
<event>
 7    1  0.1351543E-013  0.7246165E+02  0.7816164E-02  0.1226708E+00
        -11   -1    0    0    0    0  0.00000000000E+00  0.00000000000E+00  0.45593999997E+02  0.45594000000E+02  0.51100000000E-03 0.  1.
         11   -1    0    0    0    0 -0.00000000000E+00 -0.00000000000E+00 -0.45593999997E+02  0.45594000000E+02  0.51100000000E-03 0. -1.
    9900012    2    1    2    0    0 -0.68282439168E+01  0.13963431259E+02  0.10443837379E+02  0.72461653140E+02  0.70000107922E+02 0.  0.
         12    1    1    2    0    0  0.68282439168E+01 -0.13963431259E+02 -0.10443837379E+02  0.18726346860E+02  0.00000000000E+00 0. -1.
         11    1    3    3    0    0 -0.41998147566E+01  0.37287138345E+02 -0.11920916098E+01  0.37541846153E+02  0.51100000000E-03 0. -1.
        -11    1    3    3    0    0 -0.99519320138E+01 -0.71320845444E+01  0.12002105138E+02  0.17145206583E+02  0.51100000000E-03 0.  1.
         12    1    3    3    0    0  0.73235028536E+01 -0.16191622541E+02 -0.36617614967E+00  0.17774600404E+02  0.00000000000E+00 0. -1.
</event>
<event>
 7    1  0.1351543E-013  0.7246211E+02  0.7816164E-02  0.1226707E+00
        -11   -1    0    0    0    0  0.00000000000E+00  0.00000000000E+00  0.45593999997E+02  0.45594000000E+02  0.51100000000E-03 0. -1.
         11   -1    0    0    0    0 -0.00000000000E+00 -0.00000000000E+00 -0.45593999997E+02  0.45594000000E+02  0.51100000000E-03 0.  1.
    9900012    2    1    2    0    0 -0.16676224695E+02  0.84605031336E+01  0.99117556337E+00  0.72462108503E+02  0.70000701113E+02 0.  0.
         12    1    1    2    0    0  0.16676224695E+02 -0.84605031336E+01 -0.99117556337E+00  0.18725891497E+02  0.00000000000E+00 0. -1.
         11    1    3    3    0    0  0.76633627880E+01 -0.10276320187E+02 -0.39981540538E+00  0.12825355294E+02  0.51100000000E-03 0. -1.
        -11    1    3    3    0    0 -0.12547557383E+02  0.35438442059E+02 -0.56435586221E+01  0.38015445887E+02  0.51100000000E-03 0.  1.
        -12    1    3    3    0    0 -0.11792030101E+02 -0.16701618738E+02  0.70345495909E+01  0.21621307322E+02  0.00000000000E+00 0.  1.
</event>
<event>
 7    1  0.1351543E-013  0.7246157E+02  0.7816164E-02  0.1226708E+00
        -11   -1    0    0    0    0  0.00000000000E+00  0.00000000000E+00  0.45593999997E+02  0.45594000000E+02  0.51100000000E-03 0.  1.
         11   -1    0    0    0    0 -0.00000000000E+00 -0.00000000000E+00 -0.45593999997E+02  0.45594000000E+02  0.51100000000E-03 0. -1.
    9900012    2    1    2    0    0 -0.77748224853E+01 -0.98376951217E+01  0.13908671789E+02  0.72461567854E+02  0.69999996821E+02 0.  0.
         12    1    1    2    0    0  0.77748224853E+01  0.98376951217E+01 -0.13908671789E+02  0.18726432146E+02  0.00000000000E+00 0. -1.
         11    1    3    3    0    0 -0.23554581810E+02 -0.20343771845E+02 -0.70277121183E+00  0.31131676228E+02  0.51100000000E-03 0.  1.
        -11    1    3    3    0    0  0.20543184312E+02  0.19315542245E+02  0.79326277842E+01  0.29292305776E+02  0.51100000000E-03 0. -1.
         12    1    3    3    0    0 -0.47634249870E+01 -0.88094655217E+01  0.66788152167E+01  0.12037585849E+02  0.00000000000E+00 0. -1.
</event>
<event>
 8    1  0.1351543E-013  0.7246158E+02  0.7816164E-02  0.1226708E+00
        -11   -1    0    0    0    0  0.00000000000E+00  0.00000000000E+00  0.45593999997E+02  0.45594000000E+02  0.51100000000E-03 0.  1.
         11   -1    0    0    0    0 -0.00000000000E+00 -0.00000000000E+00 -0.45593999997E+02  0.45594000000E+02  0.51100000000E-03 0. -1.
    9900012    2    1    2    0    0 -0.10078180763E+02 -0.14335196967E+02 -0.66038761401E+01  0.72461580704E+02  0.70000013561E+02 0.  0.
         24    2    3    3    0    0 -0.85137585932E+01 -0.24217193312E+02  0.45899122981E+01  0.57448181077E+02  0.51188569787E+02 0.  0.
         12    1    1    2    0    0  0.10078180763E+02  0.14335196967E+02  0.66038761401E+01  0.18726419296E+02  0.00000000000E+00 0. -1.
         11    1    3    3    0    0 -0.15644221702E+01  0.98819963454E+01 -0.11193788438E+02  0.15013399627E+02  0.51100000000E-03 0. -1.
        -11    1    4    4    0    0  0.15342174448E+02 -0.29054561823E+02  0.40051918544E+01  0.33099719660E+02  0.51100000000E-03 0.  1.
         12    1    4    4    0    0 -0.23855933041E+02  0.48373685108E+01  0.58472044370E+00  0.24348461417E+02  0.00000000000E+00 0. -1.
</event>
<event>
 7    1  0.1351543E-013  0.7246156E+02  0.7816164E-02  0.1226708E+00
        -11   -1    0    0    0    0  0.00000000000E+00  0.00000000000E+00  0.45593999997E+02  0.45594000000E+02  0.51100000000E-03 0.  1.
         11   -1    0    0    0    0 -0.00000000000E+00 -0.00000000000E+00 -0.45593999997E+02  0.45594000000E+02  0.51100000000E-03 0. -1.
    9900012    2    1    2    0    0  0.69141317924E+01 -0.59388803074E+01  0.16358604742E+02  0.72461562355E+02  0.69999989658E+02 0.  0.
         12    1    1    2    0    0 -0.69141317924E+01  0.59388803074E+01 -0.16358604742E+02  0.18726437645E+02  0.00000000000E+00 0. -1.
         11    1    3    3    0    0 -0.19541913039E+02  0.14370496421E+02  0.27151079003E+02  0.36408496590E+02  0.51100000000E-03 0. -1.
        -11    1    3    3    0    0  0.17002475805E+02 -0.16986904962E+02 -0.98990754625E+01  0.25992899395E+02  0.51100000000E-03 0.  1.
         12    1    3    3    0    0  0.94535690269E+01 -0.33224717660E+01 -0.89339879879E+00  0.10060166370E+02  0.00000000000E+00 0. -1.
</event>
<event>
 7    1  0.1351543E-013  0.7246193E+02  0.7816164E-02  0.1226707E+00
        -11   -1    0    0    0    0  0.00000000000E+00  0.00000000000E+00  0.45593999997E+02  0.45594000000E+02  0.51100000000E-03 0.  1.
         11   -1    0    0    0    0 -0.00000000000E+00 -0.00000000000E+00 -0.45593999997E+02  0.45594000000E+02  0.51100000000E-03 0. -1.
    9900012    2    1    2    0    0  0.74305324693E+01 -0.49189971095E+01  0.16469857928E+02  0.72461933528E+02  0.70000473178E+02 0.  0.
         12    1    1    2    0    0 -0.74305324693E+01  0.49189971095E+01 -0.16469857928E+02  0.18726066472E+02  0.00000000000E+00 0. -1.
         11    1    3    3    0    0  0.37133458874E+01 -0.18388060012E+02 -0.81921369532E+01  0.20469997479E+02  0.51100000000E-03 0. -1.
        -11    1    3    3    0    0  0.13984590826E+02  0.12402728320E+02  0.33526680343E+02  0.38385345451E+02  0.51100000000E-03 0.  1.
         12    1    3    3    0    0 -0.10267404244E+02  0.10663345827E+01 -0.88646854613E+01  0.13606590597E+02  0.00000000000E+00 0. -1.
</event>
<event>
 7    1  0.1351543E-013  0.7246157E+02  0.7816164E-02  0.1226708E+00
        -11   -1    0    0    0    0  0.00000000000E+00  0.00000000000E+00  0.45593999997E+02  0.45594000000E+02  0.51100000000E-03 0. -1.
         11   -1    0    0    0    0 -0.00000000000E+00 -0.00000000000E+00 -0.45593999997E+02  0.45594000000E+02  0.51100000000E-03 0.  1.
    9900012    2    1    2    0    0 -0.19470234430E+01  0.54358778170E+01 -0.17814026255E+02  0.72461569498E+02  0.69999998963E+02 0.  0.
         12    1    1    2    0    0  0.19470234430E+01 -0.54358778170E+01  0.17814026255E+02  0.18726430502E+02  0.00000000000E+00 0. -1.
         11    1    3    3    0    0  0.13149332259E+02 -0.57449521461E+01  0.10042215689E+02  0.17514437194E+02  0.51100000000E-03 0. -1.
        -11    1    3    3    0    0 -0.12742983062E+01  0.23212541971E+02 -0.28290396833E+02  0.36616833481E+02  0.51100000000E-03 0.  1.
        -12    1    3    3    0    0 -0.13822057396E+02 -0.12031712008E+02  0.43415488891E+00  0.18330298824E+02  0.00000000000E+00 0.  1.
</event>
<event>
 7    1  0.1351543E-013  0.7246147E+02  0.7816164E-02  0.1226708E+00
        -11   -1    0    0    0    0  0.00000000000E+00  0.00000000000E+00  0.45593999997E+02  0.45594000000E+02  0.51100000000E-03 0.  1.
         11   -1    0    0    0    0 -0.00000000000E+00 -0.00000000000E+00 -0.45593999997E+02  0.45594000000E+02  0.51100000000E-03 0. -1.
    9900012    2    1    2    0    0  0.56180111300E+00 -0.12801081058E+02  0.13656484487E+02  0.72461471617E+02  0.69999871454E+02 0.  0.
         12    1    1    2    0    0 -0.56180111300E+00  0.12801081058E+02 -0.13656484487E+02  0.18726528383E+02  0.00000000000E+00 0. -1.
         11    1    3    3    0    0 -0.25483897949E+02 -0.14845172134E+02 -0.12239437315E+02  0.31931364149E+02  0.51100000000E-03 0. -1.
        -11    1    3    3    0    0  0.10430936965E+02  0.42452594099E+01  0.21318114587E+02  0.24109929142E+02  0.51100000000E-03 0.  1.
        -12    1    3    3    0    0  0.15614762096E+02 -0.22011683340E+01  0.45778072151E+01  0.16420178326E+02  0.00000000000E+00 0.  1.
</event>
<event>
 7    1  0.1351543E-013  0.7246176E+02  0.7816164E-02  0.1226708E+00
        -11   -1    0    0    0    0  0.00000000000E+00  0.00000000000E+00  0.45593999997E+02  0.45594000000E+02  0.51100000000E-03 0.  1.
         11   -1    0    0    0    0 -0.00000000000E+00 -0.00000000000E+00 -0.45593999997E+02  0.45594000000E+02  0.51100000000E-03 0. -1.
    9900012    2    1    2    0    0 -0.48060682113E+01 -0.12545163476E+01  0.18055467926E+02  0.72461761057E+02  0.70000248503E+02 0.  0.
         12    1    1    2    0    0  0.48060682113E+01  0.12545163476E+01 -0.18055467926E+02  0.18726238943E+02  0.00000000000E+00 0. -1.
         11    1    3    3    0    0 -0.18816764944E+02 -0.22700550254E+01 -0.50368587130E+01  0.19611061642E+02  0.51100000000E-03 0. -1.
        -11    1    3    3    0    0  0.30447145971E+02 -0.30698376795E+01  0.14721963607E+02  0.33958633863E+02  0.51100000000E-03 0.  1.
        -12    1    3    3    0    0 -0.16436449238E+02  0.40853763573E+01  0.83703630319E+01  0.18892065552E+02  0.00000000000E+00 0.  1.
</event>
<event>
 7    1  0.1351543E-013  0.7246154E+02  0.7816164E-02  0.1226708E+00
        -11   -1    0    0    0    0  0.00000000000E+00  0.00000000000E+00  0.45593999997E+02  0.45594000000E+02  0.51100000000E-03 0.  1.
         11   -1    0    0    0    0 -0.00000000000E+00 -0.00000000000E+00 -0.45593999997E+02  0.45594000000E+02  0.51100000000E-03 0. -1.
    9900012    2    1    2    0    0 -0.21064623248E+01  0.17547511226E+02  0.61909681107E+01  0.72461536909E+02  0.69999956510E+02 0.  0.
         12    1    1    2    0    0  0.21064623248E+01 -0.17547511226E+02 -0.61909681107E+01  0.18726463091E+02  0.00000000000E+00 0. -1.
         11    1    3    3    0    0  0.68662954531E+01  0.16434452084E+02  0.53179349393E+01  0.18588105359E+02  0.51100000000E-03 0. -1.
        -11    1    3    3    0    0 -0.71288471413E+01 -0.10301798942E+02 -0.23648817470E+02  0.26762176500E+02  0.51100000000E-03 0.  1.
        -12    1    3    3    0    0 -0.18439106365E+01  0.11414858083E+02  0.24521850642E+02  0.27111255050E+02  0.00000000000E+00 0.  1.
</event>
<event>
 7    1  0.1351543E-013  0.7246153E+02  0.7816164E-02  0.1226708E+00
        -11   -1    0    0    0    0  0.00000000000E+00  0.00000000000E+00  0.45593999997E+02  0.45594000000E+02  0.51100000000E-03 0.  1.
         11   -1    0    0    0    0 -0.00000000000E+00 -0.00000000000E+00 -0.45593999997E+02  0.45594000000E+02  0.51100000000E-03 0. -1.
    9900012    2    1    2    0    0 -0.32106622498E-01  0.71498723448E+01  0.17307774509E+02  0.72461527725E+02  0.69999944546E+02 0.  0.
         12    1    1    2    0    0  0.32106622498E-01 -0.71498723448E+01 -0.17307774509E+02  0.18726472275E+02  0.00000000000E+00 0. -1.
         11    1    3    3    0    0  0.69062166240E+01  0.23826422456E+02  0.99851139395E+01  0.26741292710E+02  0.51100000000E-03 0. -1.
        -11    1    3    3    0    0  0.87257386336E+01 -0.17077859067E+02  0.18363424659E+02  0.26551970746E+02  0.51100000000E-03 0.  1.
        -12    1    3    3    0    0 -0.15664061880E+02  0.40130895508E+00 -0.11040764089E+02  0.19168264270E+02  0.00000000000E+00 0.  1.
</event>
<event>
 7    1  0.1351543E-013  0.7246155E+02  0.7816164E-02  0.1226708E+00
        -11   -1    0    0    0    0  0.00000000000E+00  0.00000000000E+00  0.45593999997E+02  0.45594000000E+02  0.51100000000E-03 0.  1.
         11   -1    0    0    0    0 -0.00000000000E+00 -0.00000000000E+00 -0.45593999997E+02  0.45594000000E+02  0.51100000000E-03 0. -1.
    9900012    2    1    2    0    0 -0.16057264299E+02 -0.47092384503E+01  0.84063809545E+01  0.72461550676E+02  0.69999974443E+02 0.  0.
         12    1    1    2    0    0  0.16057264299E+02  0.47092384503E+01 -0.84063809545E+01  0.18726449324E+02  0.00000000000E+00 0. -1.
         11    1    3    3    0    0 -0.34540393678E+02 -0.11725023787E+02 -0.80831804319E+01  0.37361113265E+02  0.51100000000E-03 0. -1.
        -11    1    3    3    0    0  0.16883113449E+02 -0.55896065680E+01  0.64915754693E+01  0.18932083183E+02  0.51100000000E-03 0.  1.
         12    1    3    3    0    0  0.16000159299E+01  0.12605391904E+02  0.99979859171E+01  0.16168354228E+02  0.00000000000E+00 0. -1.
</event>
<event>
 7    1  0.1351543E-013  0.7246158E+02  0.7816164E-02  0.1226708E+00
        -11   -1    0    0    0    0  0.00000000000E+00  0.00000000000E+00  0.45593999997E+02  0.45594000000E+02  0.51100000000E-03 0. -1.
         11   -1    0    0    0    0 -0.00000000000E+00 -0.00000000000E+00 -0.45593999997E+02  0.45594000000E+02  0.51100000000E-03 0.  1.
    9900012    2    1    2    0    0  0.11279717361E+01 -0.17338832374E+02 -0.69836615326E+01  0.72461575976E+02  0.70000007401E+02 0.  0.
         12    1    1    2    0    0 -0.11279717361E+01  0.17338832374E+02  0.69836615326E+01  0.18726424024E+02  0.00000000000E+00 0. -1.
         11    1    3    3    0    0 -0.70664858867E+01 -0.21905304613E+02  0.21936955500E+02  0.31796345857E+02  0.51100000000E-03 0. -1.
        -11    1    3    3    0    0 -0.91575805213E+00  0.10422223144E+02 -0.27888378410E+02  0.29786288770E+02  0.51100000000E-03 0.  1.
         12    1    3    3    0    0  0.91102156749E+01 -0.58557509049E+01 -0.10322386228E+01  0.10878941349E+02  0.00000000000E+00 0. -1.
</event>
<event>
 7    1  0.1351543E-013  0.7246159E+02  0.7816164E-02  0.1226708E+00
        -11   -1    0    0    0    0  0.00000000000E+00  0.00000000000E+00  0.45593999997E+02  0.45594000000E+02  0.51100000000E-03 0.  1.
         11   -1    0    0    0    0 -0.00000000000E+00 -0.00000000000E+00 -0.45593999997E+02  0.45594000000E+02  0.51100000000E-03 0. -1.
    9900012    2    1    2    0    0 -0.16009040710E+02  0.19965341701E+01 -0.95080351586E+01  0.72461594426E+02  0.70000031435E+02 0.  0.
         12    1    1    2    0    0  0.16009040710E+02 -0.19965341701E+01  0.95080351586E+01  0.18726405574E+02  0.00000000000E+00 0. -1.
         11    1    3    3    0    0 -0.11348446087E+02 -0.18071094062E+02 -0.10650309784E+02  0.23849125098E+02  0.51100000000E-03 0. -1.
        -11    1    3    3    0    0  0.67930060489E+01  0.22599380407E+02 -0.15513379848E+02  0.28240783993E+02  0.51100000000E-03 0.  1.
        -12    1    3    3    0    0 -0.11453600672E+02 -0.25317521744E+01  0.16655654474E+02  0.20371685335E+02  0.00000000000E+00 0.  1.
</event>
<event>
 7    1  0.1351543E-013  0.7246164E+02  0.7816164E-02  0.1226708E+00
        -11   -1    0    0    0    0  0.00000000000E+00  0.00000000000E+00  0.45593999997E+02  0.45594000000E+02  0.51100000000E-03 0.  1.
         11   -1    0    0    0    0 -0.00000000000E+00 -0.00000000000E+00 -0.45593999997E+02  0.45594000000E+02  0.51100000000E-03 0. -1.
    9900012    2    1    2    0    0 -0.93653228045E+01  0.15522085483E+02 -0.46938307903E+01  0.72461642734E+02  0.70000094366E+02 0.  0.
         12    1    1    2    0    0  0.93653228045E+01 -0.15522085483E+02  0.46938307903E+01  0.18726357266E+02  0.00000000000E+00 0. -1.
         11    1    3    3    0    0 -0.14356403064E+02 -0.14669923349E+02 -0.95252264824E+01  0.22628364939E+02  0.51100000000E-03 0. -1.
        -11    1    3    3    0    0  0.23921199420E+01  0.96923786690E+01  0.21225525410E+02  0.23456073228E+02  0.51100000000E-03 0.  1.
        -12    1    3    3    0    0  0.25989603179E+01  0.20499630163E+02 -0.16394129718E+02  0.26377204567E+02  0.00000000000E+00 0.  1.
</event>
<event>
 7    1  0.1351543E-013  0.7246149E+02  0.7816164E-02  0.1226708E+00
        -11   -1    0    0    0    0  0.00000000000E+00  0.00000000000E+00  0.45593999997E+02  0.45594000000E+02  0.51100000000E-03 0.  1.
         11   -1    0    0    0    0 -0.00000000000E+00 -0.00000000000E+00 -0.45593999997E+02  0.45594000000E+02  0.51100000000E-03 0. -1.
    9900012    2    1    2    0    0  0.57873158754E+01 -0.10474567344E+02  0.14403903311E+02  0.72461494275E+02  0.69999900970E+02 0.  0.
         12    1    1    2    0    0 -0.57873158754E+01  0.10474567344E+02 -0.14403903311E+02  0.18726505725E+02  0.00000000000E+00 0. -1.
         11    1    3    3    0    0 -0.19740813741E+02 -0.41113932544E+01  0.18936611500E+02  0.27662222199E+02  0.51100000000E-03 0. -1.
        -11    1    3    3    0    0  0.21818517870E+02 -0.90113739962E+01 -0.18573578852E+02  0.30037150580E+02  0.51100000000E-03 0.  1.
         12    1    3    3    0    0  0.37096117461E+01  0.26481999070E+01  0.14040870663E+02  0.14762121495E+02  0.00000000000E+00 0. -1.
</event>
<event>
 7    1  0.1351543E-013  0.7246151E+02  0.7816164E-02  0.1226708E+00
        -11   -1    0    0    0    0  0.00000000000E+00  0.00000000000E+00  0.45593999997E+02  0.45594000000E+02  0.51100000000E-03 0. -1.
         11   -1    0    0    0    0 -0.00000000000E+00 -0.00000000000E+00 -0.45593999997E+02  0.45594000000E+02  0.51100000000E-03 0.  1.
    9900012    2    1    2    0    0 -0.41932885728E+01 -0.86777485071E+01 -0.16055973664E+02  0.72461513984E+02  0.69999926645E+02 0.  0.
         12    1    1    2    0    0  0.41932885728E+01  0.86777485071E+01  0.16055973664E+02  0.18726486016E+02  0.00000000000E+00 0. -1.
         11    1    3    3    0    0  0.92750836312E+01  0.28857246478E+01 -0.84162322863E+00  0.97500211809E+01  0.51100000000E-03 0. -1.
        -11    1    3    3    0    0 -0.25453758720E+02 -0.13082023408E+01  0.14315621441E+02  0.29232554521E+02  0.51100000000E-03 0.  1.
        -12    1    3    3    0    0  0.11985386516E+02 -0.10255270814E+02 -0.29529971877E+02  0.33478938281E+02  0.00000000000E+00 0.  1.
</event>
<event>
 7    1  0.1351543E-013  0.7246159E+02  0.7816164E-02  0.1226708E+00
        -11   -1    0    0    0    0  0.00000000000E+00  0.00000000000E+00  0.45593999997E+02  0.45594000000E+02  0.51100000000E-03 0.  1.
         11   -1    0    0    0    0 -0.00000000000E+00 -0.00000000000E+00 -0.45593999997E+02  0.45594000000E+02  0.51100000000E-03 0. -1.
    9900012    2    1    2    0    0 -0.77727013570E+01  0.69217266610E+01  0.15567702135E+02  0.72461587206E+02  0.70000022031E+02 0.  0.
         12    1    1    2    0    0  0.77727013570E+01 -0.69217266610E+01 -0.15567702135E+02  0.18726412794E+02  0.00000000000E+00 0. -1.
         11    1    3    3    0    0 -0.18367325059E+02  0.71604352267E+01 -0.88010304706E+01  0.21589085207E+02  0.51100000000E-03 0. -1.
        -11    1    3    3    0    0  0.19358326421E+02  0.14301033673E+02  0.23856680368E+02  0.33888133091E+02  0.51100000000E-03 0.  1.
        -12    1    3    3    0    0 -0.87637027195E+01 -0.14539742239E+02  0.51205223783E+00  0.16984368908E+02  0.00000000000E+00 0.  1.
</event>
<event>
 7    1  0.1351543E-013  0.7246154E+02  0.7816164E-02  0.1226708E+00
        -11   -1    0    0    0    0  0.00000000000E+00  0.00000000000E+00  0.45593999997E+02  0.45594000000E+02  0.51100000000E-03 0.  1.
         11   -1    0    0    0    0 -0.00000000000E+00 -0.00000000000E+00 -0.45593999997E+02  0.45594000000E+02  0.51100000000E-03 0. -1.
    9900012    2    1    2    0    0 -0.63485072585E+01 -0.17477257730E+02  0.22186259451E+01  0.72461537887E+02  0.69999957784E+02 0.  0.
         12    1    1    2    0    0  0.63485072585E+01  0.17477257730E+02 -0.22186259451E+01  0.18726462113E+02  0.00000000000E+00 0. -1.
         11    1    3    3    0    0  0.16031580147E+02  0.42219162336E+01  0.15284590479E+02  0.22548943325E+02  0.51100000000E-03 0. -1.
        -11    1    3    3    0    0 -0.14223972367E+02  0.47854632572E+01 -0.16129867280E+02  0.22031674181E+02  0.51100000000E-03 0.  1.
        -12    1    3    3    0    0 -0.81561150388E+01 -0.26484637221E+02  0.30639027458E+01  0.27880920381E+02  0.00000000000E+00 0.  1.
</event>
<event>
 7    1  0.1351543E-013  0.7246157E+02  0.7816164E-02  0.1226708E+00
        -11   -1    0    0    0    0  0.00000000000E+00  0.00000000000E+00  0.45593999997E+02  0.45594000000E+02  0.51100000000E-03 0.  1.
         11   -1    0    0    0    0 -0.00000000000E+00 -0.00000000000E+00 -0.45593999997E+02  0.45594000000E+02  0.51100000000E-03 0. -1.
    9900012    2    1    2    0    0 -0.51283864809E+01 -0.60853732332E+01  0.16951314813E+02  0.72461569770E+02  0.69999999317E+02 0.  0.
         12    1    1    2    0    0  0.51283864809E+01  0.60853732332E+01 -0.16951314813E+02  0.18726430230E+02  0.00000000000E+00 0. -1.
         11    1    3    3    0    0 -0.11410804603E+02  0.11818570501E+02  0.18047764297E+02  0.24405058221E+02  0.51100000000E-03 0. -1.
        -11    1    3    3    0    0 -0.14872809043E+02 -0.17984623571E+02 -0.96278690870E+01  0.25245653037E+02  0.51100000000E-03 0.  1.
        -12    1    3    3    0    0  0.21155227165E+02  0.80679837131E-01  0.85314196021E+01  0.22810858512E+02  0.00000000000E+00 0.  1.
</event>
<event>
 7    1  0.1351543E-013  0.7246157E+02  0.7816164E-02  0.1226708E+00
        -11   -1    0    0    0    0  0.00000000000E+00  0.00000000000E+00  0.45593999997E+02  0.45594000000E+02  0.51100000000E-03 0. -1.
         11   -1    0    0    0    0 -0.00000000000E+00 -0.00000000000E+00 -0.45593999997E+02  0.45594000000E+02  0.51100000000E-03 0.  1.
    9900012    2    1    2    0    0  0.16954673327E+02  0.13573707440E+01 -0.78342797728E+01  0.72461565675E+02  0.69999993982E+02 0.  0.
         12    1    1    2    0    0 -0.16954673327E+02 -0.13573707440E+01  0.78342797728E+01  0.18726434325E+02  0.00000000000E+00 0. -1.
         11    1    3    3    0    0 -0.11657032066E+02  0.33111731049E+00 -0.11505468707E+02  0.16382058652E+02  0.51100000000E-03 0. -1.
        -11    1    3    3    0    0  0.15310982445E+02 -0.19918272515E+02 -0.10811937290E+02  0.27350717571E+02  0.51100000000E-03 0.  1.
        -12    1    3    3    0    0  0.13300722948E+02  0.20944525948E+02  0.14483126224E+02  0.28728789452E+02  0.00000000000E+00 0.  1.
</event>
<event>
 7    1  0.1351543E-013  0.7246151E+02  0.7816164E-02  0.1226708E+00
        -11   -1    0    0    0    0  0.00000000000E+00  0.00000000000E+00  0.45593999997E+02  0.45594000000E+02  0.51100000000E-03 0. -1.
         11   -1    0    0    0    0 -0.00000000000E+00 -0.00000000000E+00 -0.45593999997E+02  0.45594000000E+02  0.51100000000E-03 0.  1.
    9900012    2    1    2    0    0 -0.10733787377E+02  0.12868843818E+02 -0.83582385046E+01  0.72461508509E+02  0.69999919513E+02 0.  0.
         12    1    1    2    0    0  0.10733787377E+02 -0.12868843818E+02  0.83582385046E+01  0.18726491491E+02  0.00000000000E+00 0. -1.
         11    1    3    3    0    0 -0.28067923185E+00  0.14009162600E+02  0.25296134422E+02  0.28917638814E+02  0.51100000000E-03 0. -1.
        -11    1    3    3    0    0 -0.18856159125E+02 -0.27889091399E+01 -0.23642279778E+02  0.30369230226E+02  0.51100000000E-03 0.  1.
         12    1    3    3    0    0  0.84030509801E+01  0.16485903573E+01 -0.10012093149E+02  0.13174639470E+02  0.00000000000E+00 0. -1.
</event>
<event>
 7    1  0.1351543E-013  0.7246221E+02  0.7816164E-02  0.1226706E+00
        -11   -1    0    0    0    0  0.00000000000E+00  0.00000000000E+00  0.45593999997E+02  0.45594000000E+02  0.51100000000E-03 0.  1.
         11   -1    0    0    0    0 -0.00000000000E+00 -0.00000000000E+00 -0.45593999997E+02  0.45594000000E+02  0.51100000000E-03 0. -1.
    9900012    2    1    2    0    0  0.36573779058E+01  0.11756713950E+02  0.14108810713E+02  0.72462208274E+02  0.70000831082E+02 0.  0.
         12    1    1    2    0    0 -0.36573779058E+01 -0.11756713950E+02 -0.14108810713E+02  0.18725791726E+02  0.00000000000E+00 0. -1.
         11    1    3    3    0    0  0.88546774658E+01 -0.12547737998E+02 -0.13781998205E+02  0.20634788991E+02  0.51100000000E-03 0. -1.
        -11    1    3    3    0    0 -0.19580927790E+02  0.62976511615E+01  0.14595402203E+02  0.25221001348E+02  0.51100000000E-03 0.  1.
         12    1    3    3    0    0  0.14383628230E+02  0.18006800787E+02  0.13295406715E+02  0.26606417935E+02  0.00000000000E+00 0. -1.
</event>
<event>
 7    1  0.1351543E-013  0.7246156E+02  0.7816164E-02  0.1226708E+00
        -11   -1    0    0    0    0  0.00000000000E+00  0.00000000000E+00  0.45593999997E+02  0.45594000000E+02  0.51100000000E-03 0. -1.
         11   -1    0    0    0    0 -0.00000000000E+00 -0.00000000000E+00 -0.45593999997E+02  0.45594000000E+02  0.51100000000E-03 0.  1.
    9900012    2    1    2    0    0 -0.94442367236E+01 -0.99658052393E+01 -0.12734543785E+02  0.72461561824E+02  0.69999988966E+02 0.  0.
         12    1    1    2    0    0  0.94442367236E+01  0.99658052393E+01  0.12734543785E+02  0.18726438176E+02  0.00000000000E+00 0. -1.
         11    1    3    3    0    0  0.16806056823E+02 -0.16536181726E+02 -0.20746275038E+01  0.23668395205E+02  0.51100000000E-03 0. -1.
        -11    1    3    3    0    0 -0.33497861199E+02  0.20098809304E+01 -0.17487650323E+02  0.37841303365E+02  0.51100000000E-03 0.  1.
        -12    1    3    3    0    0  0.72475676521E+01  0.45604955561E+01  0.68277340422E+01  0.10951863254E+02  0.00000000000E+00 0.  1.
</event>
<event>
 7    1  0.1351543E-013  0.7246166E+02  0.7816164E-02  0.1226708E+00
        -11   -1    0    0    0    0  0.00000000000E+00  0.00000000000E+00  0.45593999997E+02  0.45594000000E+02  0.51100000000E-03 0. -1.
         11   -1    0    0    0    0 -0.00000000000E+00 -0.00000000000E+00 -0.45593999997E+02  0.45594000000E+02  0.51100000000E-03 0.  1.
    9900012    2    1    2    0    0  0.10766064703E+02  0.91186890780E+01 -0.12313284884E+02  0.72461664952E+02  0.70000123309E+02 0.  0.
         12    1    1    2    0    0 -0.10766064703E+02 -0.91186890780E+01  0.12313284884E+02  0.18726335048E+02  0.00000000000E+00 0. -1.
         11    1    3    3    0    0 -0.18101147008E+02  0.34242909928E+01  0.14924396135E+02  0.23708962273E+02  0.51100000000E-03 0. -1.
        -11    1    3    3    0    0  0.12211311202E+02  0.11200281447E+02 -0.26426390741E+02  0.31191610308E+02  0.51100000000E-03 0.  1.
         12    1    3    3    0    0  0.16655900509E+02 -0.55058833613E+01 -0.81129027796E+00  0.17561092371E+02  0.00000000000E+00 0. -1.
</event>
<event>
 7    1  0.1351543E-013  0.7246149E+02  0.7816164E-02  0.1226708E+00
        -11   -1    0    0    0    0  0.00000000000E+00  0.00000000000E+00  0.45593999997E+02  0.45594000000E+02  0.51100000000E-03 0. -1.
         11   -1    0    0    0    0 -0.00000000000E+00 -0.00000000000E+00 -0.45593999997E+02  0.45594000000E+02  0.51100000000E-03 0.  1.
    9900012    2    1    2    0    0  0.47508940941E+01 -0.17533963516E+02 -0.45465529701E+01  0.72461494315E+02  0.69999901023E+02 0.  0.
         12    1    1    2    0    0 -0.47508940941E+01  0.17533963516E+02  0.45465529701E+01  0.18726505685E+02  0.00000000000E+00 0. -1.
         11    1    3    3    0    0  0.39681174865E+01 -0.19138625283E+02  0.22355997620E+02  0.29695514206E+02  0.51100000000E-03 0. -1.
        -11    1    3    3    0    0  0.14773170666E+02  0.72793797659E+01 -0.72772230263E+01  0.18005385765E+02  0.51100000000E-03 0.  1.
         12    1    3    3    0    0 -0.13990394058E+02 -0.56747179987E+01 -0.19625327564E+02  0.24760594344E+02  0.00000000000E+00 0. -1.
</event>
<event>
 7    1  0.1351543E-013  0.7246161E+02  0.7816164E-02  0.1226708E+00
        -11   -1    0    0    0    0  0.00000000000E+00  0.00000000000E+00  0.45593999997E+02  0.45594000000E+02  0.51100000000E-03 0.  1.
         11   -1    0    0    0    0 -0.00000000000E+00 -0.00000000000E+00 -0.45593999997E+02  0.45594000000E+02  0.51100000000E-03 0. -1.
    9900012    2    1    2    0    0 -0.57033239321E+01 -0.91201462606E+01  0.15328819170E+02  0.72461610363E+02  0.70000052197E+02 0.  0.
         12    1    1    2    0    0  0.57033239321E+01  0.91201462606E+01 -0.15328819170E+02  0.18726389637E+02  0.00000000000E+00 0. -1.
         11    1    3    3    0    0 -0.11343772809E+02  0.83656224552E+00 -0.11309657856E+02  0.16040242487E+02  0.51100000000E-03 0. -1.
        -11    1    3    3    0    0  0.99464114197E+01  0.17847774373E+02  0.17311219812E+02  0.26779702796E+02  0.51100000000E-03 0.  1.
        -12    1    3    3    0    0 -0.43059625424E+01 -0.27804482879E+02  0.93272572141E+01  0.29641665081E+02  0.00000000000E+00 0.  1.
</event>
<event>
 7    1  0.1351543E-013  0.7246158E+02  0.7816164E-02  0.1226708E+00
        -11   -1    0    0    0    0  0.00000000000E+00  0.00000000000E+00  0.45593999997E+02  0.45594000000E+02  0.51100000000E-03 0.  1.
         11   -1    0    0    0    0 -0.00000000000E+00 -0.00000000000E+00 -0.45593999997E+02  0.45594000000E+02  0.51100000000E-03 0. -1.
    9900012    2    1    2    0    0 -0.65268993977E+01  0.18129325609E+01  0.17458288482E+02  0.72461575436E+02  0.70000006698E+02 0.  0.
         12    1    1    2    0    0  0.65268993977E+01 -0.18129325609E+01 -0.17458288482E+02  0.18726424564E+02  0.00000000000E+00 0. -1.
         11    1    3    3    0    0  0.29427404449E+02 -0.86065533874E+01  0.63839198205E+01  0.31317715854E+02  0.51100000000E-03 0. -1.
        -11    1    3    3    0    0 -0.27953087788E+02  0.25215609634E+01  0.55209849689E+01  0.28604451784E+02  0.51100000000E-03 0.  1.
         12    1    3    3    0    0 -0.80012160583E+01  0.78979249850E+01  0.55533836926E+01  0.12539407798E+02  0.00000000000E+00 0. -1.
</event>
<event>
 7    1  0.1351543E-013  0.7246157E+02  0.7816164E-02  0.1226708E+00
        -11   -1    0    0    0    0  0.00000000000E+00  0.00000000000E+00  0.45593999997E+02  0.45594000000E+02  0.51100000000E-03 0.  1.
         11   -1    0    0    0    0 -0.00000000000E+00 -0.00000000000E+00 -0.45593999997E+02  0.45594000000E+02  0.51100000000E-03 0. -1.
    9900012    2    1    2    0    0 -0.84694447305E+01  0.16044260710E+02  0.46399569741E+01  0.72461574914E+02  0.70000006018E+02 0.  0.
         12    1    1    2    0    0  0.84694447305E+01 -0.16044260710E+02 -0.46399569741E+01  0.18726425086E+02  0.00000000000E+00 0. -1.
         11    1    3    3    0    0  0.34520309592E+01 -0.23140225582E+02 -0.44788537446E+01  0.23821139538E+02  0.51100000000E-03 0. -1.
        -11    1    3    3    0    0 -0.11905097618E+02  0.89727842148E+01 -0.43977673785E+01  0.15542926495E+02  0.51100000000E-03 0.  1.
         12    1    3    3    0    0 -0.16378071966E-01  0.30211702078E+02  0.13516578097E+02  0.33097508881E+02  0.00000000000E+00 0. -1.
</event>
<event>
 7    1  0.1351543E-013  0.7246154E+02  0.7816164E-02  0.1226708E+00
        -11   -1    0    0    0    0  0.00000000000E+00  0.00000000000E+00  0.45593999997E+02  0.45594000000E+02  0.51100000000E-03 0.  1.
         11   -1    0    0    0    0 -0.00000000000E+00 -0.00000000000E+00 -0.45593999997E+02  0.45594000000E+02  0.51100000000E-03 0. -1.
    9900012    2    1    2    0    0 -0.30688415963E+01 -0.13909905285E+02 -0.12156355647E+02  0.72461541809E+02  0.69999962892E+02 0.  0.
         12    1    1    2    0    0  0.30688415963E+01  0.13909905285E+02  0.12156355647E+02  0.18726458191E+02  0.00000000000E+00 0. -1.
         11    1    3    3    0    0  0.62014283879E+01 -0.11745544906E+02  0.75625797077E+01  0.15284245198E+02  0.51100000000E-03 0. -1.
        -11    1    3    3    0    0  0.13777585973E+02  0.18257361260E+02 -0.80952880513E+01  0.24262868839E+02  0.51100000000E-03 0.  1.
        -12    1    3    3    0    0 -0.23047855957E+02 -0.20421721638E+02 -0.11623647303E+02  0.32914427771E+02  0.00000000000E+00 0.  1.
</event>
<event>
 7    1  0.1351543E-013  0.7246161E+02  0.7816164E-02  0.1226708E+00
        -11   -1    0    0    0    0  0.00000000000E+00  0.00000000000E+00  0.45593999997E+02  0.45594000000E+02  0.51100000000E-03 0.  1.
         11   -1    0    0    0    0 -0.00000000000E+00 -0.00000000000E+00 -0.45593999997E+02  0.45594000000E+02  0.51100000000E-03 0. -1.
    9900012    2    1    2    0    0 -0.26277182416E+01  0.18390397085E+02  0.23592221087E+01  0.72461613882E+02  0.70000056781E+02 0.  0.
         12    1    1    2    0    0  0.26277182416E+01 -0.18390397085E+02 -0.23592221087E+01  0.18726386118E+02  0.00000000000E+00 0. -1.
         11    1    3    3    0    0  0.15689280753E+02  0.30009449060E+02  0.56596715548E+01  0.34332964419E+02  0.51100000000E-03 0. -1.
        -11    1    3    3    0    0 -0.12713148498E+02 -0.16550596054E+02  0.97957697822E+01  0.23054359249E+02  0.51100000000E-03 0.  1.
        -12    1    3    3    0    0 -0.56038504962E+01  0.49315440783E+01 -0.13096219228E+02  0.15074290214E+02  0.00000000000E+00 0.  1.
</event>
<event>
 7    1  0.1351543E-013  0.7246157E+02  0.7816164E-02  0.1226708E+00
        -11   -1    0    0    0    0  0.00000000000E+00  0.00000000000E+00  0.45593999997E+02  0.45594000000E+02  0.51100000000E-03 0.  1.
         11   -1    0    0    0    0 -0.00000000000E+00 -0.00000000000E+00 -0.45593999997E+02  0.45594000000E+02  0.51100000000E-03 0. -1.
    9900012    2    1    2    0    0 -0.18694643770E+02  0.29665178058E+00  0.10495980376E+01  0.72461565102E+02  0.69999993236E+02 0.  0.
         12    1    1    2    0    0  0.18694643770E+02 -0.29665178058E+00 -0.10495980376E+01  0.18726434898E+02  0.00000000000E+00 0. -1.
         11    1    3    3    0    0 -0.17031089411E+02  0.20432643239E+02  0.16147291479E+02  0.31117293240E+02  0.51100000000E-03 0. -1.
        -11    1    3    3    0    0  0.11341354016E+02 -0.15301611187E+02  0.21963270186E+01  0.19172622890E+02  0.51100000000E-03 0.  1.
         12    1    3    3    0    0 -0.13004908375E+02 -0.48343802706E+01 -0.17294020460E+02  0.22171648971E+02  0.00000000000E+00 0. -1.
</event>
<event>
 8    1  0.1351543E-013  0.7246158E+02  0.7816164E-02  0.1226708E+00
        -11   -1    0    0    0    0  0.00000000000E+00  0.00000000000E+00  0.45593999997E+02  0.45594000000E+02  0.51100000000E-03 0.  1.
         11   -1    0    0    0    0 -0.00000000000E+00 -0.00000000000E+00 -0.45593999997E+02  0.45594000000E+02  0.51100000000E-03 0. -1.
    9900012    2    1    2    0    0  0.13272459115E+02  0.84931681854E+01  0.10118637350E+02  0.72461577528E+02  0.70000009423E+02 0.  0.
         24    2    3    3    0    0 -0.47155542746E+01 -0.42369422059E+01  0.48792784405E+01  0.49810413798E+02  0.49163826471E+02 0.  0.
         12    1    1    2    0    0 -0.13272459115E+02 -0.84931681854E+01 -0.10118637350E+02  0.18726422472E+02  0.00000000000E+00 0. -1.
         11    1    3    3    0    0  0.17988013390E+02  0.12730110391E+02  0.52393589094E+01  0.22651163730E+02  0.51100000000E-03 0. -1.
        -11    1    4    4    0    0 -0.24858036484E+02 -0.97507895334E+00  0.12732837521E+02  0.27946339803E+02  0.51100000000E-03 0.  1.
         12    1    4    4    0    0  0.20142482209E+02 -0.32618632526E+01 -0.78535590804E+01  0.21864073995E+02  0.00000000000E+00 0. -1.
</event>
<event>
 7    1  0.1351543E-013  0.7246159E+02  0.7816164E-02  0.1226708E+00
        -11   -1    0    0    0    0  0.00000000000E+00  0.00000000000E+00  0.45593999997E+02  0.45594000000E+02  0.51100000000E-03 0. -1.
         11   -1    0    0    0    0 -0.00000000000E+00 -0.00000000000E+00 -0.45593999997E+02  0.45594000000E+02  0.51100000000E-03 0.  1.
    9900012    2    1    2    0    0 -0.91298005968E+01  0.39394835656E+01 -0.15868385089E+02  0.72461589906E+02  0.70000025547E+02 0.  0.
         12    1    1    2    0    0  0.91298005968E+01 -0.39394835656E+01  0.15868385089E+02  0.18726410094E+02  0.00000000000E+00 0. -1.
         11    1    3    3    0    0  0.21069372974E+02  0.90418494052E+00 -0.16462924469E+02  0.26753764413E+02  0.51100000000E-03 0. -1.
        -11    1    3    3    0    0 -0.31874477193E+02 -0.89865035545E+01  0.32712095085E+01  0.33278226431E+02  0.51100000000E-03 0.  1.
         12    1    3    3    0    0  0.16753036223E+01  0.12021802180E+02 -0.26766701277E+01  0.12429599062E+02  0.00000000000E+00 0. -1.
</event>
<event>
 7    1  0.1351543E-013  0.7246157E+02  0.7816164E-02  0.1226708E+00
        -11   -1    0    0    0    0  0.00000000000E+00  0.00000000000E+00  0.45593999997E+02  0.45594000000E+02  0.51100000000E-03 0. -1.
         11   -1    0    0    0    0 -0.00000000000E+00 -0.00000000000E+00 -0.45593999997E+02  0.45594000000E+02  0.51100000000E-03 0.  1.
    9900012    2    1    2    0    0  0.13376351423E+02 -0.30215443359E+01 -0.12752364724E+02  0.72461566447E+02  0.69999994988E+02 0.  0.
         12    1    1    2    0    0 -0.13376351423E+02  0.30215443359E+01  0.12752364724E+02  0.18726433553E+02  0.00000000000E+00 0. -1.
         11    1    3    3    0    0 -0.99808686729E+01  0.22286646087E+02 -0.10452851722E+02  0.26562651273E+02  0.51100000000E-03 0. -1.
        -11    1    3    3    0    0  0.25556848814E+02 -0.24905363365E+02  0.69734522206E+01  0.36360124886E+02  0.51100000000E-03 0.  1.
        -12    1    3    3    0    0 -0.21996287180E+01 -0.40282705781E+00 -0.92729652225E+01  0.95387902878E+01  0.00000000000E+00 0.  1.
</event>
<event>
 7    1  0.1351543E-013  0.7246159E+02  0.7816164E-02  0.1226708E+00
        -11   -1    0    0    0    0  0.00000000000E+00  0.00000000000E+00  0.45593999997E+02  0.45594000000E+02  0.51100000000E-03 0. -1.
         11   -1    0    0    0    0 -0.00000000000E+00 -0.00000000000E+00 -0.45593999997E+02  0.45594000000E+02  0.51100000000E-03 0.  1.
    9900012    2    1    2    0    0  0.13434940077E+02 -0.12764848983E+02  0.26906260547E+01  0.72461589426E+02  0.70000024922E+02 0.  0.
         12    1    1    2    0    0 -0.13434940077E+02  0.12764848983E+02 -0.26906260547E+01  0.18726410574E+02  0.00000000000E+00 0. -1.
         11    1    3    3    0    0  0.27476022882E+02  0.47068131990E+01  0.17003740232E+02  0.32652918798E+02  0.51100000000E-03 0. -1.
        -11    1    3    3    0    0 -0.23183959863E+02 -0.14975948498E+02 -0.11699182538E+02  0.29977423183E+02  0.51100000000E-03 0.  1.
        -12    1    3    3    0    0  0.91428770584E+01 -0.24957136839E+01 -0.26139316400E+01  0.98312474445E+01  0.00000000000E+00 0.  1.
</event>
<event>
 7    1  0.1351543E-013  0.7246161E+02  0.7816164E-02  0.1226708E+00
        -11   -1    0    0    0    0  0.00000000000E+00  0.00000000000E+00  0.45593999997E+02  0.45594000000E+02  0.51100000000E-03 0. -1.
         11   -1    0    0    0    0 -0.00000000000E+00 -0.00000000000E+00 -0.45593999997E+02  0.45594000000E+02  0.51100000000E-03 0.  1.
    9900012    2    1    2    0    0  0.78885074601E+01 -0.15903471101E+02  0.59605869705E+01  0.72461613802E+02  0.70000056676E+02 0.  0.
         12    1    1    2    0    0 -0.78885074601E+01  0.15903471101E+02 -0.59605869705E+01  0.18726386198E+02  0.00000000000E+00 0. -1.
         11    1    3    3    0    0  0.27488398225E+02  0.10929827517E+02  0.14699968018E+02  0.33032744762E+02  0.51100000000E-03 0. -1.
        -11    1    3    3    0    0 -0.14679205789E+02 -0.19260880520E+02 -0.14958053944E+02  0.28464082263E+02  0.51100000000E-03 0.  1.
        -12    1    3    3    0    0 -0.49206849752E+01 -0.75724180983E+01  0.62186728961E+01  0.10964786777E+02  0.00000000000E+00 0.  1.
</event>
<event>
 7    1  0.1351543E-013  0.7246155E+02  0.7816164E-02  0.1226708E+00
        -11   -1    0    0    0    0  0.00000000000E+00  0.00000000000E+00  0.45593999997E+02  0.45594000000E+02  0.51100000000E-03 0.  1.
         11   -1    0    0    0    0 -0.00000000000E+00 -0.00000000000E+00 -0.45593999997E+02  0.45594000000E+02  0.51100000000E-03 0. -1.
    9900012    2    1    2    0    0  0.11475641675E+02  0.25748344210E+01  0.14572564329E+02  0.72461554655E+02  0.69999979626E+02 0.  0.
         12    1    1    2    0    0 -0.11475641675E+02 -0.25748344210E+01 -0.14572564329E+02  0.18726445345E+02  0.00000000000E+00 0. -1.
         11    1    3    3    0    0 -0.16538936144E+02  0.16196669640E+02 -0.54157482522E+01  0.23773911029E+02  0.51100000000E-03 0.  1.
        -11    1    3    3    0    0  0.34353325067E+01 -0.12493498842E+02 -0.47462166218E+01  0.13799115741E+02  0.51100000000E-03 0. -1.
         12    1    3    3    0    0  0.24579245313E+02 -0.11283363770E+01  0.24734529203E+02  0.34888527885E+02  0.00000000000E+00 0. -1.
</event>
<event>
 7    1  0.1351543E-013  0.7246156E+02  0.7816164E-02  0.1226708E+00
        -11   -1    0    0    0    0  0.00000000000E+00  0.00000000000E+00  0.45593999997E+02  0.45594000000E+02  0.51100000000E-03 0. -1.
         11   -1    0    0    0    0 -0.00000000000E+00 -0.00000000000E+00 -0.45593999997E+02  0.45594000000E+02  0.51100000000E-03 0.  1.
    9900012    2    1    2    0    0 -0.35795386582E+01 -0.20653518998E+01 -0.18264743123E+02  0.72461558351E+02  0.69999984442E+02 0.  0.
         12    1    1    2    0    0  0.35795386582E+01  0.20653518998E+01  0.18264743123E+02  0.18726441649E+02  0.00000000000E+00 0. -1.
         11    1    3    3    0    0 -0.23281275094E+02 -0.24079635820E+02 -0.85046103200E+01  0.34556837647E+02  0.51100000000E-03 0.  1.
        -11    1    3    3    0    0  0.13615846737E+02  0.16160807254E+02 -0.16732298016E+02  0.26954271843E+02  0.51100000000E-03 0. -1.
         12    1    3    3    0    0  0.60858896991E+01  0.58534766657E+01  0.69721652126E+01  0.10950448861E+02  0.00000000000E+00 0. -1.
</event>
<event>
 7    1  0.1394221E-013  0.7246156E+02  0.7816164E-02  0.1226708E+00
        -11   -1    0    0    0    0  0.00000000000E+00  0.00000000000E+00  0.45593999997E+02  0.45594000000E+02  0.51100000000E-03 0. -1.
         11   -1    0    0    0    0 -0.00000000000E+00 -0.00000000000E+00 -0.45593999997E+02  0.45594000000E+02  0.51100000000E-03 0.  1.
    9900012    2    1    2    0    0 -0.32177130342E+01 -0.10657061251E+02 -0.15058312599E+02  0.72461563873E+02  0.69999991636E+02 0.  0.
         12    1    1    2    0    0  0.32177130342E+01  0.10657061251E+02  0.15058312599E+02  0.18726436127E+02  0.00000000000E+00 0. -1.
         11    1    3    3    0    0  0.17851040593E+02  0.10908961233E+02  0.10386192830E+02  0.23356756778E+02  0.51100000000E-03 0. -1.
        -11    1    3    3    0    0 -0.43010834616E+01  0.55953250874E+00 -0.20441028832E+02  0.20896125372E+02  0.51100000000E-03 0.  1.
         12    1    3    3    0    0 -0.16767670166E+02 -0.22125554993E+02 -0.50034765964E+01  0.28208681723E+02  0.00000000000E+00 0. -1.
</event>
<event>
 7    1  0.1351543E-013  0.7246156E+02  0.7816164E-02  0.1226708E+00
        -11   -1    0    0    0    0  0.00000000000E+00  0.00000000000E+00  0.45593999997E+02  0.45594000000E+02  0.51100000000E-03 0. -1.
         11   -1    0    0    0    0 -0.00000000000E+00 -0.00000000000E+00 -0.45593999997E+02  0.45594000000E+02  0.51100000000E-03 0.  1.
    9900012    2    1    2    0    0 -0.87024644283E+01  0.13876761988E+02 -0.90764698967E+01  0.72461555699E+02  0.69999980986E+02 0.  0.
         12    1    1    2    0    0  0.87024644283E+01 -0.13876761988E+02  0.90764698967E+01  0.18726444301E+02  0.00000000000E+00 0. -1.
         11    1    3    3    0    0 -0.89889123468E+01 -0.80108504173E+01  0.71210087412E+01  0.13988675253E+02  0.51100000000E-03 0. -1.
        -11    1    3    3    0    0 -0.13434251766E+02 -0.74698014521E+01 -0.20671291159E+02  0.25760033631E+02  0.51100000000E-03 0.  1.
        -12    1    3    3    0    0  0.13720699685E+02  0.29357413857E+02  0.44738125209E+01  0.32712846814E+02  0.00000000000E+00 0.  1.
</event>
<event>
 7    1  0.1351543E-013  0.7246144E+02  0.7816164E-02  0.1226708E+00
        -11   -1    0    0    0    0  0.00000000000E+00  0.00000000000E+00  0.45593999997E+02  0.45594000000E+02  0.51100000000E-03 0. -1.
         11   -1    0    0    0    0 -0.00000000000E+00 -0.00000000000E+00 -0.45593999997E+02  0.45594000000E+02  0.51100000000E-03 0.  1.
    9900012    2    1    2    0    0 -0.44680704825E+01 -0.14818442516E+02  0.10542022326E+02  0.72461437925E+02  0.69999827564E+02 0.  0.
         12    1    1    2    0    0  0.44680704825E+01  0.14818442516E+02 -0.10542022326E+02  0.18726562075E+02  0.00000000000E+00 0. -1.
         11    1    3    3    0    0  0.16173932568E+02 -0.33029276228E+01  0.26415306695E+02  0.31149219149E+02  0.51100000000E-03 0. -1.
        -11    1    3    3    0    0  0.17943750783E+01 -0.13707049136E+02 -0.12267963730E+02  0.18482584026E+02  0.51100000000E-03 0.  1.
         12    1    3    3    0    0 -0.22436378129E+02  0.21915342432E+01 -0.36053206381E+01  0.22829634749E+02  0.00000000000E+00 0. -1.
</event>
<event>
 7    1  0.1351543E-013  0.7246160E+02  0.7816164E-02  0.1226708E+00
        -11   -1    0    0    0    0  0.00000000000E+00  0.00000000000E+00  0.45593999997E+02  0.45594000000E+02  0.51100000000E-03 0.  1.
         11   -1    0    0    0    0 -0.00000000000E+00 -0.00000000000E+00 -0.45593999997E+02  0.45594000000E+02  0.51100000000E-03 0. -1.
    9900012    2    1    2    0    0  0.12520430806E+02 -0.10097825346E+02 -0.95890927164E+01  0.72461602498E+02  0.70000041951E+02 0.  0.
         12    1    1    2    0    0 -0.12520430806E+02  0.10097825346E+02  0.95890927164E+01  0.18726397502E+02  0.00000000000E+00 0. -1.
         11    1    3    3    0    0 -0.23037377045E+02 -0.17946172020E+02 -0.91850040853E+01  0.30612907924E+02  0.51100000000E-03 0. -1.
        -11    1    3    3    0    0  0.41982053057E+01  0.94641044011E+01 -0.12997225894E+01  0.10434724672E+02  0.51100000000E-03 0.  1.
         12    1    3    3    0    0  0.31359602545E+02 -0.16157577272E+01  0.89563395824E+00  0.31413969902E+02  0.00000000000E+00 0. -1.
</event>
<event>
 7    1  0.1351543E-013  0.7246159E+02  0.7816164E-02  0.1226708E+00
        -11   -1    0    0    0    0  0.00000000000E+00  0.00000000000E+00  0.45593999997E+02  0.45594000000E+02  0.51100000000E-03 0.  1.
         11   -1    0    0    0    0 -0.00000000000E+00 -0.00000000000E+00 -0.45593999997E+02  0.45594000000E+02  0.51100000000E-03 0. -1.
    9900012    2    1    2    0    0  0.55333672503E+01 -0.14519888469E+02  0.10451459965E+02  0.72461592718E+02  0.70000029211E+02 0.  0.
         12    1    1    2    0    0 -0.55333672503E+01  0.14519888469E+02 -0.10451459965E+02  0.18726407282E+02  0.00000000000E+00 0. -1.
         11    1    3    3    0    0 -0.11222179492E+02 -0.12976522647E+02  0.29925433163E+02  0.34494332909E+02  0.51100000000E-03 0.  1.
        -11    1    3    3    0    0  0.24085008581E+02  0.16069993876E+01 -0.17302227967E+02  0.29699110732E+02  0.51100000000E-03 0. -1.
        -12    1    3    3    0    0 -0.73294618392E+01 -0.31503652099E+01 -0.21717452312E+01  0.82681490769E+01  0.00000000000E+00 0.  1.
</event>
<event>
 7    1  0.1351543E-013  0.7246163E+02  0.7816164E-02  0.1226708E+00
        -11   -1    0    0    0    0  0.00000000000E+00  0.00000000000E+00  0.45593999997E+02  0.45594000000E+02  0.51100000000E-03 0. -1.
         11   -1    0    0    0    0 -0.00000000000E+00 -0.00000000000E+00 -0.45593999997E+02  0.45594000000E+02  0.51100000000E-03 0.  1.
    9900012    2    1    2    0    0 -0.15956092355E+01  0.25117540361E+01 -0.18488431049E+02  0.72461629294E+02  0.70000076858E+02 0.  0.
         12    1    1    2    0    0  0.15956092355E+01 -0.25117540361E+01  0.18488431049E+02  0.18726370706E+02  0.00000000000E+00 0. -1.
         11    1    3    3    0    0  0.82059436778E+01 -0.93951358569E+01  0.19072874655E+02  0.22789924030E+02  0.51100000000E-03 0. -1.
        -11    1    3    3    0    0  0.40055128836E+01  0.97847467087E+01 -0.33492972603E+02  0.35122138541E+02  0.51100000000E-03 0.  1.
        -12    1    3    3    0    0 -0.13807065797E+02  0.21221431843E+01 -0.40683331013E+01  0.14549566723E+02  0.00000000000E+00 0.  1.
</event>
<event>
 7    1  0.1351543E-013  0.7246158E+02  0.7816164E-02  0.1226708E+00
        -11   -1    0    0    0    0  0.00000000000E+00  0.00000000000E+00  0.45593999997E+02  0.45594000000E+02  0.51100000000E-03 0.  1.
         11   -1    0    0    0    0 -0.00000000000E+00 -0.00000000000E+00 -0.45593999997E+02  0.45594000000E+02  0.51100000000E-03 0. -1.
    9900012    2    1    2    0    0  0.41372801260E+01 -0.42787988961E+01  0.17755381199E+02  0.72461581005E+02  0.70000013953E+02 0.  0.
         12    1    1    2    0    0 -0.41372801260E+01  0.42787988961E+01 -0.17755381199E+02  0.18726418995E+02  0.00000000000E+00 0. -1.
         11    1    3    3    0    0 -0.95890711754E+01  0.20287532060E+02  0.16085217023E+02  0.27609209515E+02  0.51100000000E-03 0. -1.
        -11    1    3    3    0    0  0.85611127573E+01 -0.16518550233E+02 -0.16144526792E+02  0.24633329029E+02  0.51100000000E-03 0.  1.
         12    1    3    3    0    0  0.51652385442E+01 -0.80477807234E+01  0.17814690968E+02  0.20219042461E+02  0.00000000000E+00 0. -1.
</event>
<event>
 7    1  0.1351543E-013  0.7246157E+02  0.7816164E-02  0.1226708E+00
        -11   -1    0    0    0    0  0.00000000000E+00  0.00000000000E+00  0.45593999997E+02  0.45594000000E+02  0.51100000000E-03 0.  1.
         11   -1    0    0    0    0 -0.00000000000E+00 -0.00000000000E+00 -0.45593999997E+02  0.45594000000E+02  0.51100000000E-03 0. -1.
    9900012    2    1    2    0    0  0.57341759524E+01  0.17295686792E+02  0.43194290576E+01  0.72461574210E+02  0.70000005101E+02 0.  0.
         12    1    1    2    0    0 -0.57341759524E+01 -0.17295686792E+02 -0.43194290576E+01  0.18726425790E+02  0.00000000000E+00 0. -1.
         11    1    3    3    0    0  0.92451511086E+01  0.35182493038E+01 -0.63699201144E+01  0.11765491053E+02  0.51100000000E-03 0. -1.
        -11    1    3    3    0    0 -0.25214896528E+02 -0.83617662202E+01 -0.31364045449E+01  0.26749713549E+02  0.51100000000E-03 0.  1.
        -12    1    3    3    0    0  0.21703921372E+02  0.22139203709E+02  0.13825753717E+02  0.33946369609E+02  0.00000000000E+00 0.  1.
</event>
<event>
 7    1  0.1351543E-013  0.7246157E+02  0.7816164E-02  0.1226708E+00
        -11   -1    0    0    0    0  0.00000000000E+00  0.00000000000E+00  0.45593999997E+02  0.45594000000E+02  0.51100000000E-03 0.  1.
         11   -1    0    0    0    0 -0.00000000000E+00 -0.00000000000E+00 -0.45593999997E+02  0.45594000000E+02  0.51100000000E-03 0. -1.
    9900012    2    1    2    0    0 -0.60113638932E+01 -0.16117570250E+02 -0.74004411943E+01  0.72461572244E+02  0.70000002540E+02 0.  0.
         12    1    1    2    0    0  0.60113638932E+01  0.16117570250E+02  0.74004411943E+01  0.18726427756E+02  0.00000000000E+00 0. -1.
         11    1    3    3    0    0 -0.12878989573E+02  0.23512609009E+02 -0.34286922300E+01  0.27027154595E+02  0.51100000000E-03 0. -1.
        -11    1    3    3    0    0  0.10705700606E+02 -0.11330828638E+02 -0.62290308046E+01  0.16786915385E+02  0.51100000000E-03 0.  1.
         12    1    3    3    0    0 -0.38380749264E+01 -0.28299350621E+02  0.22572818403E+01  0.28647502265E+02  0.00000000000E+00 0. -1.
</event>
<event>
 7    1  0.1351543E-013  0.7246160E+02  0.7816164E-02  0.1226708E+00
        -11   -1    0    0    0    0  0.00000000000E+00  0.00000000000E+00  0.45593999997E+02  0.45594000000E+02  0.51100000000E-03 0.  1.
         11   -1    0    0    0    0 -0.00000000000E+00 -0.00000000000E+00 -0.45593999997E+02  0.45594000000E+02  0.51100000000E-03 0. -1.
    9900012    2    1    2    0    0 -0.30196338831E+01 -0.68087619644E+01  0.17181405064E+02  0.72461598630E+02  0.70000036913E+02 0.  0.
         12    1    1    2    0    0  0.30196338831E+01  0.68087619644E+01 -0.17181405064E+02  0.18726401370E+02  0.00000000000E+00 0. -1.
         11    1    3    3    0    0 -0.15055376269E+02 -0.21670088431E+02 -0.12728299424E+02  0.29296189064E+02  0.51100000000E-03 0. -1.
        -11    1    3    3    0    0  0.16263719793E+02  0.62311210215E+01  0.78512013093E+01  0.19104366332E+02  0.51100000000E-03 0.  1.
        -12    1    3    3    0    0 -0.42279774074E+01  0.86302054449E+01  0.22058503179E+02  0.24061043234E+02  0.00000000000E+00 0.  1.
</event>
<event>
 7    1  0.1351543E-013  0.7246156E+02  0.7816164E-02  0.1226708E+00
        -11   -1    0    0    0    0  0.00000000000E+00  0.00000000000E+00  0.45593999997E+02  0.45594000000E+02  0.51100000000E-03 0.  1.
         11   -1    0    0    0    0 -0.00000000000E+00 -0.00000000000E+00 -0.45593999997E+02  0.45594000000E+02  0.51100000000E-03 0. -1.
    9900012    2    1    2    0    0  0.11145124314E+02  0.14254924050E+02  0.48231580860E+01  0.72461561215E+02  0.69999988172E+02 0.  0.
         12    1    1    2    0    0 -0.11145124314E+02 -0.14254924050E+02 -0.48231580860E+01  0.18726438785E+02  0.00000000000E+00 0. -1.
         11    1    3    3    0    0  0.20880049966E+02 -0.21479191597E+02 -0.96446810134E+00  0.29971025295E+02  0.51100000000E-03 0. -1.
        -11    1    3    3    0    0 -0.38273420578E+01  0.23718228421E+02  0.12963412069E+02  0.27299321592E+02  0.51100000000E-03 0.  1.
        -12    1    3    3    0    0 -0.59075835943E+01  0.12015887226E+02 -0.71757858813E+01  0.15191214328E+02  0.00000000000E+00 0.  1.
</event>
<event>
 7    1  0.1351543E-013  0.7246156E+02  0.7816164E-02  0.1226708E+00
        -11   -1    0    0    0    0  0.00000000000E+00  0.00000000000E+00  0.45593999997E+02  0.45594000000E+02  0.51100000000E-03 0. -1.
         11   -1    0    0    0    0 -0.00000000000E+00 -0.00000000000E+00 -0.45593999997E+02  0.45594000000E+02  0.51100000000E-03 0.  1.
    9900012    2    1    2    0    0 -0.13268622606E+02  0.50212769114E+01 -0.12223338429E+02  0.72461559601E+02  0.69999986070E+02 0.  0.
         12    1    1    2    0    0  0.13268622606E+02 -0.50212769114E+01  0.12223338429E+02  0.18726440399E+02  0.00000000000E+00 0. -1.
         11    1    3    3    0    0  0.43265154773E+01  0.47921245217E+01  0.12279846138E+02  0.13873637412E+02  0.51100000000E-03 0. -1.
        -11    1    3    3    0    0 -0.40060291365E+01  0.24707157642E+02 -0.14046327722E+02  0.28701763551E+02  0.51100000000E-03 0.  1.
        -12    1    3    3    0    0 -0.13589108946E+02 -0.24478005252E+02 -0.10456856845E+02  0.29886158638E+02  0.00000000000E+00 0.  1.
</event>
<event>
 7    1  0.1351543E-013  0.7246212E+02  0.7816164E-02  0.1226707E+00
        -11   -1    0    0    0    0  0.00000000000E+00  0.00000000000E+00  0.45593999997E+02  0.45594000000E+02  0.51100000000E-03 0. -1.
         11   -1    0    0    0    0 -0.00000000000E+00 -0.00000000000E+00 -0.45593999997E+02  0.45594000000E+02  0.51100000000E-03 0.  1.
    9900012    2    1    2    0    0  0.21950790653E+01  0.40424832101E+01 -0.18152090963E+02  0.72462123547E+02  0.70000720710E+02 0.  0.
         12    1    1    2    0    0 -0.21950790653E+01 -0.40424832101E+01  0.18152090963E+02  0.18725876453E+02  0.00000000000E+00 0. -1.
         11    1    3    3    0    0  0.33346295030E+02  0.45429823692E-01 -0.31989594207E+01  0.33499414886E+02  0.51100000000E-03 0. -1.
        -11    1    3    3    0    0 -0.17726238877E+02  0.10887088630E+02 -0.73264140984E+01  0.22055035420E+02  0.51100000000E-03 0.  1.
         12    1    3    3    0    0 -0.13424977087E+02 -0.68900352431E+01 -0.76267174443E+01  0.16907673241E+02  0.00000000000E+00 0. -1.
</event>
<event>
 7    1  0.1351543E-013  0.7246163E+02  0.7816164E-02  0.1226708E+00
        -11   -1    0    0    0    0  0.00000000000E+00  0.00000000000E+00  0.45593999997E+02  0.45594000000E+02  0.51100000000E-03 0.  1.
         11   -1    0    0    0    0 -0.00000000000E+00 -0.00000000000E+00 -0.45593999997E+02  0.45594000000E+02  0.51100000000E-03 0. -1.
    9900012    2    1    2    0    0 -0.10551242894E+02 -0.41965502530E+01  0.14890835651E+02  0.72461634976E+02  0.70000084260E+02 0.  0.
         12    1    1    2    0    0  0.10551242894E+02  0.41965502530E+01 -0.14890835651E+02  0.18726365024E+02  0.00000000000E+00 0. -1.
         11    1    3    3    0    0  0.70677993396E+01 -0.30454258083E+02  0.62533465898E+01  0.31882910261E+02  0.51100000000E-03 0.  1.
        -11    1    3    3    0    0 -0.16481746101E+02  0.27465250906E+02  0.25333321714E+00  0.32032048637E+02  0.51100000000E-03 0. -1.
        -12    1    3    3    0    0 -0.11372961324E+01 -0.12075430762E+01  0.83841558439E+01  0.85466760784E+01  0.00000000000E+00 0.  1.
</event>
<event>
 7    1  0.1665896E-013  0.7246160E+02  0.7816164E-02  0.1226708E+00
        -11   -1    0    0    0    0  0.00000000000E+00  0.00000000000E+00  0.45593999997E+02  0.45594000000E+02  0.51100000000E-03 0. -1.
         11   -1    0    0    0    0 -0.00000000000E+00 -0.00000000000E+00 -0.45593999997E+02  0.45594000000E+02  0.51100000000E-03 0.  1.
    9900012    2    1    2    0    0 -0.35977467726E+01 -0.14044461963E+02 -0.11852742559E+02  0.72461596185E+02  0.70000033727E+02 0.  0.
         12    1    1    2    0    0  0.35977467726E+01  0.14044461963E+02  0.11852742559E+02  0.18726403815E+02  0.00000000000E+00 0. -1.
         11    1    3    3    0    0  0.20032804296E+01 -0.27792766241E+02  0.14556367842E+02  0.31437856683E+02  0.51100000000E-03 0. -1.
        -11    1    3    3    0    0  0.19461449840E+01 -0.16190993732E+00 -0.25065074269E+02  0.25141035052E+02  0.51100000000E-03 0.  1.
         12    1    3    3    0    0 -0.75471721863E+01  0.13910214215E+02 -0.13440361313E+01  0.15882704450E+02  0.00000000000E+00 0. -1.
</event>
<event>
 7    1  0.1351543E-013  0.7246166E+02  0.7816164E-02  0.1226708E+00
        -11   -1    0    0    0    0  0.00000000000E+00  0.00000000000E+00  0.45593999997E+02  0.45594000000E+02  0.51100000000E-03 0. -1.
         11   -1    0    0    0    0 -0.00000000000E+00 -0.00000000000E+00 -0.45593999997E+02  0.45594000000E+02  0.51100000000E-03 0.  1.
    9900012    2    1    2    0    0 -0.62734740410E+00  0.15078133255E+02 -0.11087482649E+02  0.72461656558E+02  0.70000112374E+02 0.  0.
         12    1    1    2    0    0  0.62734740410E+00 -0.15078133255E+02  0.11087482649E+02  0.18726343442E+02  0.00000000000E+00 0. -1.
         11    1    3    3    0    0 -0.12575927240E+01 -0.18584347934E+01  0.28765052579E+01  0.36482327366E+01  0.51100000000E-03 0. -1.
        -11    1    3    3    0    0 -0.24790572518E+02  0.12292383203E+02 -0.28033715105E+02  0.39389901669E+02  0.51100000000E-03 0.  1.
        -12    1    3    3    0    0  0.25420817838E+02  0.46441848450E+01  0.14069727198E+02  0.29423522153E+02  0.00000000000E+00 0.  1.
</event>
<event>
 7    1  0.1351543E-013  0.7246156E+02  0.7816164E-02  0.1226708E+00
        -11   -1    0    0    0    0  0.00000000000E+00  0.00000000000E+00  0.45593999997E+02  0.45594000000E+02  0.51100000000E-03 0. -1.
         11   -1    0    0    0    0 -0.00000000000E+00 -0.00000000000E+00 -0.45593999997E+02  0.45594000000E+02  0.51100000000E-03 0.  1.
    9900012    2    1    2    0    0 -0.11674141356E+01  0.13974495532E+02 -0.12410886216E+02  0.72461562063E+02  0.69999989277E+02 0.  0.
         12    1    1    2    0    0  0.11674141356E+01 -0.13974495532E+02  0.12410886216E+02  0.18726437937E+02  0.00000000000E+00 0. -1.
         11    1    3    3    0    0  0.21487819554E+02  0.54970635510E+01  0.84161794750E+01  0.23722903997E+02  0.51100000000E-03 0. -1.
        -11    1    3    3    0    0 -0.54475723014E+01 -0.14096028221E+02 -0.35973241423E+01  0.15534310311E+02  0.51100000000E-03 0.  1.
         12    1    3    3    0    0 -0.17207661388E+02  0.22573460203E+02 -0.17229741549E+02  0.33204347754E+02  0.00000000000E+00 0. -1.
</event>
<event>
 7    1  0.1351543E-013  0.7246157E+02  0.7816164E-02  0.1226708E+00
        -11   -1    0    0    0    0  0.00000000000E+00  0.00000000000E+00  0.45593999997E+02  0.45594000000E+02  0.51100000000E-03 0. -1.
         11   -1    0    0    0    0 -0.00000000000E+00 -0.00000000000E+00 -0.45593999997E+02  0.45594000000E+02  0.51100000000E-03 0.  1.
    9900012    2    1    2    0    0 -0.19619463669E+01 -0.17970624772E+02 -0.48873890556E+01  0.72461570548E+02  0.70000000330E+02 0.  0.
         12    1    1    2    0    0  0.19619463669E+01  0.17970624772E+02  0.48873890556E+01  0.18726429452E+02  0.00000000000E+00 0. -1.
         11    1    3    3    0    0  0.40111117177E+01  0.17310468004E+02 -0.41665377831E+01  0.18251064547E+02  0.51100000000E-03 0. -1.
        -11    1    3    3    0    0  0.12797680858E+02 -0.30935489081E+02 -0.64831346492E+01  0.34100090251E+02  0.51100000000E-03 0.  1.
        -12    1    3    3    0    0 -0.18770738942E+02 -0.43456036953E+01  0.57622833766E+01  0.20110415750E+02  0.00000000000E+00 0.  1.
</event>
<event>
 7    1  0.1351543E-013  0.7246154E+02  0.7816164E-02  0.1226708E+00
        -11   -1    0    0    0    0  0.00000000000E+00  0.00000000000E+00  0.45593999997E+02  0.45594000000E+02  0.51100000000E-03 0.  1.
         11   -1    0    0    0    0 -0.00000000000E+00 -0.00000000000E+00 -0.45593999997E+02  0.45594000000E+02  0.51100000000E-03 0. -1.
    9900012    2    1    2    0    0 -0.56628572742E+01 -0.32721014744E+01 -0.17547244497E+02  0.72461537707E+02  0.69999957549E+02 0.  0.
         12    1    1    2    0    0  0.56628572742E+01  0.32721014744E+01  0.17547244497E+02  0.18726462293E+02  0.00000000000E+00 0. -1.
         11    1    3    3    0    0  0.10107411221E+01  0.11690226215E+02 -0.34378773622E+02  0.36326065884E+02  0.51100000000E-03 0. -1.
        -11    1    3    3    0    0  0.24569910902E+01 -0.33543009026E+00  0.18634410074E+02  0.18798684997E+02  0.51100000000E-03 0.  1.
         12    1    3    3    0    0 -0.91305894865E+01 -0.14626897599E+02 -0.18028809483E+01  0.17336786826E+02  0.00000000000E+00 0. -1.
</event>
<event>
 7    1  0.1351543E-013  0.7246142E+02  0.7816164E-02  0.1226708E+00
        -11   -1    0    0    0    0  0.00000000000E+00  0.00000000000E+00  0.45593999997E+02  0.45594000000E+02  0.51100000000E-03 0.  1.
         11   -1    0    0    0    0 -0.00000000000E+00 -0.00000000000E+00 -0.45593999997E+02  0.45594000000E+02  0.51100000000E-03 0. -1.
    9900012    2    1    2    0    0  0.11179631130E+02  0.87235193294E+01  0.12231145300E+02  0.72461418437E+02  0.69999802177E+02 0.  0.
         12    1    1    2    0    0 -0.11179631130E+02 -0.87235193294E+01 -0.12231145300E+02  0.18726581563E+02  0.00000000000E+00 0. -1.
         11    1    3    3    0    0  0.13863312775E+02 -0.23222623823E+02  0.19214230596E+02  0.33176322218E+02  0.51100000000E-03 0. -1.
        -11    1    3    3    0    0  0.74575495624E+01  0.13649382522E+02 -0.94834430942E+01  0.18216925698E+02  0.51100000000E-03 0.  1.
         12    1    3    3    0    0 -0.10141231207E+02  0.18296760630E+02  0.25003577986E+01  0.21068170521E+02  0.00000000000E+00 0. -1.
</event>
<event>
 7    1  0.1351543E-013  0.7246161E+02  0.7816164E-02  0.1226708E+00
        -11   -1    0    0    0    0  0.00000000000E+00  0.00000000000E+00  0.45593999997E+02  0.45594000000E+02  0.51100000000E-03 0.  1.
         11   -1    0    0    0    0 -0.00000000000E+00 -0.00000000000E+00 -0.45593999997E+02  0.45594000000E+02  0.51100000000E-03 0. -1.
    9900012    2    1    2    0    0 -0.15809706592E+02 -0.53713011917E+01  0.84782150513E+01  0.72461606074E+02  0.70000046610E+02 0.  0.
         12    1    1    2    0    0  0.15809706592E+02  0.53713011917E+01 -0.84782150513E+01  0.18726393926E+02  0.00000000000E+00 0. -1.
         11    1    3    3    0    0 -0.28197951181E+02  0.42783601439E+01  0.30214843729E+02  0.41549555933E+02  0.51100000000E-03 0.  1.
        -11    1    3    3    0    0  0.77990319823E+01  0.17681716681E+01 -0.14705797722E+02  0.16739528602E+02  0.51100000000E-03 0. -1.
        -12    1    3    3    0    0  0.45892126071E+01 -0.11417833004E+02 -0.70308309556E+01  0.14172521539E+02  0.00000000000E+00 0.  1.
</event>
<event>
 7    1  0.1351543E-013  0.7246113E+02  0.7816164E-02  0.1226709E+00
        -11   -1    0    0    0    0  0.00000000000E+00  0.00000000000E+00  0.45593999997E+02  0.45594000000E+02  0.51100000000E-03 0.  1.
         11   -1    0    0    0    0 -0.00000000000E+00 -0.00000000000E+00 -0.45593999997E+02  0.45594000000E+02  0.51100000000E-03 0. -1.
    9900012    2    1    2    0    0  0.17929943855E+02  0.50764386857E+01  0.18554449664E+01  0.72461126465E+02  0.69999421827E+02 0.  0.
         12    1    1    2    0    0 -0.17929943855E+02 -0.50764386857E+01 -0.18554449664E+01  0.18726873535E+02  0.00000000000E+00 0. -1.
         11    1    3    3    0    0 -0.24814715123E+02  0.74167576595E+01  0.61791905291E+01  0.26626317370E+02  0.51100000000E-03 0. -1.
        -11    1    3    3    0    0  0.15816300872E+02  0.54325684414E+01  0.27013755481E+01  0.16940059128E+02  0.51100000000E-03 0.  1.
         12    1    3    3    0    0  0.26928358106E+02 -0.77728874152E+01 -0.70251211108E+01  0.28894749967E+02  0.00000000000E+00 0. -1.
</event>
<event>
 7    1  0.1351543E-013  0.7246157E+02  0.7816164E-02  0.1226708E+00
        -11   -1    0    0    0    0  0.00000000000E+00  0.00000000000E+00  0.45593999997E+02  0.45594000000E+02  0.51100000000E-03 0.  1.
         11   -1    0    0    0    0 -0.00000000000E+00 -0.00000000000E+00 -0.45593999997E+02  0.45594000000E+02  0.51100000000E-03 0. -1.
    9900012    2    1    2    0    0 -0.16251710657E+02  0.75936009746E+01  0.53756998557E+01  0.72461574180E+02  0.70000005062E+02 0.  0.
         12    1    1    2    0    0  0.16251710657E+02 -0.75936009746E+01 -0.53756998557E+01  0.18726425820E+02  0.00000000000E+00 0. -1.
         11    1    3    3    0    0 -0.37563156907E+02  0.88179574349E+01  0.15398211933E+02  0.41543375659E+02  0.51100000000E-03 0.  1.
        -11    1    3    3    0    0  0.24454545059E+01 -0.58507872866E+01  0.35064910557E+01  0.72462017222E+01  0.51100000000E-03 0. -1.
         12    1    3    3    0    0  0.18865991744E+02  0.46264308263E+01 -0.13529003133E+02  0.23671996799E+02  0.00000000000E+00 0. -1.
</event>
<event>
 7    1  0.1351543E-013  0.7246157E+02  0.7816164E-02  0.1226708E+00
        -11   -1    0    0    0    0  0.00000000000E+00  0.00000000000E+00  0.45593999997E+02  0.45594000000E+02  0.51100000000E-03 0.  1.
         11   -1    0    0    0    0 -0.00000000000E+00 -0.00000000000E+00 -0.45593999997E+02  0.45594000000E+02  0.51100000000E-03 0. -1.
    9900012    2    1    2    0    0 -0.10461431405E+02  0.15493174352E+02 -0.10950519604E+01  0.72461571153E+02  0.70000001119E+02 0.  0.
         12    1    1    2    0    0  0.10461431405E+02 -0.15493174352E+02  0.10950519604E+01  0.18726428847E+02  0.00000000000E+00 0. -1.
         11    1    3    3    0    0  0.60952085562E+01 -0.78054348108E+01 -0.12622142796E+02  0.16043530439E+02  0.51100000000E-03 0. -1.
        -11    1    3    3    0    0 -0.26038628638E+02 -0.39591704378E+01  0.45704682254E+01  0.26731524311E+02  0.51100000000E-03 0.  1.
        -12    1    3    3    0    0  0.94819886771E+01  0.27257779601E+02  0.69566226101E+01  0.29686516403E+02  0.00000000000E+00 0.  1.
</event>
<event>
 7    1  0.1351543E-013  0.7246155E+02  0.7816164E-02  0.1226708E+00
        -11   -1    0    0    0    0  0.00000000000E+00  0.00000000000E+00  0.45593999997E+02  0.45594000000E+02  0.51100000000E-03 0. -1.
         11   -1    0    0    0    0 -0.00000000000E+00 -0.00000000000E+00 -0.45593999997E+02  0.45594000000E+02  0.51100000000E-03 0.  1.
    9900012    2    1    2    0    0  0.15827529376E+02 -0.40989024580E+01 -0.91306237463E+01  0.72461548721E+02  0.69999971897E+02 0.  0.
         12    1    1    2    0    0 -0.15827529376E+02  0.40989024580E+01  0.91306237463E+01  0.18726451279E+02  0.00000000000E+00 0. -1.
         11    1    3    3    0    0  0.10151988412E+02  0.46588660831E+00  0.22514670591E+02  0.24702030506E+02  0.51100000000E-03 0. -1.
        -11    1    3    3    0    0  0.14091179311E+02 -0.92379978941E+01 -0.33914603524E+02  0.37869542800E+02  0.51100000000E-03 0.  1.
        -12    1    3    3    0    0 -0.84156383463E+01  0.46732088278E+01  0.22693091868E+01  0.98899754150E+01  0.00000000000E+00 0.  1.
</event>
<event>
 7    1  0.1351543E-013  0.7246149E+02  0.7816164E-02  0.1226708E+00
        -11   -1    0    0    0    0  0.00000000000E+00  0.00000000000E+00  0.45593999997E+02  0.45594000000E+02  0.51100000000E-03 0. -1.
         11   -1    0    0    0    0 -0.00000000000E+00 -0.00000000000E+00 -0.45593999997E+02  0.45594000000E+02  0.51100000000E-03 0.  1.
    9900012    2    1    2    0    0  0.62115060493E+00  0.12345893537E+02 -0.14066816651E+02  0.72461488152E+02  0.69999892994E+02 0.  0.
         12    1    1    2    0    0 -0.62115060493E+00 -0.12345893537E+02  0.14066816651E+02  0.18726511848E+02  0.00000000000E+00 0. -1.
         11    1    3    3    0    0 -0.22142744099E+02  0.14957600324E+02  0.90491482303E+01  0.28212018851E+02  0.51100000000E-03 0. -1.
        -11    1    3    3    0    0  0.19165161859E+02  0.12909852182E+01  0.13100619264E+01  0.19253216210E+02  0.51100000000E-03 0.  1.
         12    1    3    3    0    0  0.35987328457E+01 -0.39026920052E+01 -0.24426026808E+02  0.24996253091E+02  0.00000000000E+00 0. -1.
</event>
<event>
 7    1  0.1351543E-013  0.7246164E+02  0.7816164E-02  0.1226708E+00
        -11   -1    0    0    0    0  0.00000000000E+00  0.00000000000E+00  0.45593999997E+02  0.45594000000E+02  0.51100000000E-03 0. -1.
         11   -1    0    0    0    0 -0.00000000000E+00 -0.00000000000E+00 -0.45593999997E+02  0.45594000000E+02  0.51100000000E-03 0.  1.
    9900012    2    1    2    0    0 -0.13841688081E+02 -0.96637648335E+01  0.81052883158E+01  0.72461644819E+02  0.70000097082E+02 0.  0.
         12    1    1    2    0    0  0.13841688081E+02  0.96637648335E+01 -0.81052883158E+01  0.18726355181E+02  0.00000000000E+00 0. -1.
         11    1    3    3    0    0  0.14882040990E+02 -0.79551474988E+01  0.20138336036E+02  0.26273791015E+02  0.51100000000E-03 0. -1.
        -11    1    3    3    0    0 -0.27988020250E+02  0.75036075022E+01  0.23718235477E+01  0.29073337446E+02  0.51100000000E-03 0.  1.
        -12    1    3    3    0    0 -0.73570882024E+00 -0.92122248369E+01 -0.14404871268E+02  0.17114516358E+02  0.00000000000E+00 0.  1.
</event>
<event>
 7    1  0.1351543E-013  0.7246146E+02  0.7816164E-02  0.1226708E+00
        -11   -1    0    0    0    0  0.00000000000E+00  0.00000000000E+00  0.45593999997E+02  0.45594000000E+02  0.51100000000E-03 0. -1.
         11   -1    0    0    0    0 -0.00000000000E+00 -0.00000000000E+00 -0.45593999997E+02  0.45594000000E+02  0.51100000000E-03 0.  1.
    9900012    2    1    2    0    0  0.70511871691E+01 -0.17277983645E+02 -0.15605427765E+01  0.72461461262E+02  0.69999857966E+02 0.  0.
         12    1    1    2    0    0 -0.70511871691E+01  0.17277983645E+02  0.15605427765E+01  0.18726538738E+02  0.00000000000E+00 0. -1.
         11    1    3    3    0    0  0.19170740158E+02 -0.11791873915E+02 -0.59749077377E+01  0.23286586083E+02  0.51100000000E-03 0. -1.
        -11    1    3    3    0    0 -0.27546408668E+02 -0.51766415467E-01 -0.79506416314E+01  0.28670891386E+02  0.51100000000E-03 0.  1.
        -12    1    3    3    0    0  0.15426855678E+02 -0.54343433142E+01  0.12365006593E+02  0.20503983794E+02  0.00000000000E+00 0.  1.
</event>
<event>
 7    1  0.1351543E-013  0.7246140E+02  0.7816164E-02  0.1226708E+00
        -11   -1    0    0    0    0  0.00000000000E+00  0.00000000000E+00  0.45593999997E+02  0.45594000000E+02  0.51100000000E-03 0. -1.
         11   -1    0    0    0    0 -0.00000000000E+00 -0.00000000000E+00 -0.45593999997E+02  0.45594000000E+02  0.51100000000E-03 0.  1.
    9900012    2    1    2    0    0  0.13099944219E+02  0.84274039189E+01 -0.10394987090E+02  0.72461403087E+02  0.69999782181E+02 0.  0.
         12    1    1    2    0    0 -0.13099944219E+02 -0.84274039189E+01  0.10394987090E+02  0.18726596913E+02  0.00000000000E+00 0. -1.
         11    1    3    3    0    0  0.21263020125E+02  0.95961537828E+01  0.23747953554E+01  0.23448706691E+02  0.51100000000E-03 0. -1.
        -11    1    3    3    0    0 -0.39494910536E+01  0.18108412822E+01 -0.30366034086E+02  0.30675293839E+02  0.51100000000E-03 0.  1.
        -12    1    3    3    0    0 -0.42135848524E+01 -0.29795911460E+01  0.17596251641E+02  0.18337402557E+02  0.00000000000E+00 0.  1.
</event>
<event>
 7    1  0.1351543E-013  0.7246204E+02  0.7816164E-02  0.1226707E+00
        -11   -1    0    0    0    0  0.00000000000E+00  0.00000000000E+00  0.45593999997E+02  0.45594000000E+02  0.51100000000E-03 0.  1.
         11   -1    0    0    0    0 -0.00000000000E+00 -0.00000000000E+00 -0.45593999997E+02  0.45594000000E+02  0.51100000000E-03 0. -1.
    9900012    2    1    2    0    0 -0.11351958393E+01  0.10278807571E+02  0.15611500527E+02  0.72462041990E+02  0.70000614469E+02 0.  0.
         12    1    1    2    0    0  0.11351958393E+01 -0.10278807571E+02 -0.15611500527E+02  0.18725958010E+02  0.00000000000E+00 0. -1.
         11    1    3    3    0    0  0.67555403510E-01  0.81232733524E+01 -0.20349584560E+02  0.21911132461E+02  0.51100000000E-03 0. -1.
        -11    1    3    3    0    0  0.15633914901E+02 -0.42187014083E+01  0.23944529390E+02  0.28906006723E+02  0.51100000000E-03 0.  1.
        -12    1    3    3    0    0 -0.16836666144E+02  0.63742356268E+01  0.12016555697E+02  0.21644902806E+02  0.00000000000E+00 0.  1.
</event>
<event>
 7    1  0.1351543E-013  0.7246078E+02  0.7816164E-02  0.1226710E+00
        -11   -1    0    0    0    0  0.00000000000E+00  0.00000000000E+00  0.45593999997E+02  0.45594000000E+02  0.51100000000E-03 0. -1.
         11   -1    0    0    0    0 -0.00000000000E+00 -0.00000000000E+00 -0.45593999997E+02  0.45594000000E+02  0.51100000000E-03 0.  1.
    9900012    2    1    2    0    0 -0.13041228652E+02  0.13392782940E+02  0.11263370623E+01  0.72460776105E+02  0.69998965413E+02 0.  0.
         12    1    1    2    0    0  0.13041228652E+02 -0.13392782940E+02 -0.11263370623E+01  0.18727223895E+02  0.00000000000E+00 0. -1.
         11    1    3    3    0    0  0.79286600709E+01  0.11052398267E+02  0.12178393163E+02  0.18257393523E+02  0.51100000000E-03 0. -1.
        -11    1    3    3    0    0 -0.31450921948E+02  0.42161369981E+01  0.76874846551E+01  0.32650171870E+02  0.51100000000E-03 0.  1.
        -12    1    3    3    0    0  0.10481033225E+02 -0.18757523251E+01 -0.18739540756E+02  0.21553210711E+02  0.00000000000E+00 0.  1.
</event>
<event>
 7    1  0.1351543E-013  0.7246159E+02  0.7816164E-02  0.1226708E+00
        -11   -1    0    0    0    0  0.00000000000E+00  0.00000000000E+00  0.45593999997E+02  0.45594000000E+02  0.51100000000E-03 0.  1.
         11   -1    0    0    0    0 -0.00000000000E+00 -0.00000000000E+00 -0.45593999997E+02  0.45594000000E+02  0.51100000000E-03 0. -1.
    9900012    2    1    2    0    0 -0.67404649239E+01 -0.72271822859E+01  0.15906357771E+02  0.72461594880E+02  0.70000032027E+02 0.  0.
         12    1    1    2    0    0  0.67404649239E+01  0.72271822859E+01 -0.15906357771E+02  0.18726405120E+02  0.00000000000E+00 0. -1.
         11    1    3    3    0    0 -0.60260997986E+01 -0.22951565426E+02 -0.89767135835E+01  0.25370644874E+02  0.51100000000E-03 0. -1.
        -11    1    3    3    0    0 -0.18395282135E+02  0.43186335791E+01  0.12875874804E+02  0.22865370171E+02  0.51100000000E-03 0.  1.
        -12    1    3    3    0    0  0.17680917010E+02  0.11405749561E+02  0.12007196551E+02  0.24225579836E+02  0.00000000000E+00 0.  1.
</event>
<event>
 7    1  0.1351543E-013  0.7246137E+02  0.7816164E-02  0.1226709E+00
        -11   -1    0    0    0    0  0.00000000000E+00  0.00000000000E+00  0.45593999997E+02  0.45594000000E+02  0.51100000000E-03 0. -1.
         11   -1    0    0    0    0 -0.00000000000E+00 -0.00000000000E+00 -0.45593999997E+02  0.45594000000E+02  0.51100000000E-03 0.  1.
    9900012    2    1    2    0    0 -0.88834303951E+01 -0.80382281472E+01 -0.14392996812E+02  0.72461366438E+02  0.69999734439E+02 0.  0.
         12    1    1    2    0    0  0.88834303951E+01  0.80382281472E+01  0.14392996812E+02  0.18726633562E+02  0.00000000000E+00 0. -1.
         11    1    3    3    0    0 -0.22214763446E+02  0.17707553768E+02  0.47858945330E+01  0.28808990995E+02  0.51100000000E-03 0. -1.
        -11    1    3    3    0    0  0.11641421182E+02 -0.39780969809E+01  0.28593289551E+01  0.12630269398E+02  0.51100000000E-03 0.  1.
         12    1    3    3    0    0  0.16899118694E+01 -0.21767684934E+02 -0.22038220300E+02  0.31022106046E+02  0.00000000000E+00 0. -1.
</event>
<event>
 7    1  0.1351543E-013  0.7246157E+02  0.7816164E-02  0.1226708E+00
        -11   -1    0    0    0    0  0.00000000000E+00  0.00000000000E+00  0.45593999997E+02  0.45594000000E+02  0.51100000000E-03 0. -1.
         11   -1    0    0    0    0 -0.00000000000E+00 -0.00000000000E+00 -0.45593999997E+02  0.45594000000E+02  0.51100000000E-03 0.  1.
    9900012    2    1    2    0    0  0.17690626243E+02  0.21267108854E+01 -0.57617667501E+01  0.72461571827E+02  0.70000001996E+02 0.  0.
         12    1    1    2    0    0 -0.17690626243E+02 -0.21267108854E+01  0.57617667501E+01  0.18726428173E+02  0.00000000000E+00 0. -1.
         11    1    3    3    0    0  0.29765383176E+01  0.30136511258E+01  0.16326358697E+02  0.16866886554E+02  0.51100000000E-03 0. -1.
        -11    1    3    3    0    0 -0.76784698215E+01  0.51594458587E+01 -0.29759722197E+02  0.31164400297E+02  0.51100000000E-03 0.  1.
        -12    1    3    3    0    0  0.22392557747E+02 -0.60463860991E+01  0.76715967506E+01  0.24430284976E+02  0.00000000000E+00 0.  1.
</event>
<event>
 7    1  0.1351543E-013  0.7246157E+02  0.7816164E-02  0.1226708E+00
        -11   -1    0    0    0    0  0.00000000000E+00  0.00000000000E+00  0.45593999997E+02  0.45594000000E+02  0.51100000000E-03 0. -1.
         11   -1    0    0    0    0 -0.00000000000E+00 -0.00000000000E+00 -0.45593999997E+02  0.45594000000E+02  0.51100000000E-03 0.  1.
    9900012    2    1    2    0    0  0.11863294602E+02 -0.91788873856E+01  0.11211132731E+02  0.72461568691E+02  0.69999997911E+02 0.  0.
         12    1    1    2    0    0 -0.11863294602E+02  0.91788873856E+01 -0.11211132731E+02  0.18726431309E+02  0.00000000000E+00 0. -1.
         11    1    3    3    0    0 -0.10659972229E+02 -0.21263526130E+02  0.99701424198E+01  0.25791011836E+02  0.51100000000E-03 0. -1.
        -11    1    3    3    0    0  0.88092791224E+01  0.25263032618E+02  0.51689540788E+01  0.27249629397E+02  0.51100000000E-03 0.  1.
         12    1    3    3    0    0  0.13713987709E+02 -0.13178393874E+02 -0.39279637671E+01  0.19420927458E+02  0.00000000000E+00 0. -1.
</event>
<event>
 7    1  0.1351543E-013  0.7246148E+02  0.7816164E-02  0.1226708E+00
        -11   -1    0    0    0    0  0.00000000000E+00  0.00000000000E+00  0.45593999997E+02  0.45594000000E+02  0.51100000000E-03 0.  1.
         11   -1    0    0    0    0 -0.00000000000E+00 -0.00000000000E+00 -0.45593999997E+02  0.45594000000E+02  0.51100000000E-03 0. -1.
    9900012    2    1    2    0    0 -0.65389412344E+01 -0.72032417568E+01  0.16001188384E+02  0.72461482065E+02  0.69999885065E+02 0.  0.
         12    1    1    2    0    0  0.65389412344E+01  0.72032417568E+01 -0.16001188384E+02  0.18726517935E+02  0.00000000000E+00 0. -1.
         11    1    3    3    0    0  0.18837765545E+02  0.47332122654E+01  0.10338999865E+02  0.22003627599E+02  0.51100000000E-03 0. -1.
        -11    1    3    3    0    0 -0.12619025141E+02 -0.18241030841E+02  0.20282177348E+02  0.30055643728E+02  0.51100000000E-03 0.  1.
         12    1    3    3    0    0 -0.12757681638E+02  0.63045768186E+01 -0.14619988829E+02  0.20402210738E+02  0.00000000000E+00 0. -1.
</event>
<event>
 7    1  0.1351543E-013  0.7246155E+02  0.7816164E-02  0.1226708E+00
        -11   -1    0    0    0    0  0.00000000000E+00  0.00000000000E+00  0.45593999997E+02  0.45594000000E+02  0.51100000000E-03 0.  1.
         11   -1    0    0    0    0 -0.00000000000E+00 -0.00000000000E+00 -0.45593999997E+02  0.45594000000E+02  0.51100000000E-03 0. -1.
    9900012    2    1    2    0    0  0.54330302232E+01 -0.17102025979E+02  0.53556465601E+01  0.72461546516E+02  0.69999969025E+02 0.  0.
         12    1    1    2    0    0 -0.54330302232E+01  0.17102025979E+02 -0.53556465601E+01  0.18726453484E+02  0.00000000000E+00 0. -1.
         11    1    3    3    0    0  0.94204652836E+00  0.82102128707E+01 -0.17855670942E+01  0.84547795449E+01  0.51100000000E-03 0. -1.
        -11    1    3    3    0    0  0.30711626570E+01 -0.27046667855E+02 -0.21864649914E+02  0.34914426792E+02  0.51100000000E-03 0.  1.
        -12    1    3    3    0    0  0.14198210379E+01  0.17344290051E+01  0.29005863568E+02  0.29092340179E+02  0.00000000000E+00 0.  1.
</event>
<event>
 7    1  0.1351543E-013  0.7246159E+02  0.7816164E-02  0.1226708E+00
        -11   -1    0    0    0    0  0.00000000000E+00  0.00000000000E+00  0.45593999997E+02  0.45594000000E+02  0.51100000000E-03 0. -1.
         11   -1    0    0    0    0 -0.00000000000E+00 -0.00000000000E+00 -0.45593999997E+02  0.45594000000E+02  0.51100000000E-03 0.  1.
    9900012    2    1    2    0    0 -0.42730399497E+01 -0.13015665239E+02 -0.12767618694E+02  0.72461588193E+02  0.70000023317E+02 0.  0.
         12    1    1    2    0    0  0.42730399497E+01  0.13015665239E+02  0.12767618694E+02  0.18726411807E+02  0.00000000000E+00 0. -1.
         11    1    3    3    0    0 -0.18759082711E+01 -0.15663913574E+02  0.23511017370E+02  0.28313338876E+02  0.51100000000E-03 0. -1.
        -11    1    3    3    0    0  0.41341625010E+01  0.11642944265E+02 -0.11035261692E+02  0.16565821791E+02  0.51100000000E-03 0.  1.
         12    1    3    3    0    0 -0.65312941795E+01 -0.89946959305E+01 -0.25243374372E+02  0.27582427526E+02  0.00000000000E+00 0. -1.
</event>
<event>
 7    1  0.1351543E-013  0.7246155E+02  0.7816164E-02  0.1226708E+00
        -11   -1    0    0    0    0  0.00000000000E+00  0.00000000000E+00  0.45593999997E+02  0.45594000000E+02  0.51100000000E-03 0. -1.
         11   -1    0    0    0    0 -0.00000000000E+00 -0.00000000000E+00 -0.45593999997E+02  0.45594000000E+02  0.51100000000E-03 0.  1.
    9900012    2    1    2    0    0 -0.16264563277E+02 -0.77238058931E+01 -0.51465083372E+01  0.72461554952E+02  0.69999980014E+02 0.  0.
         12    1    1    2    0    0  0.16264563277E+02  0.77238058931E+01  0.51465083372E+01  0.18726445048E+02  0.00000000000E+00 0. -1.
         11    1    3    3    0    0 -0.93201442125E+01  0.11452434206E+02 -0.79288578607E+01  0.16759776986E+02  0.51100000000E-03 0. -1.
        -11    1    3    3    0    0  0.18410951597E+02 -0.17573044746E+02 -0.98964977843E+01  0.27307795755E+02  0.51100000000E-03 0.  1.
        -12    1    3    3    0    0 -0.25355370662E+02 -0.16031953526E+01  0.12678847308E+02  0.28393982211E+02  0.00000000000E+00 0.  1.
</event>
<event>
 7    1  0.1351543E-013  0.7246156E+02  0.7816164E-02  0.1226708E+00
        -11   -1    0    0    0    0  0.00000000000E+00  0.00000000000E+00  0.45593999997E+02  0.45594000000E+02  0.51100000000E-03 0.  1.
         11   -1    0    0    0    0 -0.00000000000E+00 -0.00000000000E+00 -0.45593999997E+02  0.45594000000E+02  0.51100000000E-03 0. -1.
    9900012    2    1    2    0    0 -0.73877896321E+01  0.16519019411E+02 -0.48189307070E+01  0.72461560640E+02  0.69999987424E+02 0.  0.
         12    1    1    2    0    0  0.73877896321E+01 -0.16519019411E+02  0.48189307070E+01  0.18726439360E+02  0.00000000000E+00 0. -1.
         11    1    3    3    0    0 -0.16681352411E+02 -0.17112808800E+02 -0.94483098507E+00  0.23916698123E+02  0.51100000000E-03 0. -1.
        -11    1    3    3    0    0 -0.60474882197E+01  0.30454686072E+02 -0.85324885184E+01  0.32200363012E+02  0.51100000000E-03 0.  1.
        -12    1    3    3    0    0  0.15341050998E+02  0.31771421383E+01  0.46583887965E+01  0.16344499505E+02  0.00000000000E+00 0.  1.
</event>
<event>
 7    1  0.1351543E-013  0.7246143E+02  0.7816164E-02  0.1226708E+00
        -11   -1    0    0    0    0  0.00000000000E+00  0.00000000000E+00  0.45593999997E+02  0.45594000000E+02  0.51100000000E-03 0. -1.
         11   -1    0    0    0    0 -0.00000000000E+00 -0.00000000000E+00 -0.45593999997E+02  0.45594000000E+02  0.51100000000E-03 0.  1.
    9900012    2    1    2    0    0 -0.43595542109E+01 -0.17650725955E+02 -0.44867264330E+01  0.72461426535E+02  0.69999812726E+02 0.  0.
         12    1    1    2    0    0  0.43595542109E+01  0.17650725955E+02  0.44867264330E+01  0.18726573465E+02  0.00000000000E+00 0. -1.
         11    1    3    3    0    0 -0.13009118752E+02 -0.49890735849E+01  0.17554084135E+02  0.22411467958E+02  0.51100000000E-03 0. -1.
        -11    1    3    3    0    0  0.20250562431E+02  0.33681602639E+01 -0.22233770476E+02  0.30261697444E+02  0.51100000000E-03 0.  1.
         12    1    3    3    0    0 -0.11600997890E+02 -0.16029812634E+02  0.19295990756E+00  0.19788261133E+02  0.00000000000E+00 0. -1.
</event>
<event>
 7    1  0.1351543E-013  0.7246155E+02  0.7816164E-02  0.1226708E+00
        -11   -1    0    0    0    0  0.00000000000E+00  0.00000000000E+00  0.45593999997E+02  0.45594000000E+02  0.51100000000E-03 0. -1.
         11   -1    0    0    0    0 -0.00000000000E+00 -0.00000000000E+00 -0.45593999997E+02  0.45594000000E+02  0.51100000000E-03 0.  1.
    9900012    2    1    2    0    0 -0.18460426101E+02  0.30485476148E+01  0.77403146124E+00  0.72461545475E+02  0.69999967668E+02 0.  0.
         12    1    1    2    0    0  0.18460426101E+02 -0.30485476148E+01 -0.77403146124E+00  0.18726454525E+02  0.00000000000E+00 0. -1.
         11    1    3    3    0    0  0.69162705965E+01 -0.10613241293E+02 -0.17852635558E+02  0.21890461081E+02  0.51100000000E-03 0. -1.
        -11    1    3    3    0    0 -0.25241594427E+02  0.19545374919E+02  0.94775105175E+00  0.31938346893E+02  0.51100000000E-03 0.  1.
         12    1    3    3    0    0 -0.13510226975E+00 -0.58835860110E+01  0.17678915968E+02  0.18632737501E+02  0.00000000000E+00 0. -1.
</event>
<event>
 7    1  0.1351543E-013  0.7246154E+02  0.7816164E-02  0.1226708E+00
        -11   -1    0    0    0    0  0.00000000000E+00  0.00000000000E+00  0.45593999997E+02  0.45594000000E+02  0.51100000000E-03 0.  1.
         11   -1    0    0    0    0 -0.00000000000E+00 -0.00000000000E+00 -0.45593999997E+02  0.45594000000E+02  0.51100000000E-03 0. -1.
    9900012    2    1    2    0    0 -0.13995232160E+02  0.11824508565E+02  0.38723066220E+01  0.72461540522E+02  0.69999961216E+02 0.  0.
         12    1    1    2    0    0  0.13995232160E+02 -0.11824508565E+02 -0.38723066220E+01  0.18726459478E+02  0.00000000000E+00 0. -1.
         11    1    3    3    0    0  0.46038322827E+01 -0.16942376638E+02  0.20588379970E+02  0.27057730649E+02  0.51100000000E-03 0. -1.
        -11    1    3    3    0    0 -0.19326705046E+02  0.72730537503E+01 -0.93844623449E+01  0.22682305274E+02  0.51100000000E-03 0.  1.
        -12    1    3    3    0    0  0.72764060348E+00  0.21493831452E+02 -0.73316110027E+01  0.22721504599E+02  0.00000000000E+00 0.  1.
</event>
<event>
 7    1  0.1351543E-013  0.7246157E+02  0.7816164E-02  0.1226708E+00
        -11   -1    0    0    0    0  0.00000000000E+00  0.00000000000E+00  0.45593999997E+02  0.45594000000E+02  0.51100000000E-03 0. -1.
         11   -1    0    0    0    0 -0.00000000000E+00 -0.00000000000E+00 -0.45593999997E+02  0.45594000000E+02  0.51100000000E-03 0.  1.
    9900012    2    1    2    0    0  0.10450527537E+02 -0.15294013428E+02 -0.27493387207E+01  0.72461568521E+02  0.69999997690E+02 0.  0.
         12    1    1    2    0    0 -0.10450527537E+02  0.15294013428E+02  0.27493387207E+01  0.18726431479E+02  0.00000000000E+00 0. -1.
         11    1    3    3    0    0  0.34453005411E+01 -0.25182381403E+02  0.16598206704E+02  0.30356595577E+02  0.51100000000E-03 0. -1.
        -11    1    3    3    0    0  0.19115654160E+02  0.13190654748E+02 -0.64425902289E+01  0.24102045053E+02  0.51100000000E-03 0.  1.
        -12    1    3    3    0    0 -0.12110427164E+02 -0.33022867726E+01 -0.12904955196E+02  0.18002927891E+02  0.00000000000E+00 0.  1.
</event>
<event>
 7    1  0.1351543E-013  0.7246158E+02  0.7816164E-02  0.1226708E+00
        -11   -1    0    0    0    0  0.00000000000E+00  0.00000000000E+00  0.45593999997E+02  0.45594000000E+02  0.51100000000E-03 0. -1.
         11   -1    0    0    0    0 -0.00000000000E+00 -0.00000000000E+00 -0.45593999997E+02  0.45594000000E+02  0.51100000000E-03 0.  1.
    9900012    2    1    2    0    0  0.14184112514E+02  0.55334960102E+01  0.10902755786E+02  0.72461582574E+02  0.70000015996E+02 0.  0.
         12    1    1    2    0    0 -0.14184112514E+02 -0.55334960102E+01 -0.10902755786E+02  0.18726417426E+02  0.00000000000E+00 0. -1.
         11    1    3    3    0    0  0.13365519223E+02 -0.20930604806E+02  0.85588272559E+01  0.26267486479E+02  0.51100000000E-03 0. -1.
        -11    1    3    3    0    0  0.12760310887E+01  0.36279316823E+02  0.21732440403E+01  0.36366744072E+02  0.51100000000E-03 0.  1.
        -12    1    3    3    0    0 -0.45743779791E+00 -0.98152160065E+01  0.17068448951E+00  0.98273520232E+01  0.00000000000E+00 0.  1.
</event>
<event>
 7    1  0.1351543E-013  0.7246163E+02  0.7816164E-02  0.1226708E+00
        -11   -1    0    0    0    0  0.00000000000E+00  0.00000000000E+00  0.45593999997E+02  0.45594000000E+02  0.51100000000E-03 0.  1.
         11   -1    0    0    0    0 -0.00000000000E+00 -0.00000000000E+00 -0.45593999997E+02  0.45594000000E+02  0.51100000000E-03 0. -1.
    9900012    2    1    2    0    0  0.16869919264E+02 -0.76633968452E+01  0.27120025453E+01  0.72461633962E+02  0.70000082939E+02 0.  0.
         12    1    1    2    0    0 -0.16869919264E+02  0.76633968452E+01 -0.27120025453E+01  0.18726366038E+02  0.00000000000E+00 0. -1.
         11    1    3    3    0    0 -0.51781494877E+01  0.11647656901E+02 -0.18563095199E+02  0.22518207012E+02  0.51100000000E-03 0. -1.
        -11    1    3    3    0    0  0.15661116301E+02 -0.27658675233E+02  0.23077766727E+02  0.39279208199E+02  0.51100000000E-03 0.  1.
        -12    1    3    3    0    0  0.63869524513E+01  0.83476214869E+01 -0.18026689828E+01  0.10664218751E+02  0.00000000000E+00 0.  1.
</event>
<event>
 7    1  0.1351543E-013  0.7246161E+02  0.7816164E-02  0.1226708E+00
        -11   -1    0    0    0    0  0.00000000000E+00  0.00000000000E+00  0.45593999997E+02  0.45594000000E+02  0.51100000000E-03 0.  1.
         11   -1    0    0    0    0 -0.00000000000E+00 -0.00000000000E+00 -0.45593999997E+02  0.45594000000E+02  0.51100000000E-03 0. -1.
    9900012    2    1    2    0    0  0.86870556605E+01 -0.27440403166E+01  0.16361020419E+02  0.72461610000E+02  0.70000051723E+02 0.  0.
         12    1    1    2    0    0 -0.86870556605E+01  0.27440403166E+01 -0.16361020419E+02  0.18726390000E+02  0.00000000000E+00 0. -1.
         11    1    3    3    0    0 -0.12834389015E+02 -0.19491986860E+02 -0.53917521035E+01  0.23952663404E+02  0.51100000000E-03 0. -1.
        -11    1    3    3    0    0  0.23003949828E+02 -0.32638841768E+01  0.10427781791E+02  0.25467101935E+02  0.51100000000E-03 0.  1.
        -12    1    3    3    0    0 -0.14825051527E+01  0.20011830720E+02  0.11324990731E+02  0.23041844660E+02  0.00000000000E+00 0.  1.
</event>
<event>
 7    1  0.1351543E-013  0.7246160E+02  0.7816164E-02  0.1226708E+00
        -11   -1    0    0    0    0  0.00000000000E+00  0.00000000000E+00  0.45593999997E+02  0.45594000000E+02  0.51100000000E-03 0. -1.
         11   -1    0    0    0    0 -0.00000000000E+00 -0.00000000000E+00 -0.45593999997E+02  0.45594000000E+02  0.51100000000E-03 0.  1.
    9900012    2    1    2    0    0 -0.16814868492E+02 -0.71714491831E+01 -0.40630662927E+01  0.72461601695E+02  0.70000040905E+02 0.  0.
         12    1    1    2    0    0  0.16814868492E+02  0.71714491831E+01  0.40630662927E+01  0.18726398305E+02  0.00000000000E+00 0. -1.
         11    1    3    3    0    0 -0.66766577188E+01  0.24618140646E+02 -0.63324816375E+01  0.26281760426E+02  0.51100000000E-03 0. -1.
        -11    1    3    3    0    0  0.10778848912E+02 -0.14636374155E+02 -0.35236894284E+01  0.18515491345E+02  0.51100000000E-03 0.  1.
         12    1    3    3    0    0 -0.20917059685E+02 -0.17153215673E+02  0.57931047733E+01  0.27664349924E+02  0.00000000000E+00 0. -1.
</event>
<event>
 7    1  0.1351543E-013  0.7246144E+02  0.7816164E-02  0.1226708E+00
        -11   -1    0    0    0    0  0.00000000000E+00  0.00000000000E+00  0.45593999997E+02  0.45594000000E+02  0.51100000000E-03 0. -1.
         11   -1    0    0    0    0 -0.00000000000E+00 -0.00000000000E+00 -0.45593999997E+02  0.45594000000E+02  0.51100000000E-03 0.  1.
    9900012    2    1    2    0    0 -0.51096816512E+01 -0.13565261412E+02 -0.11855756462E+02  0.72461437982E+02  0.69999827638E+02 0.  0.
         12    1    1    2    0    0  0.51096816512E+01  0.13565261412E+02  0.11855756462E+02  0.18726562018E+02  0.00000000000E+00 0. -1.
         11    1    3    3    0    0 -0.11912189813E+02  0.17892086714E+02 -0.87749570979E+01  0.23216952975E+02  0.51100000000E-03 0. -1.
        -11    1    3    3    0    0  0.15381680030E+02 -0.25634995357E+02 -0.14999181359E+02  0.33447339344E+02  0.51100000000E-03 0.  1.
         12    1    3    3    0    0 -0.85791718679E+01 -0.58223527683E+01  0.11918381995E+02  0.15797145663E+02  0.00000000000E+00 0. -1.
</event>
<event>
 7    1  0.1351543E-013  0.7246220E+02  0.7816164E-02  0.1226706E+00
        -11   -1    0    0    0    0  0.00000000000E+00  0.00000000000E+00  0.45593999997E+02  0.45594000000E+02  0.51100000000E-03 0.  1.
         11   -1    0    0    0    0 -0.00000000000E+00 -0.00000000000E+00 -0.45593999997E+02  0.45594000000E+02  0.51100000000E-03 0. -1.
    9900012    2    1    2    0    0 -0.19367362585E+01 -0.60010385195E+01  0.17632131972E+02  0.72462202593E+02  0.70000823682E+02 0.  0.
         12    1    1    2    0    0  0.19367362585E+01  0.60010385195E+01 -0.17632131972E+02  0.18725797407E+02  0.00000000000E+00 0. -1.
         11    1    3    3    0    0 -0.13502366990E+02 -0.15369646103E+02  0.35044481204E+01  0.20756230211E+02  0.51100000000E-03 0. -1.
        -11    1    3    3    0    0  0.20682471914E+02 -0.83285822781E+01  0.21016564022E+02  0.30640265840E+02  0.51100000000E-03 0.  1.
        -12    1    3    3    0    0 -0.91168411818E+01  0.17697189861E+02 -0.68888801704E+01  0.21065706542E+02  0.00000000000E+00 0.  1.
</event>
<event>
 7    1  0.1351543E-013  0.7246168E+02  0.7816164E-02  0.1226708E+00
        -11   -1    0    0    0    0  0.00000000000E+00  0.00000000000E+00  0.45593999997E+02  0.45594000000E+02  0.51100000000E-03 0.  1.
         11   -1    0    0    0    0 -0.00000000000E+00 -0.00000000000E+00 -0.45593999997E+02  0.45594000000E+02  0.51100000000E-03 0. -1.
    9900012    2    1    2    0    0 -0.23478451401E+01  0.17361349411E+02 -0.66141059450E+01  0.72461675544E+02  0.70000137108E+02 0.  0.
         12    1    1    2    0    0  0.23478451401E+01 -0.17361349411E+02  0.66141059450E+01  0.18726324456E+02  0.00000000000E+00 0. -1.
         11    1    3    3    0    0 -0.17241489825E+02 -0.61667545667E+01  0.13548908946E+01  0.18361197207E+02  0.51100000000E-03 0. -1.
        -11    1    3    3    0    0  0.50592234868E+01  0.84219824367E+01 -0.26491653223E+02  0.28254791119E+02  0.51100000000E-03 0.  1.
        -12    1    3    3    0    0  0.98344211980E+01  0.15106121541E+02  0.18522656383E+02  0.25845687218E+02  0.00000000000E+00 0.  1.
</event>
<event>
 7    1  0.1351543E-013  0.7246161E+02  0.7816164E-02  0.1226708E+00
        -11   -1    0    0    0    0  0.00000000000E+00  0.00000000000E+00  0.45593999997E+02  0.45594000000E+02  0.51100000000E-03 0. -1.
         11   -1    0    0    0    0 -0.00000000000E+00 -0.00000000000E+00 -0.45593999997E+02  0.45594000000E+02  0.51100000000E-03 0.  1.
    9900012    2    1    2    0    0 -0.69677840574E+00  0.11846601433E+02 -0.14486213596E+02  0.72461605526E+02  0.70000045896E+02 0.  0.
         12    1    1    2    0    0  0.69677840574E+00 -0.11846601433E+02  0.14486213596E+02  0.18726394474E+02  0.00000000000E+00 0. -1.
         11    1    3    3    0    0  0.19238111715E+02  0.56119070061E+01 -0.75376580739E+01  0.21410621946E+02  0.51100000000E-03 0. -1.
        -11    1    3    3    0    0 -0.27064849897E+02  0.20297334215E+02 -0.23371521565E-01  0.33830288539E+02  0.51100000000E-03 0.  1.
        -12    1    3    3    0    0  0.71299597756E+01 -0.14062639789E+02 -0.69251840006E+01  0.17220695040E+02  0.00000000000E+00 0.  1.
</event>
<event>
 7    1  0.1351543E-013  0.7246158E+02  0.7816164E-02  0.1226708E+00
        -11   -1    0    0    0    0  0.00000000000E+00  0.00000000000E+00  0.45593999997E+02  0.45594000000E+02  0.51100000000E-03 0.  1.
         11   -1    0    0    0    0 -0.00000000000E+00 -0.00000000000E+00 -0.45593999997E+02  0.45594000000E+02  0.51100000000E-03 0. -1.
    9900012    2    1    2    0    0  0.28788578440E+01 -0.17215282902E+02 -0.67841655649E+01  0.72461583090E+02  0.70000016668E+02 0.  0.
         12    1    1    2    0    0 -0.28788578440E+01  0.17215282902E+02  0.67841655649E+01  0.18726416910E+02  0.00000000000E+00 0. -1.
         11    1    3    3    0    0 -0.17388424557E+02  0.10129021461E+02  0.66006633041E+01  0.21178364919E+02  0.51100000000E-03 0. -1.
        -11    1    3    3    0    0  0.92005397451E+01  0.11873188193E+01  0.93411854352E+01  0.13165006767E+02  0.51100000000E-03 0.  1.
         12    1    3    3    0    0  0.11066742656E+02 -0.28531623183E+02 -0.22726014304E+02  0.38118211403E+02  0.00000000000E+00 0. -1.
</event>
<event>
 7    1  0.1351543E-013  0.7246159E+02  0.7816164E-02  0.1226708E+00
        -11   -1    0    0    0    0  0.00000000000E+00  0.00000000000E+00  0.45593999997E+02  0.45594000000E+02  0.51100000000E-03 0.  1.
         11   -1    0    0    0    0 -0.00000000000E+00 -0.00000000000E+00 -0.45593999997E+02  0.45594000000E+02  0.51100000000E-03 0. -1.
    9900012    2    1    2    0    0  0.13897775125E+02  0.12450669194E+02  0.15846809204E+01  0.72461587358E+02  0.70000022229E+02 0.  0.
         12    1    1    2    0    0 -0.13897775125E+02 -0.12450669194E+02 -0.15846809204E+01  0.18726412642E+02  0.00000000000E+00 0. -1.
         11    1    3    3    0    0 -0.26336384815E+00 -0.12747322093E+02  0.38562500459E+01  0.13320444652E+02  0.51100000000E-03 0.  1.
        -11    1    3    3    0    0 -0.14285272704E+02  0.26935146748E+02 -0.29699680098E+01  0.30633182284E+02  0.51100000000E-03 0. -1.
        -12    1    3    3    0    0  0.28446411677E+02 -0.17371554609E+01  0.69839888422E+00  0.28507960422E+02  0.00000000000E+00 0.  1.
</event>
<event>
 7    1  0.1351543E-013  0.7246156E+02  0.7816164E-02  0.1226708E+00
        -11   -1    0    0    0    0  0.00000000000E+00  0.00000000000E+00  0.45593999997E+02  0.45594000000E+02  0.51100000000E-03 0.  1.
         11   -1    0    0    0    0 -0.00000000000E+00 -0.00000000000E+00 -0.45593999997E+02  0.45594000000E+02  0.51100000000E-03 0. -1.
    9900012    2    1    2    0    0 -0.35467352354E+01 -0.87245953834E+01  0.16185845887E+02  0.72461561403E+02  0.69999988418E+02 0.  0.
         12    1    1    2    0    0  0.35467352354E+01  0.87245953834E+01 -0.16185845887E+02  0.18726438597E+02  0.00000000000E+00 0. -1.
         11    1    3    3    0    0 -0.12473647169E+02  0.27041876392E+02  0.12553385458E+02  0.32317834693E+02  0.51100000000E-03 0.  1.
        -11    1    3    3    0    0  0.10096364938E+02 -0.29323534315E+02  0.82973938213E+01  0.32103784733E+02  0.51100000000E-03 0. -1.
        -12    1    3    3    0    0 -0.11694530034E+01 -0.64429374606E+01 -0.46649333925E+01  0.80399419777E+01  0.00000000000E+00 0.  1.
</event>
<event>
 7    1  0.1351543E-013  0.7246167E+02  0.7816164E-02  0.1226708E+00
        -11   -1    0    0    0    0  0.00000000000E+00  0.00000000000E+00  0.45593999997E+02  0.45594000000E+02  0.51100000000E-03 0. -1.
         11   -1    0    0    0    0 -0.00000000000E+00 -0.00000000000E+00 -0.45593999997E+02  0.45594000000E+02  0.51100000000E-03 0.  1.
    9900012    2    1    2    0    0 -0.13275784253E+02 -0.12609023024E+02 -0.39295883611E+01  0.72461666301E+02  0.70000125066E+02 0.  0.
         12    1    1    2    0    0  0.13275784253E+02  0.12609023024E+02  0.39295883611E+01  0.18726333699E+02  0.00000000000E+00 0. -1.
         11    1    3    3    0    0  0.14286261643E+02  0.93489652256E+01  0.10116366416E+02  0.19845435048E+02  0.51100000000E-03 0. -1.
        -11    1    3    3    0    0 -0.26975187434E+02 -0.57777690836E+00  0.84904994605E-01  0.26981507971E+02  0.51100000000E-03 0.  1.
        -12    1    3    3    0    0 -0.58685846173E+00 -0.21380211341E+02 -0.14130859772E+02  0.25634723281E+02  0.00000000000E+00 0.  1.
</event>
<event>
 7    1  0.1351543E-013  0.7246167E+02  0.7816164E-02  0.1226708E+00
        -11   -1    0    0    0    0  0.00000000000E+00  0.00000000000E+00  0.45593999997E+02  0.45594000000E+02  0.51100000000E-03 0.  1.
         11   -1    0    0    0    0 -0.00000000000E+00 -0.00000000000E+00 -0.45593999997E+02  0.45594000000E+02  0.51100000000E-03 0. -1.
    9900012    2    1    2    0    0  0.11125725043E+02  0.15046586604E+02  0.70280628206E+00  0.72461669264E+02  0.70000128926E+02 0.  0.
         12    1    1    2    0    0 -0.11125725043E+02 -0.15046586604E+02 -0.70280628206E+00  0.18726330736E+02  0.00000000000E+00 0. -1.
         11    1    3    3    0    0  0.58471075278E+01  0.25418881804E+01 -0.70373801902E+00  0.64144453715E+01  0.51100000000E-03 0. -1.
        -11    1    3    3    0    0 -0.62076190270E+01  0.14736513442E+02  0.30638517903E+02  0.34560355061E+02  0.51100000000E-03 0.  1.
        -12    1    3    3    0    0  0.11486236542E+02 -0.22318150186E+01 -0.29231973602E+02  0.31486868832E+02  0.00000000000E+00 0.  1.
</event>
<event>
 7    1  0.1351543E-013  0.7246158E+02  0.7816164E-02  0.1226708E+00
        -11   -1    0    0    0    0  0.00000000000E+00  0.00000000000E+00  0.45593999997E+02  0.45594000000E+02  0.51100000000E-03 0. -1.
         11   -1    0    0    0    0 -0.00000000000E+00 -0.00000000000E+00 -0.45593999997E+02  0.45594000000E+02  0.51100000000E-03 0.  1.
    9900012    2    1    2    0    0 -0.86744598552E+01 -0.78628642887E+01 -0.14615335203E+02  0.72461577178E+02  0.70000008968E+02 0.  0.
         12    1    1    2    0    0  0.86744598552E+01  0.78628642887E+01  0.14615335203E+02  0.18726422822E+02  0.00000000000E+00 0. -1.
         11    1    3    3    0    0 -0.19157083389E+02  0.91663305928E+01 -0.11435138029E+02  0.24120071362E+02  0.51100000000E-03 0. -1.
        -11    1    3    3    0    0  0.17977669312E+02 -0.18644360944E+02 -0.18078935863E+02  0.31585704220E+02  0.51100000000E-03 0.  1.
         12    1    3    3    0    0 -0.74950457778E+01  0.16151660625E+01  0.14898738689E+02  0.16755801596E+02  0.00000000000E+00 0. -1.
</event>
<event>
 7    1  0.1351543E-013  0.7246159E+02  0.7816164E-02  0.1226708E+00
        -11   -1    0    0    0    0  0.00000000000E+00  0.00000000000E+00  0.45593999997E+02  0.45594000000E+02  0.51100000000E-03 0.  1.
         11   -1    0    0    0    0 -0.00000000000E+00 -0.00000000000E+00 -0.45593999997E+02  0.45594000000E+02  0.51100000000E-03 0. -1.
    9900012    2    1    2    0    0 -0.15091527613E+02  0.55757167358E+01  0.95830884432E+01  0.72461590656E+02  0.70000026524E+02 0.  0.
         12    1    1    2    0    0  0.15091527613E+02 -0.55757167358E+01 -0.95830884432E+01  0.18726409344E+02  0.00000000000E+00 0. -1.
         11    1    3    3    0    0 -0.18686906842E+02 -0.12726340888E+02  0.30017115983E+01  0.22807246930E+02  0.51100000000E-03 0. -1.
        -11    1    3    3    0    0 -0.94635754506E+01  0.29762976205E+02  0.46653713145E+00  0.31234783015E+02  0.51100000000E-03 0.  1.
        -12    1    3    3    0    0  0.13058954680E+02 -0.11460918581E+02  0.61148397135E+01  0.18419560710E+02  0.00000000000E+00 0.  1.
</event>
<event>
 7    1  0.1351543E-013  0.7246150E+02  0.7816164E-02  0.1226708E+00
        -11   -1    0    0    0    0  0.00000000000E+00  0.00000000000E+00  0.45593999997E+02  0.45594000000E+02  0.51100000000E-03 0.  1.
         11   -1    0    0    0    0 -0.00000000000E+00 -0.00000000000E+00 -0.45593999997E+02  0.45594000000E+02  0.51100000000E-03 0. -1.
    9900012    2    1    2    0    0 -0.71797555290E+01  0.63700059815E+01  0.16079671017E+02  0.72461503113E+02  0.69999912483E+02 0.  0.
         12    1    1    2    0    0  0.71797555290E+01 -0.63700059815E+01 -0.16079671017E+02  0.18726496887E+02  0.00000000000E+00 0. -1.
         11    1    3    3    0    0  0.42751840376E+01 -0.24354646697E+02  0.14274547041E+02  0.28551509729E+02  0.51100000000E-03 0.  1.
        -11    1    3    3    0    0  0.12149694672E+01  0.18029509110E+02  0.13449153495E+02  0.22525964564E+02  0.51100000000E-03 0. -1.
         12    1    3    3    0    0 -0.12669909034E+02  0.12695143569E+02 -0.11644029518E+02  0.21384028820E+02  0.00000000000E+00 0. -1.
</event>
<event>
 8    1  0.1351543E-013  0.7246148E+02  0.7816164E-02  0.1226708E+00
        -11   -1    0    0    0    0  0.00000000000E+00  0.00000000000E+00  0.45593999997E+02  0.45594000000E+02  0.51100000000E-03 0.  1.
         11   -1    0    0    0    0 -0.00000000000E+00 -0.00000000000E+00 -0.45593999997E+02  0.45594000000E+02  0.51100000000E-03 0. -1.
    9900012    2    1    2    0    0 -0.43987285825E+01  0.98917000583E+00  0.18175682878E+02  0.72461475535E+02  0.69999876559E+02 0.  0.
        -24    2    3    3    0    0  0.25943018090E+01  0.58281522498E+01  0.17326022106E+00  0.52551542210E+02  0.52162599715E+02 0.  0.
         12    1    1    2    0    0  0.43987285825E+01 -0.98917000583E+00 -0.18175682878E+02  0.18726524465E+02  0.00000000000E+00 0. -1.
         11    1    4    4    0    0  0.22295146180E+02 -0.11800972401E+02 -0.47257835476E+01  0.25664557725E+02  0.51100000000E-03 0. -1.
        -11    1    3    3    0    0 -0.69930303915E+01 -0.48389822440E+01  0.18002422657E+02  0.19909933325E+02  0.51100000000E-03 0.  1.
        -12    1    4    4    0    0 -0.19700844371E+02  0.17629124651E+02  0.48990437687E+01  0.26886984486E+02  0.00000000000E+00 0.  1.
</event>
<event>
 7    1  0.1351543E-013  0.7246159E+02  0.7816164E-02  0.1226708E+00
        -11   -1    0    0    0    0  0.00000000000E+00  0.00000000000E+00  0.45593999997E+02  0.45594000000E+02  0.51100000000E-03 0. -1.
         11   -1    0    0    0    0 -0.00000000000E+00 -0.00000000000E+00 -0.45593999997E+02  0.45594000000E+02  0.51100000000E-03 0.  1.
    9900012    2    1    2    0    0 -0.12331713959E+02 -0.65937362443E+01 -0.12455114307E+02  0.72461590862E+02  0.70000026793E+02 0.  0.
         12    1    1    2    0    0  0.12331713959E+02  0.65937362443E+01  0.12455114307E+02  0.18726409138E+02  0.00000000000E+00 0. -1.
         11    1    3    3    0    0  0.23319320605E+02 -0.24677324803E+00  0.72766265115E+01  0.24429508881E+02  0.51100000000E-03 0. -1.
        -11    1    3    3    0    0 -0.19721449747E+02 -0.12056892308E+02 -0.15093894161E+01  0.23164250234E+02  0.51100000000E-03 0.  1.
         12    1    3    3    0    0 -0.15929584817E+02  0.57099293114E+01 -0.18222351402E+02  0.24867831747E+02  0.00000000000E+00 0. -1.
</event>
<event>
 7    1  0.1351543E-013  0.7246157E+02  0.7816164E-02  0.1226708E+00
        -11   -1    0    0    0    0  0.00000000000E+00  0.00000000000E+00  0.45593999997E+02  0.45594000000E+02  0.51100000000E-03 0. -1.
         11   -1    0    0    0    0 -0.00000000000E+00 -0.00000000000E+00 -0.45593999997E+02  0.45594000000E+02  0.51100000000E-03 0.  1.
    9900012    2    1    2    0    0 -0.88737747314E+01  0.89590685163E+01 -0.13844510894E+02  0.72461567650E+02  0.69999996555E+02 0.  0.
         12    1    1    2    0    0  0.88737747314E+01 -0.89590685163E+01  0.13844510894E+02  0.18726432350E+02  0.00000000000E+00 0. -1.
         11    1    3    3    0    0 -0.33469262295E+02  0.15302963930E+02 -0.60437007845E+01  0.37294752219E+02  0.51100000000E-03 0. -1.
        -11    1    3    3    0    0 -0.23218317045E+01 -0.77932029026E+00 -0.72740505898E+01  0.76752885824E+01  0.51100000000E-03 0.  1.
         12    1    3    3    0    0  0.26917319268E+02 -0.55645751233E+01 -0.52675951978E+00  0.27491526849E+02  0.00000000000E+00 0. -1.
</event>
<event>
 7    1  0.1351543E-013  0.7246155E+02  0.7816164E-02  0.1226708E+00
        -11   -1    0    0    0    0  0.00000000000E+00  0.00000000000E+00  0.45593999997E+02  0.45594000000E+02  0.51100000000E-03 0.  1.
         11   -1    0    0    0    0 -0.00000000000E+00 -0.00000000000E+00 -0.45593999997E+02  0.45594000000E+02  0.51100000000E-03 0. -1.
    9900012    2    1    2    0    0 -0.72804293990E+00 -0.18104071606E+02  0.47320514434E+01  0.72461554365E+02  0.69999979249E+02 0.  0.
         12    1    1    2    0    0  0.72804293990E+00  0.18104071606E+02 -0.47320514434E+01  0.18726445635E+02  0.00000000000E+00 0. -1.
         11    1    3    3    0    0  0.15561243226E+01 -0.85627679608E+01 -0.27873921095E+02  0.29200993058E+02  0.51100000000E-03 0. -1.
        -11    1    3    3    0    0 -0.14105983729E+02 -0.18720363708E+01  0.14482443981E+02  0.20303312071E+02  0.51100000000E-03 0.  1.
         12    1    3    3    0    0  0.11821816467E+02 -0.76692672747E+01  0.18123528558E+02  0.22957249237E+02  0.00000000000E+00 0. -1.
</event>
<event>
 7    1  0.1463028E-013  0.7246157E+02  0.7816164E-02  0.1226708E+00
        -11   -1    0    0    0    0  0.00000000000E+00  0.00000000000E+00  0.45593999997E+02  0.45594000000E+02  0.51100000000E-03 0. -1.
         11   -1    0    0    0    0 -0.00000000000E+00 -0.00000000000E+00 -0.45593999997E+02  0.45594000000E+02  0.51100000000E-03 0.  1.
    9900012    2    1    2    0    0  0.71355054818E+01 -0.10446787233E+02 -0.13806820946E+02  0.72461571974E+02  0.70000002188E+02 0.  0.
         12    1    1    2    0    0 -0.71355054818E+01  0.10446787233E+02  0.13806820946E+02  0.18726428026E+02  0.00000000000E+00 0. -1.
         11    1    3    3    0    0  0.17108989600E+02 -0.30468425351E+01  0.16399497218E+02  0.23894440438E+02  0.51100000000E-03 0. -1.
        -11    1    3    3    0    0 -0.34993678764E+01  0.41765835243E+01 -0.34265515386E+02  0.34696036811E+02  0.51100000000E-03 0.  1.
         12    1    3    3    0    0 -0.64741162415E+01 -0.11576528222E+02  0.40591972223E+01  0.13871094725E+02  0.00000000000E+00 0. -1.
</event>
<event>
 7    1  0.1351543E-013  0.7246162E+02  0.7816164E-02  0.1226708E+00
        -11   -1    0    0    0    0  0.00000000000E+00  0.00000000000E+00  0.45593999997E+02  0.45594000000E+02  0.51100000000E-03 0. -1.
         11   -1    0    0    0    0 -0.00000000000E+00 -0.00000000000E+00 -0.45593999997E+02  0.45594000000E+02  0.51100000000E-03 0.  1.
    9900012    2    1    2    0    0  0.23557254106E+01  0.13365092581E+02 -0.12903569405E+02  0.72461621671E+02  0.70000066928E+02 0.  0.
         12    1    1    2    0    0 -0.23557254106E+01 -0.13365092581E+02  0.12903569405E+02  0.18726378329E+02  0.00000000000E+00 0. -1.
         11    1    3    3    0    0  0.19479612340E+02  0.11898916162E+02  0.38020325221E+01  0.23140763910E+02  0.51100000000E-03 0. -1.
        -11    1    3    3    0    0 -0.65579286794E+01  0.36416508211E+01 -0.30727276121E+02  0.31629630845E+02  0.51100000000E-03 0.  1.
        -12    1    3    3    0    0 -0.10565958250E+02 -0.21754744023E+01  0.14021674194E+02  0.17691226917E+02  0.00000000000E+00 0.  1.
</event>
<event>
 7    1  0.1351543E-013  0.7246154E+02  0.7816164E-02  0.1226708E+00
        -11   -1    0    0    0    0  0.00000000000E+00  0.00000000000E+00  0.45593999997E+02  0.45594000000E+02  0.51100000000E-03 0.  1.
         11   -1    0    0    0    0 -0.00000000000E+00 -0.00000000000E+00 -0.45593999997E+02  0.45594000000E+02  0.51100000000E-03 0. -1.
    9900012    2    1    2    0    0  0.10690942535E+01 -0.19150173497E+01  0.18597583921E+02  0.72461537930E+02  0.69999957839E+02 0.  0.
         12    1    1    2    0    0 -0.10690942535E+01  0.19150173497E+01 -0.18597583921E+02  0.18726462070E+02  0.00000000000E+00 0. -1.
         11    1    3    3    0    0  0.13039485152E+02 -0.68302067302E+01 -0.19619363943E+02  0.24527522068E+02  0.51100000000E-03 0. -1.
        -11    1    3    3    0    0  0.37854825075E+01 -0.33659769984E+01  0.25649440376E+02  0.26144855533E+02  0.51100000000E-03 0.  1.
         12    1    3    3    0    0 -0.15755873406E+02  0.82811663789E+01  0.12567507487E+02  0.21789160329E+02  0.00000000000E+00 0. -1.
</event>
<event>
 7    1  0.1351543E-013  0.7246156E+02  0.7816164E-02  0.1226708E+00
        -11   -1    0    0    0    0  0.00000000000E+00  0.00000000000E+00  0.45593999997E+02  0.45594000000E+02  0.51100000000E-03 0.  1.
         11   -1    0    0    0    0 -0.00000000000E+00 -0.00000000000E+00 -0.45593999997E+02  0.45594000000E+02  0.51100000000E-03 0. -1.
    9900012    2    1    2    0    0 -0.85091973557E+01 -0.54969470312E+01  0.15749816399E+02  0.72461559257E+02  0.69999985622E+02 0.  0.
         12    1    1    2    0    0  0.85091973557E+01  0.54969470312E+01 -0.15749816399E+02  0.18726440743E+02  0.00000000000E+00 0. -1.
         11    1    3    3    0    0  0.25397102362E+01 -0.47495063225E+00 -0.24381906907E+01  0.35525315329E+01  0.51100000000E-03 0. -1.
        -11    1    3    3    0    0 -0.22667105725E+02  0.24595223575E+02  0.15838626516E+02  0.37007901789E+02  0.51100000000E-03 0.  1.
        -12    1    3    3    0    0  0.11618198133E+02 -0.29617219974E+02  0.23493805734E+01  0.31901125935E+02  0.00000000000E+00 0.  1.
</event>
<event>
 7    1  0.1351543E-013  0.7246161E+02  0.7816164E-02  0.1226708E+00
        -11   -1    0    0    0    0  0.00000000000E+00  0.00000000000E+00  0.45593999997E+02  0.45594000000E+02  0.51100000000E-03 0.  1.
         11   -1    0    0    0    0 -0.00000000000E+00 -0.00000000000E+00 -0.45593999997E+02  0.45594000000E+02  0.51100000000E-03 0. -1.
    9900012    2    1    2    0    0  0.10042704915E+02 -0.75615691155E+01  0.13879644857E+02  0.72461607105E+02  0.70000047953E+02 0.  0.
         12    1    1    2    0    0 -0.10042704915E+02  0.75615691155E+01 -0.13879644857E+02  0.18726392895E+02  0.00000000000E+00 0. -1.
         11    1    3    3    0    0  0.24451087655E+02  0.18795902814E+02  0.14969313144E+02  0.34281510853E+02  0.51100000000E-03 0. -1.
        -11    1    3    3    0    0 -0.18942420211E+02 -0.10636899501E+02  0.59096674620E+00  0.21732651850E+02  0.51100000000E-03 0.  1.
         12    1    3    3    0    0  0.45340374713E+01 -0.15720572428E+02 -0.16806350332E+01  0.16447444402E+02  0.00000000000E+00 0. -1.
</event>
<event>
 7    1  0.1351543E-013  0.7246159E+02  0.7816164E-02  0.1226708E+00
        -11   -1    0    0    0    0  0.00000000000E+00  0.00000000000E+00  0.45593999997E+02  0.45594000000E+02  0.51100000000E-03 0. -1.
         11   -1    0    0    0    0 -0.00000000000E+00 -0.00000000000E+00 -0.45593999997E+02  0.45594000000E+02  0.51100000000E-03 0.  1.
    9900012    2    1    2    0    0 -0.26457339643E+01 -0.18261324967E+02  0.31941614119E+01  0.72461586438E+02  0.70000021030E+02 0.  0.
         12    1    1    2    0    0  0.26457339643E+01  0.18261324967E+02 -0.31941614119E+01  0.18726413562E+02  0.00000000000E+00 0. -1.
         11    1    3    3    0    0  0.20407485926E+02 -0.87361236725E+01 -0.24271695202E+02  0.32892256336E+02  0.51100000000E-03 0.  1.
        -11    1    3    3    0    0 -0.51348835718E+01 -0.92261693641E+01  0.10530573078E+02  0.14912484704E+02  0.51100000000E-03 0. -1.
         12    1    3    3    0    0 -0.17918336319E+02 -0.29903193080E+00  0.16935283536E+02  0.24656845398E+02  0.00000000000E+00 0. -1.
</event>
<event>
 7    1  0.1351543E-013  0.7246154E+02  0.7816164E-02  0.1226708E+00
        -11   -1    0    0    0    0  0.00000000000E+00  0.00000000000E+00  0.45593999997E+02  0.45594000000E+02  0.51100000000E-03 0.  1.
         11   -1    0    0    0    0 -0.00000000000E+00 -0.00000000000E+00 -0.45593999997E+02  0.45594000000E+02  0.51100000000E-03 0. -1.
    9900012    2    1    2    0    0 -0.16366322942E+01 -0.14493436307E+02  0.11744875382E+02  0.72461538535E+02  0.69999958628E+02 0.  0.
         12    1    1    2    0    0  0.16366322942E+01  0.14493436307E+02 -0.11744875382E+02  0.18726461465E+02  0.00000000000E+00 0. -1.
         11    1    3    3    0    0 -0.45787211902E+01 -0.45114100176E+01 -0.20780133440E+02  0.21751585094E+02  0.51100000000E-03 0. -1.
        -11    1    3    3    0    0  0.16602238542E+02 -0.13277154749E+02  0.29457384019E+02  0.36327051027E+02  0.51100000000E-03 0.  1.
        -12    1    3    3    0    0 -0.13660149646E+02  0.32951284595E+01  0.30676248022E+01  0.14382902413E+02  0.00000000000E+00 0.  1.
</event>
<event>
 7    1  0.1351543E-013  0.7246155E+02  0.7816164E-02  0.1226708E+00
        -11   -1    0    0    0    0  0.00000000000E+00  0.00000000000E+00  0.45593999997E+02  0.45594000000E+02  0.51100000000E-03 0.  1.
         11   -1    0    0    0    0 -0.00000000000E+00 -0.00000000000E+00 -0.45593999997E+02  0.45594000000E+02  0.51100000000E-03 0. -1.
    9900012    2    1    2    0    0  0.18295127468E+02  0.36348985823E+01  0.16600930287E+01  0.72461545834E+02  0.69999968136E+02 0.  0.
         12    1    1    2    0    0 -0.18295127468E+02 -0.36348985823E+01 -0.16600930287E+01  0.18726454166E+02  0.00000000000E+00 0. -1.
         11    1    3    3    0    0  0.47528293680E+01 -0.31686996790E+02  0.64099699928E+01  0.32676334986E+02  0.51100000000E-03 0. -1.
        -11    1    3    3    0    0  0.30267313638E+01  0.35290824387E+01  0.28414721393E+01  0.54488062718E+01  0.51100000000E-03 0.  1.
         12    1    3    3    0    0  0.10515566736E+02  0.31792812934E+02 -0.75913491034E+01  0.34336404576E+02  0.00000000000E+00 0. -1.
</event>
<event>
 7    1  0.1498857E-013  0.7246157E+02  0.7816164E-02  0.1226708E+00
        -11   -1    0    0    0    0  0.00000000000E+00  0.00000000000E+00  0.45593999997E+02  0.45594000000E+02  0.51100000000E-03 0.  1.
         11   -1    0    0    0    0 -0.00000000000E+00 -0.00000000000E+00 -0.45593999997E+02  0.45594000000E+02  0.51100000000E-03 0. -1.
    9900012    2    1    2    0    0  0.13661129281E+02 -0.12802694817E+02 -0.37929246791E+00  0.72461566528E+02  0.69999995093E+02 0.  0.
         12    1    1    2    0    0 -0.13661129281E+02  0.12802694817E+02  0.37929246791E+00  0.18726433472E+02  0.00000000000E+00 0. -1.
         11    1    3    3    0    0  0.66319080498E+01  0.11183844377E+02 -0.17913393803E+02  0.22134820018E+02  0.51100000000E-03 0. -1.
        -11    1    3    3    0    0 -0.10768967140E+02 -0.25472098928E+02  0.40540721721E+01  0.27950563116E+02  0.51100000000E-03 0.  1.
         12    1    3    3    0    0  0.17798188371E+02  0.14855597349E+01  0.13480029163E+02  0.22376183394E+02  0.00000000000E+00 0. -1.
</event>
<event>
 7    1  0.1351543E-013  0.7246160E+02  0.7816164E-02  0.1226708E+00
        -11   -1    0    0    0    0  0.00000000000E+00  0.00000000000E+00  0.45593999997E+02  0.45594000000E+02  0.51100000000E-03 0. -1.
         11   -1    0    0    0    0 -0.00000000000E+00 -0.00000000000E+00 -0.45593999997E+02  0.45594000000E+02  0.51100000000E-03 0.  1.
    9900012    2    1    2    0    0 -0.75635574738E+01  0.63165406205E+01 -0.15923942842E+02  0.72461600381E+02  0.70000039193E+02 0.  0.
         12    1    1    2    0    0  0.75635574738E+01 -0.63165406205E+01  0.15923942842E+02  0.18726399619E+02  0.00000000000E+00 0. -1.
         11    1    3    3    0    0 -0.24346775927E+01  0.20651765649E+02  0.10181702501E+02  0.23153620569E+02  0.51100000000E-03 0. -1.
        -11    1    3    3    0    0  0.10428651931E+02 -0.20186133355E+02 -0.65565281428E+01  0.23647934846E+02  0.51100000000E-03 0.  1.
        -12    1    3    3    0    0 -0.15557531812E+02  0.58509083265E+01 -0.19549117200E+02  0.25660044965E+02  0.00000000000E+00 0.  1.
</event>
<event>
 7    1  0.1351543E-013  0.7246156E+02  0.7816164E-02  0.1226708E+00
        -11   -1    0    0    0    0  0.00000000000E+00  0.00000000000E+00  0.45593999997E+02  0.45594000000E+02  0.51100000000E-03 0. -1.
         11   -1    0    0    0    0 -0.00000000000E+00 -0.00000000000E+00 -0.45593999997E+02  0.45594000000E+02  0.51100000000E-03 0.  1.
    9900012    2    1    2    0    0 -0.13662587810E+02  0.11139444790E+02  0.63187048177E+01  0.72461559696E+02  0.69999986194E+02 0.  0.
         12    1    1    2    0    0  0.13662587810E+02 -0.11139444790E+02 -0.63187048177E+01  0.18726440304E+02  0.00000000000E+00 0. -1.
         11    1    3    3    0    0 -0.16252151706E+02 -0.76241854905E+01  0.11898908128E+02  0.21537053057E+02  0.51100000000E-03 0. -1.
        -11    1    3    3    0    0 -0.12734747134E+02  0.29269915204E+02 -0.51970842094E+01  0.32340553570E+02  0.51100000000E-03 0.  1.
        -12    1    3    3    0    0  0.15324311030E+02 -0.10506284924E+02 -0.38311910043E+00  0.18583953070E+02  0.00000000000E+00 0.  1.
</event>
<event>
 7    1  0.1351543E-013  0.7246160E+02  0.7816164E-02  0.1226708E+00
        -11   -1    0    0    0    0  0.00000000000E+00  0.00000000000E+00  0.45593999997E+02  0.45594000000E+02  0.51100000000E-03 0.  1.
         11   -1    0    0    0    0 -0.00000000000E+00 -0.00000000000E+00 -0.45593999997E+02  0.45594000000E+02  0.51100000000E-03 0. -1.
    9900012    2    1    2    0    0  0.32876181880E+01  0.10780493932E+02  0.14954957150E+02  0.72461595483E+02  0.70000032813E+02 0.  0.
         12    1    1    2    0    0 -0.32876181880E+01 -0.10780493932E+02 -0.14954957150E+02  0.18726404517E+02  0.00000000000E+00 0. -1.
         11    1    3    3    0    0  0.26768078647E+00  0.92889166893E+01 -0.12021026678E+02  0.15194101122E+02  0.51100000000E-03 0. -1.
        -11    1    3    3    0    0  0.17670838063E+02 -0.14163433227E+02  0.27743002170E+02  0.35812505194E+02  0.51100000000E-03 0.  1.
        -12    1    3    3    0    0 -0.14650900661E+02  0.15655010471E+02 -0.76701834220E+00  0.21454989167E+02  0.00000000000E+00 0.  1.
</event>
<event>
 7    1  0.1351543E-013  0.7246160E+02  0.7816164E-02  0.1226708E+00
        -11   -1    0    0    0    0  0.00000000000E+00  0.00000000000E+00  0.45593999997E+02  0.45594000000E+02  0.51100000000E-03 0. -1.
         11   -1    0    0    0    0 -0.00000000000E+00 -0.00000000000E+00 -0.45593999997E+02  0.45594000000E+02  0.51100000000E-03 0.  1.
    9900012    2    1    2    0    0 -0.63587442968E+01  0.10431198502E+02 -0.14192764951E+02  0.72461598632E+02  0.70000036916E+02 0.  0.
         12    1    1    2    0    0  0.63587442968E+01 -0.10431198502E+02  0.14192764951E+02  0.18726401368E+02  0.00000000000E+00 0. -1.
         11    1    3    3    0    0 -0.17354285675E+02  0.62520722676E+01 -0.43661804766E+01  0.18955821564E+02  0.51100000000E-03 0. -1.
        -11    1    3    3    0    0  0.28756690424E+01 -0.60540686570E+01 -0.29299882049E+02  0.30056684915E+02  0.51100000000E-03 0.  1.
        -12    1    3    3    0    0  0.81198723359E+01  0.10233194892E+02  0.19473297574E+02  0.23449092154E+02  0.00000000000E+00 0.  1.
</event>
<event>
 7    1  0.1351543E-013  0.7246135E+02  0.7816164E-02  0.1226709E+00
        -11   -1    0    0    0    0  0.00000000000E+00  0.00000000000E+00  0.45593999997E+02  0.45594000000E+02  0.51100000000E-03 0. -1.
         11   -1    0    0    0    0 -0.00000000000E+00 -0.00000000000E+00 -0.45593999997E+02  0.45594000000E+02  0.51100000000E-03 0.  1.
    9900012    2    1    2    0    0  0.15871392011E+02  0.56142676682E+01  0.82016125763E+01  0.72461346944E+02  0.69999709044E+02 0.  0.
         12    1    1    2    0    0 -0.15871392011E+02 -0.56142676682E+01 -0.82016125763E+01  0.18726653056E+02  0.00000000000E+00 0. -1.
         11    1    3    3    0    0  0.26451855349E+01  0.23783366155E+02  0.24739432907E+02  0.34419254103E+02  0.51100000000E-03 0. -1.
        -11    1    3    3    0    0 -0.25676629155E+01 -0.11825953571E+01 -0.14483426716E+02  0.14756729798E+02  0.51100000000E-03 0.  1.
         12    1    3    3    0    0  0.15793869392E+02 -0.16986503130E+02 -0.20543936140E+01  0.23285363043E+02  0.00000000000E+00 0. -1.
</event>
<event>
 7    1  0.1351543E-013  0.7246152E+02  0.7816164E-02  0.1226708E+00
        -11   -1    0    0    0    0  0.00000000000E+00  0.00000000000E+00  0.45593999997E+02  0.45594000000E+02  0.51100000000E-03 0.  1.
         11   -1    0    0    0    0 -0.00000000000E+00 -0.00000000000E+00 -0.45593999997E+02  0.45594000000E+02  0.51100000000E-03 0. -1.
    9900012    2    1    2    0    0  0.55415101041E+01 -0.19383726933E+01  0.17782451086E+02  0.72461516359E+02  0.69999929739E+02 0.  0.
         12    1    1    2    0    0 -0.55415101041E+01  0.19383726933E+01 -0.17782451086E+02  0.18726483641E+02  0.00000000000E+00 0. -1.
         11    1    3    3    0    0  0.28726890035E+02  0.15997503485E+02  0.19780177342E+02  0.38371991670E+02  0.51100000000E-03 0. -1.
        -11    1    3    3    0    0 -0.24444741682E+02 -0.15935254203E+02  0.22095106122E+01  0.29263623491E+02  0.51100000000E-03 0.  1.
         12    1    3    3    0    0  0.12593617512E+01 -0.20006219748E+01 -0.42072368676E+01  0.48259011973E+01  0.00000000000E+00 0. -1.
</event>
<event>
 7    1  0.1351543E-013  0.7246164E+02  0.7816164E-02  0.1226708E+00
        -11   -1    0    0    0    0  0.00000000000E+00  0.00000000000E+00  0.45593999997E+02  0.45594000000E+02  0.51100000000E-03 0.  1.
         11   -1    0    0    0    0 -0.00000000000E+00 -0.00000000000E+00 -0.45593999997E+02  0.45594000000E+02  0.51100000000E-03 0. -1.
    9900012    2    1    2    0    0 -0.94144294524E+01 -0.15347998174E+02 -0.51462649128E+01  0.72461639638E+02  0.70000090332E+02 0.  0.
         12    1    1    2    0    0  0.94144294524E+01  0.15347998174E+02  0.51462649128E+01  0.18726360362E+02  0.00000000000E+00 0. -1.
         11    1    3    3    0    0 -0.24410712671E+02  0.62217270870E+01 -0.20406110832E+02  0.32419163169E+02  0.51100000000E-03 0. -1.
        -11    1    3    3    0    0  0.20505067950E+02 -0.23495546931E+02  0.12895462335E+02  0.33745984743E+02  0.51100000000E-03 0.  1.
        -12    1    3    3    0    0 -0.55087847312E+01  0.19258216695E+01  0.23643835843E+01  0.62964917257E+01  0.00000000000E+00 0.  1.
</event>
<event>
 7    1  0.1351543E-013  0.7246165E+02  0.7816164E-02  0.1226708E+00
        -11   -1    0    0    0    0  0.00000000000E+00  0.00000000000E+00  0.45593999997E+02  0.45594000000E+02  0.51100000000E-03 0.  1.
         11   -1    0    0    0    0 -0.00000000000E+00 -0.00000000000E+00 -0.45593999997E+02  0.45594000000E+02  0.51100000000E-03 0. -1.
    9900012    2    1    2    0    0 -0.34080312240E+01 -0.94382483538E+01  0.15810781074E+02  0.72461654735E+02  0.70000110000E+02 0.  0.
         12    1    1    2    0    0  0.34080312240E+01  0.94382483538E+01 -0.15810781074E+02  0.18726345265E+02  0.00000000000E+00 0. -1.
         11    1    3    3    0    0 -0.11898550253E+02 -0.23946778827E+02 -0.82179404032E+01  0.27974242779E+02  0.51100000000E-03 0. -1.
        -11    1    3    3    0    0 -0.10329855035E+02  0.15449053428E+02  0.12487568232E+02  0.22390143311E+02  0.51100000000E-03 0.  1.
         12    1    3    3    0    0  0.18820374064E+02 -0.94052295462E+00  0.11541153246E+02  0.22097268645E+02  0.00000000000E+00 0. -1.
</event>
<event>
 7    1  0.1351543E-013  0.7246146E+02  0.7816164E-02  0.1226708E+00
        -11   -1    0    0    0    0  0.00000000000E+00  0.00000000000E+00  0.45593999997E+02  0.45594000000E+02  0.51100000000E-03 0. -1.
         11   -1    0    0    0    0 -0.00000000000E+00 -0.00000000000E+00 -0.45593999997E+02  0.45594000000E+02  0.51100000000E-03 0.  1.
    9900012    2    1    2    0    0 -0.15876009284E+02 -0.20327189915E+01  0.97212995539E+01  0.72461460482E+02  0.69999856950E+02 0.  0.
         12    1    1    2    0    0  0.15876009284E+02  0.20327189915E+01 -0.97212995539E+01  0.18726539518E+02  0.00000000000E+00 0. -1.
         11    1    3    3    0    0 -0.19742665197E+02 -0.12050417797E+02  0.23608572686E+02  0.33050720154E+02  0.51100000000E-03 0. -1.
        -11    1    3    3    0    0 -0.17108976716E+01  0.10010017707E+02 -0.24996154541E+02  0.26980277378E+02  0.51100000000E-03 0.  1.
         12    1    3    3    0    0  0.55775535851E+01  0.76810991251E-02  0.11108881409E+02  0.12430462950E+02  0.00000000000E+00 0. -1.
</event>
<event>
 7    1  0.1351543E-013  0.7246149E+02  0.7816164E-02  0.1226708E+00
        -11   -1    0    0    0    0  0.00000000000E+00  0.00000000000E+00  0.45593999997E+02  0.45594000000E+02  0.51100000000E-03 0. -1.
         11   -1    0    0    0    0 -0.00000000000E+00 -0.00000000000E+00 -0.45593999997E+02  0.45594000000E+02  0.51100000000E-03 0.  1.
    9900012    2    1    2    0    0  0.57190726329E+01 -0.30683257133E+01 -0.17565873579E+02  0.72461485934E+02  0.69999890105E+02 0.  0.
         12    1    1    2    0    0 -0.57190726329E+01  0.30683257133E+01  0.17565873579E+02  0.18726514066E+02  0.00000000000E+00 0. -1.
         11    1    3    3    0    0  0.19412406662E+02 -0.29080673212E+02 -0.46529184505E+01  0.35272889550E+02  0.51100000000E-03 0. -1.
        -11    1    3    3    0    0  0.37798960158E+01  0.72424797875E+01 -0.72589454585E+01  0.10928559685E+02  0.51100000000E-03 0.  1.
         12    1    3    3    0    0 -0.17473230045E+02  0.18769867711E+02 -0.56540096699E+01  0.26260036699E+02  0.00000000000E+00 0. -1.
</event>
<event>
 7    1  0.1351543E-013  0.7246131E+02  0.7816164E-02  0.1226709E+00
        -11   -1    0    0    0    0  0.00000000000E+00  0.00000000000E+00  0.45593999997E+02  0.45594000000E+02  0.51100000000E-03 0.  1.
         11   -1    0    0    0    0 -0.00000000000E+00 -0.00000000000E+00 -0.45593999997E+02  0.45594000000E+02  0.51100000000E-03 0. -1.
    9900012    2    1    2    0    0 -0.15978834899E+02  0.96860911476E+00  0.97173905974E+01  0.72461306528E+02  0.69999656395E+02 0.  0.
         12    1    1    2    0    0  0.15978834899E+02 -0.96860911476E+00 -0.97173905974E+01  0.18726693472E+02  0.00000000000E+00 0. -1.
         11    1    3    3    0    0  0.14542632267E+02 -0.86881321799E+01  0.15988591343E+02  0.23293922972E+02  0.51100000000E-03 0. -1.
        -11    1    3    3    0    0 -0.14477579841E+02 -0.12968806994E+02  0.35205684658E+01  0.19753092809E+02  0.51100000000E-03 0.  1.
         12    1    3    3    0    0 -0.16043887325E+02  0.22625548289E+02 -0.97917692118E+01  0.29414290747E+02  0.00000000000E+00 0. -1.
</event>
<event>
 7    1  0.1351543E-013  0.7246156E+02  0.7816164E-02  0.1226708E+00
        -11   -1    0    0    0    0  0.00000000000E+00  0.00000000000E+00  0.45593999997E+02  0.45594000000E+02  0.51100000000E-03 0. -1.
         11   -1    0    0    0    0 -0.00000000000E+00 -0.00000000000E+00 -0.45593999997E+02  0.45594000000E+02  0.51100000000E-03 0.  1.
    9900012    2    1    2    0    0 -0.18143691952E+02  0.37389155032E+01  0.27397668149E+01  0.72461564969E+02  0.69999993063E+02 0.  0.
         12    1    1    2    0    0  0.18143691952E+02 -0.37389155032E+01 -0.27397668149E+01  0.18726435031E+02  0.00000000000E+00 0. -1.
         11    1    3    3    0    0  0.14896677190E+02  0.18016286736E+02  0.10358888462E+01  0.23400227457E+02  0.51100000000E-03 0.  1.
        -11    1    3    3    0    0 -0.84421091171E+01 -0.21569385936E+02  0.30886259955E+01  0.23367653429E+02  0.51100000000E-03 0. -1.
         12    1    3    3    0    0 -0.24598260024E+02  0.72920147024E+01 -0.13847480267E+01  0.25693684083E+02  0.00000000000E+00 0. -1.
</event>
<event>
 7    1  0.1351543E-013  0.7246149E+02  0.7816164E-02  0.1226708E+00
        -11   -1    0    0    0    0  0.00000000000E+00  0.00000000000E+00  0.45593999997E+02  0.45594000000E+02  0.51100000000E-03 0.  1.
         11   -1    0    0    0    0 -0.00000000000E+00 -0.00000000000E+00 -0.45593999997E+02  0.45594000000E+02  0.51100000000E-03 0. -1.
    9900012    2    1    2    0    0  0.18056356113E+02 -0.49117719560E+01 -0.72434414490E+00  0.72461490067E+02  0.69999895488E+02 0.  0.
         12    1    1    2    0    0 -0.18056356113E+02  0.49117719560E+01  0.72434414490E+00  0.18726509933E+02  0.00000000000E+00 0. -1.
         11    1    3    3    0    0 -0.12905612088E+02  0.15879661142E+02 -0.18768618507E+02  0.27766517648E+02  0.51100000000E-03 0. -1.
        -11    1    3    3    0    0  0.17303544634E+02 -0.17927752696E+02  0.46394523195E+01  0.25344456824E+02  0.51100000000E-03 0.  1.
         12    1    3    3    0    0  0.13658423567E+02 -0.28636804018E+01  0.13404822043E+02  0.19350515595E+02  0.00000000000E+00 0. -1.
</event>
<event>
 7    1  0.1569163E-013  0.7246156E+02  0.7816164E-02  0.1226708E+00
        -11   -1    0    0    0    0  0.00000000000E+00  0.00000000000E+00  0.45593999997E+02  0.45594000000E+02  0.51100000000E-03 0. -1.
         11   -1    0    0    0    0 -0.00000000000E+00 -0.00000000000E+00 -0.45593999997E+02  0.45594000000E+02  0.51100000000E-03 0.  1.
    9900012    2    1    2    0    0 -0.21602604258E+01 -0.14629273577E+02 -0.11488995576E+02  0.72461564412E+02  0.69999992337E+02 0.  0.
         12    1    1    2    0    0  0.21602604258E+01  0.14629273577E+02  0.11488995576E+02  0.18726435588E+02  0.00000000000E+00 0. -1.
         11    1    3    3    0    0  0.92639493810E+01  0.12388249569E+02  0.10096983071E+02  0.18472643366E+02  0.51100000000E-03 0. -1.
        -11    1    3    3    0    0 -0.21980082078E+02 -0.93226385031E+01 -0.23239641151E+02  0.33318411095E+02  0.51100000000E-03 0.  1.
         12    1    3    3    0    0  0.10555872271E+02 -0.17694884643E+02  0.16536625041E+01  0.20670509951E+02  0.00000000000E+00 0. -1.
</event>
<event>
 7    1  0.1351543E-013  0.7246148E+02  0.7816164E-02  0.1226708E+00
        -11   -1    0    0    0    0  0.00000000000E+00  0.00000000000E+00  0.45593999997E+02  0.45594000000E+02  0.51100000000E-03 0.  1.
         11   -1    0    0    0    0 -0.00000000000E+00 -0.00000000000E+00 -0.45593999997E+02  0.45594000000E+02  0.51100000000E-03 0. -1.
    9900012    2    1    2    0    0  0.15933328077E+02  0.69239953356E+01 -0.69907024857E+01  0.72461479334E+02  0.69999881507E+02 0.  0.
         12    1    1    2    0    0 -0.15933328077E+02 -0.69239953356E+01  0.69907024857E+01  0.18726520666E+02  0.00000000000E+00 0. -1.
         11    1    3    3    0    0 -0.11067406388E+02  0.21352603161E+02 -0.59879054591E+01  0.24784595174E+02  0.51100000000E-03 0. -1.
        -11    1    3    3    0    0  0.52072320119E+01 -0.16564407740E+02 -0.13918730093E+02  0.22253671982E+02  0.51100000000E-03 0.  1.
        -12    1    3    3    0    0  0.21793502453E+02  0.21357999154E+01  0.12915933066E+02  0.25423212178E+02  0.00000000000E+00 0.  1.
</event>
<event>
 7    1  0.1351543E-013  0.7246159E+02  0.7816164E-02  0.1226708E+00
        -11   -1    0    0    0    0  0.00000000000E+00  0.00000000000E+00  0.45593999997E+02  0.45594000000E+02  0.51100000000E-03 0.  1.
         11   -1    0    0    0    0 -0.00000000000E+00 -0.00000000000E+00 -0.45593999997E+02  0.45594000000E+02  0.51100000000E-03 0. -1.
    9900012    2    1    2    0    0 -0.16948710739E+02  0.66119080468E+01 -0.44387466613E+01  0.72461585617E+02  0.70000019960E+02 0.  0.
         12    1    1    2    0    0  0.16948710739E+02 -0.66119080468E+01  0.44387466613E+01  0.18726414383E+02  0.00000000000E+00 0. -1.
         11    1    3    3    0    0 -0.21984119633E+02  0.26602217638E+02 -0.23233536249E+02  0.41602604560E+02  0.51100000000E-03 0. -1.
        -11    1    3    3    0    0  0.95102504407E+01 -0.14897158007E+02  0.12998471520E+02  0.21939244341E+02  0.51100000000E-03 0.  1.
         12    1    3    3    0    0 -0.44748415466E+01 -0.50931515847E+01  0.57963180677E+01  0.89197367155E+01  0.00000000000E+00 0. -1.
</event>
<event>
 7    1  0.1351543E-013  0.7246152E+02  0.7816164E-02  0.1226708E+00
        -11   -1    0    0    0    0  0.00000000000E+00  0.00000000000E+00  0.45593999997E+02  0.45594000000E+02  0.51100000000E-03 0.  1.
         11   -1    0    0    0    0 -0.00000000000E+00 -0.00000000000E+00 -0.45593999997E+02  0.45594000000E+02  0.51100000000E-03 0. -1.
    9900012    2    1    2    0    0 -0.11363860862E+02  0.82222638908E+00  0.14861618659E+02  0.72461518775E+02  0.69999932886E+02 0.  0.
         12    1    1    2    0    0  0.11363860862E+02 -0.82222638908E+00 -0.14861618659E+02  0.18726481225E+02  0.00000000000E+00 0. -1.
         11    1    3    3    0    0 -0.31714757376E+02  0.16683268824E+02  0.30531948846E+01  0.35964973145E+02  0.51100000000E-03 0. -1.
        -11    1    3    3    0    0  0.10131540937E+02 -0.18476549804E+02  0.56541493401E+00  0.21079627813E+02  0.51100000000E-03 0.  1.
         12    1    3    3    0    0  0.10219355577E+02  0.26155073689E+01  0.11243008840E+02  0.15416917817E+02  0.00000000000E+00 0. -1.
</event>
<event>
 7    1  0.1351543E-013  0.7246156E+02  0.7816164E-02  0.1226708E+00
        -11   -1    0    0    0    0  0.00000000000E+00  0.00000000000E+00  0.45593999997E+02  0.45594000000E+02  0.51100000000E-03 0.  1.
         11   -1    0    0    0    0 -0.00000000000E+00 -0.00000000000E+00 -0.45593999997E+02  0.45594000000E+02  0.51100000000E-03 0. -1.
    9900012    2    1    2    0    0 -0.25402238482E-01  0.47882354653E+01  0.18103912552E+02  0.72461561635E+02  0.69999988719E+02 0.  0.
         12    1    1    2    0    0  0.25402238482E-01 -0.47882354653E+01 -0.18103912552E+02  0.18726438365E+02  0.00000000000E+00 0. -1.
         11    1    3    3    0    0 -0.15927888038E+02  0.13827306225E+02 -0.12790513368E+02  0.24667574815E+02  0.51100000000E-03 0. -1.
        -11    1    3    3    0    0 -0.26695370227E+01 -0.13775324227E+02  0.23256832264E+02  0.27161852526E+02  0.51100000000E-03 0.  1.
        -12    1    3    3    0    0  0.18572022822E+02  0.47362534673E+01  0.76375936571E+01  0.20632134293E+02  0.00000000000E+00 0.  1.
</event>
<event>
 7    1  0.1351543E-013  0.7246160E+02  0.7816164E-02  0.1226708E+00
        -11   -1    0    0    0    0  0.00000000000E+00  0.00000000000E+00  0.45593999997E+02  0.45594000000E+02  0.51100000000E-03 0.  1.
         11   -1    0    0    0    0 -0.00000000000E+00 -0.00000000000E+00 -0.45593999997E+02  0.45594000000E+02  0.51100000000E-03 0. -1.
    9900012    2    1    2    0    0  0.15226965109E+02 -0.10699846306E+02  0.20810385462E+01  0.72461604222E+02  0.70000044197E+02 0.  0.
         12    1    1    2    0    0 -0.15226965109E+02  0.10699846306E+02 -0.20810385462E+01  0.18726395778E+02  0.00000000000E+00 0. -1.
         11    1    3    3    0    0  0.55494231777E+01  0.19144619262E+02 -0.17789908276E+02  0.26716911892E+02  0.51100000000E-03 0. -1.
        -11    1    3    3    0    0 -0.11560274804E+01 -0.13328284356E+02  0.22134279398E+02  0.25863214961E+02  0.51100000000E-03 0.  1.
         12    1    3    3    0    0  0.10833569411E+02 -0.16516181213E+02 -0.22633325759E+01  0.19881477369E+02  0.00000000000E+00 0. -1.
</event>
<event>
 7    1  0.1351543E-013  0.7246156E+02  0.7816164E-02  0.1226708E+00
        -11   -1    0    0    0    0  0.00000000000E+00  0.00000000000E+00  0.45593999997E+02  0.45594000000E+02  0.51100000000E-03 0. -1.
         11   -1    0    0    0    0 -0.00000000000E+00 -0.00000000000E+00 -0.45593999997E+02  0.45594000000E+02  0.51100000000E-03 0.  1.
    9900012    2    1    2    0    0 -0.10085652613E+02 -0.31913037552E+01 -0.15452342463E+02  0.72461556240E+02  0.69999981691E+02 0.  0.
         12    1    1    2    0    0  0.10085652613E+02  0.31913037552E+01  0.15452342463E+02  0.18726443760E+02  0.00000000000E+00 0. -1.
         11    1    3    3    0    0 -0.29409506543E+02  0.21067814894E+01 -0.29936763756E+02  0.42018655711E+02  0.51100000000E-03 0.  1.
        -11    1    3    3    0    0  0.98553385400E+01 -0.11553410742E+02  0.10292782428E+02  0.18345309152E+02  0.51100000000E-03 0. -1.
        -12    1    3    3    0    0  0.94685153892E+01  0.62553254976E+01  0.41916388642E+01  0.12097591377E+02  0.00000000000E+00 0.  1.
</event>
<event>
 7    1  0.1351543E-013  0.7246170E+02  0.7816164E-02  0.1226708E+00
        -11   -1    0    0    0    0  0.00000000000E+00  0.00000000000E+00  0.45593999997E+02  0.45594000000E+02  0.51100000000E-03 0.  1.
         11   -1    0    0    0    0 -0.00000000000E+00 -0.00000000000E+00 -0.45593999997E+02  0.45594000000E+02  0.51100000000E-03 0. -1.
    9900012    2    1    2    0    0  0.48568196959E+01 -0.14991017351E+02  0.10117059290E+02  0.72461703317E+02  0.70000173286E+02 0.  0.
         12    1    1    2    0    0 -0.48568196959E+01  0.14991017351E+02 -0.10117059290E+02  0.18726296683E+02  0.00000000000E+00 0. -1.
         11    1    3    3    0    0 -0.25423485809E+02 -0.49354853114E+01 -0.31081650215E+01  0.26083967029E+02  0.51100000000E-03 0. -1.
        -11    1    3    3    0    0  0.24876730646E+02 -0.99166985238E+01  0.22938705618E+02  0.35261549213E+02  0.51100000000E-03 0.  1.
         12    1    3    3    0    0  0.54035748581E+01 -0.13883351615E+00 -0.97134813057E+01  0.11116187074E+02  0.00000000000E+00 0. -1.
</event>
<event>
 7    1  0.1351543E-013  0.7246155E+02  0.7816164E-02  0.1226708E+00
        -11   -1    0    0    0    0  0.00000000000E+00  0.00000000000E+00  0.45593999997E+02  0.45594000000E+02  0.51100000000E-03 0.  1.
         11   -1    0    0    0    0 -0.00000000000E+00 -0.00000000000E+00 -0.45593999997E+02  0.45594000000E+02  0.51100000000E-03 0. -1.
    9900012    2    1    2    0    0 -0.15178022986E+02 -0.62988867286E+01  0.89795133269E+01  0.72461547710E+02  0.69999970580E+02 0.  0.
         12    1    1    2    0    0  0.15178022986E+02  0.62988867286E+01 -0.89795133269E+01  0.18726452290E+02  0.00000000000E+00 0. -1.
         11    1    3    3    0    0  0.44174686043E+01  0.19972893611E+02 -0.93310982645E+01  0.22483325002E+02  0.51100000000E-03 0. -1.
        -11    1    3    3    0    0 -0.17400091809E+02 -0.27388338141E+02  0.96907309701E+00  0.32462645672E+02  0.51100000000E-03 0.  1.
        -12    1    3    3    0    0 -0.21953997810E+01  0.11165578014E+01  0.17341538494E+02  0.17515577035E+02  0.00000000000E+00 0.  1.
</event>
<event>
 7    1  0.1351543E-013  0.7246152E+02  0.7816164E-02  0.1226708E+00
        -11   -1    0    0    0    0  0.00000000000E+00  0.00000000000E+00  0.45593999997E+02  0.45594000000E+02  0.51100000000E-03 0. -1.
         11   -1    0    0    0    0 -0.00000000000E+00 -0.00000000000E+00 -0.45593999997E+02  0.45594000000E+02  0.51100000000E-03 0.  1.
    9900012    2    1    2    0    0 -0.99443675659E+01  0.14916674986E+02  0.54114097517E+01  0.72461521569E+02  0.69999936527E+02 0.  0.
         12    1    1    2    0    0  0.99443675659E+01 -0.14916674986E+02 -0.54114097517E+01  0.18726478431E+02  0.00000000000E+00 0. -1.
         11    1    3    3    0    0 -0.25968691042E+02 -0.16668811977E+02  0.59362763177E+01  0.31423901475E+02  0.51100000000E-03 0. -1.
        -11    1    3    3    0    0  0.87380818375E+01  0.30665469424E+02 -0.52348200425E+01  0.32312976191E+02  0.51100000000E-03 0.  1.
         12    1    3    3    0    0  0.72862416382E+01  0.92001753816E+00  0.47099534765E+01  0.87246439029E+01  0.00000000000E+00 0. -1.
</event>
<event>
 7    1  0.1351543E-013  0.7246113E+02  0.7816164E-02  0.1226709E+00
        -11   -1    0    0    0    0  0.00000000000E+00  0.00000000000E+00  0.45593999997E+02  0.45594000000E+02  0.51100000000E-03 0. -1.
         11   -1    0    0    0    0 -0.00000000000E+00 -0.00000000000E+00 -0.45593999997E+02  0.45594000000E+02  0.51100000000E-03 0.  1.
    9900012    2    1    2    0    0 -0.18708778669E+02  0.78243236706E+00 -0.25523896670E+00  0.72461127687E+02  0.69999423419E+02 0.  0.
         12    1    1    2    0    0  0.18708778669E+02 -0.78243236706E+00  0.25523896670E+00  0.18726872313E+02  0.00000000000E+00 0. -1.
         11    1    3    3    0    0 -0.35712331169E+02  0.22176386261E+01  0.82662508101E+01  0.36723554040E+02  0.51100000000E-03 0. -1.
        -11    1    3    3    0    0  0.14547034063E+02 -0.12720876852E+02  0.28448619543E+01  0.19532796720E+02  0.51100000000E-03 0.  1.
        -12    1    3    3    0    0  0.24565184367E+01  0.11285670593E+02 -0.11366351731E+02  0.16204776927E+02  0.00000000000E+00 0.  1.
</event>
<event>
 7    1  0.1351543E-013  0.7246162E+02  0.7816164E-02  0.1226708E+00
        -11   -1    0    0    0    0  0.00000000000E+00  0.00000000000E+00  0.45593999997E+02  0.45594000000E+02  0.51100000000E-03 0. -1.
         11   -1    0    0    0    0 -0.00000000000E+00 -0.00000000000E+00 -0.45593999997E+02  0.45594000000E+02  0.51100000000E-03 0.  1.
    9900012    2    1    2    0    0  0.66522852521E+01 -0.17493345021E+02  0.63828093050E+00  0.72461616963E+02  0.70000060794E+02 0.  0.
         12    1    1    2    0    0 -0.66522852521E+01  0.17493345021E+02 -0.63828093050E+00  0.18726383037E+02  0.00000000000E+00 0. -1.
         11    1    3    3    0    0  0.84959827547E+01  0.96904551375E+01  0.47730143419E+01  0.13742936728E+02  0.51100000000E-03 0. -1.
        -11    1    3    3    0    0 -0.35709928968E-01 -0.25099444636E+02 -0.26316030792E+02  0.36366425080E+02  0.51100000000E-03 0.  1.
        -12    1    3    3    0    0 -0.18079875736E+01 -0.20843555231E+01  0.22181297381E+02  0.22352255155E+02  0.00000000000E+00 0.  1.
</event>
<event>
 7    1  0.1351543E-013  0.7246161E+02  0.7816164E-02  0.1226708E+00
        -11   -1    0    0    0    0  0.00000000000E+00  0.00000000000E+00  0.45593999997E+02  0.45594000000E+02  0.51100000000E-03 0.  1.
         11   -1    0    0    0    0 -0.00000000000E+00 -0.00000000000E+00 -0.45593999997E+02  0.45594000000E+02  0.51100000000E-03 0. -1.
    9900012    2    1    2    0    0 -0.22056734892E+01 -0.58107718966E+00  0.18586961995E+02  0.72461606796E+02  0.70000047550E+02 0.  0.
         12    1    1    2    0    0  0.22056734892E+01  0.58107718966E+00 -0.18586961995E+02  0.18726393204E+02  0.00000000000E+00 0. -1.
         11    1    3    3    0    0 -0.99172900746E+01  0.17876825056E+02 -0.12945405391E+02  0.24197459319E+02  0.51100000000E-03 0.  1.
        -11    1    3    3    0    0  0.16520786055E+02 -0.13617199084E+02  0.31650968817E+02  0.38211887027E+02  0.51100000000E-03 0. -1.
         12    1    3    3    0    0 -0.88091694700E+01 -0.48407031615E+01 -0.11860143128E+00  0.10052260450E+02  0.00000000000E+00 0. -1.
</event>
<event>
 7    1  0.1351543E-013  0.7246158E+02  0.7816164E-02  0.1226708E+00
        -11   -1    0    0    0    0  0.00000000000E+00  0.00000000000E+00  0.45593999997E+02  0.45594000000E+02  0.51100000000E-03 0.  1.
         11   -1    0    0    0    0 -0.00000000000E+00 -0.00000000000E+00 -0.45593999997E+02  0.45594000000E+02  0.51100000000E-03 0. -1.
    9900012    2    1    2    0    0 -0.11518602380E+02  0.95549645809E+01  0.11256260083E+02  0.72461576423E+02  0.70000007983E+02 0.  0.
         12    1    1    2    0    0  0.11518602380E+02 -0.95549645809E+01 -0.11256260083E+02  0.18726423577E+02  0.00000000000E+00 0. -1.
         11    1    3    3    0    0  0.10433051621E+02 -0.28891977271E+01 -0.12315468118E+02  0.16397157829E+02  0.51100000000E-03 0. -1.
        -11    1    3    3    0    0 -0.18597331770E+02  0.39000138601E+01  0.35944815794E+02  0.40658340348E+02  0.51100000000E-03 0.  1.
        -12    1    3    3    0    0 -0.33543222311E+01  0.85441484480E+01 -0.12373087593E+02  0.15406078246E+02  0.00000000000E+00 0.  1.
</event>
<event>
 7    1  0.1351543E-013  0.7246150E+02  0.7816164E-02  0.1226708E+00
        -11   -1    0    0    0    0  0.00000000000E+00  0.00000000000E+00  0.45593999997E+02  0.45594000000E+02  0.51100000000E-03 0. -1.
         11   -1    0    0    0    0 -0.00000000000E+00 -0.00000000000E+00 -0.45593999997E+02  0.45594000000E+02  0.51100000000E-03 0.  1.
    9900012    2    1    2    0    0 -0.76867390318E+01 -0.52735234838E+01 -0.16241478075E+02  0.72461504948E+02  0.69999914874E+02 0.  0.
         12    1    1    2    0    0  0.76867390318E+01  0.52735234838E+01  0.16241478075E+02  0.18726495052E+02  0.00000000000E+00 0. -1.
         11    1    3    3    0    0  0.15538786413E+02  0.31833524679E+01 -0.18635979004E+02  0.24472174603E+02  0.51100000000E-03 0.  1.
        -11    1    3    3    0    0 -0.24076283644E+02  0.12237355552E+02 -0.87072585307E+00  0.27021814684E+02  0.51100000000E-03 0. -1.
         12    1    3    3    0    0  0.85075819889E+00 -0.20694231504E+02  0.32652267822E+01  0.20967515661E+02  0.00000000000E+00 0. -1.
</event>
<event>
 7    1  0.1351543E-013  0.7246185E+02  0.7816164E-02  0.1226707E+00
        -11   -1    0    0    0    0  0.00000000000E+00  0.00000000000E+00  0.45593999997E+02  0.45594000000E+02  0.51100000000E-03 0. -1.
         11   -1    0    0    0    0 -0.00000000000E+00 -0.00000000000E+00 -0.45593999997E+02  0.45594000000E+02  0.51100000000E-03 0.  1.
    9900012    2    1    2    0    0 -0.12636357634E+02 -0.67445857231E+01  0.12062404867E+02  0.72461852986E+02  0.70000368257E+02 0.  0.
         12    1    1    2    0    0  0.12636357634E+02  0.67445857231E+01 -0.12062404867E+02  0.18726147014E+02  0.00000000000E+00 0. -1.
         11    1    3    3    0    0  0.15427192266E+02 -0.23786724310E+01 -0.86193727601E+01  0.17831150574E+02  0.51100000000E-03 0.  1.
        -11    1    3    3    0    0 -0.12816631761E+02  0.16132147028E+02  0.20526414281E+02  0.29083430006E+02  0.51100000000E-03 0. -1.
         12    1    3    3    0    0 -0.15246918139E+02 -0.20498060320E+02  0.15536334682E+00  0.25547272406E+02  0.00000000000E+00 0. -1.
</event>
<event>
 7    1  0.1351543E-013  0.7246161E+02  0.7816164E-02  0.1226708E+00
        -11   -1    0    0    0    0  0.00000000000E+00  0.00000000000E+00  0.45593999997E+02  0.45594000000E+02  0.51100000000E-03 0.  1.
         11   -1    0    0    0    0 -0.00000000000E+00 -0.00000000000E+00 -0.45593999997E+02  0.45594000000E+02  0.51100000000E-03 0. -1.
    9900012    2    1    2    0    0  0.80799640691E+01 -0.14163478888E+02 -0.92080192383E+01  0.72461612953E+02  0.70000055570E+02 0.  0.
         12    1    1    2    0    0 -0.80799640691E+01  0.14163478888E+02  0.92080192383E+01  0.18726387047E+02  0.00000000000E+00 0. -1.
         11    1    3    3    0    0  0.13594298105E+02 -0.18507966963E+02 -0.10035948535E+02  0.25061325690E+02  0.51100000000E-03 0.  1.
        -11    1    3    3    0    0 -0.17472437289E+02  0.10796271406E+02 -0.15809956316E+02  0.25919109939E+02  0.51100000000E-03 0. -1.
        -12    1    3    3    0    0  0.11958103253E+02 -0.64517833305E+01  0.16637885613E+02  0.21481177323E+02  0.00000000000E+00 0.  1.
</event>
<event>
 7    1  0.1351543E-013  0.7246158E+02  0.7816164E-02  0.1226708E+00
        -11   -1    0    0    0    0  0.00000000000E+00  0.00000000000E+00  0.45593999997E+02  0.45594000000E+02  0.51100000000E-03 0.  1.
         11   -1    0    0    0    0 -0.00000000000E+00 -0.00000000000E+00 -0.45593999997E+02  0.45594000000E+02  0.51100000000E-03 0. -1.
    9900012    2    1    2    0    0  0.15518101425E+02  0.10442585521E+02  0.90545973764E+00  0.72461576915E+02  0.70000008625E+02 0.  0.
         12    1    1    2    0    0 -0.15518101425E+02 -0.10442585521E+02 -0.90545973764E+00  0.18726423085E+02  0.00000000000E+00 0. -1.
         11    1    3    3    0    0 -0.52194535271E-01 -0.14074502861E+02 -0.64687304220E-01  0.14074748302E+02  0.51100000000E-03 0. -1.
        -11    1    3    3    0    0  0.17897482261E+02  0.20032863125E+02  0.23258543503E+02  0.35533017356E+02  0.51100000000E-03 0.  1.
        -12    1    3    3    0    0 -0.23271863008E+01  0.44842252570E+01 -0.22288396461E+02  0.22853811258E+02  0.00000000000E+00 0.  1.
</event>
<event>
 7    1  0.1351543E-013  0.7246160E+02  0.7816164E-02  0.1226708E+00
        -11   -1    0    0    0    0  0.00000000000E+00  0.00000000000E+00  0.45593999997E+02  0.45594000000E+02  0.51100000000E-03 0.  1.
         11   -1    0    0    0    0 -0.00000000000E+00 -0.00000000000E+00 -0.45593999997E+02  0.45594000000E+02  0.51100000000E-03 0. -1.
    9900012    2    1    2    0    0 -0.95831639909E+00  0.16704083586E+02  0.84103091595E+01  0.72461599413E+02  0.70000037933E+02 0.  0.
         12    1    1    2    0    0  0.95831639909E+00 -0.16704083586E+02 -0.84103091595E+01  0.18726400587E+02  0.00000000000E+00 0. -1.
         11    1    3    3    0    0  0.16926279697E+02  0.22860250527E+02  0.15169084086E+02  0.32236487259E+02  0.51100000000E-03 0.  1.
        -11    1    3    3    0    0 -0.23702967822E+02 -0.14086935038E+02  0.11600522508E+01  0.27597430022E+02  0.51100000000E-03 0. -1.
         12    1    3    3    0    0  0.58183717263E+01  0.79307680967E+01 -0.79188271778E+01  0.12627682132E+02  0.00000000000E+00 0. -1.
</event>
<event>
 7    1  0.1351543E-013  0.7246152E+02  0.7816164E-02  0.1226708E+00
        -11   -1    0    0    0    0  0.00000000000E+00  0.00000000000E+00  0.45593999997E+02  0.45594000000E+02  0.51100000000E-03 0.  1.
         11   -1    0    0    0    0 -0.00000000000E+00 -0.00000000000E+00 -0.45593999997E+02  0.45594000000E+02  0.51100000000E-03 0. -1.
    9900012    2    1    2    0    0  0.15774789308E+02 -0.70724555261E+01  0.71984235139E+01  0.72461523931E+02  0.69999939603E+02 0.  0.
         12    1    1    2    0    0 -0.15774789308E+02  0.70724555261E+01 -0.71984235139E+01  0.18726476069E+02  0.00000000000E+00 0. -1.
         11    1    3    3    0    0 -0.18988513473E+02  0.19474022792E+01 -0.11011406947E+02  0.22036494793E+02  0.51100000000E-03 0. -1.
        -11    1    3    3    0    0  0.13447600342E+02  0.11424706380E+01  0.22679661169E+02  0.26391480161E+02  0.51100000000E-03 0.  1.
         12    1    3    3    0    0  0.21315702439E+02 -0.10162328443E+02 -0.44698307079E+01  0.24033548977E+02  0.00000000000E+00 0. -1.
</event>
<event>
 7    1  0.1351543E-013  0.7246156E+02  0.7816164E-02  0.1226708E+00
        -11   -1    0    0    0    0  0.00000000000E+00  0.00000000000E+00  0.45593999997E+02  0.45594000000E+02  0.51100000000E-03 0. -1.
         11   -1    0    0    0    0 -0.00000000000E+00 -0.00000000000E+00 -0.45593999997E+02  0.45594000000E+02  0.51100000000E-03 0.  1.
    9900012    2    1    2    0    0  0.63694324046E+01 -0.14402623576E+02  0.10132837220E+02  0.72461558129E+02  0.69999984152E+02 0.  0.
         12    1    1    2    0    0 -0.63694324046E+01  0.14402623576E+02 -0.10132837220E+02  0.18726441871E+02  0.00000000000E+00 0. -1.
         11    1    3    3    0    0 -0.41738427288E+01  0.15730810254E+02  0.26109852939E+01  0.16483221737E+02  0.51100000000E-03 0. -1.
        -11    1    3    3    0    0 -0.10160807438E+01 -0.38611361089E+02 -0.21517579884E+01  0.38684618235E+02  0.51100000000E-03 0.  1.
        -12    1    3    3    0    0  0.11559355877E+02  0.84779272589E+01  0.96736099144E+01  0.17293718157E+02  0.00000000000E+00 0.  1.
</event>
<event>
 7    1  0.1351543E-013  0.7246158E+02  0.7816164E-02  0.1226708E+00
        -11   -1    0    0    0    0  0.00000000000E+00  0.00000000000E+00  0.45593999997E+02  0.45594000000E+02  0.51100000000E-03 0. -1.
         11   -1    0    0    0    0 -0.00000000000E+00 -0.00000000000E+00 -0.45593999997E+02  0.45594000000E+02  0.51100000000E-03 0.  1.
    9900012    2    1    2    0    0  0.16046551481E+02  0.59186515153E+01 -0.76260509405E+01  0.72461577406E+02  0.70000009265E+02 0.  0.
         12    1    1    2    0    0 -0.16046551481E+02 -0.59186515153E+01  0.76260509405E+01  0.18726422594E+02  0.00000000000E+00 0. -1.
         11    1    3    3    0    0  0.77534641989E+01 -0.22259713604E+02 -0.15447867015E+02  0.28182399692E+02  0.51100000000E-03 0.  1.
        -11    1    3    3    0    0 -0.24646551328E+01  0.16616846647E+02  0.18673686654E+02  0.25117736580E+02  0.51100000000E-03 0. -1.
         12    1    3    3    0    0  0.10757742415E+02  0.11561518473E+02 -0.10851870580E+02  0.19161441135E+02  0.00000000000E+00 0. -1.
</event>
<event>
 7    1  0.1351543E-013  0.7246139E+02  0.7816164E-02  0.1226708E+00
        -11   -1    0    0    0    0  0.00000000000E+00  0.00000000000E+00  0.45593999997E+02  0.45594000000E+02  0.51100000000E-03 0. -1.
         11   -1    0    0    0    0 -0.00000000000E+00 -0.00000000000E+00 -0.45593999997E+02  0.45594000000E+02  0.51100000000E-03 0.  1.
    9900012    2    1    2    0    0  0.45615138443E+01 -0.17099989460E+02  0.61211817565E+01  0.72461390211E+02  0.69999765408E+02 0.  0.
         12    1    1    2    0    0 -0.45615138443E+01  0.17099989460E+02 -0.61211817565E+01  0.18726609789E+02  0.00000000000E+00 0. -1.
         11    1    3    3    0    0 -0.44514401562E+01  0.19169596244E+02 -0.98156742016E+01  0.21991730262E+02  0.51100000000E-03 0. -1.
        -11    1    3    3    0    0  0.13059384035E+02 -0.18684894486E+01  0.55023637958E+01  0.14293871827E+02  0.51100000000E-03 0.  1.
         12    1    3    3    0    0 -0.40464300347E+01 -0.34401096255E+02  0.10434492162E+02  0.36175788122E+02  0.00000000000E+00 0. -1.
</event>
<event>
 7    1  0.1351543E-013  0.7246170E+02  0.7816164E-02  0.1226708E+00
        -11   -1    0    0    0    0  0.00000000000E+00  0.00000000000E+00  0.45593999997E+02  0.45594000000E+02  0.51100000000E-03 0.  1.
         11   -1    0    0    0    0 -0.00000000000E+00 -0.00000000000E+00 -0.45593999997E+02  0.45594000000E+02  0.51100000000E-03 0. -1.
    9900012    2    1    2    0    0 -0.11966207698E+02 -0.14076410362E+02 -0.30559842668E+01  0.72461695101E+02  0.70000162583E+02 0.  0.
         12    1    1    2    0    0  0.11966207698E+02  0.14076410362E+02  0.30559842668E+01  0.18726304899E+02  0.00000000000E+00 0. -1.
         11    1    3    3    0    0  0.54450075250E+01  0.14766990957E+02 -0.13930278216E+02  0.21018201167E+02  0.51100000000E-03 0. -1.
        -11    1    3    3    0    0  0.10637043231E+02 -0.16509490397E+02  0.44211864793E+01  0.20130992326E+02  0.51100000000E-03 0.  1.
         12    1    3    3    0    0 -0.28048258454E+02 -0.12333910922E+02  0.64531074696E+01  0.31312501608E+02  0.00000000000E+00 0. -1.
</event>
<event>
 7    1  0.1351543E-013  0.7246160E+02  0.7816164E-02  0.1226708E+00
        -11   -1    0    0    0    0  0.00000000000E+00  0.00000000000E+00  0.45593999997E+02  0.45594000000E+02  0.51100000000E-03 0.  1.
         11   -1    0    0    0    0 -0.00000000000E+00 -0.00000000000E+00 -0.45593999997E+02  0.45594000000E+02  0.51100000000E-03 0. -1.
    9900012    2    1    2    0    0  0.16521191117E+02  0.85583356027E+00  0.87747198428E+01  0.72461603781E+02  0.70000043623E+02 0.  0.
         12    1    1    2    0    0 -0.16521191117E+02 -0.85583356027E+00 -0.87747198428E+01  0.18726396219E+02  0.00000000000E+00 0. -1.
         11    1    3    3    0    0 -0.14500287401E+02 -0.58545886433E+00 -0.28312350147E+01  0.14785702174E+02  0.51100000000E-03 0. -1.
        -11    1    3    3    0    0  0.17860867649E+02  0.21669335610E+02  0.17164087229E+02  0.32911648236E+02  0.51100000000E-03 0.  1.
        -12    1    3    3    0    0  0.13160610869E+02 -0.20228043186E+02 -0.55581323717E+01  0.24764253371E+02  0.00000000000E+00 0.  1.
</event>
<event>
 7    1  0.1351543E-013  0.7246157E+02  0.7816164E-02  0.1226708E+00
        -11   -1    0    0    0    0  0.00000000000E+00  0.00000000000E+00  0.45593999997E+02  0.45594000000E+02  0.51100000000E-03 0. -1.
         11   -1    0    0    0    0 -0.00000000000E+00 -0.00000000000E+00 -0.45593999997E+02  0.45594000000E+02  0.51100000000E-03 0.  1.
    9900012    2    1    2    0    0  0.20524704139E+01 -0.97612426026E+01 -0.15848810068E+02  0.72461567544E+02  0.69999996417E+02 0.  0.
         12    1    1    2    0    0 -0.20524704139E+01  0.97612426026E+01  0.15848810068E+02  0.18726432456E+02  0.00000000000E+00 0. -1.
         11    1    3    3    0    0  0.19099461973E+01 -0.41325629763E+01  0.20236949278E+02  0.20742711673E+02  0.51100000000E-03 0. -1.
        -11    1    3    3    0    0  0.16464678228E+02 -0.88162014302E+01 -0.11167294915E+02  0.21760503505E+02  0.51100000000E-03 0.  1.
         12    1    3    3    0    0 -0.16322154012E+02  0.31875218039E+01 -0.24918464431E+02  0.29958352365E+02  0.00000000000E+00 0. -1.
</event>
<event>
 7    1  0.1351543E-013  0.7246155E+02  0.7816164E-02  0.1226708E+00
        -11   -1    0    0    0    0  0.00000000000E+00  0.00000000000E+00  0.45593999997E+02  0.45594000000E+02  0.51100000000E-03 0.  1.
         11   -1    0    0    0    0 -0.00000000000E+00 -0.00000000000E+00 -0.45593999997E+02  0.45594000000E+02  0.51100000000E-03 0. -1.
    9900012    2    1    2    0    0 -0.90476992558E+01  0.14651837934E+02  0.73581822996E+01  0.72461546427E+02  0.69999968909E+02 0.  0.
         12    1    1    2    0    0  0.90476992558E+01 -0.14651837934E+02 -0.73581822996E+01  0.18726453573E+02  0.00000000000E+00 0. -1.
         11    1    3    3    0    0 -0.92192803959E+01 -0.21083620378E+01 -0.28254539584E+01  0.98703349403E+01  0.51100000000E-03 0. -1.
        -11    1    3    3    0    0 -0.14988637459E+02  0.16305644492E+02  0.30216619378E+02  0.37464348147E+02  0.51100000000E-03 0.  1.
        -12    1    3    3    0    0  0.15160218599E+02  0.45455547945E+00 -0.20032983119E+02  0.25126863340E+02  0.00000000000E+00 0.  1.
</event>
<event>
 7    1  0.1351543E-013  0.7246163E+02  0.7816164E-02  0.1226708E+00
        -11   -1    0    0    0    0  0.00000000000E+00  0.00000000000E+00  0.45593999997E+02  0.45594000000E+02  0.51100000000E-03 0.  1.
         11   -1    0    0    0    0 -0.00000000000E+00 -0.00000000000E+00 -0.45593999997E+02  0.45594000000E+02  0.51100000000E-03 0. -1.
    9900012    2    1    2    0    0 -0.30829120046E+01 -0.17240237474E+02  0.66292403811E+01  0.72461629219E+02  0.70000076761E+02 0.  0.
         12    1    1    2    0    0  0.30829120046E+01  0.17240237474E+02 -0.66292403811E+01  0.18726370781E+02  0.00000000000E+00 0. -1.
         11    1    3    3    0    0  0.40537270117E+01  0.11711623449E+02  0.27356152753E+02  0.30032547681E+02  0.51100000000E-03 0.  1.
        -11    1    3    3    0    0 -0.11450044004E+02 -0.11701795837E+02 -0.18181974388E+02  0.24466706489E+02  0.51100000000E-03 0. -1.
         12    1    3    3    0    0  0.43134049876E+01 -0.17250065086E+02 -0.25449379838E+01  0.17962375049E+02  0.00000000000E+00 0. -1.
</event>
<event>
 7    1  0.1351543E-013  0.7246160E+02  0.7816164E-02  0.1226708E+00
        -11   -1    0    0    0    0  0.00000000000E+00  0.00000000000E+00  0.45593999997E+02  0.45594000000E+02  0.51100000000E-03 0.  1.
         11   -1    0    0    0    0 -0.00000000000E+00 -0.00000000000E+00 -0.45593999997E+02  0.45594000000E+02  0.51100000000E-03 0. -1.
    9900012    2    1    2    0    0 -0.11000978831E+02  0.10804962575E+02 -0.10625879426E+02  0.72461599784E+02  0.70000038415E+02 0.  0.
         12    1    1    2    0    0  0.11000978831E+02 -0.10804962575E+02  0.10625879426E+02  0.18726400216E+02  0.00000000000E+00 0. -1.
         11    1    3    3    0    0  0.19430042318E+02 -0.23067464601E+01 -0.67198235454E+01  0.20688249140E+02  0.51100000000E-03 0. -1.
        -11    1    3    3    0    0 -0.39499781941E+02  0.91296063132E+01 -0.75151061172E+01  0.41231775429E+02  0.51100000000E-03 0.  1.
        -12    1    3    3    0    0  0.90687607924E+01  0.39821027220E+01  0.36090502364E+01  0.10541575215E+02  0.00000000000E+00 0.  1.
</event>
<event>
 7    1  0.1351543E-013  0.7246157E+02  0.7816164E-02  0.1226708E+00
        -11   -1    0    0    0    0  0.00000000000E+00  0.00000000000E+00  0.45593999997E+02  0.45594000000E+02  0.51100000000E-03 0. -1.
         11   -1    0    0    0    0 -0.00000000000E+00 -0.00000000000E+00 -0.45593999997E+02  0.45594000000E+02  0.51100000000E-03 0.  1.
    9900012    2    1    2    0    0 -0.63287561275E+01 -0.46853932790E+01 -0.16990381916E+02  0.72461571031E+02  0.70000000960E+02 0.  0.
         12    1    1    2    0    0  0.63287561275E+01  0.46853932790E+01  0.16990381916E+02  0.18726428969E+02  0.00000000000E+00 0. -1.
         11    1    3    3    0    0 -0.12645603719E+02 -0.37493375820E+01 -0.10861272599E+02  0.17086136733E+02  0.51100000000E-03 0. -1.
        -11    1    3    3    0    0  0.13588518343E+02 -0.17860748618E+02  0.15266486191E+02  0.27142582280E+02  0.51100000000E-03 0.  1.
        -12    1    3    3    0    0 -0.72716707513E+01  0.16924692921E+02 -0.21395595508E+02  0.28232852018E+02  0.00000000000E+00 0.  1.
</event>
<event>
 7    1  0.1351543E-013  0.7246161E+02  0.7816164E-02  0.1226708E+00
        -11   -1    0    0    0    0  0.00000000000E+00  0.00000000000E+00  0.45593999997E+02  0.45594000000E+02  0.51100000000E-03 0.  1.
         11   -1    0    0    0    0 -0.00000000000E+00 -0.00000000000E+00 -0.45593999997E+02  0.45594000000E+02  0.51100000000E-03 0. -1.
    9900012    2    1    2    0    0 -0.11724944682E+02 -0.27231549859E+01  0.14345302673E+02  0.72461611943E+02  0.70000054255E+02 0.  0.
         12    1    1    2    0    0  0.11724944682E+02  0.27231549859E+01 -0.14345302673E+02  0.18726388057E+02  0.00000000000E+00 0. -1.
         11    1    3    3    0    0 -0.25856208198E+02 -0.16318533949E+02 -0.14095462369E+02  0.33667790428E+02  0.51100000000E-03 0. -1.
        -11    1    3    3    0    0  0.11527910470E+01  0.11757187202E+02  0.19920603576E+02  0.23160112806E+02  0.51100000000E-03 0.  1.
        -12    1    3    3    0    0  0.12978472470E+02  0.18381917611E+01  0.85201614661E+01  0.15633708709E+02  0.00000000000E+00 0.  1.
</event>
<event>
 7    1  0.1351543E-013  0.7246124E+02  0.7816164E-02  0.1226709E+00
        -11   -1    0    0    0    0  0.00000000000E+00  0.00000000000E+00  0.45593999997E+02  0.45594000000E+02  0.51100000000E-03 0. -1.
         11   -1    0    0    0    0 -0.00000000000E+00 -0.00000000000E+00 -0.45593999997E+02  0.45594000000E+02  0.51100000000E-03 0.  1.
    9900012    2    1    2    0    0  0.55303793882E+01 -0.17752925187E+02  0.22226672774E+01  0.72461235766E+02  0.69999564213E+02 0.  0.
         12    1    1    2    0    0 -0.55303793882E+01  0.17752925187E+02 -0.22226672774E+01  0.18726764234E+02  0.00000000000E+00 0. -1.
         11    1    3    3    0    0  0.26212898831E+01  0.55902492400E+00 -0.38313580679E+00  0.27074827468E+01  0.51100000000E-03 0. -1.
        -11    1    3    3    0    0  0.28616087872E+00 -0.39310999816E+02  0.18343526479E+02  0.43381119840E+02  0.51100000000E-03 0.  1.
        -12    1    3    3    0    0  0.26229286264E+01  0.20999049706E+02 -0.15737723395E+02  0.26372633179E+02  0.00000000000E+00 0.  1.
</event>
<event>
 7    1  0.1351543E-013  0.7246155E+02  0.7816164E-02  0.1226708E+00
        -11   -1    0    0    0    0  0.00000000000E+00  0.00000000000E+00  0.45593999997E+02  0.45594000000E+02  0.51100000000E-03 0.  1.
         11   -1    0    0    0    0 -0.00000000000E+00 -0.00000000000E+00 -0.45593999997E+02  0.45594000000E+02  0.51100000000E-03 0. -1.
    9900012    2    1    2    0    0 -0.17859568061E+02  0.30760192860E+01  0.47173814667E+01  0.72461554692E+02  0.69999979675E+02 0.  0.
         12    1    1    2    0    0  0.17859568061E+02 -0.30760192860E+01 -0.47173814667E+01  0.18726445308E+02  0.00000000000E+00 0. -1.
         11    1    3    3    0    0  0.17028219634E+02 -0.64398818824E+01 -0.18836456166E+02  0.26196267362E+02  0.51100000000E-03 0. -1.
        -11    1    3    3    0    0 -0.20679112315E+02  0.11724213348E+02  0.20880105322E+02  0.31639558519E+02  0.51100000000E-03 0.  1.
        -12    1    3    3    0    0 -0.14208675381E+02 -0.22083121797E+01  0.26737323101E+01  0.14625728810E+02  0.00000000000E+00 0.  1.
</event>
<event>
 7    1  0.1351543E-013  0.7246152E+02  0.7816164E-02  0.1226708E+00
        -11   -1    0    0    0    0  0.00000000000E+00  0.00000000000E+00  0.45593999997E+02  0.45594000000E+02  0.51100000000E-03 0.  1.
         11   -1    0    0    0    0 -0.00000000000E+00 -0.00000000000E+00 -0.45593999997E+02  0.45594000000E+02  0.51100000000E-03 0. -1.
    9900012    2    1    2    0    0  0.12731755597E+02  0.56931952505E+01  0.12496844347E+02  0.72461516311E+02  0.69999929676E+02 0.  0.
         12    1    1    2    0    0 -0.12731755597E+02 -0.56931952505E+01 -0.12496844347E+02  0.18726483689E+02  0.00000000000E+00 0. -1.
         11    1    3    3    0    0  0.94903655183E+01  0.25105071924E+02  0.15139602354E+02  0.30814594492E+02  0.51100000000E-03 0. -1.
        -11    1    3    3    0    0  0.10604162056E+02 -0.22284472387E+02  0.10089107118E+02  0.26661508681E+02  0.51100000000E-03 0.  1.
         12    1    3    3    0    0 -0.73627719778E+01  0.28725957134E+01 -0.12731865125E+02  0.14985413137E+02  0.00000000000E+00 0. -1.
</event>
<event>
 7    1  0.1351543E-013  0.7246161E+02  0.7816164E-02  0.1226708E+00
        -11   -1    0    0    0    0  0.00000000000E+00  0.00000000000E+00  0.45593999997E+02  0.45594000000E+02  0.51100000000E-03 0.  1.
         11   -1    0    0    0    0 -0.00000000000E+00 -0.00000000000E+00 -0.45593999997E+02  0.45594000000E+02  0.51100000000E-03 0. -1.
    9900012    2    1    2    0    0  0.56955489445E+01 -0.95560239203E+01  0.15063895312E+02  0.72461606516E+02  0.70000047186E+02 0.  0.
         12    1    1    2    0    0 -0.56955489445E+01  0.95560239203E+01 -0.15063895312E+02  0.18726393484E+02  0.00000000000E+00 0. -1.
         11    1    3    3    0    0 -0.22360866204E+02 -0.52958803937E+01  0.30232312889E+02  0.37974299591E+02  0.51100000000E-03 0. -1.
        -11    1    3    3    0    0  0.11894509012E+02  0.19658431719E+01 -0.97572520247E+00  0.12095285195E+02  0.51100000000E-03 0.  1.
         12    1    3    3    0    0  0.16161906136E+02 -0.62259866985E+01 -0.14192692374E+02  0.22392021730E+02  0.00000000000E+00 0. -1.
</event>
<event>
 7    1  0.1351543E-013  0.7246154E+02  0.7816164E-02  0.1226708E+00
        -11   -1    0    0    0    0  0.00000000000E+00  0.00000000000E+00  0.45593999997E+02  0.45594000000E+02  0.51100000000E-03 0.  1.
         11   -1    0    0    0    0 -0.00000000000E+00 -0.00000000000E+00 -0.45593999997E+02  0.45594000000E+02  0.51100000000E-03 0. -1.
    9900012    2    1    2    0    0  0.10387783752E+02 -0.15198121805E+02  0.34338290970E+01  0.72461544384E+02  0.69999966247E+02 0.  0.
         12    1    1    2    0    0 -0.10387783752E+02  0.15198121805E+02 -0.34338290970E+01  0.18726455616E+02  0.00000000000E+00 0. -1.
         11    1    3    3    0    0 -0.13837097775E+02 -0.32948429845E+02  0.12269371958E+02  0.37783618045E+02  0.51100000000E-03 0. -1.
        -11    1    3    3    0    0  0.13614232162E+02  0.18278687085E+02 -0.73695759172E+01  0.23953462555E+02  0.51100000000E-03 0.  1.
         12    1    3    3    0    0  0.10610649365E+02 -0.52837904482E+00 -0.14659669432E+01  0.10724463783E+02  0.00000000000E+00 0. -1.
</event>
<event>
 7    1  0.1351543E-013  0.7246151E+02  0.7816164E-02  0.1226708E+00
        -11   -1    0    0    0    0  0.00000000000E+00  0.00000000000E+00  0.45593999997E+02  0.45594000000E+02  0.51100000000E-03 0.  1.
         11   -1    0    0    0    0 -0.00000000000E+00 -0.00000000000E+00 -0.45593999997E+02  0.45594000000E+02  0.51100000000E-03 0. -1.
    9900012    2    1    2    0    0  0.12469010123E+02  0.47166602298E+01  0.13151355681E+02  0.72461514654E+02  0.69999927518E+02 0.  0.
         12    1    1    2    0    0 -0.12469010123E+02 -0.47166602298E+01 -0.13151355681E+02  0.18726485346E+02  0.00000000000E+00 0. -1.
         11    1    3    3    0    0 -0.35358976208E+01  0.17993761246E+02  0.53016614779E+01  0.19088887617E+02  0.51100000000E-03 0. -1.
        -11    1    3    3    0    0  0.20697543150E+02  0.14238034095E+01  0.23531655030E+02  0.31371233595E+02  0.51100000000E-03 0.  1.
        -12    1    3    3    0    0 -0.46926354062E+01 -0.14700904426E+02 -0.15681960826E+02  0.22001393441E+02  0.00000000000E+00 0.  1.
</event>
<event>
 7    1  0.1351543E-013  0.7246160E+02  0.7816164E-02  0.1226708E+00
        -11   -1    0    0    0    0  0.00000000000E+00  0.00000000000E+00  0.45593999997E+02  0.45594000000E+02  0.51100000000E-03 0.  1.
         11   -1    0    0    0    0 -0.00000000000E+00 -0.00000000000E+00 -0.45593999997E+02  0.45594000000E+02  0.51100000000E-03 0. -1.
    9900012    2    1    2    0    0  0.10537940385E+02 -0.11951708658E+02  0.98380183103E+01  0.72461598005E+02  0.70000036098E+02 0.  0.
         12    1    1    2    0    0 -0.10537940385E+02  0.11951708658E+02 -0.98380183103E+01  0.18726401995E+02  0.00000000000E+00 0. -1.
         11    1    3    3    0    0  0.96671856069E+01 -0.13259141439E+02  0.10070530202E+02  0.19252918949E+02  0.51100000000E-03 0. -1.
        -11    1    3    3    0    0 -0.89005600000E+01  0.24743310943E+02 -0.64336944659E+01  0.27071088443E+02  0.51100000000E-03 0.  1.
        -12    1    3    3    0    0  0.97713147783E+01 -0.23435878162E+02  0.62011825741E+01  0.26137590613E+02  0.00000000000E+00 0.  1.
</event>
<event>
 7    1  0.1351543E-013  0.7246157E+02  0.7816164E-02  0.1226708E+00
        -11   -1    0    0    0    0  0.00000000000E+00  0.00000000000E+00  0.45593999997E+02  0.45594000000E+02  0.51100000000E-03 0.  1.
         11   -1    0    0    0    0 -0.00000000000E+00 -0.00000000000E+00 -0.45593999997E+02  0.45594000000E+02  0.51100000000E-03 0. -1.
    9900012    2    1    2    0    0  0.59483642265E+01 -0.17399590575E+02  0.35426520975E+01  0.72461570201E+02  0.69999999878E+02 0.  0.
         12    1    1    2    0    0 -0.59483642265E+01  0.17399590575E+02 -0.35426520975E+01  0.18726429799E+02  0.00000000000E+00 0. -1.
         11    1    3    3    0    0  0.27063376199E+02  0.73091071132E+01 -0.14965039024E+02  0.31777378295E+02  0.51100000000E-03 0. -1.
        -11    1    3    3    0    0 -0.15358650191E+02 -0.57719438054E+01  0.75521218465E+01  0.18062060116E+02  0.51100000000E-03 0.  1.
         12    1    3    3    0    0 -0.57563617812E+01 -0.18936753882E+02  0.10955569275E+02  0.22622131790E+02  0.00000000000E+00 0. -1.
</event>
<event>
 7    1  0.1351543E-013  0.7246146E+02  0.7816164E-02  0.1226708E+00
        -11   -1    0    0    0    0  0.00000000000E+00  0.00000000000E+00  0.45593999997E+02  0.45594000000E+02  0.51100000000E-03 0. -1.
         11   -1    0    0    0    0 -0.00000000000E+00 -0.00000000000E+00 -0.45593999997E+02  0.45594000000E+02  0.51100000000E-03 0.  1.
    9900012    2    1    2    0    0  0.14425961763E+02 -0.66921663772E+00  0.11921710244E+02  0.72461457371E+02  0.69999852896E+02 0.  0.
         12    1    1    2    0    0 -0.14425961763E+02  0.66921663772E+00 -0.11921710244E+02  0.18726542629E+02  0.00000000000E+00 0. -1.
         11    1    3    3    0    0  0.30445187390E+01 -0.26517015091E+02  0.22630939271E+02  0.34994008005E+02  0.51100000000E-03 0. -1.
        -11    1    3    3    0    0  0.76261464509E+01  0.95371216775E+01 -0.15803821789E+02  0.19971869792E+02  0.51100000000E-03 0.  1.
         12    1    3    3    0    0  0.37552965728E+01  0.16310676776E+02  0.50945927625E+01  0.17495579575E+02  0.00000000000E+00 0. -1.
</event>
<event>
 7    1  0.1351543E-013  0.7246165E+02  0.7816164E-02  0.1226708E+00
        -11   -1    0    0    0    0  0.00000000000E+00  0.00000000000E+00  0.45593999997E+02  0.45594000000E+02  0.51100000000E-03 0.  1.
         11   -1    0    0    0    0 -0.00000000000E+00 -0.00000000000E+00 -0.45593999997E+02  0.45594000000E+02  0.51100000000E-03 0. -1.
    9900012    2    1    2    0    0  0.13926115774E+02  0.34113396635E+01  0.12045844393E+02  0.72461646751E+02  0.70000099599E+02 0.  0.
         12    1    1    2    0    0 -0.13926115774E+02 -0.34113396635E+01 -0.12045844393E+02  0.18726353249E+02  0.00000000000E+00 0. -1.
         11    1    3    3    0    0 -0.40811320984E+01 -0.43408176258E+00 -0.14194051029E+02  0.14775491567E+02  0.51100000000E-03 0. -1.
        -11    1    3    3    0    0 -0.11931010665E+02 -0.27408131164E+01  0.24010335719E+02  0.26951016560E+02  0.51100000000E-03 0.  1.
        -12    1    3    3    0    0  0.29938258538E+02  0.65862345425E+01  0.22295597035E+01  0.30735138623E+02  0.00000000000E+00 0.  1.
</event>
<event>
 7    1  0.1351543E-013  0.7246153E+02  0.7816164E-02  0.1226708E+00
        -11   -1    0    0    0    0  0.00000000000E+00  0.00000000000E+00  0.45593999997E+02  0.45594000000E+02  0.51100000000E-03 0. -1.
         11   -1    0    0    0    0 -0.00000000000E+00 -0.00000000000E+00 -0.45593999997E+02  0.45594000000E+02  0.51100000000E-03 0.  1.
    9900012    2    1    2    0    0  0.47109700935E+01  0.12994423222E+02 -0.12634564695E+02  0.72461534794E+02  0.69999953754E+02 0.  0.
         12    1    1    2    0    0 -0.47109700935E+01 -0.12994423222E+02  0.12634564695E+02  0.18726465206E+02  0.00000000000E+00 0. -1.
         11    1    3    3    0    0 -0.52284337548E+01  0.28936733451E+02  0.10548032016E+02  0.31239911043E+02  0.51100000000E-03 0. -1.
        -11    1    3    3    0    0  0.14736229602E+02  0.23338083253E+01 -0.76786709347E+01  0.16779902019E+02  0.51100000000E-03 0.  1.
         12    1    3    3    0    0 -0.47968257537E+01 -0.18276118554E+02 -0.15503925776E+02  0.24441721731E+02  0.00000000000E+00 0. -1.
</event>
<event>
 7    1  0.1351543E-013  0.7246154E+02  0.7816164E-02  0.1226708E+00
        -11   -1    0    0    0    0  0.00000000000E+00  0.00000000000E+00  0.45593999997E+02  0.45594000000E+02  0.51100000000E-03 0. -1.
         11   -1    0    0    0    0 -0.00000000000E+00 -0.00000000000E+00 -0.45593999997E+02  0.45594000000E+02  0.51100000000E-03 0.  1.
    9900012    2    1    2    0    0  0.10110463356E+02 -0.15675289004E+02  0.16565791724E+01  0.72461537195E+02  0.69999956882E+02 0.  0.
         12    1    1    2    0    0 -0.10110463356E+02  0.15675289004E+02 -0.16565791724E+01  0.18726462805E+02  0.00000000000E+00 0. -1.
         11    1    3    3    0    0  0.34238907641E+01  0.89902975483E+01  0.33566907000E+01  0.10189006364E+02  0.51100000000E-03 0. -1.
        -11    1    3    3    0    0 -0.80543144379E+01 -0.10768324720E+02 -0.26819332273E+02  0.30001756318E+02  0.51100000000E-03 0.  1.
        -12    1    3    3    0    0  0.14740887030E+02 -0.13897261831E+02  0.25119220745E+02  0.32270774513E+02  0.00000000000E+00 0.  1.
</event>
<event>
 7    1  0.1351543E-013  0.7246161E+02  0.7816164E-02  0.1226708E+00
        -11   -1    0    0    0    0  0.00000000000E+00  0.00000000000E+00  0.45593999997E+02  0.45594000000E+02  0.51100000000E-03 0. -1.
         11   -1    0    0    0    0 -0.00000000000E+00 -0.00000000000E+00 -0.45593999997E+02  0.45594000000E+02  0.51100000000E-03 0.  1.
    9900012    2    1    2    0    0  0.50256843830E+01  0.10797356159E+02 -0.14451198519E+02  0.72461613745E+02  0.70000056603E+02 0.  0.
         12    1    1    2    0    0 -0.50256843830E+01 -0.10797356159E+02  0.14451198519E+02  0.18726386255E+02  0.00000000000E+00 0. -1.
         11    1    3    3    0    0 -0.60157686183E+01  0.24431763654E+01  0.73733749903E+01  0.98247260435E+01  0.51100000000E-03 0. -1.
        -11    1    3    3    0    0  0.16697871818E+02  0.24867729637E+02 -0.30838783592E+02  0.42991318591E+02  0.51100000000E-03 0.  1.
        -12    1    3    3    0    0 -0.56564188165E+01 -0.16513549843E+02  0.90142100827E+01  0.19645569110E+02  0.00000000000E+00 0.  1.
</event>
<event>
 7    1  0.1351543E-013  0.7246160E+02  0.7816164E-02  0.1226708E+00
        -11   -1    0    0    0    0  0.00000000000E+00  0.00000000000E+00  0.45593999997E+02  0.45594000000E+02  0.51100000000E-03 0.  1.
         11   -1    0    0    0    0 -0.00000000000E+00 -0.00000000000E+00 -0.45593999997E+02  0.45594000000E+02  0.51100000000E-03 0. -1.
    9900012    2    1    2    0    0 -0.69187514977E+01  0.67091137507E+01  0.16056047055E+02  0.72461602145E+02  0.70000041491E+02 0.  0.
         12    1    1    2    0    0  0.69187514977E+01 -0.67091137507E+01 -0.16056047055E+02  0.18726397855E+02  0.00000000000E+00 0. -1.
         11    1    3    3    0    0 -0.85974397094E+01 -0.68669047358E+01  0.51224198332E+01  0.12137113966E+02  0.51100000000E-03 0. -1.
        -11    1    3    3    0    0  0.10137763532E+02 -0.17776543438E+01 -0.21286606271E+02  0.23644320908E+02  0.51100000000E-03 0.  1.
        -12    1    3    3    0    0 -0.84590753206E+01  0.15353672830E+02  0.32220233493E+02  0.36680167271E+02  0.00000000000E+00 0.  1.
</event>
<event>
 8    1  0.1351543E-013  0.7246185E+02  0.7816164E-02  0.1226707E+00
        -11   -1    0    0    0    0  0.00000000000E+00  0.00000000000E+00  0.45593999997E+02  0.45594000000E+02  0.51100000000E-03 0.  1.
         11   -1    0    0    0    0 -0.00000000000E+00 -0.00000000000E+00 -0.45593999997E+02  0.45594000000E+02  0.51100000000E-03 0. -1.
    9900012    2    1    2    0    0  0.11267549396E+02 -0.11119098327E+02 -0.10003829741E+02  0.72461851798E+02  0.70000366710E+02 0.  0.
        -24    2    3    3    0    0  0.18576080218E+02  0.55882466735E+00 -0.17506439459E+02  0.56774989107E+02  0.50710363086E+02 0.  0.
         12    1    1    2    0    0 -0.11267549396E+02  0.11119098327E+02  0.10003829741E+02  0.18726148202E+02  0.00000000000E+00 0. -1.
         11    1    4    4    0    0 -0.60745348554E+01  0.17252557184E+02 -0.19750713536E+02  0.26919163964E+02  0.51100000000E-03 0. -1.
        -11    1    3    3    0    0 -0.73085308227E+01 -0.11677922994E+02  0.75026097182E+01  0.15686862691E+02  0.51100000000E-03 0.  1.
        -12    1    4    4    0    0  0.24650615074E+02 -0.16693732516E+02  0.22442740774E+01  0.29855825143E+02  0.00000000000E+00 0.  1.
</event>
<event>
 7    1  0.1351543E-013  0.7246156E+02  0.7816164E-02  0.1226708E+00
        -11   -1    0    0    0    0  0.00000000000E+00  0.00000000000E+00  0.45593999997E+02  0.45594000000E+02  0.51100000000E-03 0. -1.
         11   -1    0    0    0    0 -0.00000000000E+00 -0.00000000000E+00 -0.45593999997E+02  0.45594000000E+02  0.51100000000E-03 0.  1.
    9900012    2    1    2    0    0  0.17496017547E+02  0.53909138977E+01 -0.39378749841E+01  0.72461563018E+02  0.69999990521E+02 0.  0.
         12    1    1    2    0    0 -0.17496017547E+02 -0.53909138977E+01  0.39378749841E+01  0.18726436982E+02  0.00000000000E+00 0. -1.
         11    1    3    3    0    0 -0.85206411620E+01 -0.20373957599E+02  0.39920120708E+01  0.22441827793E+02  0.51100000000E-03 0. -1.
        -11    1    3    3    0    0  0.23699469716E+02  0.24302488385E+02 -0.18804152857E+02  0.38805566243E+02  0.51100000000E-03 0.  1.
        -12    1    3    3    0    0  0.23171889936E+01  0.14623831118E+01  0.10874265803E+02  0.11214168981E+02  0.00000000000E+00 0.  1.
</event>
<event>
 7    1  0.1351543E-013  0.7246157E+02  0.7816164E-02  0.1226708E+00
        -11   -1    0    0    0    0  0.00000000000E+00  0.00000000000E+00  0.45593999997E+02  0.45594000000E+02  0.51100000000E-03 0.  1.
         11   -1    0    0    0    0 -0.00000000000E+00 -0.00000000000E+00 -0.45593999997E+02  0.45594000000E+02  0.51100000000E-03 0. -1.
    9900012    2    1    2    0    0 -0.22747668215E+01 -0.12572666496E+02  0.13690603538E+02  0.72461571292E+02  0.70000001299E+02 0.  0.
         12    1    1    2    0    0  0.22747668215E+01  0.12572666496E+02 -0.13690603538E+02  0.18726428708E+02  0.00000000000E+00 0. -1.
         11    1    3    3    0    0  0.13921414859E+02  0.90269357345E+01 -0.85329053796E+01  0.18657487369E+02  0.51100000000E-03 0. -1.
        -11    1    3    3    0    0  0.53224680649E+01 -0.54717556244E+01  0.25588433749E+02  0.26702747385E+02  0.51100000000E-03 0.  1.
        -12    1    3    3    0    0 -0.21518649746E+02 -0.16127846607E+02 -0.33649248310E+01  0.27101336538E+02  0.00000000000E+00 0.  1.
</event>
<event>
 7    1  0.1351543E-013  0.7246165E+02  0.7816164E-02  0.1226708E+00
        -11   -1    0    0    0    0  0.00000000000E+00  0.00000000000E+00  0.45593999997E+02  0.45594000000E+02  0.51100000000E-03 0.  1.
         11   -1    0    0    0    0 -0.00000000000E+00 -0.00000000000E+00 -0.45593999997E+02  0.45594000000E+02  0.51100000000E-03 0. -1.
    9900012    2    1    2    0    0  0.95784090216E+01  0.49579790657E+01  0.15308448552E+02  0.72461652976E+02  0.70000107708E+02 0.  0.
         12    1    1    2    0    0 -0.95784090216E+01 -0.49579790657E+01 -0.15308448552E+02  0.18726347024E+02  0.00000000000E+00 0. -1.
         11    1    3    3    0    0  0.26894252007E+02  0.80287978949E+01  0.10141549510E+02  0.29843146841E+02  0.51100000000E-03 0. -1.
        -11    1    3    3    0    0 -0.16523274042E+02 -0.18020111512E+02 -0.44151164950E+01  0.24844239934E+02  0.51100000000E-03 0.  1.
        -12    1    3    3    0    0 -0.79256894312E+00  0.14949292683E+02  0.95820155362E+01  0.17774266201E+02  0.00000000000E+00 0.  1.
</event>
<event>
 7    1  0.1351543E-013  0.7246156E+02  0.7816164E-02  0.1226708E+00
        -11   -1    0    0    0    0  0.00000000000E+00  0.00000000000E+00  0.45593999997E+02  0.45594000000E+02  0.51100000000E-03 0. -1.
         11   -1    0    0    0    0 -0.00000000000E+00 -0.00000000000E+00 -0.45593999997E+02  0.45594000000E+02  0.51100000000E-03 0.  1.
    9900012    2    1    2    0    0  0.17343812003E+02  0.63906913954E+01 -0.30051081900E+01  0.72461563432E+02  0.69999991060E+02 0.  0.
         12    1    1    2    0    0 -0.17343812003E+02 -0.63906913954E+01  0.30051081900E+01  0.18726436568E+02  0.00000000000E+00 0. -1.
         11    1    3    3    0    0 -0.23490992554E+02 -0.35010436431E+01  0.13410616444E+02  0.27275055846E+02  0.51100000000E-03 0. -1.
        -11    1    3    3    0    0  0.17197030181E+02  0.33846116931E+01 -0.79874730532E+01  0.19261182969E+02  0.51100000000E-03 0.  1.
         12    1    3    3    0    0  0.23637774377E+02  0.65071233455E+01 -0.84282515807E+01  0.25925324616E+02  0.00000000000E+00 0. -1.
</event>
<event>
 7    1  0.1351543E-013  0.7246157E+02  0.7816164E-02  0.1226708E+00
        -11   -1    0    0    0    0  0.00000000000E+00  0.00000000000E+00  0.45593999997E+02  0.45594000000E+02  0.51100000000E-03 0. -1.
         11   -1    0    0    0    0 -0.00000000000E+00 -0.00000000000E+00 -0.45593999997E+02  0.45594000000E+02  0.51100000000E-03 0.  1.
    9900012    2    1    2    0    0  0.17209117849E+02 -0.50375074357E+01 -0.53989663072E+01  0.72461573339E+02  0.70000003966E+02 0.  0.
         12    1    1    2    0    0 -0.17209117849E+02  0.50375074357E+01  0.53989663072E+01  0.18726426661E+02  0.00000000000E+00 0. -1.
         11    1    3    3    0    0  0.12672967126E+02  0.25275586144E+02 -0.14650238255E+02  0.31844761451E+02  0.51100000000E-03 0. -1.
        -11    1    3    3    0    0  0.96117198461E+01 -0.17057614529E+02 -0.53054830902E+01  0.20285352423E+02  0.51100000000E-03 0.  1.
         12    1    3    3    0    0 -0.50755691234E+01 -0.13255479050E+02  0.14556755038E+02  0.20331459466E+02  0.00000000000E+00 0. -1.
</event>
<event>
 7    1  0.1351543E-013  0.7246164E+02  0.7816164E-02  0.1226708E+00
        -11   -1    0    0    0    0  0.00000000000E+00  0.00000000000E+00  0.45593999997E+02  0.45594000000E+02  0.51100000000E-03 0.  1.
         11   -1    0    0    0    0 -0.00000000000E+00 -0.00000000000E+00 -0.45593999997E+02  0.45594000000E+02  0.51100000000E-03 0. -1.
    9900012    2    1    2    0    0  0.60166072596E+01 -0.13187433056E+01  0.17684396283E+02  0.72461641072E+02  0.70000092201E+02 0.  0.
         12    1    1    2    0    0 -0.60166072596E+01  0.13187433056E+01 -0.17684396283E+02  0.18726358928E+02  0.00000000000E+00 0. -1.
         11    1    3    3    0    0 -0.25420682210E+02  0.94887172787E+01  0.10697535475E+02  0.29166489421E+02  0.51100000000E-03 0.  1.
        -11    1    3    3    0    0  0.30945492850E+02  0.89167586116E+00  0.60877265960E+01  0.31551212797E+02  0.51100000000E-03 0. -1.
         12    1    3    3    0    0  0.49179661977E+00 -0.11699136445E+02  0.89913421155E+00  0.11743938854E+02  0.00000000000E+00 0. -1.
</event>
<event>
 7    1  0.1351543E-013  0.7246154E+02  0.7816164E-02  0.1226708E+00
        -11   -1    0    0    0    0  0.00000000000E+00  0.00000000000E+00  0.45593999997E+02  0.45594000000E+02  0.51100000000E-03 0. -1.
         11   -1    0    0    0    0 -0.00000000000E+00 -0.00000000000E+00 -0.45593999997E+02  0.45594000000E+02  0.51100000000E-03 0.  1.
    9900012    2    1    2    0    0  0.64699238416E+01 -0.17115741643E+02 -0.39839183814E+01  0.72461544592E+02  0.69999966517E+02 0.  0.
         12    1    1    2    0    0 -0.64699238416E+01  0.17115741643E+02  0.39839183814E+01  0.18726455408E+02  0.00000000000E+00 0. -1.
         11    1    3    3    0    0 -0.86625838481E+01 -0.50520422756E+01  0.24178821573E+02  0.26175922200E+02  0.51100000000E-03 0. -1.
        -11    1    3    3    0    0  0.34725859427E+01 -0.18743882540E+02 -0.26645341047E+02  0.32762267711E+02  0.51100000000E-03 0.  1.
        -12    1    3    3    0    0  0.11659921747E+02  0.66801831729E+01 -0.15173989074E+01  0.13523354680E+02  0.00000000000E+00 0.  1.
</event>
<event>
 7    1  0.1351543E-013  0.7246159E+02  0.7816164E-02  0.1226708E+00
        -11   -1    0    0    0    0  0.00000000000E+00  0.00000000000E+00  0.45593999997E+02  0.45594000000E+02  0.51100000000E-03 0. -1.
         11   -1    0    0    0    0 -0.00000000000E+00 -0.00000000000E+00 -0.45593999997E+02  0.45594000000E+02  0.51100000000E-03 0.  1.
    9900012    2    1    2    0    0  0.13028744159E+02  0.11177770996E+02 -0.74824836163E+01  0.72461593514E+02  0.70000030248E+02 0.  0.
         12    1    1    2    0    0 -0.13028744159E+02 -0.11177770996E+02  0.74824836163E+01  0.18726406486E+02  0.00000000000E+00 0. -1.
         11    1    3    3    0    0  0.64305954576E+01  0.15025856771E+01  0.23068439056E+02  0.23995066210E+02  0.51100000000E-03 0. -1.
        -11    1    3    3    0    0 -0.12816977685E+02 -0.35831443254E+01 -0.16025805959E+02  0.20831233691E+02  0.51100000000E-03 0.  1.
         12    1    3    3    0    0  0.19415126386E+02  0.13258329644E+02 -0.14525116714E+02  0.27635293613E+02  0.00000000000E+00 0. -1.
</event>
<event>
 7    1  0.1351543E-013  0.7246154E+02  0.7816164E-02  0.1226708E+00
        -11   -1    0    0    0    0  0.00000000000E+00  0.00000000000E+00  0.45593999997E+02  0.45594000000E+02  0.51100000000E-03 0.  1.
         11   -1    0    0    0    0 -0.00000000000E+00 -0.00000000000E+00 -0.45593999997E+02  0.45594000000E+02  0.51100000000E-03 0. -1.
    9900012    2    1    2    0    0 -0.49037555296E+01  0.11169085494E+02 -0.14208631189E+02  0.72461535055E+02  0.69999954094E+02 0.  0.
         12    1    1    2    0    0  0.49037555296E+01 -0.11169085494E+02  0.14208631189E+02  0.18726464945E+02  0.00000000000E+00 0. -1.
         11    1    3    3    0    0  0.14777182299E+02  0.19712961167E+02 -0.16602284960E+02  0.29708615263E+02  0.51100000000E-03 0. -1.
        -11    1    3    3    0    0 -0.81755317942E+01 -0.15182604731E+02 -0.13600622409E+02  0.21961961131E+02  0.51100000000E-03 0.  1.
        -12    1    3    3    0    0 -0.11505406035E+02  0.66387290585E+01  0.15994276180E+02  0.20790958661E+02  0.00000000000E+00 0.  1.
</event>
<event>
 7    1  0.1351543E-013  0.7246152E+02  0.7816164E-02  0.1226708E+00
        -11   -1    0    0    0    0  0.00000000000E+00  0.00000000000E+00  0.45593999997E+02  0.45594000000E+02  0.51100000000E-03 0. -1.
         11   -1    0    0    0    0 -0.00000000000E+00 -0.00000000000E+00 -0.45593999997E+02  0.45594000000E+02  0.51100000000E-03 0.  1.
    9900012    2    1    2    0    0 -0.33998307493E+01 -0.14111928868E+02 -0.11831124971E+02  0.72461523994E+02  0.69999939686E+02 0.  0.
         12    1    1    2    0    0  0.33998307493E+01  0.14111928868E+02  0.11831124971E+02  0.18726476006E+02  0.00000000000E+00 0. -1.
         11    1    3    3    0    0  0.20902820340E+01  0.18792310736E+02  0.40168793700E+01  0.19330171803E+02  0.51100000000E-03 0. -1.
        -11    1    3    3    0    0  0.11154389228E+00 -0.38122683415E+02 -0.30839157868E+01  0.38247378598E+02  0.51100000000E-03 0.  1.
        -12    1    3    3    0    0 -0.56016566756E+01  0.52184438102E+01 -0.12764088554E+02  0.14883973593E+02  0.00000000000E+00 0.  1.
</event>
<event>
 7    1  0.1351543E-013  0.7246156E+02  0.7816164E-02  0.1226708E+00
        -11   -1    0    0    0    0  0.00000000000E+00  0.00000000000E+00  0.45593999997E+02  0.45594000000E+02  0.51100000000E-03 0.  1.
         11   -1    0    0    0    0 -0.00000000000E+00 -0.00000000000E+00 -0.45593999997E+02  0.45594000000E+02  0.51100000000E-03 0. -1.
    9900012    2    1    2    0    0  0.16422214143E+02 -0.61108544955E+01  0.66066505069E+01  0.72461561712E+02  0.69999988821E+02 0.  0.
         12    1    1    2    0    0 -0.16422214143E+02  0.61108544955E+01 -0.66066505069E+01  0.18726438288E+02  0.00000000000E+00 0. -1.
         11    1    3    3    0    0  0.26671326287E+02 -0.13209405163E+02 -0.18867339409E+02  0.35239530747E+02  0.51100000000E-03 0. -1.
        -11    1    3    3    0    0 -0.21983587200E+01  0.67434605331E+01  0.27914903113E+02  0.28801889818E+02  0.51100000000E-03 0.  1.
         12    1    3    3    0    0 -0.80507534239E+01  0.35509013470E+00 -0.24409131977E+01  0.84201411469E+01  0.00000000000E+00 0. -1.
</event>
<event>
 7    1  0.1351543E-013  0.7246154E+02  0.7816164E-02  0.1226708E+00
        -11   -1    0    0    0    0  0.00000000000E+00  0.00000000000E+00  0.45593999997E+02  0.45594000000E+02  0.51100000000E-03 0. -1.
         11   -1    0    0    0    0 -0.00000000000E+00 -0.00000000000E+00 -0.45593999997E+02  0.45594000000E+02  0.51100000000E-03 0.  1.
    9900012    2    1    2    0    0  0.17933802731E+02 -0.70671894452E+00 -0.53441018856E+01  0.72461543928E+02  0.69999965652E+02 0.  0.
         12    1    1    2    0    0 -0.17933802731E+02  0.70671894452E+00  0.53441018856E+01  0.18726456072E+02  0.00000000000E+00 0. -1.
         11    1    3    3    0    0  0.60350123987E+01  0.11443806453E+02  0.18843143766E+02  0.22857080917E+02  0.51100000000E-03 0. -1.
        -11    1    3    3    0    0 -0.11972738733E+02 -0.46159038383E+01 -0.20665985253E+02  0.24325624098E+02  0.51100000000E-03 0.  1.
         12    1    3    3    0    0  0.23871529066E+02 -0.75346215588E+01 -0.35212603984E+01  0.25278838913E+02  0.00000000000E+00 0. -1.
</event>
<event>
 7    1  0.1351543E-013  0.7246161E+02  0.7816164E-02  0.1226708E+00
        -11   -1    0    0    0    0  0.00000000000E+00  0.00000000000E+00  0.45593999997E+02  0.45594000000E+02  0.51100000000E-03 0.  1.
         11   -1    0    0    0    0 -0.00000000000E+00 -0.00000000000E+00 -0.45593999997E+02  0.45594000000E+02  0.51100000000E-03 0. -1.
    9900012    2    1    2    0    0  0.18472785574E+02  0.12415067975E+01  0.28093735148E+01  0.72461608849E+02  0.70000050224E+02 0.  0.
         12    1    1    2    0    0 -0.18472785574E+02 -0.12415067975E+01 -0.28093735148E+01  0.18726391151E+02  0.00000000000E+00 0. -1.
         11    1    3    3    0    0  0.60408083892E+01  0.43639428944E+01  0.76490527024E+01  0.10679109096E+02  0.51100000000E-03 0. -1.
        -11    1    3    3    0    0  0.15476537475E+02  0.72808392666E+00 -0.31271205865E+02  0.34899020545E+02  0.51100000000E-03 0.  1.
        -12    1    3    3    0    0 -0.30445602902E+01 -0.38505200236E+01  0.26431526678E+02  0.26883479208E+02  0.00000000000E+00 0.  1.
</event>
<event>
 8    1  0.1351543E-013  0.7246160E+02  0.7816164E-02  0.1226708E+00
        -11   -1    0    0    0    0  0.00000000000E+00  0.00000000000E+00  0.45593999997E+02  0.45594000000E+02  0.51100000000E-03 0. -1.
         11   -1    0    0    0    0 -0.00000000000E+00 -0.00000000000E+00 -0.45593999997E+02  0.45594000000E+02  0.51100000000E-03 0.  1.
    9900012    2    1    2    0    0  0.14927405414E+02  0.90848669871E+01 -0.67317050778E+01  0.72461599015E+02  0.70000037415E+02 0.  0.
        -24    2    3    3    0    0  0.24341782054E+01  0.19282286740E+02  0.21657954719E+01  0.54043303437E+02  0.50381109267E+02 0.  0.
         12    1    1    2    0    0 -0.14927405414E+02 -0.90848669871E+01  0.67317050778E+01  0.18726400985E+02  0.00000000000E+00 0. -1.
         11    1    4    4    0    0  0.17623664773E+02  0.19400572079E+02  0.18236182118E+02  0.31930143994E+02  0.51100000000E-03 0. -1.
        -11    1    3    3    0    0  0.12493227209E+02 -0.10197419753E+02 -0.88975005497E+01  0.18418295578E+02  0.51100000000E-03 0.  1.
        -12    1    4    4    0    0 -0.15189486567E+02 -0.11828533867E+00 -0.16070386646E+02  0.22113159443E+02  0.00000000000E+00 0.  1.
</event>
<event>
 7    1  0.1351543E-013  0.7246162E+02  0.7816164E-02  0.1226708E+00
        -11   -1    0    0    0    0  0.00000000000E+00  0.00000000000E+00  0.45593999997E+02  0.45594000000E+02  0.51100000000E-03 0.  1.
         11   -1    0    0    0    0 -0.00000000000E+00 -0.00000000000E+00 -0.45593999997E+02  0.45594000000E+02  0.51100000000E-03 0. -1.
    9900012    2    1    2    0    0 -0.64775156770E+01 -0.47894753474E+01  0.16905025477E+02  0.72461623686E+02  0.70000069553E+02 0.  0.
         12    1    1    2    0    0  0.64775156770E+01  0.47894753474E+01 -0.16905025477E+02  0.18726376314E+02  0.00000000000E+00 0. -1.
         11    1    3    3    0    0 -0.10122756077E+02 -0.73236315752E+01 -0.40267418660E+01  0.13127087276E+02  0.51100000000E-03 0. -1.
        -11    1    3    3    0    0  0.28199727566E+02 -0.62046016014E+01  0.15270565376E+02  0.32663617114E+02  0.51100000000E-03 0.  1.
        -12    1    3    3    0    0 -0.24554487166E+02  0.87387578292E+01  0.56612019669E+01  0.26670919296E+02  0.00000000000E+00 0.  1.
</event>
<event>
 7    1  0.1351543E-013  0.7246107E+02  0.7816164E-02  0.1226709E+00
        -11   -1    0    0    0    0  0.00000000000E+00  0.00000000000E+00  0.45593999997E+02  0.45594000000E+02  0.51100000000E-03 0.  1.
         11   -1    0    0    0    0 -0.00000000000E+00 -0.00000000000E+00 -0.45593999997E+02  0.45594000000E+02  0.51100000000E-03 0. -1.
    9900012    2    1    2    0    0 -0.12017996411E+02  0.10457512071E+02  0.98440818301E+01  0.72461074370E+02  0.69999353964E+02 0.  0.
         12    1    1    2    0    0  0.12017996411E+02 -0.10457512071E+02 -0.98440818301E+01  0.18726925630E+02  0.00000000000E+00 0. -1.
         11    1    3    3    0    0  0.23018168062E+02 -0.13063470785E+02  0.58546438846E+01  0.27106589330E+02  0.51100000000E-03 0. -1.
        -11    1    3    3    0    0 -0.29614426350E+02  0.12353492629E+02  0.63709263041E+01  0.32714090701E+02  0.51100000000E-03 0.  1.
         12    1    3    3    0    0 -0.54217381229E+01  0.11167490227E+02 -0.23814883586E+01  0.12640394339E+02  0.00000000000E+00 0. -1.
</event>
<event>
 7    1  0.1351543E-013  0.7246158E+02  0.7816164E-02  0.1226708E+00
        -11   -1    0    0    0    0  0.00000000000E+00  0.00000000000E+00  0.45593999997E+02  0.45594000000E+02  0.51100000000E-03 0.  1.
         11   -1    0    0    0    0 -0.00000000000E+00 -0.00000000000E+00 -0.45593999997E+02  0.45594000000E+02  0.51100000000E-03 0. -1.
    9900012    2    1    2    0    0  0.17877504337E+02 -0.42985202796E+01  0.35491509865E+01  0.72461577206E+02  0.70000009004E+02 0.  0.
         12    1    1    2    0    0 -0.17877504337E+02  0.42985202796E+01 -0.35491509865E+01  0.18726422794E+02  0.00000000000E+00 0. -1.
         11    1    3    3    0    0  0.34506109205E+01  0.74977231531E+01 -0.43077367457E+01  0.93101645708E+01  0.51100000000E-03 0. -1.
        -11    1    3    3    0    0  0.35539069197E+02 -0.16890014236E+02  0.11797271827E+02  0.41078871006E+02  0.51100000000E-03 0.  1.
        -12    1    3    3    0    0 -0.21112175780E+02  0.50937708036E+01 -0.39403840947E+01  0.22072541630E+02  0.00000000000E+00 0.  1.
</event>
<event>
 7    1  0.1351543E-013  0.7246155E+02  0.7816164E-02  0.1226708E+00
        -11   -1    0    0    0    0  0.00000000000E+00  0.00000000000E+00  0.45593999997E+02  0.45594000000E+02  0.51100000000E-03 0.  1.
         11   -1    0    0    0    0 -0.00000000000E+00 -0.00000000000E+00 -0.45593999997E+02  0.45594000000E+02  0.51100000000E-03 0. -1.
    9900012    2    1    2    0    0  0.67622792648E+01  0.68091711473E+01 -0.16080630185E+02  0.72461550798E+02  0.69999974602E+02 0.  0.
         12    1    1    2    0    0 -0.67622792648E+01 -0.68091711473E+01  0.16080630185E+02  0.18726449202E+02  0.00000000000E+00 0. -1.
         11    1    3    3    0    0 -0.61333884686E+01  0.30573859733E+02 -0.20126340166E+02  0.37113999001E+02  0.51100000000E-03 0. -1.
        -11    1    3    3    0    0  0.18149682751E+02 -0.14090883668E+02  0.68700277744E+01  0.23982520059E+02  0.51100000000E-03 0.  1.
         12    1    3    3    0    0 -0.52540150176E+01 -0.96738049182E+01 -0.28243177937E+01  0.11365031738E+02  0.00000000000E+00 0. -1.
</event>
<event>
 8    1  0.1351543E-013  0.7246153E+02  0.7816164E-02  0.1226708E+00
        -11   -1    0    0    0    0  0.00000000000E+00  0.00000000000E+00  0.45593999997E+02  0.45594000000E+02  0.51100000000E-03 0.  1.
         11   -1    0    0    0    0 -0.00000000000E+00 -0.00000000000E+00 -0.45593999997E+02  0.45594000000E+02  0.51100000000E-03 0. -1.
    9900012    2    1    2    0    0 -0.75524330740E-01  0.27891136874E+01  0.18517448270E+02  0.72461528108E+02  0.69999945044E+02 0.  0.
         24    2    3    3    0    0  0.70979190978E+01  0.14848983745E+02  0.43803104454E+01  0.52542757498E+02  0.49705950068E+02 0.  0.
         12    1    1    2    0    0  0.75524330740E-01 -0.27891136874E+01 -0.18517448270E+02  0.18726471892E+02  0.00000000000E+00 0. -1.
         11    1    3    3    0    0 -0.71734434285E+01 -0.12059870058E+02  0.14137137825E+02  0.19918770609E+02  0.51100000000E-03 0. -1.
        -11    1    4    4    0    0  0.68762381505E+01  0.30725749039E+02  0.13470751718E+02  0.34246393347E+02  0.51100000000E-03 0.  1.
         12    1    4    4    0    0  0.22168094722E+00 -0.15876765294E+02 -0.90904412730E+01  0.18296364152E+02  0.00000000000E+00 0. -1.
</event>
<event>
 7    1  0.1351543E-013  0.7246154E+02  0.7816164E-02  0.1226708E+00
        -11   -1    0    0    0    0  0.00000000000E+00  0.00000000000E+00  0.45593999997E+02  0.45594000000E+02  0.51100000000E-03 0.  1.
         11   -1    0    0    0    0 -0.00000000000E+00 -0.00000000000E+00 -0.45593999997E+02  0.45594000000E+02  0.51100000000E-03 0. -1.
    9900012    2    1    2    0    0  0.10679193702E+02 -0.38049247905E+01  0.14904955360E+02  0.72461539441E+02  0.69999959808E+02 0.  0.
         12    1    1    2    0    0 -0.10679193702E+02  0.38049247905E+01 -0.14904955360E+02  0.18726460559E+02  0.00000000000E+00 0. -1.
         11    1    3    3    0    0 -0.11479298158E+02  0.10754309349E+02 -0.21392803722E+02  0.26553370918E+02  0.51100000000E-03 0. -1.
        -11    1    3    3    0    0  0.82127179498E+01 -0.60264874608E+01  0.70080278214E+01  0.12364454757E+02  0.51100000000E-03 0.  1.
         12    1    3    3    0    0  0.13945773910E+02 -0.85327466790E+01  0.29289731261E+02  0.33543713765E+02  0.00000000000E+00 0. -1.
</event>
<event>
 7    1  0.1351543E-013  0.7246166E+02  0.7816164E-02  0.1226708E+00
        -11   -1    0    0    0    0  0.00000000000E+00  0.00000000000E+00  0.45593999997E+02  0.45594000000E+02  0.51100000000E-03 0. -1.
         11   -1    0    0    0    0 -0.00000000000E+00 -0.00000000000E+00 -0.45593999997E+02  0.45594000000E+02  0.51100000000E-03 0.  1.
    9900012    2    1    2    0    0  0.32969009589E+01 -0.17772990231E+02 -0.48915343877E+01  0.72461659024E+02  0.70000115587E+02 0.  0.
         12    1    1    2    0    0 -0.32969009589E+01  0.17772990231E+02  0.48915343877E+01  0.18726340976E+02  0.00000000000E+00 0. -1.
         11    1    3    3    0    0  0.24002919134E+02 -0.26885266697E+02 -0.21094817218E+02  0.41760615489E+02  0.51100000000E-03 0.  1.
        -11    1    3    3    0    0 -0.43320524636E+01 -0.23438961026E+01  0.73410884538E+01  0.88403680600E+01  0.51100000000E-03 0. -1.
         12    1    3    3    0    0 -0.16373965711E+02  0.11456172569E+02  0.88621943763E+01  0.21860675475E+02  0.00000000000E+00 0. -1.
</event>
<event>
 7    1  0.1351543E-013  0.7246154E+02  0.7816164E-02  0.1226708E+00
        -11   -1    0    0    0    0  0.00000000000E+00  0.00000000000E+00  0.45593999997E+02  0.45594000000E+02  0.51100000000E-03 0. -1.
         11   -1    0    0    0    0 -0.00000000000E+00 -0.00000000000E+00 -0.45593999997E+02  0.45594000000E+02  0.51100000000E-03 0.  1.
    9900012    2    1    2    0    0  0.14654352651E+02  0.10699450821E+02 -0.46316392681E+01  0.72461537926E+02  0.69999957834E+02 0.  0.
         12    1    1    2    0    0 -0.14654352651E+02 -0.10699450821E+02  0.46316392681E+01  0.18726462074E+02  0.00000000000E+00 0. -1.
         11    1    3    3    0    0  0.77453114629E+01 -0.14468385018E+02 -0.25592920775E+02  0.30402657922E+02  0.51100000000E-03 0.  1.
        -11    1    3    3    0    0  0.36705082014E+01  0.29809263842E+02  0.14142989598E+02  0.33197725770E+02  0.51100000000E-03 0. -1.
         12    1    3    3    0    0  0.32385329869E+01 -0.46414280027E+01  0.68182919083E+01  0.88611542340E+01  0.00000000000E+00 0. -1.
</event>
<event>
 7    1  0.1351543E-013  0.7246161E+02  0.7816164E-02  0.1226708E+00
        -11   -1    0    0    0    0  0.00000000000E+00  0.00000000000E+00  0.45593999997E+02  0.45594000000E+02  0.51100000000E-03 0.  1.
         11   -1    0    0    0    0 -0.00000000000E+00 -0.00000000000E+00 -0.45593999997E+02  0.45594000000E+02  0.51100000000E-03 0. -1.
    9900012    2    1    2    0    0  0.71011416763E+01 -0.27885451928E+01  0.17101915266E+02  0.72461609446E+02  0.70000051002E+02 0.  0.
         12    1    1    2    0    0 -0.71011416763E+01  0.27885451928E+01 -0.17101915266E+02  0.18726390554E+02  0.00000000000E+00 0. -1.
         11    1    3    3    0    0 -0.44665596523E+01 -0.32764122655E+02  0.69289660117E+01  0.33785329046E+02  0.51100000000E-03 0.  1.
        -11    1    3    3    0    0  0.19055127749E+01  0.26962696001E+02  0.57696097385E+01  0.27638855826E+02  0.51100000000E-03 0. -1.
        -12    1    3    3    0    0  0.96621885536E+01  0.30128814615E+01  0.44033395163E+01  0.11037424575E+02  0.00000000000E+00 0.  1.
</event>
<event>
 7    1  0.1351543E-013  0.7246171E+02  0.7816164E-02  0.1226708E+00
        -11   -1    0    0    0    0  0.00000000000E+00  0.00000000000E+00  0.45593999997E+02  0.45594000000E+02  0.51100000000E-03 0. -1.
         11   -1    0    0    0    0 -0.00000000000E+00 -0.00000000000E+00 -0.45593999997E+02  0.45594000000E+02  0.51100000000E-03 0.  1.
    9900012    2    1    2    0    0  0.12183741498E+02 -0.56968309246E+01 -0.13029827520E+02  0.72461712470E+02  0.70000185210E+02 0.  0.
         12    1    1    2    0    0 -0.12183741498E+02  0.56968309246E+01  0.13029827520E+02  0.18726287530E+02  0.00000000000E+00 0. -1.
         11    1    3    3    0    0 -0.67618866676E+01  0.27268369383E+00 -0.55642389997E+01  0.87611770676E+01  0.51100000000E-03 0. -1.
        -11    1    3    3    0    0  0.33782744080E+02 -0.22638147067E+02 -0.19484086577E+01  0.40713091221E+02  0.51100000000E-03 0.  1.
        -12    1    3    3    0    0 -0.14837115915E+02  0.16668632448E+02 -0.55171798622E+01  0.22987444182E+02  0.00000000000E+00 0.  1.
</event>
<event>
 7    1  0.1351543E-013  0.7246158E+02  0.7816164E-02  0.1226708E+00
        -11   -1    0    0    0    0  0.00000000000E+00  0.00000000000E+00  0.45593999997E+02  0.45594000000E+02  0.51100000000E-03 0. -1.
         11   -1    0    0    0    0 -0.00000000000E+00 -0.00000000000E+00 -0.45593999997E+02  0.45594000000E+02  0.51100000000E-03 0.  1.
    9900012    2    1    2    0    0 -0.64941050211E+01 -0.11850220823E+02 -0.12964482845E+02  0.72461576182E+02  0.70000007670E+02 0.  0.
         12    1    1    2    0    0  0.64941050211E+01  0.11850220823E+02  0.12964482845E+02  0.18726423818E+02  0.00000000000E+00 0. -1.
         11    1    3    3    0    0 -0.14033540572E+02 -0.23384187847E+02  0.17634739112E+02  0.32476830603E+02  0.51100000000E-03 0.  1.
        -11    1    3    3    0    0  0.13314222718E+02  0.66570903603E+01 -0.28478567059E+02  0.32134314380E+02  0.51100000000E-03 0. -1.
        -12    1    3    3    0    0 -0.57747871668E+01  0.48768766636E+01 -0.21206548975E+01  0.78504311989E+01  0.00000000000E+00 0.  1.
</event>
<event>
 7    1  0.1351543E-013  0.7246158E+02  0.7816164E-02  0.1226708E+00
        -11   -1    0    0    0    0  0.00000000000E+00  0.00000000000E+00  0.45593999997E+02  0.45594000000E+02  0.51100000000E-03 0. -1.
         11   -1    0    0    0    0 -0.00000000000E+00 -0.00000000000E+00 -0.45593999997E+02  0.45594000000E+02  0.51100000000E-03 0.  1.
    9900012    2    1    2    0    0 -0.49195726519E+01 -0.14397577013E+02 -0.10917251543E+02  0.72461580156E+02  0.70000012847E+02 0.  0.
         12    1    1    2    0    0  0.49195726519E+01  0.14397577013E+02  0.10917251543E+02  0.18726419844E+02  0.00000000000E+00 0. -1.
         11    1    3    3    0    0 -0.92099375597E+00  0.87191839908E+00  0.18344708414E+02  0.18388496356E+02  0.51100000000E-03 0. -1.
        -11    1    3    3    0    0 -0.13532003672E+02 -0.27086615459E+02 -0.18970482223E+02  0.35730645900E+02  0.51100000000E-03 0.  1.
        -12    1    3    3    0    0  0.95334247765E+01  0.11817120047E+02 -0.10291477733E+02  0.18342437900E+02  0.00000000000E+00 0.  1.
</event>
<event>
 7    1  0.1351543E-013  0.7246157E+02  0.7816164E-02  0.1226708E+00
        -11   -1    0    0    0    0  0.00000000000E+00  0.00000000000E+00  0.45593999997E+02  0.45594000000E+02  0.51100000000E-03 0.  1.
         11   -1    0    0    0    0 -0.00000000000E+00 -0.00000000000E+00 -0.45593999997E+02  0.45594000000E+02  0.51100000000E-03 0. -1.
    9900012    2    1    2    0    0  0.62627988801E+01 -0.12628046925E+02  0.12328379901E+02  0.72461570283E+02  0.69999999986E+02 0.  0.
         12    1    1    2    0    0 -0.62627988801E+01  0.12628046925E+02 -0.12328379901E+02  0.18726429717E+02  0.00000000000E+00 0. -1.
         11    1    3    3    0    0 -0.30731875434E+00  0.60325457872E+01 -0.19546068745E+02  0.20458124477E+02  0.51100000000E-03 0. -1.
        -11    1    3    3    0    0 -0.14903494221E+02 -0.60940082249E+01  0.10699039155E+02  0.19331852351E+02  0.51100000000E-03 0.  1.
         12    1    3    3    0    0  0.21473611855E+02 -0.12566584487E+02  0.21175409491E+02  0.32671593455E+02  0.00000000000E+00 0. -1.
</event>
<event>
 7    1  0.1351543E-013  0.7246156E+02  0.7816164E-02  0.1226708E+00
        -11   -1    0    0    0    0  0.00000000000E+00  0.00000000000E+00  0.45593999997E+02  0.45594000000E+02  0.51100000000E-03 0.  1.
         11   -1    0    0    0    0 -0.00000000000E+00 -0.00000000000E+00 -0.45593999997E+02  0.45594000000E+02  0.51100000000E-03 0. -1.
    9900012    2    1    2    0    0  0.94881385445E+01 -0.64419836867E+01  0.14803904746E+02  0.72461560867E+02  0.69999987719E+02 0.  0.
         12    1    1    2    0    0 -0.94881385445E+01  0.64419836867E+01 -0.14803904746E+02  0.18726439133E+02  0.00000000000E+00 0. -1.
         11    1    3    3    0    0  0.45894305905E+01  0.29469875515E+02  0.16849058588E+01  0.29872652109E+02  0.51100000000E-03 0. -1.
        -11    1    3    3    0    0 -0.34971649924E+01 -0.16394887174E+02 -0.14515620565E+01  0.16826453016E+02  0.51100000000E-03 0.  1.
         12    1    3    3    0    0  0.83958729464E+01 -0.19516972027E+02  0.14570560944E+02  0.25762455742E+02  0.00000000000E+00 0. -1.
</event>
<event>
 7    1  0.1351543E-013  0.7246168E+02  0.7816164E-02  0.1226708E+00
        -11   -1    0    0    0    0  0.00000000000E+00  0.00000000000E+00  0.45593999997E+02  0.45594000000E+02  0.51100000000E-03 0. -1.
         11   -1    0    0    0    0 -0.00000000000E+00 -0.00000000000E+00 -0.45593999997E+02  0.45594000000E+02  0.51100000000E-03 0.  1.
    9900012    2    1    2    0    0  0.46963669908E+01  0.51278917566E+01 -0.17387462557E+02  0.72461681864E+02  0.70000145340E+02 0.  0.
         12    1    1    2    0    0 -0.46963669908E+01 -0.51278917566E+01  0.17387462557E+02  0.18726318136E+02  0.00000000000E+00 0. -1.
         11    1    3    3    0    0  0.10780717614E+02 -0.54698318902E+01  0.17985003957E+02  0.21670332272E+02  0.51100000000E-03 0. -1.
        -11    1    3    3    0    0 -0.59163536559E+01  0.23150699663E+02 -0.23308460828E+02  0.33380270848E+02  0.51100000000E-03 0.  1.
         12    1    3    3    0    0 -0.16799696735E+00 -0.12552976016E+02 -0.12064005685E+02  0.17411078744E+02  0.00000000000E+00 0. -1.
</event>
<event>
 7    1  0.1351543E-013  0.7246156E+02  0.7816164E-02  0.1226708E+00
        -11   -1    0    0    0    0  0.00000000000E+00  0.00000000000E+00  0.45593999997E+02  0.45594000000E+02  0.51100000000E-03 0.  1.
         11   -1    0    0    0    0 -0.00000000000E+00 -0.00000000000E+00 -0.45593999997E+02  0.45594000000E+02  0.51100000000E-03 0. -1.
    9900012    2    1    2    0    0 -0.16512840395E+02 -0.43424280041E+01 -0.76908280115E+01  0.72461563757E+02  0.69999991484E+02 0.  0.
         12    1    1    2    0    0  0.16512840395E+02  0.43424280041E+01  0.76908280115E+01  0.18726436243E+02  0.00000000000E+00 0. -1.
         11    1    3    3    0    0 -0.10929887474E+02  0.71878323436E+01 -0.65753039370E+01  0.14641106383E+02  0.51100000000E-03 0. -1.
        -11    1    3    3    0    0 -0.34059000369E+01 -0.13806354597E+02  0.26474163782E+02  0.30051571183E+02  0.51100000000E-03 0.  1.
        -12    1    3    3    0    0 -0.21770528838E+01  0.22760942493E+01 -0.27589687856E+02  0.27768886191E+02  0.00000000000E+00 0.  1.
</event>
<event>
 7    1  0.1351543E-013  0.7246156E+02  0.7816164E-02  0.1226708E+00
        -11   -1    0    0    0    0  0.00000000000E+00  0.00000000000E+00  0.45593999997E+02  0.45594000000E+02  0.51100000000E-03 0.  1.
         11   -1    0    0    0    0 -0.00000000000E+00 -0.00000000000E+00 -0.45593999997E+02  0.45594000000E+02  0.51100000000E-03 0. -1.
    9900012    2    1    2    0    0  0.54960988902E+00 -0.12359151076E+02  0.14058048965E+02  0.72461563418E+02  0.69999991042E+02 0.  0.
         12    1    1    2    0    0 -0.54960988902E+00  0.12359151076E+02 -0.14058048965E+02  0.18726436582E+02  0.00000000000E+00 0. -1.
         11    1    3    3    0    0 -0.20825149924E+02 -0.12173454598E+02  0.72982896059E+00  0.24133224334E+02  0.51100000000E-03 0. -1.
        -11    1    3    3    0    0 -0.27230738459E+01 -0.18936470326E+01  0.22309413321E+02  0.22554621549E+02  0.51100000000E-03 0.  1.
         12    1    3    3    0    0  0.24097833659E+02  0.17079505541E+01 -0.89811933163E+01  0.25773717534E+02  0.00000000000E+00 0. -1.
</event>
<event>
 7    1  0.1351543E-013  0.7246160E+02  0.7816164E-02  0.1226708E+00
        -11   -1    0    0    0    0  0.00000000000E+00  0.00000000000E+00  0.45593999997E+02  0.45594000000E+02  0.51100000000E-03 0. -1.
         11   -1    0    0    0    0 -0.00000000000E+00 -0.00000000000E+00 -0.45593999997E+02  0.45594000000E+02  0.51100000000E-03 0.  1.
    9900012    2    1    2    0    0 -0.10566741332E+02 -0.14199267186E+02  0.61157840864E+01  0.72461600827E+02  0.70000039775E+02 0.  0.
         12    1    1    2    0    0  0.10566741332E+02  0.14199267186E+02 -0.61157840864E+01  0.18726399173E+02  0.00000000000E+00 0. -1.
         11    1    3    3    0    0  0.67091527871E+00 -0.20692940504E+02  0.19760030090E+02  0.28620040242E+02  0.51100000000E-03 0. -1.
        -11    1    3    3    0    0 -0.14212565201E+02  0.31629655475E+01 -0.26497601294E+02  0.30234487514E+02  0.51100000000E-03 0.  1.
        -12    1    3    3    0    0  0.29749085904E+01  0.33307077710E+01  0.12853355290E+02  0.13607073072E+02  0.00000000000E+00 0.  1.
</event>
<event>
 7    1  0.1351543E-013  0.7246163E+02  0.7816164E-02  0.1226708E+00
        -11   -1    0    0    0    0  0.00000000000E+00  0.00000000000E+00  0.45593999997E+02  0.45594000000E+02  0.51100000000E-03 0.  1.
         11   -1    0    0    0    0 -0.00000000000E+00 -0.00000000000E+00 -0.45593999997E+02  0.45594000000E+02  0.51100000000E-03 0. -1.
    9900012    2    1    2    0    0 -0.24589072766E+00 -0.15951019453E+02 -0.98072116524E+01  0.72461631312E+02  0.70000079487E+02 0.  0.
         12    1    1    2    0    0  0.24589072766E+00  0.15951019453E+02  0.98072116524E+01  0.18726368688E+02  0.00000000000E+00 0. -1.
         11    1    3    3    0    0  0.17560667955E+02  0.10095881944E+02 -0.59012441842E+01  0.21098070396E+02  0.51100000000E-03 0. -1.
        -11    1    3    3    0    0 -0.13025292541E+02 -0.28956169819E+02 -0.17789165162E+02  0.36394675625E+02  0.51100000000E-03 0.  1.
        -12    1    3    3    0    0 -0.47812661412E+01  0.29092684223E+01  0.13883197694E+02  0.14968885292E+02  0.00000000000E+00 0.  1.
</event>
<event>
 7    1  0.1351543E-013  0.7246156E+02  0.7816164E-02  0.1226708E+00
        -11   -1    0    0    0    0  0.00000000000E+00  0.00000000000E+00  0.45593999997E+02  0.45594000000E+02  0.51100000000E-03 0. -1.
         11   -1    0    0    0    0 -0.00000000000E+00 -0.00000000000E+00 -0.45593999997E+02  0.45594000000E+02  0.51100000000E-03 0.  1.
    9900012    2    1    2    0    0 -0.83328794938E+01 -0.71148880026E+01 -0.15186216623E+02  0.72461556470E+02  0.69999981992E+02 0.  0.
         12    1    1    2    0    0  0.83328794938E+01  0.71148880026E+01  0.15186216623E+02  0.18726443530E+02  0.00000000000E+00 0. -1.
         11    1    3    3    0    0 -0.17510418066E+02 -0.47335205251E+01  0.18514485797E+02  0.25919242697E+02  0.51100000000E-03 0. -1.
        -11    1    3    3    0    0 -0.77698185080E+01  0.35008596047E+01 -0.25370171527E+02  0.26763252814E+02  0.51100000000E-03 0.  1.
        -12    1    3    3    0    0  0.16947357080E+02 -0.58822270822E+01 -0.83305308930E+01  0.19779060959E+02  0.00000000000E+00 0.  1.
</event>
<event>
 7    1  0.1351543E-013  0.7246159E+02  0.7816164E-02  0.1226708E+00
        -11   -1    0    0    0    0  0.00000000000E+00  0.00000000000E+00  0.45593999997E+02  0.45594000000E+02  0.51100000000E-03 0.  1.
         11   -1    0    0    0    0 -0.00000000000E+00 -0.00000000000E+00 -0.45593999997E+02  0.45594000000E+02  0.51100000000E-03 0. -1.
    9900012    2    1    2    0    0  0.14416301661E+01  0.57071239946E+01  0.17777197763E+02  0.72461592920E+02  0.70000029474E+02 0.  0.
         12    1    1    2    0    0 -0.14416301661E+01 -0.57071239946E+01 -0.17777197763E+02  0.18726407080E+02  0.00000000000E+00 0. -1.
         11    1    3    3    0    0 -0.82395098996E+01  0.20940275471E+02 -0.15952549305E+02  0.27583844725E+02  0.51100000000E-03 0. -1.
        -11    1    3    3    0    0  0.99880427443E+01 -0.15369600795E+02  0.94996319939E+01  0.20645305392E+02  0.51100000000E-03 0.  1.
         12    1    3    3    0    0 -0.30690267863E+00  0.13644931860E+00  0.24230115074E+02  0.24232442803E+02  0.00000000000E+00 0. -1.
</event>
<event>
 7    1  0.1351543E-013  0.7246151E+02  0.7816164E-02  0.1226708E+00
        -11   -1    0    0    0    0  0.00000000000E+00  0.00000000000E+00  0.45593999997E+02  0.45594000000E+02  0.51100000000E-03 0.  1.
         11   -1    0    0    0    0 -0.00000000000E+00 -0.00000000000E+00 -0.45593999997E+02  0.45594000000E+02  0.51100000000E-03 0. -1.
    9900012    2    1    2    0    0  0.30986463222E+00  0.65654979510E+01  0.17535094412E+02  0.72461512997E+02  0.69999925359E+02 0.  0.
         12    1    1    2    0    0 -0.30986463222E+00 -0.65654979510E+01 -0.17535094412E+02  0.18726487003E+02  0.00000000000E+00 0. -1.
         11    1    3    3    0    0  0.11516267801E+02 -0.27171133313E+02  0.13728772879E+02  0.32548027814E+02  0.51100000000E-03 0. -1.
        -11    1    3    3    0    0 -0.51462700794E+01  0.31294085182E+02  0.72429332867E+01  0.32530969029E+02  0.51100000000E-03 0.  1.
        -12    1    3    3    0    0 -0.60601330889E+01  0.24425460823E+01 -0.34366117539E+01  0.73825161542E+01  0.00000000000E+00 0.  1.
</event>
<event>
 7    1  0.1351543E-013  0.7246149E+02  0.7816164E-02  0.1226708E+00
        -11   -1    0    0    0    0  0.00000000000E+00  0.00000000000E+00  0.45593999997E+02  0.45594000000E+02  0.51100000000E-03 0. -1.
         11   -1    0    0    0    0 -0.00000000000E+00 -0.00000000000E+00 -0.45593999997E+02  0.45594000000E+02  0.51100000000E-03 0.  1.
    9900012    2    1    2    0    0  0.14986676054E+02 -0.65463757074E+01 -0.91228646454E+01  0.72461490625E+02  0.69999896216E+02 0.  0.
         12    1    1    2    0    0 -0.14986676054E+02  0.65463757074E+01  0.91228646454E+01  0.18726509375E+02  0.00000000000E+00 0. -1.
         11    1    3    3    0    0  0.49592007962E+00 -0.80004490772E+01 -0.22215683051E+02  0.23617571760E+02  0.51100000000E-03 0.  1.
        -11    1    3    3    0    0  0.25526689158E+02 -0.13108815897E+02  0.65343075396E+01  0.29430427942E+02  0.51100000000E-03 0. -1.
         12    1    3    3    0    0 -0.11035933184E+02  0.14562889267E+02  0.65585108661E+01  0.19413490923E+02  0.00000000000E+00 0. -1.
</event>
<event>
 7    1  0.1351543E-013  0.7246154E+02  0.7816164E-02  0.1226708E+00
        -11   -1    0    0    0    0  0.00000000000E+00  0.00000000000E+00  0.45593999997E+02  0.45594000000E+02  0.51100000000E-03 0. -1.
         11   -1    0    0    0    0 -0.00000000000E+00 -0.00000000000E+00 -0.45593999997E+02  0.45594000000E+02  0.51100000000E-03 0.  1.
    9900012    2    1    2    0    0 -0.55328939865E+00  0.16682138366E+02 -0.84900116342E+01  0.72461543657E+02  0.69999965299E+02 0.  0.
         12    1    1    2    0    0  0.55328939865E+00 -0.16682138366E+02  0.84900116342E+01  0.18726456343E+02  0.00000000000E+00 0. -1.
         11    1    3    3    0    0 -0.55859951549E+01  0.15932123411E+02  0.61639988490E+01  0.17973057067E+02  0.51100000000E-03 0. -1.
        -11    1    3    3    0    0  0.27266993625E+02  0.27440118236E+01 -0.16665953486E+02  0.32074484377E+02  0.51100000000E-03 0.  1.
        -12    1    3    3    0    0 -0.22234287869E+02 -0.19939968681E+01  0.20119430025E+01  0.22414002212E+02  0.00000000000E+00 0.  1.
</event>
<event>
 7    1  0.1351543E-013  0.7246154E+02  0.7816164E-02  0.1226708E+00
        -11   -1    0    0    0    0  0.00000000000E+00  0.00000000000E+00  0.45593999997E+02  0.45594000000E+02  0.51100000000E-03 0. -1.
         11   -1    0    0    0    0 -0.00000000000E+00 -0.00000000000E+00 -0.45593999997E+02  0.45594000000E+02  0.51100000000E-03 0.  1.
    9900012    2    1    2    0    0 -0.37932762637E+01  0.28010226080E+01 -0.18123065162E+02  0.72461543759E+02  0.69999965433E+02 0.  0.
         12    1    1    2    0    0  0.37932762637E+01 -0.28010226080E+01  0.18123065162E+02  0.18726456241E+02  0.00000000000E+00 0. -1.
         11    1    3    3    0    0 -0.25877340865E+02  0.24750602369E+02  0.79487553561E+00  0.35817047830E+02  0.51100000000E-03 0. -1.
        -11    1    3    3    0    0  0.17073913496E+02 -0.15217767967E+02 -0.15230371188E+02  0.27478413178E+02  0.51100000000E-03 0.  1.
         12    1    3    3    0    0  0.50101511049E+01 -0.67318117938E+01 -0.36875695100E+01  0.91660827518E+01  0.00000000000E+00 0. -1.
</event>
<event>
 7    1  0.1351543E-013  0.7246158E+02  0.7816164E-02  0.1226708E+00
        -11   -1    0    0    0    0  0.00000000000E+00  0.00000000000E+00  0.45593999997E+02  0.45594000000E+02  0.51100000000E-03 0.  1.
         11   -1    0    0    0    0 -0.00000000000E+00 -0.00000000000E+00 -0.45593999997E+02  0.45594000000E+02  0.51100000000E-03 0. -1.
    9900012    2    1    2    0    0  0.12822828588E+02 -0.13644177748E+02  0.30030478286E+00  0.72461582767E+02  0.70000016248E+02 0.  0.
         12    1    1    2    0    0 -0.12822828588E+02  0.13644177748E+02 -0.30030478286E+00  0.18726417233E+02  0.00000000000E+00 0. -1.
         11    1    3    3    0    0  0.24763533288E+01 -0.33957550404E+02  0.11286587481E+01  0.34066426671E+02  0.51100000000E-03 0. -1.
        -11    1    3    3    0    0  0.14909537156E+02  0.24871963323E+02  0.53221190504E+01  0.29482771396E+02  0.51100000000E-03 0.  1.
        -12    1    3    3    0    0 -0.45630618967E+01 -0.45585906661E+01 -0.61504730156E+01  0.89123847005E+01  0.00000000000E+00 0.  1.
</event>
<event>
 7    1  0.1351543E-013  0.7246141E+02  0.7816164E-02  0.1226708E+00
        -11   -1    0    0    0    0  0.00000000000E+00  0.00000000000E+00  0.45593999997E+02  0.45594000000E+02  0.51100000000E-03 0.  1.
         11   -1    0    0    0    0 -0.00000000000E+00 -0.00000000000E+00 -0.45593999997E+02  0.45594000000E+02  0.51100000000E-03 0. -1.
    9900012    2    1    2    0    0 -0.10745666119E+02  0.13969313536E+02  0.63304252851E+01  0.72461405401E+02  0.69999785195E+02 0.  0.
         12    1    1    2    0    0  0.10745666119E+02 -0.13969313536E+02 -0.63304252851E+01  0.18726594599E+02  0.00000000000E+00 0. -1.
         11    1    3    3    0    0 -0.20208173407E+02  0.33263268358E+02  0.15127383394E+02  0.41757071532E+02  0.51100000000E-03 0. -1.
        -11    1    3    3    0    0  0.15554553057E+02 -0.14419687036E+02 -0.41160935018E+01  0.21605872374E+02  0.51100000000E-03 0.  1.
         12    1    3    3    0    0 -0.60920457688E+01 -0.48742677858E+01 -0.46808646076E+01  0.90984614948E+01  0.00000000000E+00 0. -1.
</event>
<event>
 7    1  0.1351543E-013  0.7246158E+02  0.7816164E-02  0.1226708E+00
        -11   -1    0    0    0    0  0.00000000000E+00  0.00000000000E+00  0.45593999997E+02  0.45594000000E+02  0.51100000000E-03 0.  1.
         11   -1    0    0    0    0 -0.00000000000E+00 -0.00000000000E+00 -0.45593999997E+02  0.45594000000E+02  0.51100000000E-03 0. -1.
    9900012    2    1    2    0    0 -0.48089637221E+01  0.34910481814E+01  0.17758523768E+02  0.72461582406E+02  0.70000015778E+02 0.  0.
         12    1    1    2    0    0  0.48089637221E+01 -0.34910481814E+01 -0.17758523768E+02  0.18726417594E+02  0.00000000000E+00 0. -1.
         11    1    3    3    0    0  0.16918355758E+02 -0.27461622260E+02  0.69949517076E+01  0.33004557387E+02  0.51100000000E-03 0. -1.
        -11    1    3    3    0    0 -0.16443470609E+02  0.22082165782E+02  0.65163390373E+01  0.28292621759E+02  0.51100000000E-03 0.  1.
         12    1    3    3    0    0 -0.52838488709E+01  0.88705046594E+01  0.42472330229E+01  0.11164403260E+02  0.00000000000E+00 0. -1.
</event>
<event>
 7    1  0.1351543E-013  0.7246132E+02  0.7816164E-02  0.1226709E+00
        -11   -1    0    0    0    0  0.00000000000E+00  0.00000000000E+00  0.45593999997E+02  0.45594000000E+02  0.51100000000E-03 0.  1.
         11   -1    0    0    0    0 -0.00000000000E+00 -0.00000000000E+00 -0.45593999997E+02  0.45594000000E+02  0.51100000000E-03 0. -1.
    9900012    2    1    2    0    0 -0.10991503547E+01 -0.15720468903E+02  0.10116674916E+02  0.72461324230E+02  0.69999679455E+02 0.  0.
         12    1    1    2    0    0  0.10991503547E+01  0.15720468903E+02 -0.10116674916E+02  0.18726675770E+02  0.00000000000E+00 0. -1.
         11    1    3    3    0    0 -0.19084119228E+02 -0.19170258238E+01 -0.62757998616E+00  0.19190426041E+02  0.51100000000E-03 0. -1.
        -11    1    3    3    0    0  0.17043141317E+02 -0.29624275882E+02  0.95943226736E-01  0.34177120898E+02  0.51100000000E-03 0.  1.
        -12    1    3    3    0    0  0.94182755639E+00  0.15820832803E+02  0.10648311675E+02  0.19093777292E+02  0.00000000000E+00 0.  1.
</event>
<event>
 7    1  0.1351543E-013  0.7246156E+02  0.7816164E-02  0.1226708E+00
        -11   -1    0    0    0    0  0.00000000000E+00  0.00000000000E+00  0.45593999997E+02  0.45594000000E+02  0.51100000000E-03 0.  1.
         11   -1    0    0    0    0 -0.00000000000E+00 -0.00000000000E+00 -0.45593999997E+02  0.45594000000E+02  0.51100000000E-03 0. -1.
    9900012    2    1    2    0    0  0.13567802030E+01 -0.21790566537E+01  0.18549676539E+02  0.72461557729E+02  0.69999983631E+02 0.  0.
         12    1    1    2    0    0 -0.13567802030E+01  0.21790566537E+01 -0.18549676539E+02  0.18726442271E+02  0.00000000000E+00 0. -1.
         11    1    3    3    0    0  0.35650562554E+01  0.17726014018E+01 -0.11226697304E+02  0.11911778812E+02  0.51100000000E-03 0. -1.
        -11    1    3    3    0    0 -0.24241436170E+02 -0.11582560185E+02  0.65817314970E+01  0.27660840873E+02  0.51100000000E-03 0.  1.
        -12    1    3    3    0    0  0.22033160118E+02  0.76309021293E+01  0.23194642347E+02  0.32888938044E+02  0.00000000000E+00 0.  1.
</event>
<event>
 7    1  0.1351543E-013  0.7246136E+02  0.7816164E-02  0.1226709E+00
        -11   -1    0    0    0    0  0.00000000000E+00  0.00000000000E+00  0.45593999997E+02  0.45594000000E+02  0.51100000000E-03 0. -1.
         11   -1    0    0    0    0 -0.00000000000E+00 -0.00000000000E+00 -0.45593999997E+02  0.45594000000E+02  0.51100000000E-03 0.  1.
    9900012    2    1    2    0    0  0.97840199259E+01  0.14759793339E+02 -0.60916841155E+01  0.72461356930E+02  0.69999722052E+02 0.  0.
         12    1    1    2    0    0 -0.97840199259E+01 -0.14759793339E+02  0.60916841155E+01  0.18726643070E+02  0.00000000000E+00 0. -1.
         11    1    3    3    0    0  0.22247671989E+01 -0.85832253152E+01  0.17367909500E+02  0.19500400677E+02  0.51100000000E-03 0. -1.
        -11    1    3    3    0    0  0.73525424813E+01  0.11695221120E+02 -0.34343741105E+02  0.37017977137E+02  0.51100000000E-03 0.  1.
        -12    1    3    3    0    0  0.20671024566E+00  0.11647797534E+02  0.10884147489E+02  0.15942979116E+02  0.00000000000E+00 0.  1.
</event>
<event>
 7    1  0.1351543E-013  0.7246160E+02  0.7816164E-02  0.1226708E+00
        -11   -1    0    0    0    0  0.00000000000E+00  0.00000000000E+00  0.45593999997E+02  0.45594000000E+02  0.51100000000E-03 0.  1.
         11   -1    0    0    0    0 -0.00000000000E+00 -0.00000000000E+00 -0.45593999997E+02  0.45594000000E+02  0.51100000000E-03 0. -1.
    9900012    2    1    2    0    0  0.71260539104E+01 -0.16945646408E+02  0.35696842163E+01  0.72461595595E+02  0.70000032959E+02 0.  0.
         12    1    1    2    0    0 -0.71260539104E+01  0.16945646408E+02 -0.35696842163E+01  0.18726404405E+02  0.00000000000E+00 0. -1.
         11    1    3    3    0    0 -0.14994610369E+02  0.27991794591E+01 -0.42020501416E+01  0.15821851074E+02  0.51100000000E-03 0. -1.
        -11    1    3    3    0    0  0.22444732128E+02 -0.84178954995E+01 -0.17007892632E+02  0.29392097186E+02  0.51100000000E-03 0.  1.
        -12    1    3    3    0    0 -0.32406784854E+00 -0.11326930368E+02  0.24779626990E+02  0.27247647335E+02  0.00000000000E+00 0.  1.
</event>
<event>
 7    1  0.1351543E-013  0.7246128E+02  0.7816164E-02  0.1226709E+00
        -11   -1    0    0    0    0  0.00000000000E+00  0.00000000000E+00  0.45593999997E+02  0.45594000000E+02  0.51100000000E-03 0. -1.
         11   -1    0    0    0    0 -0.00000000000E+00 -0.00000000000E+00 -0.45593999997E+02  0.45594000000E+02  0.51100000000E-03 0.  1.
    9900012    2    1    2    0    0 -0.10767018295E+02 -0.14534475583E+02 -0.48487380490E+01  0.72461283147E+02  0.69999625936E+02 0.  0.
         12    1    1    2    0    0  0.10767018295E+02  0.14534475583E+02  0.48487380490E+01  0.18726716853E+02  0.00000000000E+00 0. -1.
         11    1    3    3    0    0 -0.26666364716E+00 -0.42541585335E+01  0.50744824302E+01  0.66271673077E+01  0.51100000000E-03 0. -1.
        -11    1    3    3    0    0  0.80320411727E+00 -0.11555957098E+02 -0.35767846902E+02  0.37596863614E+02  0.51100000000E-03 0.  1.
        -12    1    3    3    0    0 -0.11303558765E+02  0.12756400492E+01  0.25844626423E+02  0.28237252225E+02  0.00000000000E+00 0.  1.
</event>
<event>
 7    1  0.1351543E-013  0.7246158E+02  0.7816164E-02  0.1226708E+00
        -11   -1    0    0    0    0  0.00000000000E+00  0.00000000000E+00  0.45593999997E+02  0.45594000000E+02  0.51100000000E-03 0. -1.
         11   -1    0    0    0    0 -0.00000000000E+00 -0.00000000000E+00 -0.45593999997E+02  0.45594000000E+02  0.51100000000E-03 0.  1.
    9900012    2    1    2    0    0 -0.34714077883E+01 -0.16245878617E+02  0.86428947949E+01  0.72461578171E+02  0.70000010261E+02 0.  0.
         12    1    1    2    0    0  0.34714077883E+01  0.16245878617E+02 -0.86428947949E+01  0.18726421829E+02  0.00000000000E+00 0. -1.
         11    1    3    3    0    0 -0.30017676007E+02 -0.20412003898E+02 -0.30347321715E+01  0.36426918283E+02  0.51100000000E-03 0. -1.
        -11    1    3    3    0    0  0.15596395202E+02 -0.23885962178E+01 -0.35437107870E+01  0.16171296225E+02  0.51100000000E-03 0.  1.
         12    1    3    3    0    0  0.10949873017E+02  0.65547214987E+01  0.15221337753E+02  0.19863363663E+02  0.00000000000E+00 0. -1.
</event>
<event>
 7    1  0.1351543E-013  0.7246155E+02  0.7816164E-02  0.1226708E+00
        -11   -1    0    0    0    0  0.00000000000E+00  0.00000000000E+00  0.45593999997E+02  0.45594000000E+02  0.51100000000E-03 0.  1.
         11   -1    0    0    0    0 -0.00000000000E+00 -0.00000000000E+00 -0.45593999997E+02  0.45594000000E+02  0.51100000000E-03 0. -1.
    9900012    2    1    2    0    0 -0.10478367552E+02 -0.43952016093E+00 -0.15514209748E+02  0.72461546288E+02  0.69999968727E+02 0.  0.
         12    1    1    2    0    0  0.10478367552E+02  0.43952016093E+00  0.15514209748E+02  0.18726453712E+02  0.00000000000E+00 0. -1.
         11    1    3    3    0    0  0.40828214793E+01 -0.95066341282E+01  0.11338099199E+01  0.10408220255E+02  0.51100000000E-03 0.  1.
        -11    1    3    3    0    0  0.16486746152E+02  0.12045615632E+01 -0.24047881385E+02  0.29181575807E+02  0.51100000000E-03 0. -1.
        -12    1    3    3    0    0 -0.31047935183E+02  0.78625524041E+01  0.73998617167E+01  0.32871750225E+02  0.00000000000E+00 0.  1.
</event>
<event>
 7    1  0.1351543E-013  0.7246156E+02  0.7816164E-02  0.1226708E+00
        -11   -1    0    0    0    0  0.00000000000E+00  0.00000000000E+00  0.45593999997E+02  0.45594000000E+02  0.51100000000E-03 0. -1.
         11   -1    0    0    0    0 -0.00000000000E+00 -0.00000000000E+00 -0.45593999997E+02  0.45594000000E+02  0.51100000000E-03 0.  1.
    9900012    2    1    2    0    0 -0.13354045732E+01 -0.16563568155E+02 -0.86339185208E+01  0.72461557615E+02  0.69999983482E+02 0.  0.
         12    1    1    2    0    0  0.13354045732E+01  0.16563568155E+02  0.86339185208E+01  0.18726442385E+02  0.00000000000E+00 0. -1.
         11    1    3    3    0    0  0.20147876085E+00  0.75020255178E+01  0.67308505981E+01  0.10080938974E+02  0.51100000000E-03 0. -1.
        -11    1    3    3    0    0 -0.92282670220E+01 -0.31562914768E+02 -0.29806530613E+02  0.44382516471E+02  0.51100000000E-03 0.  1.
        -12    1    3    3    0    0  0.76913836879E+01  0.74973210953E+01  0.14441761494E+02  0.17998102169E+02  0.00000000000E+00 0.  1.
</event>
<event>
 7    1  0.1351543E-013  0.7246156E+02  0.7816164E-02  0.1226708E+00
        -11   -1    0    0    0    0  0.00000000000E+00  0.00000000000E+00  0.45593999997E+02  0.45594000000E+02  0.51100000000E-03 0. -1.
         11   -1    0    0    0    0 -0.00000000000E+00 -0.00000000000E+00 -0.45593999997E+02  0.45594000000E+02  0.51100000000E-03 0.  1.
    9900012    2    1    2    0    0  0.16403567013E+02  0.12294787957E+01 -0.89493572236E+01  0.72461558171E+02  0.69999984207E+02 0.  0.
         12    1    1    2    0    0 -0.16403567013E+02 -0.12294787957E+01  0.89493572236E+01  0.18726441829E+02  0.00000000000E+00 0. -1.
         11    1    3    3    0    0  0.16835814995E+02 -0.68127201044E+01  0.91109012494E+01  0.20319112766E+02  0.51100000000E-03 0. -1.
        -11    1    3    3    0    0 -0.10901979711E+02  0.17153750742E+02 -0.28337094866E+02  0.34872557575E+02  0.51100000000E-03 0.  1.
        -12    1    3    3    0    0  0.10469731728E+02 -0.91115518417E+01  0.10276836392E+02  0.17269887830E+02  0.00000000000E+00 0.  1.
</event>
<event>
 7    1  0.1351543E-013  0.7246160E+02  0.7816164E-02  0.1226708E+00
        -11   -1    0    0    0    0  0.00000000000E+00  0.00000000000E+00  0.45593999997E+02  0.45594000000E+02  0.51100000000E-03 0.  1.
         11   -1    0    0    0    0 -0.00000000000E+00 -0.00000000000E+00 -0.45593999997E+02  0.45594000000E+02  0.51100000000E-03 0. -1.
    9900012    2    1    2    0    0 -0.10850549872E+02  0.10320670829E+02  0.11243987609E+02  0.72461603224E+02  0.70000042896E+02 0.  0.
         12    1    1    2    0    0  0.10850549872E+02 -0.10320670829E+02 -0.11243987609E+02  0.18726396776E+02  0.00000000000E+00 0. -1.
         11    1    3    3    0    0 -0.12095522846E+02  0.54800775137E+01  0.65992900208E+01  0.14828470977E+02  0.51100000000E-03 0. -1.
        -11    1    3    3    0    0  0.88620730179E+01 -0.24332269057E+02  0.84578446450E+01  0.27242077600E+02  0.51100000000E-03 0.  1.
        -12    1    3    3    0    0 -0.76171000442E+01  0.29172862373E+02 -0.38131470570E+01  0.30391054647E+02  0.00000000000E+00 0.  1.
</event>
<event>
 7    1  0.1351543E-013  0.7246156E+02  0.7816164E-02  0.1226708E+00
        -11   -1    0    0    0    0  0.00000000000E+00  0.00000000000E+00  0.45593999997E+02  0.45594000000E+02  0.51100000000E-03 0.  1.
         11   -1    0    0    0    0 -0.00000000000E+00 -0.00000000000E+00 -0.45593999997E+02  0.45594000000E+02  0.51100000000E-03 0. -1.
    9900012    2    1    2    0    0  0.14641813709E+02 -0.11118306770E+02  0.35608900001E+01  0.72461564362E+02  0.69999992272E+02 0.  0.
         12    1    1    2    0    0 -0.14641813709E+02  0.11118306770E+02 -0.35608900001E+01  0.18726435638E+02  0.00000000000E+00 0. -1.
         11    1    3    3    0    0  0.32642024771E+01 -0.79894952592E+01 -0.22135104545E+02  0.23758154511E+02  0.51100000000E-03 0. -1.
        -11    1    3    3    0    0 -0.71806165457E+01  0.12700968552E+02  0.17905253374E+02  0.23097055111E+02  0.51100000000E-03 0.  1.
         12    1    3    3    0    0  0.18558227777E+02 -0.15829780063E+02  0.77907411711E+01  0.25606354740E+02  0.00000000000E+00 0. -1.
</event>
<event>
 7    1  0.1351543E-013  0.7246158E+02  0.7816164E-02  0.1226708E+00
        -11   -1    0    0    0    0  0.00000000000E+00  0.00000000000E+00  0.45593999997E+02  0.45594000000E+02  0.51100000000E-03 0.  1.
         11   -1    0    0    0    0 -0.00000000000E+00 -0.00000000000E+00 -0.45593999997E+02  0.45594000000E+02  0.51100000000E-03 0. -1.
    9900012    2    1    2    0    0  0.60766307334E+01 -0.16011074524E+02  0.75762084691E+01  0.72461577938E+02  0.70000009958E+02 0.  0.
         12    1    1    2    0    0 -0.60766307334E+01  0.16011074524E+02 -0.75762084691E+01  0.18726422062E+02  0.00000000000E+00 0. -1.
         11    1    3    3    0    0 -0.16119213309E+02  0.11698290831E+02 -0.10291506012E+02  0.22418611516E+02  0.51100000000E-03 0. -1.
        -11    1    3    3    0    0  0.19120833687E+02 -0.34408573629E+02  0.15401447877E+02  0.42270093648E+02  0.51100000000E-03 0.  1.
        -12    1    3    3    0    0  0.30750103554E+01  0.66992082745E+01  0.24662666040E+01  0.77728727735E+01  0.00000000000E+00 0.  1.
</event>
<event>
 7    1  0.1351543E-013  0.7246185E+02  0.7816164E-02  0.1226707E+00
        -11   -1    0    0    0    0  0.00000000000E+00  0.00000000000E+00  0.45593999997E+02  0.45594000000E+02  0.51100000000E-03 0.  1.
         11   -1    0    0    0    0 -0.00000000000E+00 -0.00000000000E+00 -0.45593999997E+02  0.45594000000E+02  0.51100000000E-03 0. -1.
    9900012    2    1    2    0    0 -0.10019279167E+02 -0.48645502787E+01  0.15053865594E+02  0.72461850536E+02  0.70000365066E+02 0.  0.
         12    1    1    2    0    0  0.10019279167E+02  0.48645502787E+01 -0.15053865594E+02  0.18726149464E+02  0.00000000000E+00 0. -1.
         11    1    3    3    0    0  0.22600360134E+02 -0.70998471211E+01 -0.32716039336E+01  0.23914169437E+02  0.51100000000E-03 0. -1.
        -11    1    3    3    0    0 -0.18612347793E+02  0.14759859760E+02  0.23247908491E+01  0.23867919961E+02  0.51100000000E-03 0.  1.
        -12    1    3    3    0    0 -0.14007291507E+02 -0.12524562918E+02  0.16000678678E+02  0.24679761138E+02  0.00000000000E+00 0.  1.
</event>
<event>
 7    1  0.1351543E-013  0.7246162E+02  0.7816164E-02  0.1226708E+00
        -11   -1    0    0    0    0  0.00000000000E+00  0.00000000000E+00  0.45593999997E+02  0.45594000000E+02  0.51100000000E-03 0.  1.
         11   -1    0    0    0    0 -0.00000000000E+00 -0.00000000000E+00 -0.45593999997E+02  0.45594000000E+02  0.51100000000E-03 0. -1.
    9900012    2    1    2    0    0 -0.25517540434E+01  0.11591069390E+02  0.14484927803E+02  0.72461615625E+02  0.70000059051E+02 0.  0.
         12    1    1    2    0    0  0.25517540434E+01 -0.11591069390E+02 -0.14484927803E+02  0.18726384375E+02  0.00000000000E+00 0. -1.
         11    1    3    3    0    0  0.92988572883E+01  0.14939923469E+00  0.39851622745E+02  0.40922400988E+02  0.51100000000E-03 0.  1.
        -11    1    3    3    0    0 -0.13169731947E+02  0.99612612661E+01 -0.20777892517E+02  0.26540335026E+02  0.51100000000E-03 0. -1.
        -12    1    3    3    0    0  0.13191206149E+01  0.14804088888E+01 -0.45888024242E+01  0.49988796108E+01  0.00000000000E+00 0.  1.
</event>
<event>
 7    1  0.1351543E-013  0.7246155E+02  0.7816164E-02  0.1226708E+00
        -11   -1    0    0    0    0  0.00000000000E+00  0.00000000000E+00  0.45593999997E+02  0.45594000000E+02  0.51100000000E-03 0.  1.
         11   -1    0    0    0    0 -0.00000000000E+00 -0.00000000000E+00 -0.45593999997E+02  0.45594000000E+02  0.51100000000E-03 0. -1.
    9900012    2    1    2    0    0  0.74620924561E+01  0.15343218446E+02  0.77189896226E+01  0.72461548737E+02  0.69999971918E+02 0.  0.
         12    1    1    2    0    0 -0.74620924561E+01 -0.15343218446E+02 -0.77189896226E+01  0.18726451263E+02  0.00000000000E+00 0. -1.
         11    1    3    3    0    0  0.57419733824E+01  0.12514495351E+02  0.58036090703E+01  0.14942045734E+02  0.51100000000E-03 0. -1.
        -11    1    3    3    0    0  0.68740139628E+01 -0.28445993818E+01 -0.26792428804E+02  0.27806079463E+02  0.51100000000E-03 0.  1.
        -12    1    3    3    0    0 -0.51538948891E+01  0.56733224769E+01  0.28707809356E+02  0.29713423540E+02  0.00000000000E+00 0.  1.
</event>
<event>
 7    1  0.1351543E-013  0.7246158E+02  0.7816164E-02  0.1226708E+00
        -11   -1    0    0    0    0  0.00000000000E+00  0.00000000000E+00  0.45593999997E+02  0.45594000000E+02  0.51100000000E-03 0. -1.
         11   -1    0    0    0    0 -0.00000000000E+00 -0.00000000000E+00 -0.45593999997E+02  0.45594000000E+02  0.51100000000E-03 0.  1.
    9900012    2    1    2    0    0 -0.15572617502E+02  0.10726625917E+01 -0.10345141212E+02  0.72461575685E+02  0.70000007023E+02 0.  0.
         12    1    1    2    0    0  0.15572617502E+02 -0.10726625917E+01  0.10345141212E+02  0.18726424315E+02  0.00000000000E+00 0. -1.
         11    1    3    3    0    0  0.20204580481E+02  0.15033150196E+02 -0.11241759994E+02  0.27578938436E+02  0.51100000000E-03 0. -1.
        -11    1    3    3    0    0 -0.31222333375E+02 -0.18963563405E+02 -0.36787813347E+01  0.36714905294E+02  0.51100000000E-03 0.  1.
         12    1    3    3    0    0 -0.45548646085E+01  0.50030758007E+01  0.45754001161E+01  0.81677319552E+01  0.00000000000E+00 0. -1.
</event>
<event>
 7    1  0.1351543E-013  0.7246164E+02  0.7816164E-02  0.1226708E+00
        -11   -1    0    0    0    0  0.00000000000E+00  0.00000000000E+00  0.45593999997E+02  0.45594000000E+02  0.51100000000E-03 0.  1.
         11   -1    0    0    0    0 -0.00000000000E+00 -0.00000000000E+00 -0.45593999997E+02  0.45594000000E+02  0.51100000000E-03 0. -1.
    9900012    2    1    2    0    0  0.16435929865E+02  0.41122319064E+01  0.79766207548E+01  0.72461635686E+02  0.70000085184E+02 0.  0.
         12    1    1    2    0    0 -0.16435929865E+02 -0.41122319064E+01 -0.79766207548E+01  0.18726364314E+02  0.00000000000E+00 0. -1.
         11    1    3    3    0    0  0.37538246195E+02  0.19368533998E+02  0.15842120701E+02  0.45113554783E+02  0.51100000000E-03 0.  1.
        -11    1    3    3    0    0 -0.20150557733E+02 -0.13710085145E+02 -0.71891361455E+01  0.25410531093E+02  0.51100000000E-03 0. -1.
        -12    1    3    3    0    0 -0.95175859645E+00 -0.15462169468E+01 -0.67636380098E+00  0.19375498094E+01  0.00000000000E+00 0.  1.
</event>
<event>
 7    1  0.1351543E-013  0.7246103E+02  0.7816164E-02  0.1226709E+00
        -11   -1    0    0    0    0  0.00000000000E+00  0.00000000000E+00  0.45593999997E+02  0.45594000000E+02  0.51100000000E-03 0.  1.
         11   -1    0    0    0    0 -0.00000000000E+00 -0.00000000000E+00 -0.45593999997E+02  0.45594000000E+02  0.51100000000E-03 0. -1.
    9900012    2    1    2    0    0 -0.51481285028E+01  0.17983434827E+02 -0.89003267528E+00  0.72461032456E+02  0.69999299362E+02 0.  0.
         12    1    1    2    0    0  0.51481285028E+01 -0.17983434827E+02  0.89003267528E+00  0.18726967544E+02  0.00000000000E+00 0. -1.
         11    1    3    3    0    0 -0.26020315075E+02  0.40615274467E+00 -0.21672810489E+02  0.33866391473E+02  0.51100000000E-03 0.  1.
        -11    1    3    3    0    0  0.21091200217E+02  0.84553563018E+01  0.11097131584E+02  0.25287904350E+02  0.51100000000E-03 0. -1.
        -12    1    3    3    0    0 -0.21901364439E+00  0.91219257801E+01  0.96856462296E+01  0.13306736632E+02  0.00000000000E+00 0.  1.
</event>
<event>
 7    1  0.1351543E-013  0.7246158E+02  0.7816164E-02  0.1226708E+00
        -11   -1    0    0    0    0  0.00000000000E+00  0.00000000000E+00  0.45593999997E+02  0.45594000000E+02  0.51100000000E-03 0. -1.
         11   -1    0    0    0    0 -0.00000000000E+00 -0.00000000000E+00 -0.45593999997E+02  0.45594000000E+02  0.51100000000E-03 0.  1.
    9900012    2    1    2    0    0 -0.17839083746E+00 -0.18184884093E+02  0.44673377442E+01  0.72461576442E+02  0.70000008008E+02 0.  0.
         12    1    1    2    0    0  0.17839083746E+00  0.18184884093E+02 -0.44673377442E+01  0.18726423558E+02  0.00000000000E+00 0. -1.
         11    1    3    3    0    0  0.15763406920E+02 -0.28853837781E+02  0.54030738193E+00  0.32883443930E+02  0.51100000000E-03 0. -1.
        -11    1    3    3    0    0 -0.15153217008E+02 -0.83585945133E+01  0.94919018926E+01  0.19737839034E+02  0.51100000000E-03 0.  1.
         12    1    3    3    0    0 -0.78858074953E+00  0.19027548201E+02 -0.55648715303E+01  0.19840293478E+02  0.00000000000E+00 0. -1.
</event>
<event>
 7    1  0.1351543E-013  0.7246138E+02  0.7816164E-02  0.1226709E+00
        -11   -1    0    0    0    0  0.00000000000E+00  0.00000000000E+00  0.45593999997E+02  0.45594000000E+02  0.51100000000E-03 0.  1.
         11   -1    0    0    0    0 -0.00000000000E+00 -0.00000000000E+00 -0.45593999997E+02  0.45594000000E+02  0.51100000000E-03 0. -1.
    9900012    2    1    2    0    0 -0.79483589312E+01 -0.14494880756E+02  0.87981936248E+01  0.72461382877E+02  0.69999755853E+02 0.  0.
         12    1    1    2    0    0  0.79483589312E+01  0.14494880756E+02 -0.87981936248E+01  0.18726617123E+02  0.00000000000E+00 0. -1.
         11    1    3    3    0    0 -0.12052302338E+02 -0.19849237376E+01 -0.94016068275E+01  0.15413893898E+02  0.51100000000E-03 0. -1.
        -11    1    3    3    0    0 -0.59107710960E+01 -0.10783017309E+02  0.35175181539E+02  0.37262636431E+02  0.51100000000E-03 0.  1.
        -12    1    3    3    0    0  0.10014714503E+02 -0.17269397096E+01 -0.16975381086E+02  0.19784852548E+02  0.00000000000E+00 0.  1.
</event>
<event>
 7    1  0.1351543E-013  0.7246158E+02  0.7816164E-02  0.1226708E+00
        -11   -1    0    0    0    0  0.00000000000E+00  0.00000000000E+00  0.45593999997E+02  0.45594000000E+02  0.51100000000E-03 0. -1.
         11   -1    0    0    0    0 -0.00000000000E+00 -0.00000000000E+00 -0.45593999997E+02  0.45594000000E+02  0.51100000000E-03 0.  1.
    9900012    2    1    2    0    0  0.13415013652E+02  0.57063966196E+01 -0.11753869028E+02  0.72461575066E+02  0.70000006216E+02 0.  0.
         12    1    1    2    0    0 -0.13415013652E+02 -0.57063966196E+01  0.11753869028E+02  0.18726424934E+02  0.00000000000E+00 0. -1.
         11    1    3    3    0    0 -0.28985505541E+00  0.27995421671E+02  0.94681131251E+01  0.29554573536E+02  0.51100000000E-03 0. -1.
        -11    1    3    3    0    0  0.14112281640E+01 -0.24718658925E+02 -0.14232706807E+02  0.28558249374E+02  0.51100000000E-03 0.  1.
        -12    1    3    3    0    0  0.12293640544E+02  0.24296338745E+01 -0.69892753458E+01  0.14348752156E+02  0.00000000000E+00 0.  1.
</event>
<event>
 7    1  0.1351543E-013  0.7246157E+02  0.7816164E-02  0.1226708E+00
        -11   -1    0    0    0    0  0.00000000000E+00  0.00000000000E+00  0.45593999997E+02  0.45594000000E+02  0.51100000000E-03 0. -1.
         11   -1    0    0    0    0 -0.00000000000E+00 -0.00000000000E+00 -0.45593999997E+02  0.45594000000E+02  0.51100000000E-03 0.  1.
    9900012    2    1    2    0    0  0.11866834256E+02 -0.14227209568E+02 -0.27283416606E+01  0.72461572269E+02  0.70000002572E+02 0.  0.
         12    1    1    2    0    0 -0.11866834256E+02  0.14227209568E+02  0.27283416606E+01  0.18726427731E+02  0.00000000000E+00 0. -1.
         11    1    3    3    0    0  0.20254710577E+02 -0.23415217856E+02  0.13663811190E+02  0.33841180008E+02  0.51100000000E-03 0.  1.
        -11    1    3    3    0    0  0.10306824251E+02  0.80999605587E+01 -0.14883670343E+02  0.19833396843E+02  0.51100000000E-03 0. -1.
        -12    1    3    3    0    0 -0.18694700572E+02  0.10880477296E+01 -0.15084825077E+01  0.18786995418E+02  0.00000000000E+00 0.  1.
</event>
<event>
 7    1  0.1351543E-013  0.7246155E+02  0.7816164E-02  0.1226708E+00
        -11   -1    0    0    0    0  0.00000000000E+00  0.00000000000E+00  0.45593999997E+02  0.45594000000E+02  0.51100000000E-03 0.  1.
         11   -1    0    0    0    0 -0.00000000000E+00 -0.00000000000E+00 -0.45593999997E+02  0.45594000000E+02  0.51100000000E-03 0. -1.
    9900012    2    1    2    0    0  0.13388828420E+02  0.11900310001E+02  0.54590993536E+01  0.72461551583E+02  0.69999975624E+02 0.  0.
         12    1    1    2    0    0 -0.13388828420E+02 -0.11900310001E+02 -0.54590993536E+01  0.18726448417E+02  0.00000000000E+00 0. -1.
         11    1    3    3    0    0  0.19117416787E+02  0.83188593996E+00  0.19304557117E+02  0.27181493420E+02  0.51100000000E-03 0.  1.
        -11    1    3    3    0    0 -0.13147366593E+02 -0.87482028352E+01 -0.17755321860E+02  0.23762065478E+02  0.51100000000E-03 0. -1.
         12    1    3    3    0    0  0.74187782253E+01  0.19816626896E+02  0.39098640966E+01  0.21517992684E+02  0.00000000000E+00 0. -1.
</event>
<event>
 7    1  0.1351543E-013  0.7246130E+02  0.7816164E-02  0.1226709E+00
        -11   -1    0    0    0    0  0.00000000000E+00  0.00000000000E+00  0.45593999997E+02  0.45594000000E+02  0.51100000000E-03 0. -1.
         11   -1    0    0    0    0 -0.00000000000E+00 -0.00000000000E+00 -0.45593999997E+02  0.45594000000E+02  0.51100000000E-03 0.  1.
    9900012    2    1    2    0    0  0.14847616582E+02 -0.85556480995E+01 -0.75523891009E+01  0.72461296774E+02  0.69999643688E+02 0.  0.
         12    1    1    2    0    0 -0.14847616582E+02  0.85556480995E+01  0.75523891009E+01  0.18726703226E+02  0.00000000000E+00 0. -1.
         11    1    3    3    0    0 -0.56408516885E+01  0.10646078535E+02  0.25558033237E+02  0.28255464235E+02  0.51100000000E-03 0. -1.
        -11    1    3    3    0    0  0.16488440667E+02 -0.15359887382E+02 -0.20642134265E+02  0.30559655157E+02  0.51100000000E-03 0.  1.
         12    1    3    3    0    0  0.40000276033E+01 -0.38418392522E+01 -0.12468288073E+02  0.13646177382E+02  0.00000000000E+00 0. -1.
</event>
<event>
 7    1  0.1351543E-013  0.7246125E+02  0.7816164E-02  0.1226709E+00
        -11   -1    0    0    0    0  0.00000000000E+00  0.00000000000E+00  0.45593999997E+02  0.45594000000E+02  0.51100000000E-03 0.  1.
         11   -1    0    0    0    0 -0.00000000000E+00 -0.00000000000E+00 -0.45593999997E+02  0.45594000000E+02  0.51100000000E-03 0. -1.
    9900012    2    1    2    0    0  0.27994118550E+01 -0.17370321266E+02  0.64129991269E+01  0.72461245732E+02  0.69999577195E+02 0.  0.
         12    1    1    2    0    0 -0.27994118550E+01  0.17370321266E+02 -0.64129991269E+01  0.18726754268E+02  0.00000000000E+00 0. -1.
         11    1    3    3    0    0 -0.95488082380E+01 -0.23432208131E+02  0.17176827473E+02  0.30582536176E+02  0.51100000000E-03 0. -1.
        -11    1    3    3    0    0  0.25048499133E+02  0.10184965854E+02 -0.84293086187E+01  0.28323384019E+02  0.51100000000E-03 0.  1.
         12    1    3    3    0    0 -0.12700279040E+02 -0.41230789899E+01 -0.23345197279E+01  0.13555325536E+02  0.00000000000E+00 0. -1.
</event>
<event>
 7    1  0.1351543E-013  0.7246155E+02  0.7816164E-02  0.1226708E+00
        -11   -1    0    0    0    0  0.00000000000E+00  0.00000000000E+00  0.45593999997E+02  0.45594000000E+02  0.51100000000E-03 0. -1.
         11   -1    0    0    0    0 -0.00000000000E+00 -0.00000000000E+00 -0.45593999997E+02  0.45594000000E+02  0.51100000000E-03 0.  1.
    9900012    2    1    2    0    0 -0.50697133913E+01  0.16558142909E+02 -0.71278238922E+01  0.72461549084E+02  0.69999972370E+02 0.  0.
         12    1    1    2    0    0  0.50697133913E+01 -0.16558142909E+02  0.71278238922E+01  0.18726450916E+02  0.00000000000E+00 0. -1.
         11    1    3    3    0    0  0.27017250919E+02  0.14088888327E+02  0.88801468892E+01  0.31737763477E+02  0.51100000000E-03 0. -1.
        -11    1    3    3    0    0 -0.21612354020E+02  0.10693137863E+02 -0.97532429256E+01  0.26010820661E+02  0.51100000000E-03 0.  1.
         12    1    3    3    0    0 -0.10474610290E+02 -0.82238832807E+01 -0.62547278558E+01  0.14712964946E+02  0.00000000000E+00 0. -1.
</event>
<event>
 7    1  0.1351543E-013  0.7246157E+02  0.7816164E-02  0.1226708E+00
        -11   -1    0    0    0    0  0.00000000000E+00  0.00000000000E+00  0.45593999997E+02  0.45594000000E+02  0.51100000000E-03 0.  1.
         11   -1    0    0    0    0 -0.00000000000E+00 -0.00000000000E+00 -0.45593999997E+02  0.45594000000E+02  0.51100000000E-03 0. -1.
    9900012    2    1    2    0    0 -0.16238537535E+02 -0.20143445634E+01  0.91066668461E+01  0.72461573049E+02  0.70000003589E+02 0.  0.
         12    1    1    2    0    0  0.16238537535E+02  0.20143445634E+01 -0.91066668461E+01  0.18726426951E+02  0.00000000000E+00 0. -1.
         11    1    3    3    0    0  0.68788411367E+01  0.58292811642E+01  0.16117725038E+02  0.18468352253E+02  0.51100000000E-03 0.  1.
        -11    1    3    3    0    0 -0.33123407964E+02  0.84057605462E+01 -0.18442560563E+01  0.34223065997E+02  0.51100000000E-03 0. -1.
        -12    1    3    3    0    0  0.10006029293E+02 -0.16249386274E+02 -0.51668021361E+01  0.19770154800E+02  0.00000000000E+00 0.  1.
</event>
<event>
 7    1  0.1351543E-013  0.7246159E+02  0.7816164E-02  0.1226708E+00
        -11   -1    0    0    0    0  0.00000000000E+00  0.00000000000E+00  0.45593999997E+02  0.45594000000E+02  0.51100000000E-03 0. -1.
         11   -1    0    0    0    0 -0.00000000000E+00 -0.00000000000E+00 -0.45593999997E+02  0.45594000000E+02  0.51100000000E-03 0.  1.
    9900012    2    1    2    0    0  0.11688202329E+02  0.93001187346E+01 -0.11294787194E+02  0.72461588173E+02  0.70000023290E+02 0.  0.
         12    1    1    2    0    0 -0.11688202329E+02 -0.93001187346E+01  0.11294787194E+02  0.18726411827E+02  0.00000000000E+00 0. -1.
         11    1    3    3    0    0  0.24293641826E+02  0.82333331675E+01  0.21766096881E+02  0.33641221469E+02  0.51100000000E-03 0. -1.
        -11    1    3    3    0    0 -0.41350080293E+01 -0.35413961943E+01 -0.26744483762E+02  0.27292987934E+02  0.51100000000E-03 0.  1.
        -12    1    3    3    0    0 -0.84704314673E+01  0.46081817614E+01 -0.63164003129E+01  0.11527378770E+02  0.00000000000E+00 0.  1.
</event>
<event>
 7    1  0.1351543E-013  0.7246157E+02  0.7816164E-02  0.1226708E+00
        -11   -1    0    0    0    0  0.00000000000E+00  0.00000000000E+00  0.45593999997E+02  0.45594000000E+02  0.51100000000E-03 0.  1.
         11   -1    0    0    0    0 -0.00000000000E+00 -0.00000000000E+00 -0.45593999997E+02  0.45594000000E+02  0.51100000000E-03 0. -1.
    9900012    2    1    2    0    0  0.40530958446E+01  0.17063269418E+02  0.65647833342E+01  0.72461571366E+02  0.70000001396E+02 0.  0.
         12    1    1    2    0    0 -0.40530958446E+01 -0.17063269418E+02 -0.65647833342E+01  0.18726428634E+02  0.00000000000E+00 0. -1.
         11    1    3    3    0    0 -0.16464288480E+02  0.32251955721E+02  0.15740861081E+02  0.39484631831E+02  0.51100000000E-03 0. -1.
        -11    1    3    3    0    0  0.12521705265E+02  0.18911493517E+01 -0.52778968973E+01  0.13719538788E+02  0.51100000000E-03 0.  1.
         12    1    3    3    0    0  0.79956790587E+01 -0.17079835655E+02 -0.38981808496E+01  0.19257400748E+02  0.00000000000E+00 0. -1.
</event>
<event>
 7    1  0.1351543E-013  0.7246169E+02  0.7816164E-02  0.1226708E+00
        -11   -1    0    0    0    0  0.00000000000E+00  0.00000000000E+00  0.45593999997E+02  0.45594000000E+02  0.51100000000E-03 0. -1.
         11   -1    0    0    0    0 -0.00000000000E+00 -0.00000000000E+00 -0.45593999997E+02  0.45594000000E+02  0.51100000000E-03 0.  1.
    9900012    2    1    2    0    0 -0.18514042764E+02  0.54252789894E-01  0.28110139723E+01  0.72461694374E+02  0.70000161637E+02 0.  0.
         12    1    1    2    0    0  0.18514042764E+02 -0.54252789894E-01 -0.28110139723E+01  0.18726305626E+02  0.00000000000E+00 0. -1.
         11    1    3    3    0    0 -0.28594967356E+02  0.85075590607E+01  0.25522581542E+02  0.39261340885E+02  0.51100000000E-03 0. -1.
        -11    1    3    3    0    0 -0.65699051737E+00 -0.12451278587E+02 -0.92646434670E+01  0.15533820967E+02  0.51100000000E-03 0.  1.
         12    1    3    3    0    0  0.10737915109E+02  0.39979723166E+01 -0.13446924103E+02  0.17666532522E+02  0.00000000000E+00 0. -1.
</event>
<event>
 7    1  0.1351543E-013  0.7246156E+02  0.7816164E-02  0.1226708E+00
        -11   -1    0    0    0    0  0.00000000000E+00  0.00000000000E+00  0.45593999997E+02  0.45594000000E+02  0.51100000000E-03 0.  1.
         11   -1    0    0    0    0 -0.00000000000E+00 -0.00000000000E+00 -0.45593999997E+02  0.45594000000E+02  0.51100000000E-03 0. -1.
    9900012    2    1    2    0    0  0.79400097340E+01  0.15757433452E+02  0.62720897657E+01  0.72461559505E+02  0.69999985945E+02 0.  0.
         12    1    1    2    0    0 -0.79400097340E+01 -0.15757433452E+02 -0.62720897657E+01  0.18726440495E+02  0.00000000000E+00 0. -1.
         11    1    3    3    0    0  0.30911503747E+02  0.15102925380E+02 -0.70312659819E+01  0.35114927317E+02  0.51100000000E-03 0. -1.
        -11    1    3    3    0    0 -0.13670423121E+02 -0.11163884734E+02  0.13635790464E+02  0.22303532736E+02  0.51100000000E-03 0.  1.
        -12    1    3    3    0    0 -0.93010708916E+01  0.11818392807E+02 -0.33243471660E+00  0.15043099451E+02  0.00000000000E+00 0.  1.
</event>
<event>
 7    1  0.1351543E-013  0.7246156E+02  0.7816164E-02  0.1226708E+00
        -11   -1    0    0    0    0  0.00000000000E+00  0.00000000000E+00  0.45593999997E+02  0.45594000000E+02  0.51100000000E-03 0.  1.
         11   -1    0    0    0    0 -0.00000000000E+00 -0.00000000000E+00 -0.45593999997E+02  0.45594000000E+02  0.51100000000E-03 0. -1.
    9900012    2    1    2    0    0 -0.56032091018E+01 -0.16563951827E+02  0.67021650183E+01  0.72461562317E+02  0.69999989608E+02 0.  0.
         12    1    1    2    0    0  0.56032091018E+01  0.16563951827E+02 -0.67021650183E+01  0.18726437683E+02  0.00000000000E+00 0. -1.
         11    1    3    3    0    0 -0.21779190567E+02  0.23851181515E+00 -0.17665344256E+02  0.28043794636E+02  0.51100000000E-03 0. -1.
        -11    1    3    3    0    0  0.13831166393E+01 -0.16695176462E+02  0.24432792603E+02  0.29624369755E+02  0.51100000000E-03 0.  1.
        -12    1    3    3    0    0  0.14792864826E+02 -0.10728718018E+00 -0.65283329458E-01  0.14793397926E+02  0.00000000000E+00 0.  1.
</event>
<event>
 7    1  0.1351543E-013  0.7246154E+02  0.7816164E-02  0.1226708E+00
        -11   -1    0    0    0    0  0.00000000000E+00  0.00000000000E+00  0.45593999997E+02  0.45594000000E+02  0.51100000000E-03 0.  1.
         11   -1    0    0    0    0 -0.00000000000E+00 -0.00000000000E+00 -0.45593999997E+02  0.45594000000E+02  0.51100000000E-03 0. -1.
    9900012    2    1    2    0    0  0.74585294497E+01  0.16530511700E+02 -0.46682644106E+01  0.72461543548E+02  0.69999965158E+02 0.  0.
         12    1    1    2    0    0 -0.74585294497E+01 -0.16530511700E+02  0.46682644106E+01  0.18726456452E+02  0.00000000000E+00 0. -1.
         11    1    3    3    0    0 -0.92073676850E+01  0.26600141410E+02 -0.16599003063E+02  0.32678280947E+02  0.51100000000E-03 0. -1.
        -11    1    3    3    0    0  0.21181925652E+02 -0.28307420073E+01  0.19082615239E+02  0.28650188119E+02  0.51100000000E-03 0.  1.
        -12    1    3    3    0    0 -0.45160285168E+01 -0.72388877022E+01 -0.71518765864E+01  0.11133074483E+02  0.00000000000E+00 0.  1.
</event>
<event>
 7    1  0.1351543E-013  0.7246151E+02  0.7816164E-02  0.1226708E+00
        -11   -1    0    0    0    0  0.00000000000E+00  0.00000000000E+00  0.45593999997E+02  0.45594000000E+02  0.51100000000E-03 0. -1.
         11   -1    0    0    0    0 -0.00000000000E+00 -0.00000000000E+00 -0.45593999997E+02  0.45594000000E+02  0.51100000000E-03 0.  1.
    9900012    2    1    2    0    0  0.93482233990E+01 -0.21833427707E+01 -0.16078717991E+02  0.72461509709E+02  0.69999921076E+02 0.  0.
         12    1    1    2    0    0 -0.93482233990E+01  0.21833427707E+01  0.16078717991E+02  0.18726490291E+02  0.00000000000E+00 0. -1.
         11    1    3    3    0    0 -0.18177248906E+02 -0.50119952826E-01 -0.90190741544E+01  0.20291835518E+02  0.51100000000E-03 0. -1.
        -11    1    3    3    0    0  0.31896527091E+02 -0.14336584218E+02  0.39102694764E+01  0.35188297701E+02  0.51100000000E-03 0.  1.
        -12    1    3    3    0    0 -0.43710547855E+01  0.12203361400E+02 -0.10969913313E+02  0.16981376490E+02  0.00000000000E+00 0.  1.
</event>
<event>
 7    1  0.1351543E-013  0.7246158E+02  0.7816164E-02  0.1226708E+00
        -11   -1    0    0    0    0  0.00000000000E+00  0.00000000000E+00  0.45593999997E+02  0.45594000000E+02  0.51100000000E-03 0.  1.
         11   -1    0    0    0    0 -0.00000000000E+00 -0.00000000000E+00 -0.45593999997E+02  0.45594000000E+02  0.51100000000E-03 0. -1.
    9900012    2    1    2    0    0 -0.16175583589E+02 -0.28266420458E+00 -0.94313020133E+01  0.72461578528E+02  0.70000010725E+02 0.  0.
         12    1    1    2    0    0  0.16175583589E+02  0.28266420458E+00  0.94313020133E+01  0.18726421472E+02  0.00000000000E+00 0. -1.
         11    1    3    3    0    0  0.30346595151E+01  0.80806095927E+01 -0.51807142966E+01  0.10067035842E+02  0.51100000000E-03 0. -1.
        -11    1    3    3    0    0  0.87286284247E+01 -0.19387073838E+02  0.15619127838E+02  0.26381901768E+02  0.51100000000E-03 0.  1.
        -12    1    3    3    0    0 -0.27938871529E+02  0.11023800041E+02 -0.19869715555E+02  0.36012640918E+02  0.00000000000E+00 0.  1.
</event>
<event>
 7    1  0.1351543E-013  0.7246159E+02  0.7816164E-02  0.1226708E+00
        -11   -1    0    0    0    0  0.00000000000E+00  0.00000000000E+00  0.45593999997E+02  0.45594000000E+02  0.51100000000E-03 0.  1.
         11   -1    0    0    0    0 -0.00000000000E+00 -0.00000000000E+00 -0.45593999997E+02  0.45594000000E+02  0.51100000000E-03 0. -1.
    9900012    2    1    2    0    0  0.15471888494E+02  0.80779724625E+00  0.10518874707E+02  0.72461585632E+02  0.70000019980E+02 0.  0.
         12    1    1    2    0    0 -0.15471888494E+02 -0.80779724625E+00 -0.10518874707E+02  0.18726414368E+02  0.00000000000E+00 0. -1.
         11    1    3    3    0    0  0.14791219248E+02  0.23461497585E-01 -0.26882978132E+02  0.30683468363E+02  0.51100000000E-03 0. -1.
        -11    1    3    3    0    0 -0.69660385204E+01  0.77632571327E+00  0.31068079077E+02  0.31848923248E+02  0.51100000000E-03 0.  1.
        -12    1    3    3    0    0  0.76467077670E+01  0.80100354041E-02  0.63337737623E+01  0.99291940210E+01  0.00000000000E+00 0.  1.
</event>
<event>
 7    1  0.1351543E-013  0.7246170E+02  0.7816164E-02  0.1226708E+00
        -11   -1    0    0    0    0  0.00000000000E+00  0.00000000000E+00  0.45593999997E+02  0.45594000000E+02  0.51100000000E-03 0. -1.
         11   -1    0    0    0    0 -0.00000000000E+00 -0.00000000000E+00 -0.45593999997E+02  0.45594000000E+02  0.51100000000E-03 0.  1.
    9900012    2    1    2    0    0  0.47765074692E+01  0.94234910030E+01 -0.15461467383E+02  0.72461703519E+02  0.70000173549E+02 0.  0.
         12    1    1    2    0    0 -0.47765074692E+01 -0.94234910030E+01  0.15461467383E+02  0.18726296481E+02  0.00000000000E+00 0. -1.
         11    1    3    3    0    0  0.24728464664E+02 -0.64407503465E+01  0.15915081152E+02  0.30104319259E+02  0.51100000000E-03 0. -1.
        -11    1    3    3    0    0 -0.13905427043E+02  0.10775844081E+02 -0.29317980800E+02  0.34190988803E+02  0.51100000000E-03 0.  1.
        -12    1    3    3    0    0 -0.60465301518E+01  0.50883972682E+01 -0.20585677350E+01  0.81663954567E+01  0.00000000000E+00 0.  1.
</event>
<event>
 7    1  0.1351543E-013  0.7246159E+02  0.7816164E-02  0.1226708E+00
        -11   -1    0    0    0    0  0.00000000000E+00  0.00000000000E+00  0.45593999997E+02  0.45594000000E+02  0.51100000000E-03 0.  1.
         11   -1    0    0    0    0 -0.00000000000E+00 -0.00000000000E+00 -0.45593999997E+02  0.45594000000E+02  0.51100000000E-03 0. -1.
    9900012    2    1    2    0    0 -0.53414143640E+00 -0.13082776556E+01  0.18673011670E+02  0.72461594517E+02  0.70000031555E+02 0.  0.
         12    1    1    2    0    0  0.53414143640E+00  0.13082776556E+01 -0.18673011670E+02  0.18726405483E+02  0.00000000000E+00 0. -1.
         11    1    3    3    0    0  0.20826908932E+02 -0.14254312287E+02  0.29332713602E+02  0.38695654045E+02  0.51100000000E-03 0. -1.
        -11    1    3    3    0    0 -0.72971468323E+01 -0.19638215227E+00  0.50864502901E+01  0.88971284501E+01  0.51100000000E-03 0.  1.
         12    1    3    3    0    0 -0.14063903536E+02  0.13142416784E+02 -0.15746152222E+02  0.24868812022E+02  0.00000000000E+00 0. -1.
</event>
<event>
 7    1  0.1351543E-013  0.7246097E+02  0.7816164E-02  0.1226710E+00
        -11   -1    0    0    0    0  0.00000000000E+00  0.00000000000E+00  0.45593999997E+02  0.45594000000E+02  0.51100000000E-03 0. -1.
         11   -1    0    0    0    0 -0.00000000000E+00 -0.00000000000E+00 -0.45593999997E+02  0.45594000000E+02  0.51100000000E-03 0.  1.
    9900012    2    1    2    0    0 -0.94907652969E+01 -0.14834133151E+02 -0.63698808978E+01  0.72460973677E+02  0.69999222790E+02 0.  0.
         12    1    1    2    0    0  0.94907652969E+01  0.14834133151E+02  0.63698808978E+01  0.18727026323E+02  0.00000000000E+00 0. -1.
         11    1    3    3    0    0 -0.36642334344E+02 -0.18346916969E+02 -0.80599854210E+01  0.41764020325E+02  0.51100000000E-03 0. -1.
        -11    1    3    3    0    0  0.10547685475E+02  0.26169432479E+01 -0.59589110581E+01  0.12393977655E+02  0.51100000000E-03 0.  1.
         12    1    3    3    0    0  0.16603883572E+02  0.89584056992E+00  0.76490155813E+01  0.18302975697E+02  0.00000000000E+00 0. -1.
</event>
<event>
 7    1  0.1351543E-013  0.7246155E+02  0.7816164E-02  0.1226708E+00
        -11   -1    0    0    0    0  0.00000000000E+00  0.00000000000E+00  0.45593999997E+02  0.45594000000E+02  0.51100000000E-03 0.  1.
         11   -1    0    0    0    0 -0.00000000000E+00 -0.00000000000E+00 -0.45593999997E+02  0.45594000000E+02  0.51100000000E-03 0. -1.
    9900012    2    1    2    0    0  0.43330425029E+01 -0.53117163569E+01  0.17426712043E+02  0.72461551308E+02  0.69999975266E+02 0.  0.
         12    1    1    2    0    0 -0.43330425029E+01  0.53117163569E+01 -0.17426712043E+02  0.18726448692E+02  0.00000000000E+00 0. -1.
         11    1    3    3    0    0 -0.49040803923E+01 -0.29205089986E+02  0.49700807079E+01  0.30028136607E+02  0.51100000000E-03 0. -1.
        -11    1    3    3    0    0 -0.97211484766E+01  0.14565620252E+02 -0.73091538069E+00  0.17526900998E+02  0.51100000000E-03 0.  1.
         12    1    3    3    0    0  0.18958271372E+02  0.93277533769E+01  0.13187546716E+02  0.24906513703E+02  0.00000000000E+00 0. -1.
</event>
<event>
 7    1  0.1351543E-013  0.7246154E+02  0.7816164E-02  0.1226708E+00
        -11   -1    0    0    0    0  0.00000000000E+00  0.00000000000E+00  0.45593999997E+02  0.45594000000E+02  0.51100000000E-03 0.  1.
         11   -1    0    0    0    0 -0.00000000000E+00 -0.00000000000E+00 -0.45593999997E+02  0.45594000000E+02  0.51100000000E-03 0. -1.
    9900012    2    1    2    0    0 -0.62325959549E+01 -0.16812758691E+02  0.54005777648E+01  0.72461538847E+02  0.69999959034E+02 0.  0.
         12    1    1    2    0    0  0.62325959549E+01  0.16812758691E+02 -0.54005777648E+01  0.18726461153E+02  0.00000000000E+00 0. -1.
         11    1    3    3    0    0  0.21027294254E+02  0.38040632486E+01 -0.84816165892E+01  0.22990341909E+02  0.51100000000E-03 0. -1.
        -11    1    3    3    0    0 -0.31213145972E+02 -0.11426808547E+02  0.11235476699E+01  0.33258003468E+02  0.51100000000E-03 0.  1.
        -12    1    3    3    0    0  0.39532557630E+01 -0.91900133927E+01  0.12758646684E+02  0.16213193470E+02  0.00000000000E+00 0.  1.
</event>
<event>
 7    1  0.1351543E-013  0.7246159E+02  0.7816164E-02  0.1226708E+00
        -11   -1    0    0    0    0  0.00000000000E+00  0.00000000000E+00  0.45593999997E+02  0.45594000000E+02  0.51100000000E-03 0.  1.
         11   -1    0    0    0    0 -0.00000000000E+00 -0.00000000000E+00 -0.45593999997E+02  0.45594000000E+02  0.51100000000E-03 0. -1.
    9900012    2    1    2    0    0  0.13687720887E+02 -0.90656616970E+01  0.90076989780E+01  0.72461586410E+02  0.70000020993E+02 0.  0.
         12    1    1    2    0    0 -0.13687720887E+02  0.90656616970E+01 -0.90076989780E+01  0.18726413590E+02  0.00000000000E+00 0. -1.
         11    1    3    3    0    0  0.12111769159E+02 -0.23388776547E+02 -0.19325063972E+02  0.32667842266E+02  0.51100000000E-03 0. -1.
        -11    1    3    3    0    0  0.87911391723E+01  0.17858357742E+02  0.20452302641E+02  0.28539477093E+02  0.51100000000E-03 0.  1.
         12    1    3    3    0    0 -0.72151874448E+01 -0.35352428924E+01  0.78804603090E+01  0.11254267051E+02  0.00000000000E+00 0. -1.
</event>
<event>
 7    1  0.1351543E-013  0.7246157E+02  0.7816164E-02  0.1226708E+00
        -11   -1    0    0    0    0  0.00000000000E+00  0.00000000000E+00  0.45593999997E+02  0.45594000000E+02  0.51100000000E-03 0. -1.
         11   -1    0    0    0    0 -0.00000000000E+00 -0.00000000000E+00 -0.45593999997E+02  0.45594000000E+02  0.51100000000E-03 0.  1.
    9900012    2    1    2    0    0 -0.18089190922E+02 -0.48071323622E+01 -0.59327959214E+00  0.72461565998E+02  0.69999994403E+02 0.  0.
         12    1    1    2    0    0  0.18089190922E+02  0.48071323622E+01  0.59327959214E+00  0.18726434002E+02  0.00000000000E+00 0. -1.
         11    1    3    3    0    0 -0.25569562119E+02 -0.61312912186E+01  0.23643142848E+02  0.35360902745E+02  0.51100000000E-03 0. -1.
        -11    1    3    3    0    0  0.15212793158E+02 -0.14387268547E+00 -0.45190071736E+01  0.15870450564E+02  0.51100000000E-03 0.  1.
         12    1    3    3    0    0 -0.77324219615E+01  0.14680315419E+01 -0.19717415267E+02  0.21230212688E+02  0.00000000000E+00 0. -1.
</event>
<event>
 7    1  0.1351543E-013  0.7246157E+02  0.7816164E-02  0.1226708E+00
        -11   -1    0    0    0    0  0.00000000000E+00  0.00000000000E+00  0.45593999997E+02  0.45594000000E+02  0.51100000000E-03 0. -1.
         11   -1    0    0    0    0 -0.00000000000E+00 -0.00000000000E+00 -0.45593999997E+02  0.45594000000E+02  0.51100000000E-03 0.  1.
    9900012    2    1    2    0    0  0.19959280431E+01 -0.58982137930E+01 -0.17660870278E+02  0.72461574989E+02  0.70000006116E+02 0.  0.
         12    1    1    2    0    0 -0.19959280431E+01  0.58982137930E+01  0.17660870278E+02  0.18726425011E+02  0.00000000000E+00 0. -1.
         11    1    3    3    0    0 -0.23578275581E+02 -0.16396716716E+02 -0.74676832205E+01  0.29674124947E+02  0.51100000000E-03 0. -1.
        -11    1    3    3    0    0  0.15227926799E+02  0.48831982305E+01  0.10393651045E+02  0.19072581416E+02  0.51100000000E-03 0.  1.
        -12    1    3    3    0    0  0.10346276825E+02  0.56153046921E+01 -0.20586838103E+02  0.23714868627E+02  0.00000000000E+00 0.  1.
</event>
<event>
 7    1  0.1351543E-013  0.7246151E+02  0.7816164E-02  0.1226708E+00
        -11   -1    0    0    0    0  0.00000000000E+00  0.00000000000E+00  0.45593999997E+02  0.45594000000E+02  0.51100000000E-03 0.  1.
         11   -1    0    0    0    0 -0.00000000000E+00 -0.00000000000E+00 -0.45593999997E+02  0.45594000000E+02  0.51100000000E-03 0. -1.
    9900012    2    1    2    0    0 -0.10401984703E+02 -0.11947693228E+02  0.99866269485E+01  0.72461511353E+02  0.69999923218E+02 0.  0.
         12    1    1    2    0    0  0.10401984703E+02  0.11947693228E+02 -0.99866269485E+01  0.18726488647E+02  0.00000000000E+00 0. -1.
         11    1    3    3    0    0  0.48035535743E+00 -0.60959742016E+01 -0.20559243495E+02  0.21449338826E+02  0.51100000000E-03 0. -1.
        -11    1    3    3    0    0 -0.25395731762E+02 -0.54919045000E+01  0.22742371191E+02  0.34529981964E+02  0.51100000000E-03 0.  1.
        -12    1    3    3    0    0  0.14513391702E+02 -0.35981452613E+00  0.78034992522E+01  0.16482190563E+02  0.00000000000E+00 0.  1.
</event>
<event>
 7    1  0.1351543E-013  0.7246144E+02  0.7816164E-02  0.1226708E+00
        -11   -1    0    0    0    0  0.00000000000E+00  0.00000000000E+00  0.45593999997E+02  0.45594000000E+02  0.51100000000E-03 0. -1.
         11   -1    0    0    0    0 -0.00000000000E+00 -0.00000000000E+00 -0.45593999997E+02  0.45594000000E+02  0.51100000000E-03 0.  1.
    9900012    2    1    2    0    0  0.13829810335E+02  0.11820597038E+02 -0.44377759570E+01  0.72461440688E+02  0.69999831163E+02 0.  0.
         12    1    1    2    0    0 -0.13829810335E+02 -0.11820597038E+02  0.44377759570E+01  0.18726559312E+02  0.00000000000E+00 0. -1.
         11    1    3    3    0    0 -0.11501236395E+02 -0.11857380700E+02 -0.14455057415E+01  0.16582080774E+02  0.51100000000E-03 0. -1.
        -11    1    3    3    0    0  0.19346718358E+02  0.21947328795E+02  0.17750886679E+02  0.34220969166E+02  0.51100000000E-03 0.  1.
        -12    1    3    3    0    0  0.59843283724E+01  0.17306489427E+01 -0.20743156895E+02  0.21658390748E+02  0.00000000000E+00 0.  1.
</event>
<event>
 7    1  0.1351543E-013  0.7246150E+02  0.7816164E-02  0.1226708E+00
        -11   -1    0    0    0    0  0.00000000000E+00  0.00000000000E+00  0.45593999997E+02  0.45594000000E+02  0.51100000000E-03 0. -1.
         11   -1    0    0    0    0 -0.00000000000E+00 -0.00000000000E+00 -0.45593999997E+02  0.45594000000E+02  0.51100000000E-03 0.  1.
    9900012    2    1    2    0    0  0.12870124210E+02 -0.24538628411E+01 -0.13379841276E+02  0.72461502928E+02  0.69999912243E+02 0.  0.
         12    1    1    2    0    0 -0.12870124210E+02  0.24538628411E+01  0.13379841276E+02  0.18726497072E+02  0.00000000000E+00 0. -1.
         11    1    3    3    0    0  0.16194485163E+02  0.10265443360E+02 -0.32533661006E+02  0.37763471448E+02  0.51100000000E-03 0.  1.
        -11    1    3    3    0    0 -0.17405800582E+01 -0.10206773888E+02  0.25592320240E+02  0.27607511798E+02  0.51100000000E-03 0. -1.
         12    1    3    3    0    0 -0.15837808944E+01 -0.25125323139E+01 -0.64385005097E+01  0.70905196822E+01  0.00000000000E+00 0. -1.
</event>
<event>
 7    1  0.1351543E-013  0.7246156E+02  0.7816164E-02  0.1226708E+00
        -11   -1    0    0    0    0  0.00000000000E+00  0.00000000000E+00  0.45593999997E+02  0.45594000000E+02  0.51100000000E-03 0.  1.
         11   -1    0    0    0    0 -0.00000000000E+00 -0.00000000000E+00 -0.45593999997E+02  0.45594000000E+02  0.51100000000E-03 0. -1.
    9900012    2    1    2    0    0  0.24966474490E+01 -0.12430557729E+02  0.13781419686E+02  0.72461560336E+02  0.69999987027E+02 0.  0.
         12    1    1    2    0    0 -0.24966474490E+01  0.12430557729E+02 -0.13781419686E+02  0.18726439664E+02  0.00000000000E+00 0. -1.
         11    1    3    3    0    0  0.93411635866E+01 -0.25815381856E+02  0.33424334853E+02  0.43253640750E+02  0.51100000000E-03 0.  1.
        -11    1    3    3    0    0 -0.11256574371E+02  0.12742742517E+02 -0.16901978622E+02  0.23974253586E+02  0.51100000000E-03 0. -1.
        -12    1    3    3    0    0  0.44120582333E+01  0.64208161113E+00 -0.27409365452E+01  0.52336659995E+01  0.00000000000E+00 0.  1.
</event>
<event>
 7    1  0.1351543E-013  0.7246155E+02  0.7816164E-02  0.1226708E+00
        -11   -1    0    0    0    0  0.00000000000E+00  0.00000000000E+00  0.45593999997E+02  0.45594000000E+02  0.51100000000E-03 0. -1.
         11   -1    0    0    0    0 -0.00000000000E+00 -0.00000000000E+00 -0.45593999997E+02  0.45594000000E+02  0.51100000000E-03 0.  1.
    9900012    2    1    2    0    0  0.17004232228E+02 -0.75838227179E+01  0.20054457579E+01  0.72461545627E+02  0.69999967866E+02 0.  0.
         12    1    1    2    0    0 -0.17004232228E+02  0.75838227179E+01 -0.20054457579E+01  0.18726454373E+02  0.00000000000E+00 0. -1.
         11    1    3    3    0    0  0.14887427904E+02 -0.20003013364E+02  0.14192125383E+02  0.28690982492E+02  0.51100000000E-03 0. -1.
        -11    1    3    3    0    0 -0.14118707719E+02  0.76552003829E+01 -0.19564266292E+02  0.25312062665E+02  0.51100000000E-03 0.  1.
        -12    1    3    3    0    0  0.16235512044E+02  0.47639902630E+01  0.73775866670E+01  0.18458500470E+02  0.00000000000E+00 0.  1.
</event>
<event>
 7    1  0.1351543E-013  0.7246167E+02  0.7816164E-02  0.1226708E+00
        -11   -1    0    0    0    0  0.00000000000E+00  0.00000000000E+00  0.45593999997E+02  0.45594000000E+02  0.51100000000E-03 0.  1.
         11   -1    0    0    0    0 -0.00000000000E+00 -0.00000000000E+00 -0.45593999997E+02  0.45594000000E+02  0.51100000000E-03 0. -1.
    9900012    2    1    2    0    0  0.81160957841E+01  0.12154092981E+02  0.11708224258E+02  0.72461668212E+02  0.70000127556E+02 0.  0.
         12    1    1    2    0    0 -0.81160957841E+01 -0.12154092981E+02 -0.11708224258E+02  0.18726331788E+02  0.00000000000E+00 0. -1.
         11    1    3    3    0    0  0.18256837784E+02  0.97884589044E+01  0.19494334613E+02  0.28445652319E+02  0.51100000000E-03 0.  1.
        -11    1    3    3    0    0  0.53674324108E+01 -0.15172608989E+02 -0.12195800359E+02  0.20192942848E+02  0.51100000000E-03 0. -1.
         12    1    3    3    0    0 -0.15508174411E+02  0.17538243065E+02  0.44096900034E+01  0.23823073045E+02  0.00000000000E+00 0. -1.
</event>
<event>
 7    1  0.1351543E-013  0.7246157E+02  0.7816164E-02  0.1226708E+00
        -11   -1    0    0    0    0  0.00000000000E+00  0.00000000000E+00  0.45593999997E+02  0.45594000000E+02  0.51100000000E-03 0.  1.
         11   -1    0    0    0    0 -0.00000000000E+00 -0.00000000000E+00 -0.45593999997E+02  0.45594000000E+02  0.51100000000E-03 0. -1.
    9900012    2    1    2    0    0  0.10357433177E+01 -0.12702393672E+02  0.13720629468E+02  0.72461568353E+02  0.69999997472E+02 0.  0.
         12    1    1    2    0    0 -0.10357433177E+01  0.12702393672E+02 -0.13720629468E+02  0.18726431647E+02  0.00000000000E+00 0. -1.
         11    1    3    3    0    0  0.20767350074E+02  0.16565031557E+02 -0.14167965694E+01  0.26602451247E+02  0.51100000000E-03 0. -1.
        -11    1    3    3    0    0 -0.16740148035E+02 -0.53952765535E+01  0.12664970786E+02  0.21673556482E+02  0.51100000000E-03 0.  1.
         12    1    3    3    0    0 -0.29914587207E+01 -0.23872148676E+02  0.24724552515E+01  0.24185560623E+02  0.00000000000E+00 0. -1.
</event>
<event>
 7    1  0.1351543E-013  0.7246157E+02  0.7816164E-02  0.1226708E+00
        -11   -1    0    0    0    0  0.00000000000E+00  0.00000000000E+00  0.45593999997E+02  0.45594000000E+02  0.51100000000E-03 0. -1.
         11   -1    0    0    0    0 -0.00000000000E+00 -0.00000000000E+00 -0.45593999997E+02  0.45594000000E+02  0.51100000000E-03 0.  1.
    9900012    2    1    2    0    0 -0.33781724189E+01  0.14584658542E+02 -0.11249663955E+02  0.72461568072E+02  0.69999997104E+02 0.  0.
         12    1    1    2    0    0  0.33781724189E+01 -0.14584658542E+02  0.11249663955E+02  0.18726431928E+02  0.00000000000E+00 0. -1.
         11    1    3    3    0    0  0.76682745518E+00  0.54013977910E+01  0.18436644948E+02  0.19226882213E+02  0.51100000000E-03 0. -1.
        -11    1    3    3    0    0  0.70646583193E+01 -0.14580546285E+02 -0.18734563404E+02  0.24768641330E+02  0.51100000000E-03 0.  1.
        -12    1    3    3    0    0 -0.11209658193E+02  0.23763807036E+02 -0.10951745499E+02  0.28466044529E+02  0.00000000000E+00 0.  1.
</event>
<event>
 7    1  0.1351543E-013  0.7246158E+02  0.7816164E-02  0.1226708E+00
        -11   -1    0    0    0    0  0.00000000000E+00  0.00000000000E+00  0.45593999997E+02  0.45594000000E+02  0.51100000000E-03 0.  1.
         11   -1    0    0    0    0 -0.00000000000E+00 -0.00000000000E+00 -0.45593999997E+02  0.45594000000E+02  0.51100000000E-03 0. -1.
    9900012    2    1    2    0    0 -0.13273543540E+02 -0.67048320882E+01  0.11381442830E+02  0.72461575559E+02  0.70000006858E+02 0.  0.
         12    1    1    2    0    0  0.13273543540E+02  0.67048320882E+01 -0.11381442830E+02  0.18726424441E+02  0.00000000000E+00 0. -1.
         11    1    3    3    0    0  0.95214140542E+01  0.17328333384E+02  0.23210974925E+02  0.30490618569E+02  0.51100000000E-03 0.  1.
        -11    1    3    3    0    0 -0.17863633119E+02 -0.46354407374E+01 -0.11894297282E+02  0.21956115484E+02  0.51100000000E-03 0. -1.
         12    1    3    3    0    0 -0.49313244752E+01 -0.19397724735E+02  0.64765187734E-01  0.20014841506E+02  0.00000000000E+00 0. -1.
</event>
<event>
 7    1  0.1351543E-013  0.7246157E+02  0.7816164E-02  0.1226708E+00
        -11   -1    0    0    0    0  0.00000000000E+00  0.00000000000E+00  0.45593999997E+02  0.45594000000E+02  0.51100000000E-03 0. -1.
         11   -1    0    0    0    0 -0.00000000000E+00 -0.00000000000E+00 -0.45593999997E+02  0.45594000000E+02  0.51100000000E-03 0.  1.
    9900012    2    1    2    0    0 -0.16534560816E+02  0.64168191269E+01 -0.60093174656E+01  0.72461570402E+02  0.70000000141E+02 0.  0.
         12    1    1    2    0    0  0.16534560816E+02 -0.64168191269E+01  0.60093174656E+01  0.18726429598E+02  0.00000000000E+00 0. -1.
         11    1    3    3    0    0 -0.26344883099E+02 -0.14071790312E+02  0.18198878312E+02  0.34975238672E+02  0.51100000000E-03 0. -1.
        -11    1    3    3    0    0  0.13595537434E+02  0.90451293536E+01 -0.16285935738E+02  0.23062625745E+02  0.51100000000E-03 0.  1.
         12    1    3    3    0    0 -0.37852151509E+01  0.11443480086E+02 -0.79222600391E+01  0.14423705985E+02  0.00000000000E+00 0. -1.
</event>
<event>
 7    1  0.1351543E-013  0.7246156E+02  0.7816164E-02  0.1226708E+00
        -11   -1    0    0    0    0  0.00000000000E+00  0.00000000000E+00  0.45593999997E+02  0.45594000000E+02  0.51100000000E-03 0. -1.
         11   -1    0    0    0    0 -0.00000000000E+00 -0.00000000000E+00 -0.45593999997E+02  0.45594000000E+02  0.51100000000E-03 0.  1.
    9900012    2    1    2    0    0  0.16428476383E+01 -0.62054413667E+01 -0.17591846808E+02  0.72461560802E+02  0.69999987634E+02 0.  0.
         12    1    1    2    0    0 -0.16428476383E+01  0.62054413667E+01  0.17591846808E+02  0.18726439198E+02  0.00000000000E+00 0. -1.
         11    1    3    3    0    0  0.16197025769E+02  0.18924536575E+02 -0.22668118970E+02  0.33679746825E+02  0.51100000000E-03 0. -1.
        -11    1    3    3    0    0  0.19621025325E+01 -0.18970353216E+02 -0.31489151474E+01  0.19329764985E+02  0.51100000000E-03 0.  1.
         12    1    3    3    0    0 -0.16516280663E+02 -0.61596247252E+01  0.82251873086E+01  0.19452048991E+02  0.00000000000E+00 0. -1.
</event>
<event>
 7    1  0.1351543E-013  0.7246157E+02  0.7816164E-02  0.1226708E+00
        -11   -1    0    0    0    0  0.00000000000E+00  0.00000000000E+00  0.45593999997E+02  0.45594000000E+02  0.51100000000E-03 0. -1.
         11   -1    0    0    0    0 -0.00000000000E+00 -0.00000000000E+00 -0.45593999997E+02  0.45594000000E+02  0.51100000000E-03 0.  1.
    9900012    2    1    2    0    0  0.73207314553E+01  0.17088066345E+02  0.22547489317E+01  0.72461574468E+02  0.70000005437E+02 0.  0.
         12    1    1    2    0    0 -0.73207314553E+01 -0.17088066345E+02 -0.22547489317E+01  0.18726425532E+02  0.00000000000E+00 0. -1.
         11    1    3    3    0    0 -0.83574753759E+01  0.33020768119E+02 -0.90507913545E+01  0.35243940560E+02  0.51100000000E-03 0.  1.
        -11    1    3    3    0    0  0.14219611762E+01 -0.11089202350E+02 -0.72476418105E+01  0.13323689220E+02  0.51100000000E-03 0. -1.
         12    1    3    3    0    0  0.14256245655E+02 -0.48434994232E+01  0.18553182097E+02  0.23893944688E+02  0.00000000000E+00 0. -1.
</event>
<event>
 7    1  0.1351543E-013  0.7246141E+02  0.7816164E-02  0.1226708E+00
        -11   -1    0    0    0    0  0.00000000000E+00  0.00000000000E+00  0.45593999997E+02  0.45594000000E+02  0.51100000000E-03 0. -1.
         11   -1    0    0    0    0 -0.00000000000E+00 -0.00000000000E+00 -0.45593999997E+02  0.45594000000E+02  0.51100000000E-03 0.  1.
    9900012    2    1    2    0    0 -0.16743119573E+02  0.28335419451E+00 -0.83828908709E+01  0.72461409227E+02  0.69999790180E+02 0.  0.
         12    1    1    2    0    0  0.16743119573E+02 -0.28335419451E+00  0.83828908709E+01  0.18726590773E+02  0.00000000000E+00 0. -1.
         11    1    3    3    0    0 -0.18115142040E+02  0.10030644073E+02  0.31838996733E+01  0.20950164893E+02  0.51100000000E-03 0. -1.
        -11    1    3    3    0    0  0.53834206038E+01 -0.28959959353E+02 -0.12179370616E+02  0.31874716187E+02  0.51100000000E-03 0.  1.
        -12    1    3    3    0    0 -0.40113981362E+01  0.19212669475E+02  0.61258007143E+00  0.19636528148E+02  0.00000000000E+00 0.  1.
</event>
<event>
 7    1  0.1351543E-013  0.7246170E+02  0.7816164E-02  0.1226708E+00
        -11   -1    0    0    0    0  0.00000000000E+00  0.00000000000E+00  0.45593999997E+02  0.45594000000E+02  0.51100000000E-03 0.  1.
         11   -1    0    0    0    0 -0.00000000000E+00 -0.00000000000E+00 -0.45593999997E+02  0.45594000000E+02  0.51100000000E-03 0. -1.
    9900012    2    1    2    0    0 -0.15892812192E+01 -0.98071474527E+00  0.18632944742E+02  0.72461701755E+02  0.70000171251E+02 0.  0.
         12    1    1    2    0    0  0.15892812192E+01  0.98071474527E+00 -0.18632944742E+02  0.18726298245E+02  0.00000000000E+00 0. -1.
         11    1    3    3    0    0  0.35738961744E+01  0.15516740760E+02 -0.68365292939E+01  0.17328592289E+02  0.51100000000E-03 0. -1.
        -11    1    3    3    0    0 -0.23300735267E+01 -0.32517824891E+02  0.16116905125E+02  0.36367469109E+02  0.51100000000E-03 0.  1.
         12    1    3    3    0    0 -0.28331038670E+01  0.16020369386E+02  0.93525689107E+01  0.18765640357E+02  0.00000000000E+00 0. -1.
</event>
<event>
 7    1  0.1351543E-013  0.7246125E+02  0.7816164E-02  0.1226709E+00
        -11   -1    0    0    0    0  0.00000000000E+00  0.00000000000E+00  0.45593999997E+02  0.45594000000E+02  0.51100000000E-03 0.  1.
         11   -1    0    0    0    0 -0.00000000000E+00 -0.00000000000E+00 -0.45593999997E+02  0.45594000000E+02  0.51100000000E-03 0. -1.
    9900012    2    1    2    0    0  0.15746404925E+02 -0.94256359325E+00  0.10092241784E+02  0.72461253395E+02  0.69999587178E+02 0.  0.
         12    1    1    2    0    0 -0.15746404925E+02  0.94256359325E+00 -0.10092241784E+02  0.18726746605E+02  0.00000000000E+00 0. -1.
         11    1    3    3    0    0  0.15687963457E+02 -0.26859975799E+02  0.35619387870E+01  0.31309070659E+02  0.51100000000E-03 0. -1.
        -11    1    3    3    0    0 -0.46649027532E+01  0.25917604077E+02  0.15827134120E+02  0.30724285077E+02  0.51100000000E-03 0.  1.
         12    1    3    3    0    0  0.47233442214E+01 -0.19187103768E-03 -0.92968311227E+01  0.10427897659E+02  0.00000000000E+00 0. -1.
</event>
<event>
 8    1  0.1351543E-013  0.7246167E+02  0.7816164E-02  0.1226708E+00
        -11   -1    0    0    0    0  0.00000000000E+00  0.00000000000E+00  0.45593999997E+02  0.45594000000E+02  0.51100000000E-03 0. -1.
         11   -1    0    0    0    0 -0.00000000000E+00 -0.00000000000E+00 -0.45593999997E+02  0.45594000000E+02  0.51100000000E-03 0.  1.
    9900012    2    1    2    0    0 -0.42584973490E+01  0.92592551945E+01 -0.15710092110E+02  0.72461665588E+02  0.70000124137E+02 0.  0.
         24    2    3    3    0    0 -0.17337342717E+02  0.89690957192E+01 -0.81833229622E+01  0.57368864564E+02  0.53321587713E+02 0.  0.
         12    1    1    2    0    0  0.42584973490E+01 -0.92592551945E+01  0.15710092110E+02  0.18726334412E+02  0.00000000000E+00 0. -1.
         11    1    3    3    0    0  0.13078845368E+02  0.29015947535E+00 -0.75267691474E+01  0.15092801023E+02  0.51100000000E-03 0. -1.
        -11    1    4    4    0    0 -0.10134982146E+02  0.28411178817E+02  0.78383426767E+01  0.31166529500E+02  0.51100000000E-03 0.  1.
         12    1    4    4    0    0 -0.72023605708E+01 -0.19442083098E+02 -0.16021665639E+02  0.26202335064E+02  0.00000000000E+00 0. -1.
</event>
<event>
 7    1  0.1351543E-013  0.7246152E+02  0.7816164E-02  0.1226708E+00
        -11   -1    0    0    0    0  0.00000000000E+00  0.00000000000E+00  0.45593999997E+02  0.45594000000E+02  0.51100000000E-03 0. -1.
         11   -1    0    0    0    0 -0.00000000000E+00 -0.00000000000E+00 -0.45593999997E+02  0.45594000000E+02  0.51100000000E-03 0.  1.
    9900012    2    1    2    0    0  0.14867229105E+02 -0.73020978837E+01 -0.87364768640E+01  0.72461517074E+02  0.69999930671E+02 0.  0.
         12    1    1    2    0    0 -0.14867229105E+02  0.73020978837E+01  0.87364768640E+01  0.18726482926E+02  0.00000000000E+00 0. -1.
         11    1    3    3    0    0  0.12219590212E+02  0.30002242879E+02 -0.11156006531E+02  0.34262361925E+02  0.51100000000E-03 0.  1.
        -11    1    3    3    0    0  0.37247425275E+01 -0.26436647829E+02 -0.11134579407E+01  0.26720962636E+02  0.51100000000E-03 0. -1.
        -12    1    3    3    0    0 -0.10771036345E+01 -0.10867692933E+02  0.35329876082E+01  0.11478192513E+02  0.00000000000E+00 0.  1.
</event>
<event>
 7    1  0.1351543E-013  0.7246147E+02  0.7816164E-02  0.1226708E+00
        -11   -1    0    0    0    0  0.00000000000E+00  0.00000000000E+00  0.45593999997E+02  0.45594000000E+02  0.51100000000E-03 0. -1.
         11   -1    0    0    0    0 -0.00000000000E+00 -0.00000000000E+00 -0.45593999997E+02  0.45594000000E+02  0.51100000000E-03 0.  1.
    9900012    2    1    2    0    0 -0.15833777807E+02 -0.27710030200E+01 -0.96070754826E+01  0.72461471312E+02  0.69999871057E+02 0.  0.
         12    1    1    2    0    0  0.15833777807E+02  0.27710030200E+01  0.96070754826E+01  0.18726528688E+02  0.00000000000E+00 0. -1.
         11    1    3    3    0    0 -0.11595194289E+02  0.11163996115E+02  0.48744964701E+01  0.16817968247E+02  0.51100000000E-03 0. -1.
        -11    1    3    3    0    0  0.90966250451E+01 -0.17206022402E+02  0.14033756825E+02  0.23994627003E+02  0.51100000000E-03 0.  1.
        -12    1    3    3    0    0 -0.13335208563E+02  0.32710232668E+01 -0.28515328778E+02  0.31648876062E+02  0.00000000000E+00 0.  1.
</event>
<event>
 7    1  0.1351543E-013  0.7246116E+02  0.7816164E-02  0.1226709E+00
        -11   -1    0    0    0    0  0.00000000000E+00  0.00000000000E+00  0.45593999997E+02  0.45594000000E+02  0.51100000000E-03 0. -1.
         11   -1    0    0    0    0 -0.00000000000E+00 -0.00000000000E+00 -0.45593999997E+02  0.45594000000E+02  0.51100000000E-03 0.  1.
    9900012    2    1    2    0    0 -0.16827877860E+02  0.64727917298E+01 -0.50616328100E+01  0.72461157427E+02  0.69999462162E+02 0.  0.
         12    1    1    2    0    0  0.16827877860E+02 -0.64727917298E+01  0.50616328100E+01  0.18726842573E+02  0.00000000000E+00 0. -1.
         11    1    3    3    0    0  0.72164295658E+01  0.55096971301E+01  0.19997651333E+02  0.21962232975E+02  0.51100000000E-03 0. -1.
        -11    1    3    3    0    0 -0.12515255564E+02  0.15631813850E+02 -0.24753833124E+02  0.31839244348E+02  0.51100000000E-03 0.  1.
         12    1    3    3    0    0 -0.11529051861E+02 -0.14668719251E+02 -0.30545101889E+00  0.18659680104E+02  0.00000000000E+00 0. -1.
</event>
<event>
 7    1  0.1351543E-013  0.7246156E+02  0.7816164E-02  0.1226708E+00
        -11   -1    0    0    0    0  0.00000000000E+00  0.00000000000E+00  0.45593999997E+02  0.45594000000E+02  0.51100000000E-03 0. -1.
         11   -1    0    0    0    0 -0.00000000000E+00 -0.00000000000E+00 -0.45593999997E+02  0.45594000000E+02  0.51100000000E-03 0.  1.
    9900012    2    1    2    0    0  0.49340952491E+01 -0.17705174249E+02 -0.35862376379E+01  0.72461559027E+02  0.69999985323E+02 0.  0.
         12    1    1    2    0    0 -0.49340952491E+01  0.17705174249E+02  0.35862376379E+01  0.18726440973E+02  0.00000000000E+00 0. -1.
         11    1    3    3    0    0 -0.13371348995E+02  0.59543027416E+01 -0.22215843856E+02  0.26604330730E+02  0.51100000000E-03 0. -1.
        -11    1    3    3    0    0  0.16440388775E+02 -0.22637610986E+02  0.89122693791E+00  0.27991822019E+02  0.51100000000E-03 0.  1.
         12    1    3    3    0    0  0.18650554695E+01 -0.10218660045E+01  0.17738379280E+02  0.17865406279E+02  0.00000000000E+00 0. -1.
</event>
<event>
 7    1  0.1351543E-013  0.7246157E+02  0.7816164E-02  0.1226708E+00
        -11   -1    0    0    0    0  0.00000000000E+00  0.00000000000E+00  0.45593999997E+02  0.45594000000E+02  0.51100000000E-03 0.  1.
         11   -1    0    0    0    0 -0.00000000000E+00 -0.00000000000E+00 -0.45593999997E+02  0.45594000000E+02  0.51100000000E-03 0. -1.
    9900012    2    1    2    0    0  0.17540033850E+02  0.52491760863E+01  0.39335371654E+01  0.72461565431E+02  0.69999993665E+02 0.  0.
         12    1    1    2    0    0 -0.17540033850E+02 -0.52491760863E+01 -0.39335371654E+01  0.18726434569E+02  0.00000000000E+00 0. -1.
         11    1    3    3    0    0  0.27359398379E+02  0.24685470248E+02  0.92100914987E+01  0.37983350388E+02  0.51100000000E-03 0. -1.
        -11    1    3    3    0    0 -0.17598287398E+02 -0.14099528707E+02 -0.90765530248E+01  0.24308028389E+02  0.51100000000E-03 0.  1.
        -12    1    3    3    0    0  0.77789228684E+01 -0.53367654553E+01  0.37999986914E+01  0.10170186654E+02  0.00000000000E+00 0.  1.
</event>
<event>
 7    1  0.1351543E-013  0.7246155E+02  0.7816164E-02  0.1226708E+00
        -11   -1    0    0    0    0  0.00000000000E+00  0.00000000000E+00  0.45593999997E+02  0.45594000000E+02  0.51100000000E-03 0.  1.
         11   -1    0    0    0    0 -0.00000000000E+00 -0.00000000000E+00 -0.45593999997E+02  0.45594000000E+02  0.51100000000E-03 0. -1.
    9900012    2    1    2    0    0 -0.14697644298E+02 -0.12045263872E-01  0.11604274234E+02  0.72461546158E+02  0.69999968558E+02 0.  0.
         12    1    1    2    0    0  0.14697644298E+02  0.12045263872E-01 -0.11604274234E+02  0.18726453842E+02  0.00000000000E+00 0. -1.
         11    1    3    3    0    0 -0.19395640584E+02  0.69687024171E+01 -0.11196508225E+02  0.23454540792E+02  0.51100000000E-03 0. -1.
        -11    1    3    3    0    0 -0.89377652656E+01 -0.20412058555E+02  0.19446679229E+02  0.29575481665E+02  0.51100000000E-03 0.  1.
        -12    1    3    3    0    0  0.13635761552E+02  0.13431310874E+02  0.33541032304E+01  0.19431523702E+02  0.00000000000E+00 0.  1.
</event>
<event>
 7    1  0.1351543E-013  0.7246159E+02  0.7816164E-02  0.1226708E+00
        -11   -1    0    0    0    0  0.00000000000E+00  0.00000000000E+00  0.45593999997E+02  0.45594000000E+02  0.51100000000E-03 0. -1.
         11   -1    0    0    0    0 -0.00000000000E+00 -0.00000000000E+00 -0.45593999997E+02  0.45594000000E+02  0.51100000000E-03 0.  1.
    9900012    2    1    2    0    0  0.10218786871E+02 -0.50014523315E+01  0.14874154490E+02  0.72461585438E+02  0.70000019728E+02 0.  0.
         12    1    1    2    0    0 -0.10218786871E+02  0.50014523315E+01 -0.14874154490E+02  0.18726414562E+02  0.00000000000E+00 0. -1.
         11    1    3    3    0    0  0.14742916804E+02  0.84822772958E+01  0.39741128557E+02  0.43227999298E+02  0.51100000000E-03 0. -1.
        -11    1    3    3    0    0  0.25287996403E+00 -0.69614465747E+01 -0.14503892985E+02  0.16090015496E+02  0.51100000000E-03 0.  1.
         12    1    3    3    0    0 -0.47770098978E+01 -0.65222830525E+01 -0.10363081082E+02  0.13143570645E+02  0.00000000000E+00 0. -1.
</event>
<event>
 7    1  0.1351543E-013  0.7246151E+02  0.7816164E-02  0.1226708E+00
        -11   -1    0    0    0    0  0.00000000000E+00  0.00000000000E+00  0.45593999997E+02  0.45594000000E+02  0.51100000000E-03 0.  1.
         11   -1    0    0    0    0 -0.00000000000E+00 -0.00000000000E+00 -0.45593999997E+02  0.45594000000E+02  0.51100000000E-03 0. -1.
    9900012    2    1    2    0    0 -0.33987973246E+01 -0.15502467427E+02  0.99399687114E+01  0.72461513476E+02  0.69999925983E+02 0.  0.
         12    1    1    2    0    0  0.33987973246E+01  0.15502467427E+02 -0.99399687114E+01  0.18726486524E+02  0.00000000000E+00 0. -1.
         11    1    3    3    0    0  0.80308965763E+01  0.10752038095E+02 -0.64535025040E+01  0.14891249707E+02  0.51100000000E-03 0. -1.
        -11    1    3    3    0    0 -0.20793337090E+02 -0.23898875713E+02 -0.68417189412E+01  0.32408768042E+02  0.51100000000E-03 0.  1.
        -12    1    3    3    0    0  0.93636431891E+01 -0.23556298082E+01  0.23235190157E+02  0.25161495726E+02  0.00000000000E+00 0.  1.
</event>
<event>
 7    1  0.1351543E-013  0.7246158E+02  0.7816164E-02  0.1226708E+00
        -11   -1    0    0    0    0  0.00000000000E+00  0.00000000000E+00  0.45593999997E+02  0.45594000000E+02  0.51100000000E-03 0.  1.
         11   -1    0    0    0    0 -0.00000000000E+00 -0.00000000000E+00 -0.45593999997E+02  0.45594000000E+02  0.51100000000E-03 0. -1.
    9900012    2    1    2    0    0  0.14888158424E+02  0.99619269334E+01  0.54572406090E+01  0.72461582175E+02  0.70000015477E+02 0.  0.
         12    1    1    2    0    0 -0.14888158424E+02 -0.99619269334E+01 -0.54572406090E+01  0.18726417825E+02  0.00000000000E+00 0. -1.
         11    1    3    3    0    0  0.10970490792E+02 -0.10637002958E+02 -0.15169222078E+02  0.21531437454E+02  0.51100000000E-03 0. -1.
        -11    1    3    3    0    0 -0.12612334315E+02  0.18104260620E+02  0.25302210457E+02  0.33571372979E+02  0.51100000000E-03 0.  1.
        -12    1    3    3    0    0  0.16530001948E+02  0.24946692709E+01 -0.46757477696E+01  0.17358771741E+02  0.00000000000E+00 0.  1.
</event>
<event>
 7    1  0.1351543E-013  0.7246158E+02  0.7816164E-02  0.1226708E+00
        -11   -1    0    0    0    0  0.00000000000E+00  0.00000000000E+00  0.45593999997E+02  0.45594000000E+02  0.51100000000E-03 0.  1.
         11   -1    0    0    0    0 -0.00000000000E+00 -0.00000000000E+00 -0.45593999997E+02  0.45594000000E+02  0.51100000000E-03 0. -1.
    9900012    2    1    2    0    0 -0.94999835391E+01  0.12976216960E+02  0.95941120521E+01  0.72461578027E+02  0.70000010074E+02 0.  0.
         12    1    1    2    0    0  0.94999835391E+01 -0.12976216960E+02 -0.95941120521E+01  0.18726421973E+02  0.00000000000E+00 0. -1.
         11    1    3    3    0    0 -0.48779884199E+00 -0.11350479850E+02 -0.14246135653E+02  0.18221518099E+02  0.51100000000E-03 0. -1.
        -11    1    3    3    0    0  0.10797287662E+02  0.24346509433E+02  0.21625070478E+02  0.34307107367E+02  0.51100000000E-03 0.  1.
        -12    1    3    3    0    0 -0.19809472359E+02 -0.19812622882E-01  0.22151772268E+01  0.19932952561E+02  0.00000000000E+00 0.  1.
</event>
<event>
 7    1  0.1351543E-013  0.7246168E+02  0.7816164E-02  0.1226708E+00
        -11   -1    0    0    0    0  0.00000000000E+00  0.00000000000E+00  0.45593999997E+02  0.45594000000E+02  0.51100000000E-03 0. -1.
         11   -1    0    0    0    0 -0.00000000000E+00 -0.00000000000E+00 -0.45593999997E+02  0.45594000000E+02  0.51100000000E-03 0.  1.
    9900012    2    1    2    0    0  0.15207482406E+02  0.71774435869E+01 -0.82396515237E+01  0.72461679625E+02  0.70000142423E+02 0.  0.
         12    1    1    2    0    0 -0.15207482406E+02 -0.71774435869E+01  0.82396515237E+01  0.18726320375E+02  0.00000000000E+00 0. -1.
         11    1    3    3    0    0 -0.65106178518E+01 -0.24708050989E+02 -0.34096244162E+01  0.25777925972E+02  0.51100000000E-03 0. -1.
        -11    1    3    3    0    0  0.14634384861E+01  0.24992009228E+02 -0.23485612386E+01  0.25144739363E+02  0.51100000000E-03 0.  1.
         12    1    3    3    0    0  0.20254661771E+02  0.68934853479E+01 -0.24814658689E+01  0.21539014290E+02  0.00000000000E+00 0. -1.
</event>
<event>
 7    1  0.1351543E-013  0.7246155E+02  0.7816164E-02  0.1226708E+00
        -11   -1    0    0    0    0  0.00000000000E+00  0.00000000000E+00  0.45593999997E+02  0.45594000000E+02  0.51100000000E-03 0.  1.
         11   -1    0    0    0    0 -0.00000000000E+00 -0.00000000000E+00 -0.45593999997E+02  0.45594000000E+02  0.51100000000E-03 0. -1.
    9900012    2    1    2    0    0 -0.22917572905E+01 -0.79101170057E+01  0.16818381556E+02  0.72461546500E+02  0.69999969003E+02 0.  0.
         12    1    1    2    0    0  0.22917572905E+01  0.79101170057E+01 -0.16818381556E+02  0.18726453500E+02  0.00000000000E+00 0. -1.
         11    1    3    3    0    0 -0.54309919822E+01 -0.37524153222E+02  0.48162924746E+01  0.38219817143E+02  0.51100000000E-03 0. -1.
        -11    1    3    3    0    0  0.96324368510E+00  0.45441330004E+01 -0.24200491359E+01  0.52377114471E+01  0.51100000000E-03 0.  1.
         12    1    3    3    0    0  0.21759910066E+01  0.25069903216E+02  0.14422138218E+02  0.29004017910E+02  0.00000000000E+00 0. -1.
</event>
<event>
 7    1  0.1351543E-013  0.7246155E+02  0.7816164E-02  0.1226708E+00
        -11   -1    0    0    0    0  0.00000000000E+00  0.00000000000E+00  0.45593999997E+02  0.45594000000E+02  0.51100000000E-03 0.  1.
         11   -1    0    0    0    0 -0.00000000000E+00 -0.00000000000E+00 -0.45593999997E+02  0.45594000000E+02  0.51100000000E-03 0. -1.
    9900012    2    1    2    0    0 -0.57369210211E+01  0.17794494869E+02  0.10600755045E+01  0.72461546237E+02  0.69999968661E+02 0.  0.
         12    1    1    2    0    0  0.57369210211E+01 -0.17794494869E+02 -0.10600755045E+01  0.18726453763E+02  0.00000000000E+00 0. -1.
         11    1    3    3    0    0 -0.14754522719E+02 -0.11939188282E+02 -0.12069574964E+02  0.22492549824E+02  0.51100000000E-03 0. -1.
        -11    1    3    3    0    0  0.32978390454E+01  0.36647039275E+02  0.16576884470E+02  0.40356837450E+02  0.51100000000E-03 0.  1.
        -12    1    3    3    0    0  0.57197626521E+01 -0.69133561232E+01 -0.34472340010E+01  0.96121589635E+01  0.00000000000E+00 0.  1.
</event>
<event>
 8    1  0.1351543E-013  0.7246157E+02  0.7816164E-02  0.1226708E+00
        -11   -1    0    0    0    0  0.00000000000E+00  0.00000000000E+00  0.45593999997E+02  0.45594000000E+02  0.51100000000E-03 0.  1.
         11   -1    0    0    0    0 -0.00000000000E+00 -0.00000000000E+00 -0.45593999997E+02  0.45594000000E+02  0.51100000000E-03 0. -1.
    9900012    2    1    2    0    0 -0.10214512583E+02  0.59665374817E+01  0.14517000930E+02  0.72461570740E+02  0.70000000581E+02 0.  0.
        -24    2    3    3    0    0 -0.54090737950E+00  0.11050333048E+02 -0.46710444744E+00  0.53915761801E+02  0.52766359953E+02 0.  0.
         12    1    1    2    0    0  0.10214512583E+02 -0.59665374817E+01 -0.14517000930E+02  0.18726429260E+02  0.00000000000E+00 0. -1.
         11    1    4    4    0    0  0.99004996141E+00  0.31877556617E+02 -0.56722982613E+01  0.32393421904E+02  0.51100000000E-03 0. -1.
        -11    1    3    3    0    0 -0.96736052034E+01 -0.50837955663E+01  0.14984105377E+02  0.18545808939E+02  0.51100000000E-03 0.  1.
        -12    1    4    4    0    0 -0.15309573409E+01 -0.20827223569E+02  0.52051938139E+01  0.21522339897E+02  0.00000000000E+00 0.  1.
</event>
<event>
 7    1  0.1351543E-013  0.7246144E+02  0.7816164E-02  0.1226708E+00
        -11   -1    0    0    0    0  0.00000000000E+00  0.00000000000E+00  0.45593999997E+02  0.45594000000E+02  0.51100000000E-03 0. -1.
         11   -1    0    0    0    0 -0.00000000000E+00 -0.00000000000E+00 -0.45593999997E+02  0.45594000000E+02  0.51100000000E-03 0.  1.
    9900012    2    1    2    0    0 -0.18717717591E+02 -0.47995517121E+00  0.31750109105E+00  0.72461438230E+02  0.69999827962E+02 0.  0.
         12    1    1    2    0    0  0.18717717591E+02  0.47995517121E+00 -0.31750109105E+00  0.18726561770E+02  0.00000000000E+00 0. -1.
         11    1    3    3    0    0 -0.50023739174E+01  0.32522288835E+02 -0.34002811716E+01  0.33079977754E+02  0.51100000000E-03 0. -1.
        -11    1    3    3    0    0 -0.63604766233E+01 -0.18207110936E+01 -0.18370714870E+01  0.68662568894E+01  0.51100000000E-03 0.  1.
         12    1    3    3    0    0 -0.73548670502E+01 -0.31181532913E+02  0.55548537497E+01  0.32515203587E+02  0.00000000000E+00 0. -1.
</event>
<event>
 7    1  0.1351543E-013  0.7246160E+02  0.7816164E-02  0.1226708E+00
        -11   -1    0    0    0    0  0.00000000000E+00  0.00000000000E+00  0.45593999997E+02  0.45594000000E+02  0.51100000000E-03 0.  1.
         11   -1    0    0    0    0 -0.00000000000E+00 -0.00000000000E+00 -0.45593999997E+02  0.45594000000E+02  0.51100000000E-03 0. -1.
    9900012    2    1    2    0    0 -0.88791971589E+01  0.91255791556E+01  0.13731780349E+02  0.72461598086E+02  0.70000036203E+02 0.  0.
         12    1    1    2    0    0  0.88791971589E+01 -0.91255791556E+01 -0.13731780349E+02  0.18726401914E+02  0.00000000000E+00 0. -1.
         11    1    3    3    0    0  0.13143943218E+02 -0.20894818312E+02 -0.52112864918E+01  0.25229232703E+02  0.51100000000E-03 0. -1.
        -11    1    3    3    0    0 -0.17040490048E+02  0.11454012683E+02  0.19050330391E+02  0.28008709286E+02  0.51100000000E-03 0.  1.
        -12    1    3    3    0    0 -0.49826503284E+01  0.18566384785E+02 -0.10726355031E+00  0.19223656097E+02  0.00000000000E+00 0.  1.
</event>
<event>
 7    1  0.1351543E-013  0.7246159E+02  0.7816164E-02  0.1226708E+00
        -11   -1    0    0    0    0  0.00000000000E+00  0.00000000000E+00  0.45593999997E+02  0.45594000000E+02  0.51100000000E-03 0.  1.
         11   -1    0    0    0    0 -0.00000000000E+00 -0.00000000000E+00 -0.45593999997E+02  0.45594000000E+02  0.51100000000E-03 0. -1.
    9900012    2    1    2    0    0 -0.50928765715E+01 -0.16172117808E+02  0.79500634419E+01  0.72461593647E+02  0.70000030421E+02 0.  0.
         12    1    1    2    0    0  0.50928765715E+01  0.16172117808E+02 -0.79500634419E+01  0.18726406353E+02  0.00000000000E+00 0. -1.
         11    1    3    3    0    0  0.82317056226E+01 -0.24143597916E+02 -0.12264950949E+02  0.28303768651E+02  0.51100000000E-03 0. -1.
        -11    1    3    3    0    0 -0.75241057443E+00  0.64015991939E+01  0.28368264393E+02  0.29091322054E+02  0.51100000000E-03 0.  1.
        -12    1    3    3    0    0 -0.12572171620E+02  0.15698809138E+01 -0.81532500020E+01  0.15066502942E+02  0.00000000000E+00 0.  1.
</event>
<event>
 7    1  0.1351543E-013  0.7246157E+02  0.7816164E-02  0.1226708E+00
        -11   -1    0    0    0    0  0.00000000000E+00  0.00000000000E+00  0.45593999997E+02  0.45594000000E+02  0.51100000000E-03 0.  1.
         11   -1    0    0    0    0 -0.00000000000E+00 -0.00000000000E+00 -0.45593999997E+02  0.45594000000E+02  0.51100000000E-03 0. -1.
    9900012    2    1    2    0    0  0.90772575966E+01  0.14760327564E+02  0.71003618964E+01  0.72461574438E+02  0.70000005397E+02 0.  0.
         12    1    1    2    0    0 -0.90772575966E+01 -0.14760327564E+02 -0.71003618964E+01  0.18726425562E+02  0.00000000000E+00 0. -1.
         11    1    3    3    0    0 -0.17239814418E+02  0.28380582437E+02  0.21891886613E+01  0.33278539750E+02  0.51100000000E-03 0.  1.
        -11    1    3    3    0    0  0.21977303622E+02 -0.13110464810E+02 -0.69707200736E+01  0.26523142737E+02  0.51100000000E-03 0. -1.
         12    1    3    3    0    0  0.43397683927E+01 -0.50979006306E+00  0.11881893309E+02  0.12659891951E+02  0.00000000000E+00 0. -1.
</event>
<event>
 7    1  0.1351543E-013  0.7246158E+02  0.7816164E-02  0.1226708E+00
        -11   -1    0    0    0    0  0.00000000000E+00  0.00000000000E+00  0.45593999997E+02  0.45594000000E+02  0.51100000000E-03 0.  1.
         11   -1    0    0    0    0 -0.00000000000E+00 -0.00000000000E+00 -0.45593999997E+02  0.45594000000E+02  0.51100000000E-03 0. -1.
    9900012    2    1    2    0    0  0.15478619899E+02  0.91958223794E+01  0.51505265199E+01  0.72461581586E+02  0.70000014709E+02 0.  0.
         12    1    1    2    0    0 -0.15478619899E+02 -0.91958223794E+01 -0.51505265199E+01  0.18726418414E+02  0.00000000000E+00 0. -1.
         11    1    3    3    0    0 -0.35075030753E+01 -0.18676101286E+02 -0.71765311384E+01  0.20312605360E+02  0.51100000000E-03 0.  1.
        -11    1    3    3    0    0  0.21761961945E+01  0.32764743046E+02  0.10833477339E+02  0.34577860666E+02  0.51100000000E-03 0. -1.
        -12    1    3    3    0    0  0.16809926779E+02 -0.48928193801E+01  0.14935803196E+01  0.17571115559E+02  0.00000000000E+00 0.  1.
</event>
<event>
 7    1  0.1351543E-013  0.7246155E+02  0.7816164E-02  0.1226708E+00
        -11   -1    0    0    0    0  0.00000000000E+00  0.00000000000E+00  0.45593999997E+02  0.45594000000E+02  0.51100000000E-03 0.  1.
         11   -1    0    0    0    0 -0.00000000000E+00 -0.00000000000E+00 -0.45593999997E+02  0.45594000000E+02  0.51100000000E-03 0. -1.
    9900012    2    1    2    0    0  0.22766741184E+01  0.18028860854E+02  0.45229413668E+01  0.72461546323E+02  0.69999968773E+02 0.  0.
         12    1    1    2    0    0 -0.22766741184E+01 -0.18028860854E+02 -0.45229413668E+01  0.18726453677E+02  0.00000000000E+00 0. -1.
         11    1    3    3    0    0 -0.17550433717E+02  0.15221554501E+02 -0.24370436306E+02  0.33669446255E+02  0.51100000000E-03 0. -1.
        -11    1    3    3    0    0  0.63693125313E+00 -0.23142873469E+00  0.14736951559E+02  0.14752524604E+02  0.51100000000E-03 0.  1.
         12    1    3    3    0    0  0.19190176582E+02  0.30387350870E+01  0.14156426114E+02  0.24039575464E+02  0.00000000000E+00 0. -1.
</event>
<event>
 7    1  0.1351543E-013  0.7246175E+02  0.7816164E-02  0.1226708E+00
        -11   -1    0    0    0    0  0.00000000000E+00  0.00000000000E+00  0.45593999997E+02  0.45594000000E+02  0.51100000000E-03 0.  1.
         11   -1    0    0    0    0 -0.00000000000E+00 -0.00000000000E+00 -0.45593999997E+02  0.45594000000E+02  0.51100000000E-03 0. -1.
    9900012    2    1    2    0    0 -0.10124002204E+02  0.86406757794E+01  0.13172534490E+02  0.72461752019E+02  0.70000236730E+02 0.  0.
         12    1    1    2    0    0  0.10124002204E+02 -0.86406757794E+01 -0.13172534490E+02  0.18726247981E+02  0.00000000000E+00 0. -1.
         11    1    3    3    0    0  0.12656496307E+02  0.15978707414E+02 -0.12108386709E+01  0.20419895199E+02  0.51100000000E-03 0.  1.
        -11    1    3    3    0    0 -0.19432439400E+02 -0.23700929351E+02  0.17136903031E+02  0.35114487023E+02  0.51100000000E-03 0. -1.
         12    1    3    3    0    0 -0.33480591113E+01  0.16362897717E+02 -0.27535298696E+01  0.16927369797E+02  0.00000000000E+00 0. -1.
</event>
<event>
 7    1  0.1351543E-013  0.7246154E+02  0.7816164E-02  0.1226708E+00
        -11   -1    0    0    0    0  0.00000000000E+00  0.00000000000E+00  0.45593999997E+02  0.45594000000E+02  0.51100000000E-03 0.  1.
         11   -1    0    0    0    0 -0.00000000000E+00 -0.00000000000E+00 -0.45593999997E+02  0.45594000000E+02  0.51100000000E-03 0. -1.
    9900012    2    1    2    0    0 -0.96111066403E+01 -0.99161450508E+01  0.12648199984E+02  0.72461541009E+02  0.69999961850E+02 0.  0.
         12    1    1    2    0    0  0.96111066403E+01  0.99161450508E+01 -0.12648199984E+02  0.18726458991E+02  0.00000000000E+00 0. -1.
         11    1    3    3    0    0 -0.78089875804E+01  0.16384400027E+02  0.41103489689E+00  0.18154828593E+02  0.51100000000E-03 0. -1.
        -11    1    3    3    0    0 -0.17347211648E+02 -0.27127489088E+02 -0.32308609898E+01  0.32361472142E+02  0.51100000000E-03 0.  1.
        -12    1    3    3    0    0  0.15545092588E+02  0.82694401036E+00  0.15468026077E+02  0.21945240274E+02  0.00000000000E+00 0.  1.
</event>
<event>
 7    1  0.1351543E-013  0.7246153E+02  0.7816164E-02  0.1226708E+00
        -11   -1    0    0    0    0  0.00000000000E+00  0.00000000000E+00  0.45593999997E+02  0.45594000000E+02  0.51100000000E-03 0.  1.
         11   -1    0    0    0    0 -0.00000000000E+00 -0.00000000000E+00 -0.45593999997E+02  0.45594000000E+02  0.51100000000E-03 0. -1.
    9900012    2    1    2    0    0  0.13934562272E+02 -0.85100797723E+01  0.91699112606E+01  0.72461527936E+02  0.69999944820E+02 0.  0.
         12    1    1    2    0    0 -0.13934562272E+02  0.85100797723E+01 -0.91699112606E+01  0.18726472064E+02  0.00000000000E+00 0. -1.
         11    1    3    3    0    0  0.82260905347E+01  0.14565358512E+02 -0.17286635701E+02  0.24055062007E+02  0.51100000000E-03 0. -1.
        -11    1    3    3    0    0  0.81602012300E+01 -0.13573458015E+02 -0.40610502829E+01  0.16349916705E+02  0.51100000000E-03 0.  1.
         12    1    3    3    0    0 -0.24517294929E+01 -0.95019802688E+01  0.30517597245E+02  0.32056549223E+02  0.00000000000E+00 0. -1.
</event>
<event>
 7    1  0.1351543E-013  0.7246156E+02  0.7816164E-02  0.1226708E+00
        -11   -1    0    0    0    0  0.00000000000E+00  0.00000000000E+00  0.45593999997E+02  0.45594000000E+02  0.51100000000E-03 0.  1.
         11   -1    0    0    0    0 -0.00000000000E+00 -0.00000000000E+00 -0.45593999997E+02  0.45594000000E+02  0.51100000000E-03 0. -1.
    9900012    2    1    2    0    0  0.94080760309E+01  0.15921282527E+02  0.29462789448E+01  0.72461556357E+02  0.69999981844E+02 0.  0.
         12    1    1    2    0    0 -0.94080760309E+01 -0.15921282527E+02 -0.29462789448E+01  0.18726443643E+02  0.00000000000E+00 0. -1.
         11    1    3    3    0    0  0.19038749163E+02 -0.18255336958E+02  0.19466843280E+02  0.32782453915E+02  0.51100000000E-03 0.  1.
        -11    1    3    3    0    0 -0.86610691750E+00  0.10879661320E+02 -0.28457240531E+01  0.11278976783E+02  0.51100000000E-03 0. -1.
         12    1    3    3    0    0 -0.87645662147E+01  0.23296958165E+02 -0.13674840282E+02  0.28400125658E+02  0.00000000000E+00 0. -1.
</event>
<event>
 7    1  0.1351543E-013  0.7246156E+02  0.7816164E-02  0.1226708E+00
        -11   -1    0    0    0    0  0.00000000000E+00  0.00000000000E+00  0.45593999997E+02  0.45594000000E+02  0.51100000000E-03 0. -1.
         11   -1    0    0    0    0 -0.00000000000E+00 -0.00000000000E+00 -0.45593999997E+02  0.45594000000E+02  0.51100000000E-03 0.  1.
    9900012    2    1    2    0    0 -0.17335119764E+02  0.69559497351E+01  0.13370972906E+01  0.72461562990E+02  0.69999990484E+02 0.  0.
         12    1    1    2    0    0  0.17335119764E+02 -0.69559497351E+01 -0.13370972906E+01  0.18726437010E+02  0.00000000000E+00 0. -1.
         11    1    3    3    0    0 -0.12356463400E+02  0.15492249281E+02  0.32160053375E+02  0.37775137444E+02  0.51100000000E-03 0. -1.
        -11    1    3    3    0    0 -0.63328767497E+01  0.50426427623E+00 -0.89080160585E+01  0.10941314398E+02  0.51100000000E-03 0.  1.
         12    1    3    3    0    0  0.13542203865E+01 -0.90405638224E+01 -0.21914940026E+02  0.23745111148E+02  0.00000000000E+00 0. -1.
</event>
<event>
 7    1  0.1351543E-013  0.7246157E+02  0.7816164E-02  0.1226708E+00
        -11   -1    0    0    0    0  0.00000000000E+00  0.00000000000E+00  0.45593999997E+02  0.45594000000E+02  0.51100000000E-03 0. -1.
         11   -1    0    0    0    0 -0.00000000000E+00 -0.00000000000E+00 -0.45593999997E+02  0.45594000000E+02  0.51100000000E-03 0.  1.
    9900012    2    1    2    0    0 -0.14570391054E+02  0.83254044376E+01 -0.83108600225E+01  0.72461573517E+02  0.70000004198E+02 0.  0.
         12    1    1    2    0    0  0.14570391054E+02 -0.83254044376E+01  0.83108600225E+01  0.18726426483E+02  0.00000000000E+00 0. -1.
         11    1    3    3    0    0 -0.15066309848E+02  0.27283093273E+02 -0.45935852340E+01  0.31503363257E+02  0.51100000000E-03 0. -1.
        -11    1    3    3    0    0  0.15491937710E+02 -0.17219559086E+02 -0.91634173378E+01  0.24909467411E+02  0.51100000000E-03 0.  1.
        -12    1    3    3    0    0 -0.14996018916E+02 -0.17381297490E+01  0.54461425492E+01  0.16048742849E+02  0.00000000000E+00 0.  1.
</event>
<event>
 7    1  0.1351543E-013  0.7246155E+02  0.7816164E-02  0.1226708E+00
        -11   -1    0    0    0    0  0.00000000000E+00  0.00000000000E+00  0.45593999997E+02  0.45594000000E+02  0.51100000000E-03 0.  1.
         11   -1    0    0    0    0 -0.00000000000E+00 -0.00000000000E+00 -0.45593999997E+02  0.45594000000E+02  0.51100000000E-03 0. -1.
    9900012    2    1    2    0    0 -0.15654466756E+02 -0.10232523258E+02 -0.95550493311E+00  0.72461552090E+02  0.69999976285E+02 0.  0.
         12    1    1    2    0    0  0.15654466756E+02  0.10232523258E+02  0.95550493311E+00  0.18726447910E+02  0.00000000000E+00 0. -1.
         11    1    3    3    0    0  0.68613441539E+01 -0.10131428605E+02 -0.25614372493E+02  0.28386968272E+02  0.51100000000E-03 0. -1.
        -11    1    3    3    0    0 -0.52360491427E+01 -0.13039651502E+02  0.14585281815E+02  0.20252880481E+02  0.51100000000E-03 0.  1.
         12    1    3    3    0    0 -0.17279761768E+02  0.12938556849E+02  0.10073585745E+02  0.23821703337E+02  0.00000000000E+00 0. -1.
</event>
<event>
 7    1  0.1351543E-013  0.7246159E+02  0.7816164E-02  0.1226708E+00
        -11   -1    0    0    0    0  0.00000000000E+00  0.00000000000E+00  0.45593999997E+02  0.45594000000E+02  0.51100000000E-03 0. -1.
         11   -1    0    0    0    0 -0.00000000000E+00 -0.00000000000E+00 -0.45593999997E+02  0.45594000000E+02  0.51100000000E-03 0.  1.
    9900012    2    1    2    0    0 -0.13061716843E+02  0.12761473265E+02  0.41490730096E+01  0.72461589409E+02  0.70000024901E+02 0.  0.
         12    1    1    2    0    0  0.13061716843E+02 -0.12761473265E+02 -0.41490730096E+01  0.18726410591E+02  0.00000000000E+00 0. -1.
         11    1    3    3    0    0 -0.18636980444E+02 -0.13281797358E+02 -0.53404134238E+01  0.23500280784E+02  0.51100000000E-03 0. -1.
        -11    1    3    3    0    0  0.14828011315E+02  0.99339700117E+00 -0.81576690925E+01  0.16953003345E+02  0.51100000000E-03 0.  1.
         12    1    3    3    0    0 -0.92527477135E+01  0.25049873622E+02  0.17647155526E+02  0.32008305280E+02  0.00000000000E+00 0. -1.
</event>
<event>
 7    1  0.1351543E-013  0.7246151E+02  0.7816164E-02  0.1226708E+00
        -11   -1    0    0    0    0  0.00000000000E+00  0.00000000000E+00  0.45593999997E+02  0.45594000000E+02  0.51100000000E-03 0.  1.
         11   -1    0    0    0    0 -0.00000000000E+00 -0.00000000000E+00 -0.45593999997E+02  0.45594000000E+02  0.51100000000E-03 0. -1.
    9900012    2    1    2    0    0  0.18915720982E+01 -0.13284139371E+02 -0.13062734223E+02  0.72461509960E+02  0.69999921404E+02 0.  0.
         12    1    1    2    0    0 -0.18915720982E+01  0.13284139371E+02  0.13062734223E+02  0.18726490040E+02  0.00000000000E+00 0. -1.
         11    1    3    3    0    0  0.83298304889E+01  0.15868834742E+02  0.20308057322E+01  0.18036911161E+02  0.51100000000E-03 0. -1.
        -11    1    3    3    0    0 -0.21221670027E+02 -0.17538428750E+02  0.37751693275E+01  0.27788624750E+02  0.51100000000E-03 0.  1.
         12    1    3    3    0    0  0.14783411637E+02 -0.11614545363E+02 -0.18868709282E+02  0.26635974050E+02  0.00000000000E+00 0. -1.
</event>
<event>
 7    1  0.1351543E-013  0.7246156E+02  0.7816164E-02  0.1226708E+00
        -11   -1    0    0    0    0  0.00000000000E+00  0.00000000000E+00  0.45593999997E+02  0.45594000000E+02  0.51100000000E-03 0. -1.
         11   -1    0    0    0    0 -0.00000000000E+00 -0.00000000000E+00 -0.45593999997E+02  0.45594000000E+02  0.51100000000E-03 0.  1.
    9900012    2    1    2    0    0 -0.12725104683E+01 -0.17807922683E+02 -0.56513954346E+01  0.72461557104E+02  0.69999982817E+02 0.  0.
         12    1    1    2    0    0  0.12725104683E+01  0.17807922683E+02  0.56513954346E+01  0.18726442896E+02  0.00000000000E+00 0. -1.
         11    1    3    3    0    0 -0.37986823636E+01  0.14909068722E+02  0.23912438408E+01  0.15570111278E+02  0.51100000000E-03 0. -1.
        -11    1    3    3    0    0 -0.14614815616E+02 -0.29039583901E+02 -0.17554101813E+02  0.36946403875E+02  0.51100000000E-03 0.  1.
        -12    1    3    3    0    0  0.17140987511E+02 -0.36774075042E+01  0.95114625375E+01  0.19945041950E+02  0.00000000000E+00 0.  1.
</event>
<event>
 7    1  0.1351543E-013  0.7246157E+02  0.7816164E-02  0.1226708E+00
        -11   -1    0    0    0    0  0.00000000000E+00  0.00000000000E+00  0.45593999997E+02  0.45594000000E+02  0.51100000000E-03 0.  1.
         11   -1    0    0    0    0 -0.00000000000E+00 -0.00000000000E+00 -0.45593999997E+02  0.45594000000E+02  0.51100000000E-03 0. -1.
    9900012    2    1    2    0    0  0.30290660997E+01  0.29618776993E+01  0.18240917372E+02  0.72461574086E+02  0.70000004939E+02 0.  0.
         12    1    1    2    0    0 -0.30290660997E+01 -0.29618776993E+01 -0.18240917372E+02  0.18726425914E+02  0.00000000000E+00 0. -1.
         11    1    3    3    0    0  0.60313069631E+01 -0.10280450339E+02 -0.16111032349E+02  0.20040700748E+02  0.51100000000E-03 0. -1.
        -11    1    3    3    0    0 -0.19569200524E+02  0.11987138516E+02  0.18858545750E+02  0.29703364237E+02  0.51100000000E-03 0.  1.
        -12    1    3    3    0    0  0.16566959660E+02  0.12551895222E+01  0.15493403971E+02  0.22717509101E+02  0.00000000000E+00 0.  1.
</event>
<event>
 7    1  0.1351543E-013  0.7246162E+02  0.7816164E-02  0.1226708E+00
        -11   -1    0    0    0    0  0.00000000000E+00  0.00000000000E+00  0.45593999997E+02  0.45594000000E+02  0.51100000000E-03 0.  1.
         11   -1    0    0    0    0 -0.00000000000E+00 -0.00000000000E+00 -0.45593999997E+02  0.45594000000E+02  0.51100000000E-03 0. -1.
    9900012    2    1    2    0    0  0.16116762192E+02  0.94085457338E+01 -0.15513167332E+01  0.72461619143E+02  0.70000063635E+02 0.  0.
         12    1    1    2    0    0 -0.16116762192E+02 -0.94085457338E+01  0.15513167332E+01  0.18726380857E+02  0.00000000000E+00 0. -1.
         11    1    3    3    0    0 -0.14976398752E+02 -0.38776336776E+01 -0.19295348320E+02  0.24731336995E+02  0.51100000000E-03 0. -1.
        -11    1    3    3    0    0  0.16294448223E+02  0.17243410459E+02 -0.72466146958E+00  0.23735403550E+02  0.51100000000E-03 0.  1.
         12    1    3    3    0    0  0.14798712721E+02 -0.39572310479E+01  0.18468693056E+02  0.23994878599E+02  0.00000000000E+00 0. -1.
</event>
<event>
 7    1  0.1351543E-013  0.7246167E+02  0.7816164E-02  0.1226708E+00
        -11   -1    0    0    0    0  0.00000000000E+00  0.00000000000E+00  0.45593999997E+02  0.45594000000E+02  0.51100000000E-03 0. -1.
         11   -1    0    0    0    0 -0.00000000000E+00 -0.00000000000E+00 -0.45593999997E+02  0.45594000000E+02  0.51100000000E-03 0.  1.
    9900012    2    1    2    0    0 -0.55580093220E+01  0.14409997854E+02 -0.10589423605E+02  0.72461670994E+02  0.70000131180E+02 0.  0.
         12    1    1    2    0    0  0.55580093220E+01 -0.14409997854E+02  0.10589423605E+02  0.18726329006E+02  0.00000000000E+00 0. -1.
         11    1    3    3    0    0 -0.25873701048E+02 -0.11306024339E+02  0.28165792422E+01  0.28376182110E+02  0.51100000000E-03 0. -1.
        -11    1    3    3    0    0 -0.27639648209E+01  0.15405550667E+02 -0.39728266611E+00  0.15656574551E+02  0.51100000000E-03 0.  1.
         12    1    3    3    0    0  0.23079656547E+02  0.10310471525E+02 -0.13008720181E+02  0.28428914333E+02  0.00000000000E+00 0. -1.
</event>
<event>
 7    1  0.1351543E-013  0.7246156E+02  0.7816164E-02  0.1226708E+00
        -11   -1    0    0    0    0  0.00000000000E+00  0.00000000000E+00  0.45593999997E+02  0.45594000000E+02  0.51100000000E-03 0.  1.
         11   -1    0    0    0    0 -0.00000000000E+00 -0.00000000000E+00 -0.45593999997E+02  0.45594000000E+02  0.51100000000E-03 0. -1.
    9900012    2    1    2    0    0  0.99340548243E+01 -0.15090041575E+02  0.49279555022E+01  0.72461560257E+02  0.69999986925E+02 0.  0.
         12    1    1    2    0    0 -0.99340548243E+01  0.15090041575E+02 -0.49279555022E+01  0.18726439743E+02  0.00000000000E+00 0. -1.
         11    1    3    3    0    0  0.51140211296E+01 -0.43627164003E+01 -0.10733754107E+02  0.12664911528E+02  0.51100000000E-03 0. -1.
        -11    1    3    3    0    0  0.15006415530E+02  0.60243514840E+01  0.30960016617E+02  0.34928612155E+02  0.51100000000E-03 0.  1.
        -12    1    3    3    0    0 -0.10186381835E+02 -0.16751676659E+02 -0.15298307008E+02  0.24868036575E+02  0.00000000000E+00 0.  1.
</event>
<event>
 7    1  0.1351543E-013  0.7246143E+02  0.7816164E-02  0.1226708E+00
        -11   -1    0    0    0    0  0.00000000000E+00  0.00000000000E+00  0.45593999997E+02  0.45594000000E+02  0.51100000000E-03 0.  1.
         11   -1    0    0    0    0 -0.00000000000E+00 -0.00000000000E+00 -0.45593999997E+02  0.45594000000E+02  0.51100000000E-03 0. -1.
    9900012    2    1    2    0    0 -0.32664737309E+01  0.10318074717E+02  0.15282406667E+02  0.72461428770E+02  0.69999815638E+02 0.  0.
         12    1    1    2    0    0  0.32664737309E+01 -0.10318074717E+02 -0.15282406667E+02  0.18726571230E+02  0.00000000000E+00 0. -1.
         11    1    3    3    0    0 -0.12137006944E+02 -0.15729218379E+02  0.15496553092E+02  0.25196396694E+02  0.51100000000E-03 0. -1.
        -11    1    3    3    0    0  0.22977879467E+02  0.20473710465E+02 -0.53768563501E+01  0.31242060583E+02  0.51100000000E-03 0.  1.
         12    1    3    3    0    0 -0.14107346254E+02  0.55735826314E+01  0.51627099245E+01  0.16022971493E+02  0.00000000000E+00 0. -1.
</event>
<event>
 7    1  0.1351543E-013  0.7246158E+02  0.7816164E-02  0.1226708E+00
        -11   -1    0    0    0    0  0.00000000000E+00  0.00000000000E+00  0.45593999997E+02  0.45594000000E+02  0.51100000000E-03 0.  1.
         11   -1    0    0    0    0 -0.00000000000E+00 -0.00000000000E+00 -0.45593999997E+02  0.45594000000E+02  0.51100000000E-03 0. -1.
    9900012    2    1    2    0    0 -0.89224297182E+01  0.16062284659E+02  0.36155527402E+01  0.72461575831E+02  0.70000007213E+02 0.  0.
         12    1    1    2    0    0  0.89224297182E+01 -0.16062284659E+02 -0.36155527402E+01  0.18726424169E+02  0.00000000000E+00 0. -1.
         11    1    3    3    0    0 -0.87720772621E+01  0.30360897756E+02 -0.19842181894E+02  0.37315487865E+02  0.51100000000E-03 0. -1.
        -11    1    3    3    0    0 -0.95555786648E+01 -0.12014897938E+02  0.91474747805E+01  0.17870174907E+02  0.51100000000E-03 0.  1.
        -12    1    3    3    0    0  0.94052262087E+01 -0.22837151592E+01  0.14310259853E+02  0.17275913060E+02  0.00000000000E+00 0.  1.
</event>
<event>
 7    1  0.1351543E-013  0.7246161E+02  0.7816164E-02  0.1226708E+00
        -11   -1    0    0    0    0  0.00000000000E+00  0.00000000000E+00  0.45593999997E+02  0.45594000000E+02  0.51100000000E-03 0.  1.
         11   -1    0    0    0    0 -0.00000000000E+00 -0.00000000000E+00 -0.45593999997E+02  0.45594000000E+02  0.51100000000E-03 0. -1.
    9900012    2    1    2    0    0  0.12796016410E+01  0.18561283640E+02  0.21258098355E+01  0.72461609580E+02  0.70000051177E+02 0.  0.
         12    1    1    2    0    0 -0.12796016410E+01 -0.18561283640E+02 -0.21258098355E+01  0.18726390420E+02  0.00000000000E+00 0. -1.
         11    1    3    3    0    0 -0.36237013220E+01 -0.24989551024E+02  0.93166297824E+01  0.26914837217E+02  0.51100000000E-03 0. -1.
        -11    1    3    3    0    0  0.11520341053E+01  0.24078768122E+02  0.91564915917E+00  0.24123695208E+02  0.51100000000E-03 0.  1.
         12    1    3    3    0    0  0.37512688577E+01  0.19472066542E+02 -0.81064691061E+01  0.21423077156E+02  0.00000000000E+00 0. -1.
</event>
<event>
 7    1  0.1351543E-013  0.7246154E+02  0.7816164E-02  0.1226708E+00
        -11   -1    0    0    0    0  0.00000000000E+00  0.00000000000E+00  0.45593999997E+02  0.45594000000E+02  0.51100000000E-03 0.  1.
         11   -1    0    0    0    0 -0.00000000000E+00 -0.00000000000E+00 -0.45593999997E+02  0.45594000000E+02  0.51100000000E-03 0. -1.
    9900012    2    1    2    0    0  0.45015016190E+01 -0.58400191650E+01  0.17213684232E+02  0.72461541031E+02  0.69999961879E+02 0.  0.
         12    1    1    2    0    0 -0.45015016190E+01  0.58400191650E+01 -0.17213684232E+02  0.18726458969E+02  0.00000000000E+00 0. -1.
         11    1    3    3    0    0  0.14370858761E+02  0.13502876565E+02  0.93233955186E+01  0.21812266304E+02  0.51100000000E-03 0. -1.
        -11    1    3    3    0    0 -0.23804690731E+02 -0.11498563836E+02  0.17768547424E+02  0.31852810691E+02  0.51100000000E-03 0.  1.
         12    1    3    3    0    0  0.13935333589E+02 -0.78443318941E+01 -0.98782587106E+01  0.18796464036E+02  0.00000000000E+00 0. -1.
</event>
<event>
 7    1  0.1351543E-013  0.7246156E+02  0.7816164E-02  0.1226708E+00
        -11   -1    0    0    0    0  0.00000000000E+00  0.00000000000E+00  0.45593999997E+02  0.45594000000E+02  0.51100000000E-03 0. -1.
         11   -1    0    0    0    0 -0.00000000000E+00 -0.00000000000E+00 -0.45593999997E+02  0.45594000000E+02  0.51100000000E-03 0.  1.
    9900012    2    1    2    0    0 -0.17460343263E+02  0.64025097091E+01 -0.21963519577E+01  0.72461556682E+02  0.69999982267E+02 0.  0.
         12    1    1    2    0    0  0.17460343263E+02 -0.64025097091E+01  0.21963519577E+01  0.18726443318E+02  0.00000000000E+00 0. -1.
         11    1    3    3    0    0 -0.59234289970E+01  0.21115553310E+02  0.15585010157E+02  0.26904388945E+02  0.51100000000E-03 0. -1.
        -11    1    3    3    0    0 -0.54180846172E+01 -0.12920860047E+02 -0.29251616942E+02  0.32433953802E+02  0.51100000000E-03 0.  1.
        -12    1    3    3    0    0 -0.61188296488E+01 -0.17921835540E+01  0.11470254827E+02  0.13123213934E+02  0.00000000000E+00 0.  1.
</event>
<event>
 7    1  0.1351543E-013  0.7246156E+02  0.7816164E-02  0.1226708E+00
        -11   -1    0    0    0    0  0.00000000000E+00  0.00000000000E+00  0.45593999997E+02  0.45594000000E+02  0.51100000000E-03 0.  1.
         11   -1    0    0    0    0 -0.00000000000E+00 -0.00000000000E+00 -0.45593999997E+02  0.45594000000E+02  0.51100000000E-03 0. -1.
    9900012    2    1    2    0    0  0.34350716123E+01 -0.13112330064E+02  0.12920787489E+02  0.72461557038E+02  0.69999982731E+02 0.  0.
         12    1    1    2    0    0 -0.34350716123E+01  0.13112330064E+02 -0.12920787489E+02  0.18726442962E+02  0.00000000000E+00 0. -1.
         11    1    3    3    0    0  0.18307329853E+02 -0.35254355992E+01 -0.36619817528E+01  0.18999924556E+02  0.51100000000E-03 0. -1.
        -11    1    3    3    0    0 -0.23187863433E+02 -0.80022218660E+01  0.29282475610E+02  0.38199161555E+02  0.51100000000E-03 0.  1.
        -12    1    3    3    0    0  0.83156051924E+01 -0.15846725993E+01 -0.12699706369E+02  0.15262470927E+02  0.00000000000E+00 0.  1.
</event>
<event>
 7    1  0.1351543E-013  0.7246155E+02  0.7816164E-02  0.1226708E+00
        -11   -1    0    0    0    0  0.00000000000E+00  0.00000000000E+00  0.45593999997E+02  0.45594000000E+02  0.51100000000E-03 0. -1.
         11   -1    0    0    0    0 -0.00000000000E+00 -0.00000000000E+00 -0.45593999997E+02  0.45594000000E+02  0.51100000000E-03 0.  1.
    9900012    2    1    2    0    0 -0.94505437339E+01 -0.12348343154E+02 -0.10434818051E+02  0.72461553907E+02  0.69999978653E+02 0.  0.
         12    1    1    2    0    0  0.94505437339E+01  0.12348343154E+02  0.10434818051E+02  0.18726446093E+02  0.00000000000E+00 0. -1.
         11    1    3    3    0    0 -0.37109121414E+01  0.11527145010E+02 -0.19885181954E+02  0.23282319528E+02  0.51100000000E-03 0. -1.
        -11    1    3    3    0    0 -0.63364922657E+01 -0.35376900940E+02  0.10936035007E+02  0.37566915182E+02  0.51100000000E-03 0.  1.
         12    1    3    3    0    0  0.59686067317E+00  0.11501412776E+02 -0.14856711038E+01  0.11612319197E+02  0.00000000000E+00 0. -1.
</event>
<event>
 7    1  0.1351543E-013  0.7246156E+02  0.7816164E-02  0.1226708E+00
        -11   -1    0    0    0    0  0.00000000000E+00  0.00000000000E+00  0.45593999997E+02  0.45594000000E+02  0.51100000000E-03 0.  1.
         11   -1    0    0    0    0 -0.00000000000E+00 -0.00000000000E+00 -0.45593999997E+02  0.45594000000E+02  0.51100000000E-03 0. -1.
    9900012    2    1    2    0    0  0.76111333212E+01  0.83996147441E+01  0.14906260236E+02  0.72461562205E+02  0.69999989462E+02 0.  0.
         12    1    1    2    0    0 -0.76111333212E+01 -0.83996147441E+01 -0.14906260236E+02  0.18726437795E+02  0.00000000000E+00 0. -1.
         11    1    3    3    0    0  0.66285464944E+01 -0.69616628076E+01  0.28564021868E+01  0.10028031282E+02  0.51100000000E-03 0. -1.
        -11    1    3    3    0    0  0.54007336210E+01  0.32450422892E+02 -0.98181984046E+01  0.34330669812E+02  0.51100000000E-03 0.  1.
        -12    1    3    3    0    0 -0.44181467942E+01 -0.17089145341E+02  0.21868056454E+02  0.28102861111E+02  0.00000000000E+00 0.  1.
</event>
<event>
 8    1  0.1351543E-013  0.7246159E+02  0.7816164E-02  0.1226708E+00
        -11   -1    0    0    0    0  0.00000000000E+00  0.00000000000E+00  0.45593999997E+02  0.45594000000E+02  0.51100000000E-03 0.  1.
         11   -1    0    0    0    0 -0.00000000000E+00 -0.00000000000E+00 -0.45593999997E+02  0.45594000000E+02  0.51100000000E-03 0. -1.
    9900012    2    1    2    0    0  0.17897960005E+02 -0.43099005109E+01  0.34302007340E+01  0.72461588388E+02  0.70000023571E+02 0.  0.
        -24    2    3    3    0    0  0.10310997088E+02  0.48531331952E+01 -0.12662049661E+02  0.52449499141E+02  0.49605976412E+02 0.  0.
         12    1    1    2    0    0 -0.17897960005E+02  0.43099005109E+01 -0.34302007340E+01  0.18726411612E+02  0.00000000000E+00 0. -1.
         11    1    4    4    0    0  0.22090056091E+02  0.17966574581E+01 -0.26153093460E+02  0.34280940097E+02  0.51100000000E-03 0. -1.
        -11    1    3    3    0    0  0.75869629176E+01 -0.91630337061E+01  0.16092250395E+02  0.20012089248E+02  0.51100000000E-03 0.  1.
        -12    1    4    4    0    0 -0.11779059003E+02  0.30564757371E+01  0.13491043799E+02  0.18168559044E+02  0.00000000000E+00 0.  1.
</event>
<event>
 7    1  0.1351543E-013  0.7246158E+02  0.7816164E-02  0.1226708E+00
        -11   -1    0    0    0    0  0.00000000000E+00  0.00000000000E+00  0.45593999997E+02  0.45594000000E+02  0.51100000000E-03 0.  1.
         11   -1    0    0    0    0 -0.00000000000E+00 -0.00000000000E+00 -0.45593999997E+02  0.45594000000E+02  0.51100000000E-03 0. -1.
    9900012    2    1    2    0    0  0.14315271447E+02  0.11415021475E+02  0.39305265380E+01  0.72461581476E+02  0.70000014566E+02 0.  0.
         12    1    1    2    0    0 -0.14315271447E+02 -0.11415021475E+02 -0.39305265380E+01  0.18726418524E+02  0.00000000000E+00 0. -1.
         11    1    3    3    0    0  0.92814233162E+00  0.16717417062E+02 -0.47479951104E+01  0.17403359999E+02  0.51100000000E-03 0. -1.
        -11    1    3    3    0    0 -0.15371135856E+02 -0.15823823979E+02  0.10396519619E+02  0.24387555090E+02  0.51100000000E-03 0.  1.
        -12    1    3    3    0    0  0.28758264972E+02  0.10521428391E+02 -0.17179979711E+01  0.30670666387E+02  0.00000000000E+00 0.  1.
</event>
<event>
 7    1  0.1351543E-013  0.7246156E+02  0.7816164E-02  0.1226708E+00
        -11   -1    0    0    0    0  0.00000000000E+00  0.00000000000E+00  0.45593999997E+02  0.45594000000E+02  0.51100000000E-03 0. -1.
         11   -1    0    0    0    0 -0.00000000000E+00 -0.00000000000E+00 -0.45593999997E+02  0.45594000000E+02  0.51100000000E-03 0.  1.
    9900012    2    1    2    0    0  0.96218099333E+01  0.72673287549E+01 -0.14327808896E+02  0.72461564104E+02  0.69999991935E+02 0.  0.
         12    1    1    2    0    0 -0.96218099333E+01 -0.72673287549E+01  0.14327808896E+02  0.18726435896E+02  0.00000000000E+00 0. -1.
         11    1    3    3    0    0  0.29688917223E+02 -0.99499000845E+01 -0.11109291595E+02  0.33224218238E+02  0.51100000000E-03 0. -1.
        -11    1    3    3    0    0 -0.10936898402E+02 -0.58896750444E+01 -0.67579041528E+01  0.14141191166E+02  0.51100000000E-03 0.  1.
         12    1    3    3    0    0 -0.91302088870E+01  0.23106903884E+02  0.35393868516E+01  0.25096154700E+02  0.00000000000E+00 0. -1.
</event>
<event>
 7    1  0.1351543E-013  0.7246157E+02  0.7816164E-02  0.1226708E+00
        -11   -1    0    0    0    0  0.00000000000E+00  0.00000000000E+00  0.45593999997E+02  0.45594000000E+02  0.51100000000E-03 0. -1.
         11   -1    0    0    0    0 -0.00000000000E+00 -0.00000000000E+00 -0.45593999997E+02  0.45594000000E+02  0.51100000000E-03 0.  1.
    9900012    2    1    2    0    0  0.17105838905E+02  0.56654531533E+01 -0.50962908641E+01  0.72461567755E+02  0.69999996692E+02 0.  0.
         12    1    1    2    0    0 -0.17105838905E+02 -0.56654531533E+01  0.50962908641E+01  0.18726432245E+02  0.00000000000E+00 0. -1.
         11    1    3    3    0    0 -0.20017846359E+01  0.90939402564E+01  0.29918053515E+02  0.31333637157E+02  0.51100000000E-03 0. -1.
        -11    1    3    3    0    0  0.15986515292E+02  0.75568443722E+00 -0.29315732224E+02  0.33399878536E+02  0.51100000000E-03 0.  1.
         12    1    3    3    0    0  0.31211082488E+01 -0.41841715404E+01 -0.56986121550E+01  0.77280520619E+01  0.00000000000E+00 0. -1.
</event>
<event>
 7    1  0.1351543E-013  0.7246157E+02  0.7816164E-02  0.1226708E+00
        -11   -1    0    0    0    0  0.00000000000E+00  0.00000000000E+00  0.45593999997E+02  0.45594000000E+02  0.51100000000E-03 0. -1.
         11   -1    0    0    0    0 -0.00000000000E+00 -0.00000000000E+00 -0.45593999997E+02  0.45594000000E+02  0.51100000000E-03 0.  1.
    9900012    2    1    2    0    0  0.62154959690E+01  0.12109172397E+02  0.12861362972E+02  0.72461572049E+02  0.70000002286E+02 0.  0.
         12    1    1    2    0    0 -0.62154959690E+01 -0.12109172397E+02 -0.12861362972E+02  0.18726427951E+02  0.00000000000E+00 0. -1.
         11    1    3    3    0    0 -0.21896231734E+01 -0.22411511077E+02  0.11663369345E+02  0.25359504394E+02  0.51100000000E-03 0.  1.
        -11    1    3    3    0    0  0.93645675234E+01  0.22161848028E+02 -0.13727717866E+02  0.27700051823E+02  0.51100000000E-03 0. -1.
         12    1    3    3    0    0 -0.95944838099E+00  0.12358835446E+02  0.14925711493E+02  0.19402015832E+02  0.00000000000E+00 0. -1.
</event>
<event>
 7    1  0.1351543E-013  0.7246161E+02  0.7816164E-02  0.1226708E+00
        -11   -1    0    0    0    0  0.00000000000E+00  0.00000000000E+00  0.45593999997E+02  0.45594000000E+02  0.51100000000E-03 0.  1.
         11   -1    0    0    0    0 -0.00000000000E+00 -0.00000000000E+00 -0.45593999997E+02  0.45594000000E+02  0.51100000000E-03 0. -1.
    9900012    2    1    2    0    0  0.15037224877E+02  0.23006847250E+01  0.10920922288E+02  0.72461606171E+02  0.70000046736E+02 0.  0.
         12    1    1    2    0    0 -0.15037224877E+02 -0.23006847250E+01 -0.10920922288E+02  0.18726393829E+02  0.00000000000E+00 0. -1.
         11    1    3    3    0    0  0.17955258164E+02  0.40611304298E+01 -0.94814807545E+01  0.20707065308E+02  0.51100000000E-03 0. -1.
        -11    1    3    3    0    0  0.89842607311E+01 -0.51327342582E+01  0.32708006772E+02  0.34305620664E+02  0.51100000000E-03 0.  1.
        -12    1    3    3    0    0 -0.11902294018E+02  0.33722885534E+01 -0.12305603729E+02  0.17448920199E+02  0.00000000000E+00 0.  1.
</event>
<event>
 7    1  0.1351543E-013  0.7246153E+02  0.7816164E-02  0.1226708E+00
        -11   -1    0    0    0    0  0.00000000000E+00  0.00000000000E+00  0.45593999997E+02  0.45594000000E+02  0.51100000000E-03 0. -1.
         11   -1    0    0    0    0 -0.00000000000E+00 -0.00000000000E+00 -0.45593999997E+02  0.45594000000E+02  0.51100000000E-03 0.  1.
    9900012    2    1    2    0    0 -0.84137565422E+01 -0.16695710796E+02 -0.10690068226E+01  0.72461525860E+02  0.69999942115E+02 0.  0.
         12    1    1    2    0    0  0.84137565422E+01  0.16695710796E+02  0.10690068226E+01  0.18726474140E+02  0.00000000000E+00 0. -1.
         11    1    3    3    0    0 -0.66912985791E+01 -0.99919990427E+01 -0.20152497830E+01  0.12193225721E+02  0.51100000000E-03 0. -1.
        -11    1    3    3    0    0 -0.14705239932E+02  0.71857240828E+01  0.24831375047E+02  0.29740139527E+02  0.51100000000E-03 0.  1.
        -12    1    3    3    0    0  0.12982781969E+02 -0.13889435836E+02 -0.23885132087E+02  0.30528160612E+02  0.00000000000E+00 0.  1.
</event>
<event>
 7    1  0.1351543E-013  0.7246141E+02  0.7816164E-02  0.1226708E+00
        -11   -1    0    0    0    0  0.00000000000E+00  0.00000000000E+00  0.45593999997E+02  0.45594000000E+02  0.51100000000E-03 0.  1.
         11   -1    0    0    0    0 -0.00000000000E+00 -0.00000000000E+00 -0.45593999997E+02  0.45594000000E+02  0.51100000000E-03 0. -1.
    9900012    2    1    2    0    0 -0.18709995968E+02 -0.12519029949E+00  0.77805626254E+00  0.72461414799E+02  0.69999797438E+02 0.  0.
         12    1    1    2    0    0  0.18709995968E+02  0.12519029949E+00 -0.77805626254E+00  0.18726585201E+02  0.00000000000E+00 0. -1.
         11    1    3    3    0    0  0.29780499611E+01 -0.29881681083E+01 -0.21593972029E+02  0.22002217126E+02  0.51100000000E-03 0. -1.
        -11    1    3    3    0    0 -0.17481955139E+02  0.20561434374E+02  0.12214269662E+02  0.29623972094E+02  0.51100000000E-03 0.  1.
         12    1    3    3    0    0 -0.42060907908E+01 -0.17698456566E+02  0.10157758630E+02  0.20835225579E+02  0.00000000000E+00 0. -1.
</event>
<event>
 7    1  0.1351543E-013  0.7246148E+02  0.7816164E-02  0.1226708E+00
        -11   -1    0    0    0    0  0.00000000000E+00  0.00000000000E+00  0.45593999997E+02  0.45594000000E+02  0.51100000000E-03 0.  1.
         11   -1    0    0    0    0 -0.00000000000E+00 -0.00000000000E+00 -0.45593999997E+02  0.45594000000E+02  0.51100000000E-03 0. -1.
    9900012    2    1    2    0    0  0.92350922935E+01  0.83195923841E+01  0.14006429139E+02  0.72461478584E+02  0.69999880530E+02 0.  0.
         12    1    1    2    0    0 -0.92350922935E+01 -0.83195923841E+01 -0.14006429139E+02  0.18726521416E+02  0.00000000000E+00 0. -1.
         11    1    3    3    0    0 -0.64067415359E+01 -0.12933847345E+02 -0.13390310047E+02  0.19688350557E+02  0.51100000000E-03 0. -1.
        -11    1    3    3    0    0  0.92763756767E+01  0.95709919783E+01  0.34998349297E+02  0.37450493814E+02  0.51100000000E-03 0.  1.
        -12    1    3    3    0    0  0.63654581528E+01  0.11682447751E+02 -0.76016101106E+01  0.15322634213E+02  0.00000000000E+00 0.  1.
</event>
<event>
 7    1  0.1351543E-013  0.7246154E+02  0.7816164E-02  0.1226708E+00
        -11   -1    0    0    0    0  0.00000000000E+00  0.00000000000E+00  0.45593999997E+02  0.45594000000E+02  0.51100000000E-03 0. -1.
         11   -1    0    0    0    0 -0.00000000000E+00 -0.00000000000E+00 -0.45593999997E+02  0.45594000000E+02  0.51100000000E-03 0.  1.
    9900012    2    1    2    0    0 -0.18110671087E+02 -0.47551058699E+01  0.26987793723E+00  0.72461540827E+02  0.69999961613E+02 0.  0.
         12    1    1    2    0    0  0.18110671087E+02  0.47551058699E+01 -0.26987793723E+00  0.18726459173E+02  0.00000000000E+00 0. -1.
         11    1    3    3    0    0 -0.37107211395E+00 -0.30701799231E+02  0.15087795566E+02  0.34210813288E+02  0.51100000000E-03 0. -1.
        -11    1    3    3    0    0 -0.27605452806E+00  0.10525783619E+02  0.20157090564E+00  0.10531332204E+02  0.51100000000E-03 0.  1.
         12    1    3    3    0    0 -0.17463544445E+02  0.15420909742E+02 -0.15019488534E+02  0.27719395334E+02  0.00000000000E+00 0. -1.
</event>
<event>
 7    1  0.1351543E-013  0.7246170E+02  0.7816164E-02  0.1226708E+00
        -11   -1    0    0    0    0  0.00000000000E+00  0.00000000000E+00  0.45593999997E+02  0.45594000000E+02  0.51100000000E-03 0.  1.
         11   -1    0    0    0    0 -0.00000000000E+00 -0.00000000000E+00 -0.45593999997E+02  0.45594000000E+02  0.51100000000E-03 0. -1.
    9900012    2    1    2    0    0  0.43785431355E+01  0.18205677564E+02  0.23665564940E+00  0.72461699205E+02  0.70000167930E+02 0.  0.
         12    1    1    2    0    0 -0.43785431355E+01 -0.18205677564E+02 -0.23665564940E+00  0.18726300795E+02  0.00000000000E+00 0. -1.
         11    1    3    3    0    0 -0.45228749168E+01 -0.54999567308E+01  0.91888370940E+01  0.11625001030E+02  0.51100000000E-03 0.  1.
        -11    1    3    3    0    0 -0.19980379287E+01  0.39807133122E+02 -0.10830420453E+02  0.41302518209E+02  0.51100000000E-03 0. -1.
        -12    1    3    3    0    0  0.10899455981E+02 -0.16101498827E+02  0.18782390084E+01  0.19534179966E+02  0.00000000000E+00 0.  1.
</event>
<event>
 7    1  0.1351543E-013  0.7246156E+02  0.7816164E-02  0.1226708E+00
        -11   -1    0    0    0    0  0.00000000000E+00  0.00000000000E+00  0.45593999997E+02  0.45594000000E+02  0.51100000000E-03 0.  1.
         11   -1    0    0    0    0 -0.00000000000E+00 -0.00000000000E+00 -0.45593999997E+02  0.45594000000E+02  0.51100000000E-03 0. -1.
    9900012    2    1    2    0    0  0.14100896714E+02 -0.37110221551E+01  0.11750431799E+02  0.72461558239E+02  0.69999984295E+02 0.  0.
         12    1    1    2    0    0 -0.14100896714E+02  0.37110221551E+01 -0.11750431799E+02  0.18726441761E+02  0.00000000000E+00 0. -1.
         11    1    3    3    0    0  0.17357206588E+02 -0.15124280263E+01 -0.86269911105E+01  0.19441837232E+02  0.51100000000E-03 0. -1.
        -11    1    3    3    0    0 -0.22737842267E+02  0.74194131617E+01  0.20178156568E+02  0.31292413863E+02  0.51100000000E-03 0.  1.
        -12    1    3    3    0    0  0.19481532393E+02 -0.96180072905E+01  0.19926634158E+00  0.21727307143E+02  0.00000000000E+00 0.  1.
</event>
<event>
 7    1  0.1351543E-013  0.7246155E+02  0.7816164E-02  0.1226708E+00
        -11   -1    0    0    0    0  0.00000000000E+00  0.00000000000E+00  0.45593999997E+02  0.45594000000E+02  0.51100000000E-03 0. -1.
         11   -1    0    0    0    0 -0.00000000000E+00 -0.00000000000E+00 -0.45593999997E+02  0.45594000000E+02  0.51100000000E-03 0.  1.
    9900012    2    1    2    0    0  0.32885460271E+01  0.58085254554E+01 -0.17496467831E+02  0.72461551071E+02  0.69999974958E+02 0.  0.
         12    1    1    2    0    0 -0.32885460271E+01 -0.58085254554E+01  0.17496467831E+02  0.18726448929E+02  0.00000000000E+00 0. -1.
         11    1    3    3    0    0 -0.16570928642E+01 -0.18103599956E+02  0.50405898771E+01  0.18865148679E+02  0.51100000000E-03 0. -1.
        -11    1    3    3    0    0  0.82544142805E+01  0.27247537308E+02  0.20693347497E+01  0.28545503867E+02  0.51100000000E-03 0.  1.
        -12    1    3    3    0    0 -0.33087753892E+01 -0.33354118971E+01 -0.24606392458E+02  0.25050898524E+02  0.00000000000E+00 0.  1.
</event>
<event>
 7    1  0.1351543E-013  0.7246143E+02  0.7816164E-02  0.1226708E+00
        -11   -1    0    0    0    0  0.00000000000E+00  0.00000000000E+00  0.45593999997E+02  0.45594000000E+02  0.51100000000E-03 0.  1.
         11   -1    0    0    0    0 -0.00000000000E+00 -0.00000000000E+00 -0.45593999997E+02  0.45594000000E+02  0.51100000000E-03 0. -1.
    9900012    2    1    2    0    0  0.14142478140E+02 -0.74616122618E+00  0.12252261760E+02  0.72461431634E+02  0.69999819369E+02 0.  0.
         12    1    1    2    0    0 -0.14142478140E+02  0.74616122618E+00 -0.12252261760E+02  0.18726568366E+02  0.00000000000E+00 0. -1.
         11    1    3    3    0    0 -0.35534443302E+01  0.20920770351E+02 -0.16218516945E+02  0.26708535917E+02  0.51100000000E-03 0. -1.
        -11    1    3    3    0    0  0.35445014898E+01 -0.12995470134E+02  0.25574715413E+02  0.28905221043E+02  0.51100000000E-03 0.  1.
        -12    1    3    3    0    0  0.14151420980E+02 -0.86714614432E+01  0.28960632921E+01  0.16847674674E+02  0.00000000000E+00 0.  1.
</event>
<event>
 7    1  0.1351543E-013  0.7246142E+02  0.7816164E-02  0.1226708E+00
        -11   -1    0    0    0    0  0.00000000000E+00  0.00000000000E+00  0.45593999997E+02  0.45594000000E+02  0.51100000000E-03 0.  1.
         11   -1    0    0    0    0 -0.00000000000E+00 -0.00000000000E+00 -0.45593999997E+02  0.45594000000E+02  0.51100000000E-03 0. -1.
    9900012    2    1    2    0    0 -0.17750596279E+02 -0.47768969886E+01 -0.35752355171E+01  0.72461422039E+02  0.69999806870E+02 0.  0.
         12    1    1    2    0    0  0.17750596279E+02  0.47768969886E+01  0.35752355171E+01  0.18726577961E+02  0.00000000000E+00 0. -1.
         11    1    3    3    0    0 -0.31850697678E+01  0.93132164145E+01 -0.19828980214E+02  0.22137504963E+02  0.51100000000E-03 0. -1.
        -11    1    3    3    0    0 -0.23866536428E+02 -0.24054895570E+02  0.13121398760E+02  0.36337593036E+02  0.51100000000E-03 0.  1.
        -12    1    3    3    0    0  0.93010099163E+01  0.99647821666E+01  0.31323459370E+01  0.13986324040E+02  0.00000000000E+00 0.  1.
</event>
<event>
 7    1  0.1351543E-013  0.7246161E+02  0.7816164E-02  0.1226708E+00
        -11   -1    0    0    0    0  0.00000000000E+00  0.00000000000E+00  0.45593999997E+02  0.45594000000E+02  0.51100000000E-03 0.  1.
         11   -1    0    0    0    0 -0.00000000000E+00 -0.00000000000E+00 -0.45593999997E+02  0.45594000000E+02  0.51100000000E-03 0. -1.
    9900012    2    1    2    0    0 -0.40232041036E+01 -0.15792511650E+02  0.92243119793E+01  0.72461614151E+02  0.70000057131E+02 0.  0.
         12    1    1    2    0    0  0.40232041036E+01  0.15792511650E+02 -0.92243119793E+01  0.18726385849E+02  0.00000000000E+00 0. -1.
         11    1    3    3    0    0 -0.10748692669E+02  0.18622419303E+02  0.17869883896E+02  0.27958212487E+02  0.51100000000E-03 0. -1.
        -11    1    3    3    0    0 -0.55290231410E+01 -0.23724050684E+02  0.29392877610E+01  0.24536505263E+02  0.51100000000E-03 0.  1.
         12    1    3    3    0    0  0.12254511706E+02 -0.10690880269E+02 -0.11584859678E+02  0.19966896400E+02  0.00000000000E+00 0. -1.
</event>
<event>
 7    1  0.1351543E-013  0.7246157E+02  0.7816164E-02  0.1226708E+00
        -11   -1    0    0    0    0  0.00000000000E+00  0.00000000000E+00  0.45593999997E+02  0.45594000000E+02  0.51100000000E-03 0.  1.
         11   -1    0    0    0    0 -0.00000000000E+00 -0.00000000000E+00 -0.45593999997E+02  0.45594000000E+02  0.51100000000E-03 0. -1.
    9900012    2    1    2    0    0 -0.38318240381E+01 -0.18247720976E+02 -0.17369302689E+01  0.72461571536E+02  0.70000001617E+02 0.  0.
         12    1    1    2    0    0  0.38318240381E+01  0.18247720976E+02  0.17369302689E+01  0.18726428464E+02  0.00000000000E+00 0. -1.
         11    1    3    3    0    0  0.20516537188E+02  0.12951740915E+02  0.64357782567E+01  0.25101695818E+02  0.51100000000E-03 0. -1.
        -11    1    3    3    0    0 -0.17912738063E+02 -0.33560622818E+02 -0.11497095162E+02  0.39741222758E+02  0.51100000000E-03 0.  1.
         12    1    3    3    0    0 -0.64356231630E+01  0.23611609278E+01  0.33243866360E+01  0.76186529602E+01  0.00000000000E+00 0. -1.
</event>
<event>
 7    1  0.1351543E-013  0.7246098E+02  0.7816164E-02  0.1226710E+00
        -11   -1    0    0    0    0  0.00000000000E+00  0.00000000000E+00  0.45593999997E+02  0.45594000000E+02  0.51100000000E-03 0.  1.
         11   -1    0    0    0    0 -0.00000000000E+00 -0.00000000000E+00 -0.45593999997E+02  0.45594000000E+02  0.51100000000E-03 0. -1.
    9900012    2    1    2    0    0 -0.12595703336E+02  0.32772915736E+01  0.13465100434E+02  0.72460979087E+02  0.69999229838E+02 0.  0.
         12    1    1    2    0    0  0.12595703336E+02 -0.32772915736E+01 -0.13465100434E+02  0.18727020913E+02  0.00000000000E+00 0. -1.
         11    1    3    3    0    0  0.56598901420E+01  0.30631787661E+01  0.17609459346E+02  0.18748612730E+02  0.51100000000E-03 0. -1.
        -11    1    3    3    0    0 -0.48621008897E+01  0.91660427266E+01 -0.25169947761E+02  0.27224669601E+02  0.51100000000E-03 0.  1.
        -12    1    3    3    0    0 -0.13393492588E+02 -0.89519299191E+01  0.21025588849E+02  0.26487696756E+02  0.00000000000E+00 0.  1.
</event>
<event>
 7    1  0.1351543E-013  0.7246155E+02  0.7816164E-02  0.1226708E+00
        -11   -1    0    0    0    0  0.00000000000E+00  0.00000000000E+00  0.45593999997E+02  0.45594000000E+02  0.51100000000E-03 0. -1.
         11   -1    0    0    0    0 -0.00000000000E+00 -0.00000000000E+00 -0.45593999997E+02  0.45594000000E+02  0.51100000000E-03 0.  1.
    9900012    2    1    2    0    0  0.10753715277E+02 -0.10572342161E+02 -0.11102399443E+02  0.72461545866E+02  0.69999968178E+02 0.  0.
         12    1    1    2    0    0 -0.10753715277E+02  0.10572342161E+02  0.11102399443E+02  0.18726454134E+02  0.00000000000E+00 0. -1.
         11    1    3    3    0    0 -0.39798070043E+01  0.14076894541E+02 -0.24109531809E+02  0.28200484890E+02  0.51100000000E-03 0. -1.
        -11    1    3    3    0    0 -0.88610511312E-01 -0.15570812688E+02  0.20153346719E+02  0.25467929713E+02  0.51100000000E-03 0.  1.
        -12    1    3    3    0    0  0.14822132793E+02 -0.90784240145E+01 -0.71462143532E+01  0.18793131264E+02  0.00000000000E+00 0.  1.
</event>
<event>
 7    1  0.1351543E-013  0.7246161E+02  0.7816164E-02  0.1226708E+00
        -11   -1    0    0    0    0  0.00000000000E+00  0.00000000000E+00  0.45593999997E+02  0.45594000000E+02  0.51100000000E-03 0.  1.
         11   -1    0    0    0    0 -0.00000000000E+00 -0.00000000000E+00 -0.45593999997E+02  0.45594000000E+02  0.51100000000E-03 0. -1.
    9900012    2    1    2    0    0  0.12901588089E+02 -0.13324145730E+02  0.25872160238E+01  0.72461614299E+02  0.70000057324E+02 0.  0.
         12    1    1    2    0    0 -0.12901588089E+02  0.13324145730E+02 -0.25872160238E+01  0.18726385701E+02  0.00000000000E+00 0. -1.
         11    1    3    3    0    0  0.11125199155E+02 -0.18991773658E+01 -0.24664988379E+02  0.27124501524E+02  0.51100000000E-03 0. -1.
        -11    1    3    3    0    0  0.75644058605E+00 -0.21678805246E+02  0.27505056015E+02  0.35029571877E+02  0.51100000000E-03 0.  1.
        -12    1    3    3    0    0  0.10199483479E+01  0.10253836882E+02 -0.25285161212E+00  0.10307540898E+02  0.00000000000E+00 0.  1.
</event>
<event>
 7    1  0.1351543E-013  0.7246155E+02  0.7816164E-02  0.1226708E+00
        -11   -1    0    0    0    0  0.00000000000E+00  0.00000000000E+00  0.45593999997E+02  0.45594000000E+02  0.51100000000E-03 0.  1.
         11   -1    0    0    0    0 -0.00000000000E+00 -0.00000000000E+00 -0.45593999997E+02  0.45594000000E+02  0.51100000000E-03 0. -1.
    9900012    2    1    2    0    0 -0.10729197154E+02 -0.73155145314E+01 -0.13492498423E+02  0.72461549772E+02  0.69999973266E+02 0.  0.
         12    1    1    2    0    0  0.10729197154E+02  0.73155145314E+01  0.13492498423E+02  0.18726450228E+02  0.00000000000E+00 0. -1.
         11    1    3    3    0    0  0.23600071750E+02 -0.95149493329E+01 -0.12043204478E+02  0.28152023405E+02  0.51100000000E-03 0.  1.
        -11    1    3    3    0    0 -0.23207463740E+02  0.11750210040E+02  0.75770461730E+01  0.27093642026E+02  0.51100000000E-03 0. -1.
         12    1    3    3    0    0 -0.11121805163E+02 -0.95507752385E+01 -0.90263401181E+01  0.17215884342E+02  0.00000000000E+00 0. -1.
</event>
<event>
 7    1  0.1351543E-013  0.7246157E+02  0.7816164E-02  0.1226708E+00
        -11   -1    0    0    0    0  0.00000000000E+00  0.00000000000E+00  0.45593999997E+02  0.45594000000E+02  0.51100000000E-03 0. -1.
         11   -1    0    0    0    0 -0.00000000000E+00 -0.00000000000E+00 -0.45593999997E+02  0.45594000000E+02  0.51100000000E-03 0.  1.
    9900012    2    1    2    0    0 -0.10009985465E+02  0.14212177980E+02  0.69637225472E+01  0.72461568315E+02  0.69999997422E+02 0.  0.
         12    1    1    2    0    0  0.10009985465E+02 -0.14212177980E+02 -0.69637225472E+01  0.18726431685E+02  0.00000000000E+00 0. -1.
         11    1    3    3    0    0 -0.23315052651E+01 -0.15141294521E+02  0.11623092968E+02  0.19229950779E+02  0.51100000000E-03 0. -1.
        -11    1    3    3    0    0 -0.73000264198E+01  0.40383456201E+02  0.51769140351E+00  0.41041222266E+02  0.51100000000E-03 0.  1.
        -12    1    3    3    0    0 -0.37845377977E+00 -0.11029983701E+02 -0.51770618244E+01  0.12190395270E+02  0.00000000000E+00 0.  1.
</event>
<event>
 7    1  0.1351543E-013  0.7246150E+02  0.7816164E-02  0.1226708E+00
        -11   -1    0    0    0    0  0.00000000000E+00  0.00000000000E+00  0.45593999997E+02  0.45594000000E+02  0.51100000000E-03 0. -1.
         11   -1    0    0    0    0 -0.00000000000E+00 -0.00000000000E+00 -0.45593999997E+02  0.45594000000E+02  0.51100000000E-03 0.  1.
    9900012    2    1    2    0    0 -0.66865726738E+01 -0.75479536450E+01 -0.15779732108E+02  0.72461499960E+02  0.69999908376E+02 0.  0.
         12    1    1    2    0    0  0.66865726738E+01  0.75479536450E+01  0.15779732108E+02  0.18726500040E+02  0.00000000000E+00 0. -1.
         11    1    3    3    0    0  0.67059019406E+01 -0.92053693316E+01  0.12404940053E+02  0.16840144992E+02  0.51100000000E-03 0. -1.
        -11    1    3    3    0    0 -0.27029455294E+02 -0.83255818846E+01 -0.26291017142E+02  0.38615079306E+02  0.51100000000E-03 0.  1.
         12    1    3    3    0    0  0.13636980679E+02  0.99829975712E+01 -0.18936550198E+01  0.17006275662E+02  0.00000000000E+00 0. -1.
</event>
<event>
 7    1  0.1351543E-013  0.7246179E+02  0.7816164E-02  0.1226707E+00
        -11   -1    0    0    0    0  0.00000000000E+00  0.00000000000E+00  0.45593999997E+02  0.45594000000E+02  0.51100000000E-03 0.  1.
         11   -1    0    0    0    0 -0.00000000000E+00 -0.00000000000E+00 -0.45593999997E+02  0.45594000000E+02  0.51100000000E-03 0. -1.
    9900012    2    1    2    0    0 -0.17413212979E+02  0.18085954603E+01  0.66468005331E+01  0.72461789462E+02  0.70000285506E+02 0.  0.
         12    1    1    2    0    0  0.17413212979E+02 -0.18085954603E+01 -0.66468005331E+01  0.18726210538E+02  0.00000000000E+00 0. -1.
         11    1    3    3    0    0 -0.51432481524E+01  0.78979920968E+01 -0.14398429501E+02  0.17208894592E+02  0.51100000000E-03 0. -1.
        -11    1    3    3    0    0 -0.21706781574E+02 -0.23020995875E+02  0.11710658103E+02  0.33738555553E+02  0.51100000000E-03 0.  1.
        -12    1    3    3    0    0  0.94368167483E+01  0.16931599238E+02  0.93345719314E+01  0.21514339317E+02  0.00000000000E+00 0.  1.
</event>
<event>
 7    1  0.1351543E-013  0.7246159E+02  0.7816164E-02  0.1226708E+00
        -11   -1    0    0    0    0  0.00000000000E+00  0.00000000000E+00  0.45593999997E+02  0.45594000000E+02  0.51100000000E-03 0. -1.
         11   -1    0    0    0    0 -0.00000000000E+00 -0.00000000000E+00 -0.45593999997E+02  0.45594000000E+02  0.51100000000E-03 0.  1.
    9900012    2    1    2    0    0 -0.37614029063E+01 -0.16448138772E+02 -0.81233671710E+01  0.72461587768E+02  0.70000022762E+02 0.  0.
         12    1    1    2    0    0  0.37614029063E+01  0.16448138772E+02  0.81233671710E+01  0.18726412232E+02  0.00000000000E+00 0. -1.
         11    1    3    3    0    0 -0.80589623978E+01 -0.17199536625E+02  0.12336851679E+02  0.22648815524E+02  0.51100000000E-03 0. -1.
        -11    1    3    3    0    0 -0.12773482507E+02  0.15829146185E+02 -0.18943092652E+01  0.20428219016E+02  0.51100000000E-03 0.  1.
        -12    1    3    3    0    0  0.17071041998E+02 -0.15077748333E+02 -0.18565909585E+02  0.29384553228E+02  0.00000000000E+00 0.  1.
</event>
<event>
 7    1  0.1351543E-013  0.7246160E+02  0.7816164E-02  0.1226708E+00
        -11   -1    0    0    0    0  0.00000000000E+00  0.00000000000E+00  0.45593999997E+02  0.45594000000E+02  0.51100000000E-03 0.  1.
         11   -1    0    0    0    0 -0.00000000000E+00 -0.00000000000E+00 -0.45593999997E+02  0.45594000000E+02  0.51100000000E-03 0. -1.
    9900012    2    1    2    0    0 -0.16635286971E+02  0.64328619375E+01  0.57064403129E+01  0.72461602953E+02  0.70000042544E+02 0.  0.
         12    1    1    2    0    0  0.16635286971E+02 -0.64328619375E+01 -0.57064403129E+01  0.18726397047E+02  0.00000000000E+00 0. -1.
         11    1    3    3    0    0 -0.32543741968E+02  0.13092286477E+02 -0.99142811736E+01  0.36452655293E+02  0.51100000000E-03 0. -1.
        -11    1    3    3    0    0  0.13452984454E+02 -0.32871568774E+01  0.23394736908E+02  0.27186428715E+02  0.51100000000E-03 0.  1.
         12    1    3    3    0    0  0.24554705431E+01 -0.33722676619E+01 -0.77740154210E+01  0.88225189451E+01  0.00000000000E+00 0. -1.
</event>
<event>
 7    1  0.1351543E-013  0.7246156E+02  0.7816164E-02  0.1226708E+00
        -11   -1    0    0    0    0  0.00000000000E+00  0.00000000000E+00  0.45593999997E+02  0.45594000000E+02  0.51100000000E-03 0. -1.
         11   -1    0    0    0    0 -0.00000000000E+00 -0.00000000000E+00 -0.45593999997E+02  0.45594000000E+02  0.51100000000E-03 0.  1.
    9900012    2    1    2    0    0  0.46837699322E+01  0.18124458000E+02 -0.49593457280E+00  0.72461558008E+02  0.69999983995E+02 0.  0.
         12    1    1    2    0    0 -0.46837699322E+01 -0.18124458000E+02  0.49593457280E+00  0.18726441992E+02  0.00000000000E+00 0. -1.
         11    1    3    3    0    0 -0.19438738191E+02 -0.28955561666E+01  0.70093874250E+01  0.20865768625E+02  0.51100000000E-03 0. -1.
        -11    1    3    3    0    0  0.21565141361E+02  0.23259710654E+02 -0.20762449843E+02  0.37909745257E+02  0.51100000000E-03 0.  1.
         12    1    3    3    0    0  0.25573667622E+01 -0.22396964874E+01  0.13257127846E+02  0.13686044126E+02  0.00000000000E+00 0. -1.
</event>
<event>
 7    1  0.1351543E-013  0.7246159E+02  0.7816164E-02  0.1226708E+00
        -11   -1    0    0    0    0  0.00000000000E+00  0.00000000000E+00  0.45593999997E+02  0.45594000000E+02  0.51100000000E-03 0.  1.
         11   -1    0    0    0    0 -0.00000000000E+00 -0.00000000000E+00 -0.45593999997E+02  0.45594000000E+02  0.51100000000E-03 0. -1.
    9900012    2    1    2    0    0  0.17949887063E+02 -0.23394085872E+01  0.47965580846E+01  0.72461594911E+02  0.70000032068E+02 0.  0.
         12    1    1    2    0    0 -0.17949887063E+02  0.23394085872E+01 -0.47965580846E+01  0.18726405089E+02  0.00000000000E+00 0. -1.
         11    1    3    3    0    0  0.20721497374E+02 -0.11353608421E+02 -0.18369072029E+02  0.29928375918E+02  0.51100000000E-03 0. -1.
        -11    1    3    3    0    0  0.12576215835E+02  0.18317038405E+01  0.22175329346E+02  0.25558982287E+02  0.51100000000E-03 0.  1.
         12    1    3    3    0    0 -0.15347826147E+02  0.71824959936E+01  0.99030076856E+00  0.16974236706E+02  0.00000000000E+00 0. -1.
</event>
<event>
 7    1  0.1351543E-013  0.7246156E+02  0.7816164E-02  0.1226708E+00
        -11   -1    0    0    0    0  0.00000000000E+00  0.00000000000E+00  0.45593999997E+02  0.45594000000E+02  0.51100000000E-03 0. -1.
         11   -1    0    0    0    0 -0.00000000000E+00 -0.00000000000E+00 -0.45593999997E+02  0.45594000000E+02  0.51100000000E-03 0.  1.
    9900012    2    1    2    0    0  0.17135122789E+02  0.75120504853E+01  0.79759815537E+00  0.72461561516E+02  0.69999988564E+02 0.  0.
         12    1    1    2    0    0 -0.17135122789E+02 -0.75120504853E+01 -0.79759815537E+00  0.18726438484E+02  0.00000000000E+00 0. -1.
         11    1    3    3    0    0  0.28402053527E+01  0.18639829515E+02 -0.24804223057E+02  0.31157013536E+02  0.51100000000E-03 0.  1.
        -11    1    3    3    0    0  0.68897414850E+01 -0.60459053417E+01  0.29953470947E+02  0.31324621804E+02  0.51100000000E-03 0. -1.
        -12    1    3    3    0    0  0.74051759511E+01 -0.50818736884E+01 -0.43516497350E+01  0.99799261754E+01  0.00000000000E+00 0.  1.
</event>
<event>
 7    1  0.1351543E-013  0.7246156E+02  0.7816164E-02  0.1226708E+00
        -11   -1    0    0    0    0  0.00000000000E+00  0.00000000000E+00  0.45593999997E+02  0.45594000000E+02  0.51100000000E-03 0. -1.
         11   -1    0    0    0    0 -0.00000000000E+00 -0.00000000000E+00 -0.45593999997E+02  0.45594000000E+02  0.51100000000E-03 0.  1.
    9900012    2    1    2    0    0  0.12905940177E+02  0.19585316020E+00 -0.13567525714E+02  0.72461564025E+02  0.69999991833E+02 0.  0.
         12    1    1    2    0    0 -0.12905940177E+02 -0.19585316020E+00  0.13567525714E+02  0.18726435975E+02  0.00000000000E+00 0. -1.
         11    1    3    3    0    0  0.18605603273E+02 -0.16709429893E+02 -0.14491360944E+02  0.28902821017E+02  0.51100000000E-03 0.  1.
        -11    1    3    3    0    0  0.67724839311E+01  0.96213073460E+01  0.17805383128E+02  0.21341690707E+02  0.51100000000E-03 0. -1.
         12    1    3    3    0    0 -0.12472147027E+02  0.72839757067E+01 -0.16881547897E+02  0.22217052301E+02  0.00000000000E+00 0. -1.
</event>
<event>
 7    1  0.1351543E-013  0.7246159E+02  0.7816164E-02  0.1226708E+00
        -11   -1    0    0    0    0  0.00000000000E+00  0.00000000000E+00  0.45593999997E+02  0.45594000000E+02  0.51100000000E-03 0. -1.
         11   -1    0    0    0    0 -0.00000000000E+00 -0.00000000000E+00 -0.45593999997E+02  0.45594000000E+02  0.51100000000E-03 0.  1.
    9900012    2    1    2    0    0 -0.11859309919E+00  0.18315122386E+02 -0.39013824933E+01  0.72461586631E+02  0.70000021281E+02 0.  0.
         12    1    1    2    0    0  0.11859309919E+00 -0.18315122386E+02  0.39013824933E+01  0.18726413369E+02  0.00000000000E+00 0. -1.
         11    1    3    3    0    0  0.31411272727E+01  0.69172092335E+01  0.97915741294E+01  0.12393118587E+02  0.51100000000E-03 0. -1.
        -11    1    3    3    0    0 -0.26635462272E+02  0.14282083266E+02 -0.19296869844E+02  0.35857982917E+02  0.51100000000E-03 0.  1.
        -12    1    3    3    0    0  0.23375741900E+02 -0.28841701137E+01  0.56039132214E+01  0.24210485126E+02  0.00000000000E+00 0.  1.
</event>
<event>
 7    1  0.1351543E-013  0.7246158E+02  0.7816164E-02  0.1226708E+00
        -11   -1    0    0    0    0  0.00000000000E+00  0.00000000000E+00  0.45593999997E+02  0.45594000000E+02  0.51100000000E-03 0.  1.
         11   -1    0    0    0    0 -0.00000000000E+00 -0.00000000000E+00 -0.45593999997E+02  0.45594000000E+02  0.51100000000E-03 0. -1.
    9900012    2    1    2    0    0  0.13526537594E+02 -0.24881597539E+01  0.12709076522E+02  0.72461580580E+02  0.70000013400E+02 0.  0.
         12    1    1    2    0    0 -0.13526537594E+02  0.24881597539E+01 -0.12709076522E+02  0.18726419420E+02  0.00000000000E+00 0. -1.
         11    1    3    3    0    0  0.16147449435E+01  0.19162330848E+02 -0.55912981995E+01  0.20026605818E+02  0.51100000000E-03 0. -1.
        -11    1    3    3    0    0  0.26936014741E+02 -0.18910331421E+02  0.17170719653E+02  0.37121195270E+02  0.51100000000E-03 0.  1.
        -12    1    3    3    0    0 -0.15024222091E+02 -0.27401591815E+01  0.11296550679E+01  0.15313779492E+02  0.00000000000E+00 0.  1.
</event>
<event>
 7    1  0.1351543E-013  0.7246209E+02  0.7816164E-02  0.1226707E+00
        -11   -1    0    0    0    0  0.00000000000E+00  0.00000000000E+00  0.45593999997E+02  0.45594000000E+02  0.51100000000E-03 0.  1.
         11   -1    0    0    0    0 -0.00000000000E+00 -0.00000000000E+00 -0.45593999997E+02  0.45594000000E+02  0.51100000000E-03 0. -1.
    9900012    2    1    2    0    0  0.99649169279E+00 -0.20905905774E+01  0.18582150125E+02  0.72462085659E+02  0.70000671354E+02 0.  0.
         12    1    1    2    0    0 -0.99649169279E+00  0.20905905774E+01 -0.18582150125E+02  0.18725914341E+02  0.00000000000E+00 0. -1.
         11    1    3    3    0    0  0.81100462763E+01  0.27490891978E+01 -0.52506326686E+01  0.10044873603E+02  0.51100000000E-03 0. -1.
        -11    1    3    3    0    0 -0.13171863794E+02 -0.28697217887E+02  0.20330094723E+02  0.37554507879E+02  0.51100000000E-03 0.  1.
        -12    1    3    3    0    0  0.60583092109E+01  0.23857538112E+02  0.35026880702E+01  0.24862704177E+02  0.00000000000E+00 0.  1.
</event>
<event>
 7    1  0.1351543E-013  0.7246156E+02  0.7816164E-02  0.1226708E+00
        -11   -1    0    0    0    0  0.00000000000E+00  0.00000000000E+00  0.45593999997E+02  0.45594000000E+02  0.51100000000E-03 0.  1.
         11   -1    0    0    0    0 -0.00000000000E+00 -0.00000000000E+00 -0.45593999997E+02  0.45594000000E+02  0.51100000000E-03 0. -1.
    9900012    2    1    2    0    0  0.16726228886E+02 -0.48571323298E+01  0.68790260236E+01  0.72461562371E+02  0.69999989679E+02 0.  0.
         12    1    1    2    0    0 -0.16726228886E+02  0.48571323298E+01 -0.68790260236E+01  0.18726437629E+02  0.00000000000E+00 0. -1.
         11    1    3    3    0    0  0.65393216466E+00  0.12764637827E+02  0.19629105403E+02  0.23423607436E+02  0.51100000000E-03 0.  1.
        -11    1    3    3    0    0  0.25950083964E+02 -0.24021945466E+02 -0.74916748513E+01  0.36146727570E+02  0.51100000000E-03 0. -1.
         12    1    3    3    0    0 -0.98777872422E+01  0.64001753097E+01 -0.52584045283E+01  0.12891227365E+02  0.00000000000E+00 0. -1.
</event>
<event>
 7    1  0.1351543E-013  0.7246157E+02  0.7816164E-02  0.1226708E+00
        -11   -1    0    0    0    0  0.00000000000E+00  0.00000000000E+00  0.45593999997E+02  0.45594000000E+02  0.51100000000E-03 0. -1.
         11   -1    0    0    0    0 -0.00000000000E+00 -0.00000000000E+00 -0.45593999997E+02  0.45594000000E+02  0.51100000000E-03 0.  1.
    9900012    2    1    2    0    0 -0.76407992424E+01 -0.84330549266E+01 -0.14872148928E+02  0.72461573694E+02  0.70000004428E+02 0.  0.
         12    1    1    2    0    0  0.76407992424E+01  0.84330549266E+01  0.14872148928E+02  0.18726426306E+02  0.00000000000E+00 0. -1.
         11    1    3    3    0    0  0.71285277090E+01  0.22433841758E+02 -0.58818644346E+01  0.24262924243E+02  0.51100000000E-03 0. -1.
        -11    1    3    3    0    0 -0.11664297930E+02 -0.31579884112E+02 -0.18329042884E+02  0.38331432794E+02  0.51100000000E-03 0.  1.
         12    1    3    3    0    0 -0.31050290210E+01  0.71298742735E+00  0.93387583902E+01  0.98672166573E+01  0.00000000000E+00 0. -1.
</event>
<event>
 7    1  0.1351543E-013  0.7246164E+02  0.7816164E-02  0.1226708E+00
        -11   -1    0    0    0    0  0.00000000000E+00  0.00000000000E+00  0.45593999997E+02  0.45594000000E+02  0.51100000000E-03 0. -1.
         11   -1    0    0    0    0 -0.00000000000E+00 -0.00000000000E+00 -0.45593999997E+02  0.45594000000E+02  0.51100000000E-03 0.  1.
    9900012    2    1    2    0    0  0.16976315512E+02 -0.42320669614E+01 -0.66761500592E+01  0.72461637333E+02  0.70000087330E+02 0.  0.
         12    1    1    2    0    0 -0.16976315512E+02  0.42320669614E+01  0.66761500592E+01  0.18726362667E+02  0.00000000000E+00 0. -1.
         11    1    3    3    0    0 -0.14313815805E+02 -0.53190334113E+01  0.88552409142E+01  0.17651989442E+02  0.51100000000E-03 0. -1.
        -11    1    3    3    0    0  0.32560653430E+02  0.15701054568E+02 -0.44419165989E+01  0.36420459767E+02  0.51100000000E-03 0.  1.
        -12    1    3    3    0    0 -0.12705221125E+01 -0.14614088118E+02 -0.11089474375E+02  0.18389188124E+02  0.00000000000E+00 0.  1.
</event>
<event>
 7    1  0.1351543E-013  0.7246219E+02  0.7816164E-02  0.1226706E+00
        -11   -1    0    0    0    0  0.00000000000E+00  0.00000000000E+00  0.45593999997E+02  0.45594000000E+02  0.51100000000E-03 0.  1.
         11   -1    0    0    0    0 -0.00000000000E+00 -0.00000000000E+00 -0.45593999997E+02  0.45594000000E+02  0.51100000000E-03 0. -1.
    9900012    2    1    2    0    0  0.17006992398E+02  0.64534129971E+01  0.44465301854E+01  0.72462189993E+02  0.70000807268E+02 0.  0.
         12    1    1    2    0    0 -0.17006992398E+02 -0.64534129971E+01 -0.44465301854E+01  0.18725810007E+02  0.00000000000E+00 0. -1.
         11    1    3    3    0    0 -0.31843699162E+01 -0.88322435671E+01 -0.15124947793E+02  0.17802044382E+02  0.51100000000E-03 0. -1.
        -11    1    3    3    0    0  0.30271878647E+02  0.18776043544E+02  0.40855333069E+01  0.35855516043E+02  0.51100000000E-03 0.  1.
        -12    1    3    3    0    0 -0.10080516333E+02 -0.34903869803E+01  0.15485944671E+02  0.18804629568E+02  0.00000000000E+00 0.  1.
</event>
<event>
 7    1  0.1351543E-013  0.7246169E+02  0.7816164E-02  0.1226708E+00
        -11   -1    0    0    0    0  0.00000000000E+00  0.00000000000E+00  0.45593999997E+02  0.45594000000E+02  0.51100000000E-03 0.  1.
         11   -1    0    0    0    0 -0.00000000000E+00 -0.00000000000E+00 -0.45593999997E+02  0.45594000000E+02  0.51100000000E-03 0. -1.
    9900012    2    1    2    0    0  0.16203660258E+02  0.66271479641E+01  0.66480915132E+01  0.72461686517E+02  0.70000151402E+02 0.  0.
         12    1    1    2    0    0 -0.16203660258E+02 -0.66271479641E+01 -0.66480915132E+01  0.18726313483E+02  0.00000000000E+00 0. -1.
         11    1    3    3    0    0 -0.42989385423E+01 -0.25892807784E+02  0.10957387656E+02  0.28442621399E+02  0.51100000000E-03 0. -1.
        -11    1    3    3    0    0  0.19343588111E+02  0.11131933176E+02 -0.34439796841E+01  0.22582190628E+02  0.51100000000E-03 0.  1.
        -12    1    3    3    0    0  0.11590106894E+01  0.21388022572E+02 -0.86531645846E+00  0.21436874490E+02  0.00000000000E+00 0.  1.
</event>
<event>
 7    1  0.1351543E-013  0.7246153E+02  0.7816164E-02  0.1226708E+00
        -11   -1    0    0    0    0  0.00000000000E+00  0.00000000000E+00  0.45593999997E+02  0.45594000000E+02  0.51100000000E-03 0.  1.
         11   -1    0    0    0    0 -0.00000000000E+00 -0.00000000000E+00 -0.45593999997E+02  0.45594000000E+02  0.51100000000E-03 0. -1.
    9900012    2    1    2    0    0  0.14520969958E+02 -0.65945321668E+00  0.11806229930E+02  0.72461534444E+02  0.69999953298E+02 0.  0.
         12    1    1    2    0    0 -0.14520969958E+02  0.65945321668E+00 -0.11806229930E+02  0.18726465556E+02  0.00000000000E+00 0. -1.
         11    1    3    3    0    0 -0.38520381253E+01 -0.15789583603E+02 -0.21426265547E+02  0.26893010312E+02  0.51100000000E-03 0. -1.
        -11    1    3    3    0    0 -0.63245427988E-01  0.12340890998E+02  0.10808801356E+02  0.16405236286E+02  0.51100000000E-03 0.  1.
         12    1    3    3    0    0  0.18436253511E+02  0.27892393885E+01  0.22423694121E+02  0.29163287845E+02  0.00000000000E+00 0. -1.
</event>
<event>
 7    1  0.1351543E-013  0.7246154E+02  0.7816164E-02  0.1226708E+00
        -11   -1    0    0    0    0  0.00000000000E+00  0.00000000000E+00  0.45593999997E+02  0.45594000000E+02  0.51100000000E-03 0. -1.
         11   -1    0    0    0    0 -0.00000000000E+00 -0.00000000000E+00 -0.45593999997E+02  0.45594000000E+02  0.51100000000E-03 0.  1.
    9900012    2    1    2    0    0 -0.13955673159E+02  0.11262429196E+02  0.53923089974E+01  0.72461544889E+02  0.69999966904E+02 0.  0.
         12    1    1    2    0    0  0.13955673159E+02 -0.11262429196E+02 -0.53923089974E+01  0.18726455111E+02  0.00000000000E+00 0. -1.
         11    1    3    3    0    0  0.33810139705E+01  0.56389101808E+01 -0.75716741624E+01  0.10027901744E+02  0.51100000000E-03 0.  1.
        -11    1    3    3    0    0 -0.34574126506E+01 -0.11154636021E+02  0.31652850378E+02  0.33738443122E+02  0.51100000000E-03 0. -1.
        -12    1    3    3    0    0 -0.13879274479E+02  0.16778155037E+02 -0.18688867218E+02  0.28695200023E+02  0.00000000000E+00 0.  1.
</event>
<event>
 7    1  0.1351543E-013  0.7246164E+02  0.7816164E-02  0.1226708E+00
        -11   -1    0    0    0    0  0.00000000000E+00  0.00000000000E+00  0.45593999997E+02  0.45594000000E+02  0.51100000000E-03 0. -1.
         11   -1    0    0    0    0 -0.00000000000E+00 -0.00000000000E+00 -0.45593999997E+02  0.45594000000E+02  0.51100000000E-03 0.  1.
    9900012    2    1    2    0    0  0.15390289662E+02 -0.99426496743E+01  0.38677274088E+01  0.72461638534E+02  0.70000088895E+02 0.  0.
         12    1    1    2    0    0 -0.15390289662E+02  0.99426496743E+01 -0.38677274088E+01  0.18726361466E+02  0.00000000000E+00 0. -1.
         11    1    3    3    0    0 -0.28932346881E+01  0.21786235470E+01 -0.36402089507E+01  0.51350101252E+01  0.51100000000E-03 0. -1.
        -11    1    3    3    0    0  0.22178460392E+02 -0.31896476876E+02 -0.10559597883E+02  0.40258843130E+02  0.51100000000E-03 0.  1.
        -12    1    3    3    0    0 -0.38949360423E+01  0.19775203654E+02  0.18067534242E+02  0.27067785279E+02  0.00000000000E+00 0.  1.
</event>
<event>
 7    1  0.1351543E-013  0.7246157E+02  0.7816164E-02  0.1226708E+00
        -11   -1    0    0    0    0  0.00000000000E+00  0.00000000000E+00  0.45593999997E+02  0.45594000000E+02  0.51100000000E-03 0. -1.
         11   -1    0    0    0    0 -0.00000000000E+00 -0.00000000000E+00 -0.45593999997E+02  0.45594000000E+02  0.51100000000E-03 0.  1.
    9900012    2    1    2    0    0 -0.12733352449E+02  0.13395864909E+02  0.30152296673E+01  0.72461572920E+02  0.70000003420E+02 0.  0.
         12    1    1    2    0    0  0.12733352449E+02 -0.13395864909E+02 -0.30152296673E+01  0.18726427080E+02  0.00000000000E+00 0. -1.
         11    1    3    3    0    0  0.17329224913E+02 -0.50183328125E+01  0.12445022707E+02  0.21917214485E+02  0.51100000000E-03 0. -1.
        -11    1    3    3    0    0 -0.35477202739E+02  0.12715853399E+02 -0.15360607884E+02  0.40697335499E+02  0.51100000000E-03 0.  1.
        -12    1    3    3    0    0  0.54146253769E+01  0.56983443227E+01  0.59308148443E+01  0.98470229364E+01  0.00000000000E+00 0.  1.
</event>
<event>
 7    1  0.1351543E-013  0.7246155E+02  0.7816164E-02  0.1226708E+00
        -11   -1    0    0    0    0  0.00000000000E+00  0.00000000000E+00  0.45593999997E+02  0.45594000000E+02  0.51100000000E-03 0. -1.
         11   -1    0    0    0    0 -0.00000000000E+00 -0.00000000000E+00 -0.45593999997E+02  0.45594000000E+02  0.51100000000E-03 0.  1.
    9900012    2    1    2    0    0  0.14405058423E+02  0.11690431350E+02  0.25510644462E+01  0.72461552843E+02  0.69999977266E+02 0.  0.
         12    1    1    2    0    0 -0.14405058423E+02 -0.11690431350E+02 -0.25510644462E+01  0.18726447157E+02  0.00000000000E+00 0. -1.
         11    1    3    3    0    0  0.16488158822E+02 -0.15887122717E+02  0.14716803013E+02  0.27218455885E+02  0.51100000000E-03 0. -1.
        -11    1    3    3    0    0 -0.11812165366E+02  0.13497977015E+02 -0.19613785006E+02  0.26578622926E+02  0.51100000000E-03 0.  1.
         12    1    3    3    0    0  0.97290649670E+01  0.14079577053E+02  0.74480464392E+01  0.18664474032E+02  0.00000000000E+00 0. -1.
</event>
<event>
 7    1  0.1351543E-013  0.7246162E+02  0.7816164E-02  0.1226708E+00
        -11   -1    0    0    0    0  0.00000000000E+00  0.00000000000E+00  0.45593999997E+02  0.45594000000E+02  0.51100000000E-03 0.  1.
         11   -1    0    0    0    0 -0.00000000000E+00 -0.00000000000E+00 -0.45593999997E+02  0.45594000000E+02  0.51100000000E-03 0. -1.
    9900012    2    1    2    0    0 -0.99490018732E+01  0.15771489457E+02 -0.17189177847E+01  0.72461622980E+02  0.70000068632E+02 0.  0.
         12    1    1    2    0    0  0.99490018732E+01 -0.15771489457E+02  0.17189177847E+01  0.18726377020E+02  0.00000000000E+00 0. -1.
         11    1    3    3    0    0 -0.32855340049E+01 -0.18357761671E+02 -0.16917731526E+02  0.25179590694E+02  0.51100000000E-03 0. -1.
        -11    1    3    3    0    0 -0.62151469275E+01  0.28904002656E+01  0.14492832946E+02  0.16031989025E+02  0.51100000000E-03 0.  1.
         12    1    3    3    0    0 -0.44832094080E+00  0.31238850863E+02  0.70598079460E+00  0.31250043260E+02  0.00000000000E+00 0. -1.
</event>
<event>
 7    1  0.1351543E-013  0.7246155E+02  0.7816164E-02  0.1226708E+00
        -11   -1    0    0    0    0  0.00000000000E+00  0.00000000000E+00  0.45593999997E+02  0.45594000000E+02  0.51100000000E-03 0. -1.
         11   -1    0    0    0    0 -0.00000000000E+00 -0.00000000000E+00 -0.45593999997E+02  0.45594000000E+02  0.51100000000E-03 0.  1.
    9900012    2    1    2    0    0 -0.36823840624E+01 -0.13039381032E+02 -0.12926509166E+02  0.72461546805E+02  0.69999969400E+02 0.  0.
         12    1    1    2    0    0  0.36823840624E+01  0.13039381032E+02  0.12926509166E+02  0.18726453195E+02  0.00000000000E+00 0. -1.
         11    1    3    3    0    0  0.17735809004E+02 -0.19935373882E+00 -0.23367779342E+02  0.29336867157E+02  0.51100000000E-03 0. -1.
        -11    1    3    3    0    0 -0.16501349335E+02 -0.16726870852E+02 -0.70606356005E+01  0.24534370049E+02  0.51100000000E-03 0.  1.
         12    1    3    3    0    0 -0.49168437318E+01  0.38868435587E+01  0.17501905777E+02  0.18590309598E+02  0.00000000000E+00 0. -1.
</event>
<event>
 7    1  0.1351543E-013  0.7246152E+02  0.7816164E-02  0.1226708E+00
        -11   -1    0    0    0    0  0.00000000000E+00  0.00000000000E+00  0.45593999997E+02  0.45594000000E+02  0.51100000000E-03 0.  1.
         11   -1    0    0    0    0 -0.00000000000E+00 -0.00000000000E+00 -0.45593999997E+02  0.45594000000E+02  0.51100000000E-03 0. -1.
    9900012    2    1    2    0    0  0.10639757783E+02 -0.50984724905E+01  0.14542424539E+02  0.72461521984E+02  0.69999937066E+02 0.  0.
         12    1    1    2    0    0 -0.10639757783E+02  0.50984724905E+01 -0.14542424539E+02  0.18726478016E+02  0.00000000000E+00 0. -1.
         11    1    3    3    0    0  0.15021265786E+01  0.22180073487E+02 -0.87108481572E+00  0.22247939976E+02  0.51100000000E-03 0. -1.
        -11    1    3    3    0    0  0.18609949697E+02 -0.72660109959E+01 -0.44505850395E+01  0.20467849202E+02  0.51100000000E-03 0.  1.
        -12    1    3    3    0    0 -0.94723184922E+01 -0.20012534982E+02  0.19864094395E+02  0.29745732806E+02  0.00000000000E+00 0.  1.
</event>
<event>
 7    1  0.1654774E-013  0.7246157E+02  0.7816164E-02  0.1226708E+00
        -11   -1    0    0    0    0  0.00000000000E+00  0.00000000000E+00  0.45593999997E+02  0.45594000000E+02  0.51100000000E-03 0. -1.
         11   -1    0    0    0    0 -0.00000000000E+00 -0.00000000000E+00 -0.45593999997E+02  0.45594000000E+02  0.51100000000E-03 0.  1.
    9900012    2    1    2    0    0  0.75949892799E+01  0.15005984125E+02 -0.82350417425E+01  0.72461565897E+02  0.69999994271E+02 0.  0.
         12    1    1    2    0    0 -0.75949892799E+01 -0.15005984125E+02  0.82350417425E+01  0.18726434103E+02  0.00000000000E+00 0. -1.
         11    1    3    3    0    0 -0.87071851525E+01 -0.22075054980E+02 -0.41333836642E+01  0.24087506854E+02  0.51100000000E-03 0. -1.
        -11    1    3    3    0    0  0.18500699858E+02  0.11422299257E+02  0.22229731914E+01  0.21856038654E+02  0.51100000000E-03 0.  1.
         12    1    3    3    0    0 -0.21985254260E+01  0.25658739848E+02 -0.63246312696E+01  0.26518020389E+02  0.00000000000E+00 0. -1.
</event>
<event>
 7    1  0.1351543E-013  0.7246126E+02  0.7816164E-02  0.1226709E+00
        -11   -1    0    0    0    0  0.00000000000E+00  0.00000000000E+00  0.45593999997E+02  0.45594000000E+02  0.51100000000E-03 0.  1.
         11   -1    0    0    0    0 -0.00000000000E+00 -0.00000000000E+00 -0.45593999997E+02  0.45594000000E+02  0.51100000000E-03 0. -1.
    9900012    2    1    2    0    0  0.74810318239E+00 -0.12059386969E+02 -0.14307420847E+02  0.72461260729E+02  0.69999596732E+02 0.  0.
         12    1    1    2    0    0 -0.74810318239E+00  0.12059386969E+02  0.14307420847E+02  0.18726739271E+02  0.00000000000E+00 0. -1.
         11    1    3    3    0    0  0.78700840243E+01 -0.11272522222E+02  0.21684035529E+02  0.25674995168E+02  0.51100000000E-03 0. -1.
        -11    1    3    3    0    0 -0.30825197519E+01 -0.14646786074E+02 -0.14099371097E+02  0.20562649050E+02  0.51100000000E-03 0.  1.
         12    1    3    3    0    0 -0.40394610900E+01  0.13859921327E+02 -0.21892085279E+02  0.26223616511E+02  0.00000000000E+00 0. -1.
</event>
<event>
 7    1  0.1351543E-013  0.7246143E+02  0.7816164E-02  0.1226708E+00
        -11   -1    0    0    0    0  0.00000000000E+00  0.00000000000E+00  0.45593999997E+02  0.45594000000E+02  0.51100000000E-03 0.  1.
         11   -1    0    0    0    0 -0.00000000000E+00 -0.00000000000E+00 -0.45593999997E+02  0.45594000000E+02  0.51100000000E-03 0. -1.
    9900012    2    1    2    0    0  0.72746184701E+01 -0.16201455050E+02  0.59394623371E+01  0.72461429773E+02  0.69999816944E+02 0.  0.
         12    1    1    2    0    0 -0.72746184701E+01  0.16201455050E+02 -0.59394623371E+01  0.18726570227E+02  0.00000000000E+00 0. -1.
         11    1    3    3    0    0  0.11750581882E+02  0.19527707372E+02  0.31139670846E+01  0.23002267737E+02  0.51100000000E-03 0. -1.
        -11    1    3    3    0    0 -0.17171955939E+02 -0.82332756303E+01  0.21657911155E+01  0.19166469414E+02  0.51100000000E-03 0.  1.
         12    1    3    3    0    0  0.12695992527E+02 -0.27495886792E+02  0.65970413708E+00  0.30292692622E+02  0.00000000000E+00 0. -1.
</event>
<event>
 7    1  0.1351543E-013  0.7246157E+02  0.7816164E-02  0.1226708E+00
        -11   -1    0    0    0    0  0.00000000000E+00  0.00000000000E+00  0.45593999997E+02  0.45594000000E+02  0.51100000000E-03 0.  1.
         11   -1    0    0    0    0 -0.00000000000E+00 -0.00000000000E+00 -0.45593999997E+02  0.45594000000E+02  0.51100000000E-03 0. -1.
    9900012    2    1    2    0    0 -0.19802580900E+01  0.13410847076E+02  0.12919248329E+02  0.72461568979E+02  0.69999998287E+02 0.  0.
         12    1    1    2    0    0  0.19802580900E+01 -0.13410847076E+02 -0.12919248329E+02  0.18726431021E+02  0.00000000000E+00 0. -1.
         11    1    3    3    0    0 -0.13454943370E+02  0.39044969058E+02  0.11925220067E+02  0.42985532260E+02  0.51100000000E-03 0. -1.
        -11    1    3    3    0    0  0.25317606970E+01 -0.11414655662E+02  0.41064792867E+01  0.12392229359E+02  0.51100000000E-03 0.  1.
         12    1    3    3    0    0  0.89429245825E+01 -0.14219466320E+02 -0.31124510250E+01  0.17083807360E+02  0.00000000000E+00 0. -1.
</event>
<event>
 7    1  0.1351543E-013  0.7246160E+02  0.7816164E-02  0.1226708E+00
        -11   -1    0    0    0    0  0.00000000000E+00  0.00000000000E+00  0.45593999997E+02  0.45594000000E+02  0.51100000000E-03 0.  1.
         11   -1    0    0    0    0 -0.00000000000E+00 -0.00000000000E+00 -0.45593999997E+02  0.45594000000E+02  0.51100000000E-03 0. -1.
    9900012    2    1    2    0    0 -0.13546450798E+02  0.72969159044E+00  0.12908880661E+02  0.72461602082E+02  0.70000041410E+02 0.  0.
         12    1    1    2    0    0  0.13546450798E+02 -0.72969159044E+00 -0.12908880661E+02  0.18726397918E+02  0.00000000000E+00 0. -1.
         11    1    3    3    0    0  0.76530334913E+01  0.13269166875E+02  0.22556848385E+01  0.15483146500E+02  0.51100000000E-03 0. -1.
        -11    1    3    3    0    0 -0.22816674237E+02 -0.14547292779E+02  0.28293761045E+02  0.39150495077E+02  0.51100000000E-03 0.  1.
        -12    1    3    3    0    0  0.16171899477E+01  0.20078174941E+01 -0.17640565222E+02  0.17827960505E+02  0.00000000000E+00 0.  1.
</event>
<event>
 7    1  0.1351543E-013  0.7246159E+02  0.7816164E-02  0.1226708E+00
        -11   -1    0    0    0    0  0.00000000000E+00  0.00000000000E+00  0.45593999997E+02  0.45594000000E+02  0.51100000000E-03 0.  1.
         11   -1    0    0    0    0 -0.00000000000E+00 -0.00000000000E+00 -0.45593999997E+02  0.45594000000E+02  0.51100000000E-03 0. -1.
    9900012    2    1    2    0    0  0.73059987627E+01 -0.20926643314E+01  0.17114954232E+02  0.72461587629E+02  0.70000022581E+02 0.  0.
         12    1    1    2    0    0 -0.73059987627E+01  0.20926643314E+01 -0.17114954232E+02  0.18726412371E+02  0.00000000000E+00 0. -1.
         11    1    3    3    0    0  0.16313839757E+02 -0.28826423377E+02  0.43788384990E+01  0.33410750952E+02  0.51100000000E-03 0. -1.
        -11    1    3    3    0    0 -0.17061420587E+02  0.19620385760E+02  0.10688707296E+02  0.28112276211E+02  0.51100000000E-03 0.  1.
         12    1    3    3    0    0  0.80535795928E+01  0.71133732858E+01  0.20474084371E+01  0.10938560466E+02  0.00000000000E+00 0. -1.
</event>
<event>
 7    1  0.1351543E-013  0.7246160E+02  0.7816164E-02  0.1226708E+00
        -11   -1    0    0    0    0  0.00000000000E+00  0.00000000000E+00  0.45593999997E+02  0.45594000000E+02  0.51100000000E-03 0.  1.
         11   -1    0    0    0    0 -0.00000000000E+00 -0.00000000000E+00 -0.45593999997E+02  0.45594000000E+02  0.51100000000E-03 0. -1.
    9900012    2    1    2    0    0  0.15490719881E+02  0.77349929102E+01 -0.71334216594E+01  0.72461595585E+02  0.70000032945E+02 0.  0.
         12    1    1    2    0    0 -0.15490719881E+02 -0.77349929102E+01  0.71334216594E+01  0.18726404415E+02  0.00000000000E+00 0. -1.
         11    1    3    3    0    0 -0.19459130675E+01  0.18341823227E+02 -0.26828449657E+02  0.32557253696E+02  0.51100000000E-03 0.  1.
        -11    1    3    3    0    0  0.20053433804E+02 -0.17940096176E+02  0.14829892286E+02  0.30723166562E+02  0.51100000000E-03 0. -1.
         12    1    3    3    0    0 -0.26168008550E+01  0.73332658591E+01  0.48651357120E+01  0.91811753263E+01  0.00000000000E+00 0. -1.
</event>
<event>
 8    1  0.1351543E-013  0.7246157E+02  0.7816164E-02  0.1226708E+00
        -11   -1    0    0    0    0  0.00000000000E+00  0.00000000000E+00  0.45593999997E+02  0.45594000000E+02  0.51100000000E-03 0. -1.
         11   -1    0    0    0    0 -0.00000000000E+00 -0.00000000000E+00 -0.45593999997E+02  0.45594000000E+02  0.51100000000E-03 0.  1.
    9900012    2    1    2    0    0  0.13683992059E+02 -0.12477965059E+02  0.27799303561E+01  0.72461567786E+02  0.69999996732E+02 0.  0.
         24    2    3    3    0    0  0.20860059208E+02 -0.41012811327E+01 -0.11488102318E+02  0.54427113816E+02  0.48768551818E+02 0.  0.
         12    1    1    2    0    0 -0.13683992059E+02  0.12477965059E+02 -0.27799303561E+01  0.18726432214E+02  0.00000000000E+00 0. -1.
         11    1    3    3    0    0 -0.71760671489E+01 -0.83766839262E+01  0.14268032674E+02  0.18034453969E+02  0.51100000000E-03 0. -1.
        -11    1    4    4    0    0  0.13478841226E+02  0.13899162936E+02 -0.24346685864E+02  0.31106703521E+02  0.51100000000E-03 0.  1.
         12    1    4    4    0    0  0.73812179816E+01 -0.18000444068E+02  0.12858583546E+02  0.23320410296E+02  0.00000000000E+00 0. -1.
</event>
<event>
 7    1  0.1351543E-013  0.7246153E+02  0.7816164E-02  0.1226708E+00
        -11   -1    0    0    0    0  0.00000000000E+00  0.00000000000E+00  0.45593999997E+02  0.45594000000E+02  0.51100000000E-03 0.  1.
         11   -1    0    0    0    0 -0.00000000000E+00 -0.00000000000E+00 -0.45593999997E+02  0.45594000000E+02  0.51100000000E-03 0. -1.
    9900012    2    1    2    0    0 -0.68797414543E+01 -0.65009216093E+01  0.16158208727E+02  0.72461533875E+02  0.69999952558E+02 0.  0.
         12    1    1    2    0    0  0.68797414543E+01  0.65009216093E+01 -0.16158208727E+02  0.18726466125E+02  0.00000000000E+00 0. -1.
         11    1    3    3    0    0  0.27336395554E+02 -0.11174297619E+02  0.33501043044E+00  0.29533975036E+02  0.51100000000E-03 0. -1.
        -11    1    3    3    0    0 -0.20353679917E+02  0.63738592054E+01  0.19045578473E+02  0.28594272625E+02  0.51100000000E-03 0.  1.
         12    1    3    3    0    0 -0.13862457091E+02 -0.17004831954E+01 -0.32223801759E+01  0.14333286215E+02  0.00000000000E+00 0. -1.
</event>
<event>
 7    1  0.1351543E-013  0.7246159E+02  0.7816164E-02  0.1226708E+00
        -11   -1    0    0    0    0  0.00000000000E+00  0.00000000000E+00  0.45593999997E+02  0.45594000000E+02  0.51100000000E-03 0. -1.
         11   -1    0    0    0    0 -0.00000000000E+00 -0.00000000000E+00 -0.45593999997E+02  0.45594000000E+02  0.51100000000E-03 0.  1.
    9900012    2    1    2    0    0  0.17971965330E+02 -0.48053826641E+01  0.21436511557E+01  0.72461588688E+02  0.70000023961E+02 0.  0.
         12    1    1    2    0    0 -0.17971965330E+02  0.48053826641E+01 -0.21436511557E+01  0.18726411312E+02  0.00000000000E+00 0. -1.
         11    1    3    3    0    0  0.15067764783E+02 -0.65552719549E+01  0.44590897753E+01  0.17026232932E+02  0.51100000000E-03 0. -1.
        -11    1    3    3    0    0 -0.11038812909E+02  0.23977378007E+02 -0.97890258234E+01  0.28153065079E+02  0.51100000000E-03 0.  1.
        -12    1    3    3    0    0  0.13943013456E+02 -0.22227488716E+02  0.74735872038E+01  0.27282290676E+02  0.00000000000E+00 0.  1.
</event>
<event>
 7    1  0.1351543E-013  0.7246158E+02  0.7816164E-02  0.1226708E+00
        -11   -1    0    0    0    0  0.00000000000E+00  0.00000000000E+00  0.45593999997E+02  0.45594000000E+02  0.51100000000E-03 0.  1.
         11   -1    0    0    0    0 -0.00000000000E+00 -0.00000000000E+00 -0.45593999997E+02  0.45594000000E+02  0.51100000000E-03 0. -1.
    9900012    2    1    2    0    0 -0.13733187921E+02  0.15956769609E+01  0.12630611064E+02  0.72461575587E+02  0.70000006895E+02 0.  0.
         12    1    1    2    0    0  0.13733187921E+02 -0.15956769609E+01 -0.12630611064E+02  0.18726424413E+02  0.00000000000E+00 0. -1.
         11    1    3    3    0    0 -0.32704127989E+02 -0.10886317999E+02  0.16175326365E+02  0.38075098035E+02  0.51100000000E-03 0. -1.
        -11    1    3    3    0    0  0.20716186078E+02  0.80185599292E+01  0.65941617746E+01  0.23171979603E+02  0.51100000000E-03 0.  1.
         12    1    3    3    0    0 -0.17452460090E+01  0.44634350308E+01 -0.10138877075E+02  0.11214497949E+02  0.00000000000E+00 0. -1.
</event>
<event>
 7    1  0.1351543E-013  0.7246156E+02  0.7816164E-02  0.1226708E+00
        -11   -1    0    0    0    0  0.00000000000E+00  0.00000000000E+00  0.45593999997E+02  0.45594000000E+02  0.51100000000E-03 0. -1.
         11   -1    0    0    0    0 -0.00000000000E+00 -0.00000000000E+00 -0.45593999997E+02  0.45594000000E+02  0.51100000000E-03 0.  1.
    9900012    2    1    2    0    0  0.87368271000E+01  0.99407573669E+01 -0.13248730643E+02  0.72461556973E+02  0.69999982646E+02 0.  0.
         12    1    1    2    0    0 -0.87368271000E+01 -0.99407573669E+01  0.13248730643E+02  0.18726443027E+02  0.00000000000E+00 0. -1.
         11    1    3    3    0    0 -0.77500383412E+01 -0.10691643821E+02  0.10593433857E+02  0.16929122335E+02  0.51100000000E-03 0. -1.
        -11    1    3    3    0    0  0.33570971139E+01  0.64970809765E+01 -0.33266702721E+02  0.34061058005E+02  0.51100000000E-03 0.  1.
        -12    1    3    3    0    0  0.13129768327E+02  0.14135320212E+02  0.94245382203E+01  0.21471376632E+02  0.00000000000E+00 0.  1.
</event>
<event>
 7    1  0.1351543E-013  0.7246159E+02  0.7816164E-02  0.1226708E+00
        -11   -1    0    0    0    0  0.00000000000E+00  0.00000000000E+00  0.45593999997E+02  0.45594000000E+02  0.51100000000E-03 0.  1.
         11   -1    0    0    0    0 -0.00000000000E+00 -0.00000000000E+00 -0.45593999997E+02  0.45594000000E+02  0.51100000000E-03 0. -1.
    9900012    2    1    2    0    0  0.62087555088E+01 -0.51420654349E+01  0.16902337759E+02  0.72461588074E+02  0.70000023161E+02 0.  0.
         12    1    1    2    0    0 -0.62087555088E+01  0.51420654349E+01 -0.16902337759E+02  0.18726411926E+02  0.00000000000E+00 0. -1.
         11    1    3    3    0    0  0.15041686896E+02  0.49477070901E+00 -0.40990438733E+01  0.15598054484E+02  0.51100000000E-03 0. -1.
        -11    1    3    3    0    0 -0.68631673973E+00 -0.63128303403E+01  0.37721404805E+02  0.38252153381E+02  0.51100000000E-03 0.  1.
        -12    1    3    3    0    0 -0.81466146479E+01  0.67599419638E+00 -0.16720023173E+02  0.18611380209E+02  0.00000000000E+00 0.  1.
</event>
<event>
 7    1  0.1351543E-013  0.7246158E+02  0.7816164E-02  0.1226708E+00
        -11   -1    0    0    0    0  0.00000000000E+00  0.00000000000E+00  0.45593999997E+02  0.45594000000E+02  0.51100000000E-03 0. -1.
         11   -1    0    0    0    0 -0.00000000000E+00 -0.00000000000E+00 -0.45593999997E+02  0.45594000000E+02  0.51100000000E-03 0.  1.
    9900012    2    1    2    0    0 -0.11697464637E+02  0.88359869488E+01 -0.11652192172E+02  0.72461576777E+02  0.70000008446E+02 0.  0.
         12    1    1    2    0    0  0.11697464637E+02 -0.88359869488E+01  0.11652192172E+02  0.18726423223E+02  0.00000000000E+00 0. -1.
         11    1    3    3    0    0  0.25192976015E+02 -0.89862714378E+01 -0.76800494579E+01  0.27828443629E+02  0.51100000000E-03 0. -1.
        -11    1    3    3    0    0 -0.12200058425E+02  0.11842781872E+02 -0.82047247802E+01  0.18878835160E+02  0.51100000000E-03 0.  1.
         12    1    3    3    0    0 -0.24690382228E+02  0.59794765151E+01  0.42325820664E+01  0.25754297989E+02  0.00000000000E+00 0. -1.
</event>
<event>
 7    1  0.1351543E-013  0.7246160E+02  0.7816164E-02  0.1226708E+00
        -11   -1    0    0    0    0  0.00000000000E+00  0.00000000000E+00  0.45593999997E+02  0.45594000000E+02  0.51100000000E-03 0. -1.
         11   -1    0    0    0    0 -0.00000000000E+00 -0.00000000000E+00 -0.45593999997E+02  0.45594000000E+02  0.51100000000E-03 0.  1.
    9900012    2    1    2    0    0  0.64644485305E+01  0.86404364501E+01  0.15304633564E+02  0.72461600309E+02  0.70000039100E+02 0.  0.
         12    1    1    2    0    0 -0.64644485305E+01 -0.86404364501E+01 -0.15304633564E+02  0.18726399691E+02  0.00000000000E+00 0. -1.
         11    1    3    3    0    0 -0.16236715313E+02  0.20009989602E+02  0.44093206918E+01  0.26143311138E+02  0.51100000000E-03 0.  1.
        -11    1    3    3    0    0  0.30120769650E+02 -0.17661414675E+02  0.60027915679E+01  0.35429081833E+02  0.51100000000E-03 0. -1.
         12    1    3    3    0    0 -0.74196058062E+01  0.62918615237E+01  0.48925213044E+01  0.10889207339E+02  0.00000000000E+00 0. -1.
</event>
<event>
 7    1  0.1351543E-013  0.7246150E+02  0.7816164E-02  0.1226708E+00
        -11   -1    0    0    0    0  0.00000000000E+00  0.00000000000E+00  0.45593999997E+02  0.45594000000E+02  0.51100000000E-03 0.  1.
         11   -1    0    0    0    0 -0.00000000000E+00 -0.00000000000E+00 -0.45593999997E+02  0.45594000000E+02  0.51100000000E-03 0. -1.
    9900012    2    1    2    0    0 -0.93205132988E+01 -0.40777398483E+01  0.15722022016E+02  0.72461497212E+02  0.69999904796E+02 0.  0.
         12    1    1    2    0    0  0.93205132988E+01  0.40777398483E+01 -0.15722022016E+02  0.18726502788E+02  0.00000000000E+00 0. -1.
         11    1    3    3    0    0  0.47028581195E+01  0.24092261906E+02 -0.87967203104E+00  0.24562731554E+02  0.51100000000E-03 0. -1.
        -11    1    3    3    0    0 -0.58884259587E+01 -0.11270532052E+01  0.18644738286E+02  0.19584945116E+02  0.51100000000E-03 0.  1.
         12    1    3    3    0    0 -0.81349454596E+01 -0.27042948549E+02 -0.20430442390E+01  0.28313820541E+02  0.00000000000E+00 0. -1.
</event>
<event>
 7    1  0.1351543E-013  0.7246159E+02  0.7816164E-02  0.1226708E+00
        -11   -1    0    0    0    0  0.00000000000E+00  0.00000000000E+00  0.45593999997E+02  0.45594000000E+02  0.51100000000E-03 0.  1.
         11   -1    0    0    0    0 -0.00000000000E+00 -0.00000000000E+00 -0.45593999997E+02  0.45594000000E+02  0.51100000000E-03 0. -1.
    9900012    2    1    2    0    0  0.13558332758E+02 -0.11182615976E+02 -0.64652365543E+01  0.72461586277E+02  0.70000020820E+02 0.  0.
         12    1    1    2    0    0 -0.13558332758E+02  0.11182615976E+02  0.64652365543E+01  0.18726413723E+02  0.00000000000E+00 0. -1.
         11    1    3    3    0    0  0.17230479062E+02  0.52012025537E+01 -0.11528928375E+02  0.21374239319E+02  0.51100000000E-03 0. -1.
        -11    1    3    3    0    0  0.56125895659E+01 -0.26596214509E+01  0.24656838278E+02  0.25427041158E+02  0.51100000000E-03 0.  1.
        -12    1    3    3    0    0 -0.92847358704E+01 -0.13724197079E+02 -0.19593146457E+02  0.25660305800E+02  0.00000000000E+00 0.  1.
</event>
<event>
 7    1  0.1351543E-013  0.7246157E+02  0.7816164E-02  0.1226708E+00
        -11   -1    0    0    0    0  0.00000000000E+00  0.00000000000E+00  0.45593999997E+02  0.45594000000E+02  0.51100000000E-03 0.  1.
         11   -1    0    0    0    0 -0.00000000000E+00 -0.00000000000E+00 -0.45593999997E+02  0.45594000000E+02  0.51100000000E-03 0. -1.
    9900012    2    1    2    0    0  0.16439008948E+02  0.89669267151E+01 -0.17974575693E+00  0.72461572192E+02  0.70000002472E+02 0.  0.
         12    1    1    2    0    0 -0.16439008948E+02 -0.89669267151E+01  0.17974575693E+00  0.18726427808E+02  0.00000000000E+00 0. -1.
         11    1    3    3    0    0  0.17987879848E+02 -0.72222791683E+00  0.14163810229E+02  0.22906308194E+02  0.51100000000E-03 0. -1.
        -11    1    3    3    0    0 -0.18650149423E+02 -0.10154136118E+02 -0.61358313909E+01  0.22103913249E+02  0.51100000000E-03 0.  1.
        -12    1    3    3    0    0  0.17101278523E+02  0.19843290750E+02 -0.82077245955E+01  0.27451350749E+02  0.00000000000E+00 0.  1.
</event>
<event>
 7    1  0.1351543E-013  0.7246157E+02  0.7816164E-02  0.1226708E+00
        -11   -1    0    0    0    0  0.00000000000E+00  0.00000000000E+00  0.45593999997E+02  0.45594000000E+02  0.51100000000E-03 0.  1.
         11   -1    0    0    0    0 -0.00000000000E+00 -0.00000000000E+00 -0.45593999997E+02  0.45594000000E+02  0.51100000000E-03 0. -1.
    9900012    2    1    2    0    0 -0.12059441601E+02 -0.14008595460E+02 -0.30014119780E+01  0.72461565412E+02  0.69999993640E+02 0.  0.
         12    1    1    2    0    0  0.12059441601E+02  0.14008595460E+02  0.30014119780E+01  0.18726434588E+02  0.00000000000E+00 0. -1.
         11    1    3    3    0    0  0.56815624703E+01  0.35895311495E+00 -0.19091247266E+02  0.19921965813E+02  0.51100000000E-03 0. -1.
        -11    1    3    3    0    0 -0.20901074907E+02  0.85685536170E+01 -0.26620360960E+01  0.22745581545E+02  0.51100000000E-03 0.  1.
        -12    1    3    3    0    0  0.31600708355E+01 -0.22936102192E+02  0.18751871384E+02  0.29794018055E+02  0.00000000000E+00 0.  1.
</event>
<event>
 7    1  0.1351543E-013  0.7246159E+02  0.7816164E-02  0.1226708E+00
        -11   -1    0    0    0    0  0.00000000000E+00  0.00000000000E+00  0.45593999997E+02  0.45594000000E+02  0.51100000000E-03 0.  1.
         11   -1    0    0    0    0 -0.00000000000E+00 -0.00000000000E+00 -0.45593999997E+02  0.45594000000E+02  0.51100000000E-03 0. -1.
    9900012    2    1    2    0    0 -0.97666286155E+01 -0.10056176668E+02  0.12416311328E+02  0.72461587886E+02  0.70000022916E+02 0.  0.
         12    1    1    2    0    0  0.97666286155E+01  0.10056176668E+02 -0.12416311328E+02  0.18726412114E+02  0.00000000000E+00 0. -1.
         11    1    3    3    0    0 -0.20459501454E+02  0.12396859533E+02 -0.84401141876E+01  0.25367476299E+02  0.51100000000E-03 0. -1.
        -11    1    3    3    0    0  0.41348052778E+00 -0.29390267953E+02  0.11515103746E+02  0.31568282041E+02  0.51100000000E-03 0.  1.
         12    1    3    3    0    0  0.10279392311E+02  0.69372317517E+01  0.93413217699E+01  0.15525829545E+02  0.00000000000E+00 0. -1.
</event>
<event>
 7    1  0.1351543E-013  0.7246158E+02  0.7816164E-02  0.1226708E+00
        -11   -1    0    0    0    0  0.00000000000E+00  0.00000000000E+00  0.45593999997E+02  0.45594000000E+02  0.51100000000E-03 0.  1.
         11   -1    0    0    0    0 -0.00000000000E+00 -0.00000000000E+00 -0.45593999997E+02  0.45594000000E+02  0.51100000000E-03 0. -1.
    9900012    2    1    2    0    0  0.17787687029E+02  0.28385882930E+01  0.51205061516E+01  0.72461575446E+02  0.70000006711E+02 0.  0.
         12    1    1    2    0    0 -0.17787687029E+02 -0.28385882930E+01 -0.51205061516E+01  0.18726424554E+02  0.00000000000E+00 0. -1.
         11    1    3    3    0    0  0.15417018795E+02  0.13516840721E+02 -0.16562339326E+02  0.26357172379E+02  0.51100000000E-03 0. -1.
        -11    1    3    3    0    0  0.74464109379E+01 -0.23814595162E+02  0.73522428854E+01  0.26012294291E+02  0.51100000000E-03 0.  1.
        -12    1    3    3    0    0 -0.50757427038E+01  0.13136342733E+02  0.14330602592E+02  0.20092108776E+02  0.00000000000E+00 0.  1.
</event>
<event>
 7    1  0.1351543E-013  0.7246160E+02  0.7816164E-02  0.1226708E+00
        -11   -1    0    0    0    0  0.00000000000E+00  0.00000000000E+00  0.45593999997E+02  0.45594000000E+02  0.51100000000E-03 0. -1.
         11   -1    0    0    0    0 -0.00000000000E+00 -0.00000000000E+00 -0.45593999997E+02  0.45594000000E+02  0.51100000000E-03 0.  1.
    9900012    2    1    2    0    0 -0.84477442949E+01  0.14239343633E+02 -0.87495564869E+01  0.72461600733E+02  0.70000039653E+02 0.  0.
         12    1    1    2    0    0  0.84477442949E+01 -0.14239343633E+02  0.87495564869E+01  0.18726399267E+02  0.00000000000E+00 0. -1.
         11    1    3    3    0    0 -0.36903667162E+01  0.92323823125E+01 -0.24979583153E+02  0.26885595854E+02  0.51100000000E-03 0.  1.
        -11    1    3    3    0    0  0.57399142521E+01 -0.16579683674E+02  0.11860379506E+02  0.21177845231E+02  0.51100000000E-03 0. -1.
         12    1    3    3    0    0 -0.10497291831E+02  0.21586644995E+02  0.43696471599E+01  0.24398159648E+02  0.00000000000E+00 0. -1.
</event>
<event>
 7    1  0.1351543E-013  0.7246155E+02  0.7816164E-02  0.1226708E+00
        -11   -1    0    0    0    0  0.00000000000E+00  0.00000000000E+00  0.45593999997E+02  0.45594000000E+02  0.51100000000E-03 0.  1.
         11   -1    0    0    0    0 -0.00000000000E+00 -0.00000000000E+00 -0.45593999997E+02  0.45594000000E+02  0.51100000000E-03 0. -1.
    9900012    2    1    2    0    0 -0.12615189864E+02 -0.10887526635E+02  0.85439172184E+01  0.72461554182E+02  0.69999979011E+02 0.  0.
         12    1    1    2    0    0  0.12615189864E+02  0.10887526635E+02 -0.85439172184E+01  0.18726445818E+02  0.00000000000E+00 0. -1.
         11    1    3    3    0    0  0.59708675202E+00 -0.14021478889E+02 -0.19622306743E+02  0.24124537405E+02  0.51100000000E-03 0. -1.
        -11    1    3    3    0    0 -0.11708983644E+02 -0.14315330121E+02  0.24062893420E+02  0.30348835472E+02  0.51100000000E-03 0.  1.
        -12    1    3    3    0    0 -0.15032929717E+01  0.17449282374E+02  0.41033305411E+01  0.17988181305E+02  0.00000000000E+00 0.  1.
</event>
<event>
 7    1  0.1351543E-013  0.7246158E+02  0.7816164E-02  0.1226708E+00
        -11   -1    0    0    0    0  0.00000000000E+00  0.00000000000E+00  0.45593999997E+02  0.45594000000E+02  0.51100000000E-03 0.  1.
         11   -1    0    0    0    0 -0.00000000000E+00 -0.00000000000E+00 -0.45593999997E+02  0.45594000000E+02  0.51100000000E-03 0. -1.
    9900012    2    1    2    0    0 -0.62763711410E+01 -0.12975299020E+02  0.11955239142E+02  0.72461575827E+02  0.70000007208E+02 0.  0.
         12    1    1    2    0    0  0.62763711410E+01  0.12975299020E+02 -0.11955239142E+02  0.18726424173E+02  0.00000000000E+00 0. -1.
         11    1    3    3    0    0  0.20169664168E+02  0.17742266234E+02 -0.44641980772E+01  0.27231093047E+02  0.51100000000E-03 0. -1.
        -11    1    3    3    0    0 -0.50668250646E+01 -0.56035848604E+01  0.83812488251E+01  0.11283537196E+02  0.51100000000E-03 0.  1.
         12    1    3    3    0    0 -0.21379210245E+02 -0.25113980393E+02  0.80381883946E+01  0.33946945585E+02  0.00000000000E+00 0. -1.
</event>
<event>
 7    1  0.1351543E-013  0.7246159E+02  0.7816164E-02  0.1226708E+00
        -11   -1    0    0    0    0  0.00000000000E+00  0.00000000000E+00  0.45593999997E+02  0.45594000000E+02  0.51100000000E-03 0.  1.
         11   -1    0    0    0    0 -0.00000000000E+00 -0.00000000000E+00 -0.45593999997E+02  0.45594000000E+02  0.51100000000E-03 0. -1.
    9900012    2    1    2    0    0  0.11976460489E+02 -0.50037900452E+01  0.13498336859E+02  0.72461585004E+02  0.70000019161E+02 0.  0.
         12    1    1    2    0    0 -0.11976460489E+02  0.50037900452E+01 -0.13498336859E+02  0.18726414996E+02  0.00000000000E+00 0. -1.
         11    1    3    3    0    0  0.21385443008E+02  0.47817580748E+01 -0.99558929501E+01  0.24069112730E+02  0.51100000000E-03 0. -1.
        -11    1    3    3    0    0 -0.10741918349E+01 -0.24923657482E+02  0.15489507801E+02  0.29364390723E+02  0.51100000000E-03 0.  1.
        -12    1    3    3    0    0 -0.83347906838E+01  0.15138109362E+02  0.79647220081E+01  0.19028081550E+02  0.00000000000E+00 0.  1.
</event>
<event>
 7    1  0.1351543E-013  0.7246155E+02  0.7816164E-02  0.1226708E+00
        -11   -1    0    0    0    0  0.00000000000E+00  0.00000000000E+00  0.45593999997E+02  0.45594000000E+02  0.51100000000E-03 0.  1.
         11   -1    0    0    0    0 -0.00000000000E+00 -0.00000000000E+00 -0.45593999997E+02  0.45594000000E+02  0.51100000000E-03 0. -1.
    9900012    2    1    2    0    0  0.70824100780E+01  0.51576445858E+01  0.16550472371E+02  0.72461549031E+02  0.69999972301E+02 0.  0.
         12    1    1    2    0    0 -0.70824100780E+01 -0.51576445858E+01 -0.16550472371E+02  0.18726450969E+02  0.00000000000E+00 0. -1.
         11    1    3    3    0    0 -0.44379057083E+00  0.19259188426E+02  0.11551181090E+01  0.19298901187E+02  0.51100000000E-03 0. -1.
        -11    1    3    3    0    0  0.24320152110E+02 -0.13308311900E+02 -0.34160979182E+01  0.27932967789E+02  0.51100000000E-03 0.  1.
        -12    1    3    3    0    0 -0.16793951461E+02 -0.79323193986E+00  0.18811452180E+02  0.25229680055E+02  0.00000000000E+00 0.  1.
</event>
